
     Program PWSCF v.6.6 starts on 20Jun2022 at 13:34:57 

     This program is part of the open-source Quantum ESPRESSO suite
     for quantum simulation of materials; please cite
         "P. Giannozzi et al., J. Phys.:Condens. Matter 21 395502 (2009);
         "P. Giannozzi et al., J. Phys.:Condens. Matter 29 465901 (2017);
          URL http://www.quantum-espresso.org", 
     in publications or presentations arising from this work. More details at
     http://www.quantum-espresso.org/quote

     Parallel version (MPI), running on    37 processors

     MPI processes distributed on     1 nodes
     R & G space division:  proc/nbgrp/npool/nimage =      37
     Fft bands division:     nmany     =       1
     Reading input from Au-750.in
Warning: card &CELL ignored
Warning: card / ignored

     Current dimensions of program PWSCF are:
     Max number of different atomic species (ntypx) = 10
     Max number of k-points (npk) =  40000
     Max angular momentum in pseudopotentials (lmaxx) =  3
     Presently stress not available with electric field and gates

     Message from routine cell_base_init:
     DEPRECATED: use true lattice parameter, not A to a.u. conversion factor

     **************************************************************************
     Initializing libbeef V0.1.2 with the BEEF-vdW functional.
     Citation: Wellendorff et al., PRB 85, 235149 (2012).
     **************************************************************************


     IMPORTANT: XC functional enforced from input :
     Exchange-correlation= BEEF-VDW
                           (   1   4  43  14   2   0   0)
     Any further DFT definition will be discarded
     Please, verify this is what you really want


     Subspace diagonalization in iterative solution of the eigenvalue problem:
     a serial algorithm will be used

     Found symmetry operation: I + ( -0.5000  0.0000  0.0000)
     This is a supercell, fractional translations are disabled

     Parallelization info
     --------------------
     sticks:   dense  smooth     PW     G-vecs:    dense   smooth      PW
     Min         129      51     15                30382     7673    1167
     Max         132      52     16                30387     7704    1179
     Sum        4807    1921    559              1124229   284575   43445



     bravais-lattice index     =            0
     lattice parameter (alat)  =       1.8897  a.u.
     unit-cell volume          =    5144.9552 (a.u.)^3
     number of atoms/cell      =           12
     number of atomic types    =            1
     number of electrons       =       132.00
     number of Kohn-Sham states=           79
     kinetic-energy cutoff     =      55.1240  Ry
     charge density cutoff     =     551.2396  Ry
     convergence threshold     =      1.0E-05
     mixing beta               =       0.1000
     number of iterations used =           10  plain     mixing
     Exchange-correlation= BEEF-VDW
                           (   1   4  43  14   2   0   0)

     celldm(1)=   1.889726  celldm(2)=   0.000000  celldm(3)=   0.000000
     celldm(4)=   0.000000  celldm(5)=   0.000000  celldm(6)=   0.000000

     crystal axes: (cart. coord. in units of alat)
               a(1) = (   5.950946   0.000000   0.000000 )  
               a(2) = (   2.975473   5.153671   0.000000 )  
               a(3) = (   0.000000   0.000000  24.858927 )  

     reciprocal axes: (cart. coord. in units 2 pi/alat)
               b(1) = (  0.168041 -0.097018  0.000000 )  
               b(2) = (  0.000000  0.194036  0.000000 )  
               b(3) = (  0.000000  0.000000  0.040227 )  


     PseudoPot. # 1 for Au read from file:
     ../pseudo/Au.pbe-n-rrkjus_psl.1.0.0.UPF
     MD5 check sum: d7e77ba19504afed2c9b41c931dde4f0
     Pseudo is Ultrasoft + core correction, Zval = 11.0
     Generated using "atomic" code by A. Dal Corso v.6.3
     Using radial grid of 1279 points,  6 beta functions with: 
                l(1) =   0
                l(2) =   0
                l(3) =   1
                l(4) =   1
                l(5) =   2
                l(6) =   2
     Q(r) pseudized with 0 coefficients 


     atomic species   valence    mass     pseudopotential
        Au            11.00   196.96657     Au( 1.00)

     No symmetry found



   Cartesian axes

     site n.     atom                  positions (alat units)
         1           Au  tau(   1) = (   1.4877368   0.8589453  10.0000006  )
         2           Au  tau(   2) = (   4.4632098   0.8589453  10.0000006  )
         3           Au  tau(   3) = (   2.9754733   3.4357808  10.0000006  )
         4           Au  tau(   4) = (   5.9509463   3.4357808  10.0000006  )
         5           Au  tau(   5) = (   5.9509457   1.7178902  12.4294635  )
         6           Au  tau(   6) = (   2.9754727   1.7178902  12.4294635  )
         7           Au  tau(   7) = (   7.4386822   4.2947257  12.4294635  )
         8           Au  tau(   8) = (   4.4632092   4.2947257  12.4294635  )
         9           Au  tau(   9) = (  -0.0000015  -0.0000015  14.8747765  )
        10           Au  tau(  10) = (   2.9754721  -0.0000005  14.8747715  )
        11           Au  tau(  11) = (   1.4877359   2.5768345  14.8747690  )
        12           Au  tau(  12) = (   4.4632098   2.5768340  14.8747790  )

     number of k points=    74  Fermi-Dirac smearing, width (Ry)=  0.0100
                       cart. coord. in units 2pi/alat
        k(    1) = (   0.0000000   0.0000000   0.0000000), wk =   0.0138889
        k(    2) = (   0.0000000   0.0161697   0.0000000), wk =   0.0277778
        k(    3) = (   0.0000000   0.0323394   0.0000000), wk =   0.0277778
        k(    4) = (   0.0000000   0.0485091   0.0000000), wk =   0.0277778
        k(    5) = (   0.0000000   0.0646788   0.0000000), wk =   0.0277778
        k(    6) = (   0.0000000   0.0808485   0.0000000), wk =   0.0277778
        k(    7) = (   0.0000000  -0.0970182   0.0000000), wk =   0.0138889
        k(    8) = (   0.0140034  -0.0080849   0.0000000), wk =   0.0277778
        k(    9) = (   0.0140034   0.0080849   0.0000000), wk =   0.0277778
        k(   10) = (   0.0140034   0.0242546   0.0000000), wk =   0.0277778
        k(   11) = (   0.0140034   0.0404243   0.0000000), wk =   0.0277778
        k(   12) = (   0.0140034   0.0565940   0.0000000), wk =   0.0277778
        k(   13) = (   0.0140034   0.0727637   0.0000000), wk =   0.0277778
        k(   14) = (   0.0140034  -0.1051031   0.0000000), wk =   0.0277778
        k(   15) = (   0.0140034  -0.0889334   0.0000000), wk =   0.0277778
        k(   16) = (   0.0140034  -0.0727637   0.0000000), wk =   0.0277778
        k(   17) = (   0.0140034  -0.0565940   0.0000000), wk =   0.0277778
        k(   18) = (   0.0140034  -0.0404243   0.0000000), wk =   0.0277778
        k(   19) = (   0.0140034  -0.0242546   0.0000000), wk =   0.0277778
        k(   20) = (   0.0280068  -0.0161697   0.0000000), wk =   0.0277778
        k(   21) = (   0.0280068   0.0000000   0.0000000), wk =   0.0277778
        k(   22) = (   0.0280068   0.0161697   0.0000000), wk =   0.0277778
        k(   23) = (   0.0280068   0.0323394   0.0000000), wk =   0.0277778
        k(   24) = (   0.0280068   0.0485091   0.0000000), wk =   0.0277778
        k(   25) = (   0.0280068   0.0646788   0.0000000), wk =   0.0277778
        k(   26) = (   0.0280068  -0.1131879   0.0000000), wk =   0.0277778
        k(   27) = (   0.0280068  -0.0970182   0.0000000), wk =   0.0277778
        k(   28) = (   0.0280068  -0.0808485   0.0000000), wk =   0.0277778
        k(   29) = (   0.0280068  -0.0646788   0.0000000), wk =   0.0277778
        k(   30) = (   0.0280068  -0.0485091   0.0000000), wk =   0.0277778
        k(   31) = (   0.0280068  -0.0323394   0.0000000), wk =   0.0277778
        k(   32) = (   0.0420101  -0.0242546   0.0000000), wk =   0.0277778
        k(   33) = (   0.0420101  -0.0080849   0.0000000), wk =   0.0277778
        k(   34) = (   0.0420101   0.0080849   0.0000000), wk =   0.0277778
        k(   35) = (   0.0420101   0.0242546   0.0000000), wk =   0.0277778
        k(   36) = (   0.0420101   0.0404243   0.0000000), wk =   0.0277778
        k(   37) = (   0.0420101   0.0565940   0.0000000), wk =   0.0277778
        k(   38) = (   0.0420101  -0.1212728   0.0000000), wk =   0.0277778
        k(   39) = (   0.0420101  -0.1051031   0.0000000), wk =   0.0277778
        k(   40) = (   0.0420101  -0.0889334   0.0000000), wk =   0.0277778
        k(   41) = (   0.0420101  -0.0727637   0.0000000), wk =   0.0277778
        k(   42) = (   0.0420101  -0.0565940   0.0000000), wk =   0.0277778
        k(   43) = (   0.0420101  -0.0404243   0.0000000), wk =   0.0277778
        k(   44) = (   0.0560135  -0.0323394   0.0000000), wk =   0.0277778
        k(   45) = (   0.0560135  -0.0161697   0.0000000), wk =   0.0277778
        k(   46) = (   0.0560135   0.0000000   0.0000000), wk =   0.0277778
        k(   47) = (   0.0560135   0.0161697   0.0000000), wk =   0.0277778
        k(   48) = (   0.0560135   0.0323394   0.0000000), wk =   0.0277778
        k(   49) = (   0.0560135   0.0485091   0.0000000), wk =   0.0277778
        k(   50) = (   0.0560135  -0.1293576   0.0000000), wk =   0.0277778
        k(   51) = (   0.0560135  -0.1131879   0.0000000), wk =   0.0277778
        k(   52) = (   0.0560135  -0.0970182   0.0000000), wk =   0.0277778
        k(   53) = (   0.0560135  -0.0808485   0.0000000), wk =   0.0277778
        k(   54) = (   0.0560135  -0.0646788   0.0000000), wk =   0.0277778
        k(   55) = (   0.0560135  -0.0485091   0.0000000), wk =   0.0277778
        k(   56) = (   0.0700169  -0.0404243   0.0000000), wk =   0.0277778
        k(   57) = (   0.0700169  -0.0242546   0.0000000), wk =   0.0277778
        k(   58) = (   0.0700169  -0.0080849   0.0000000), wk =   0.0277778
        k(   59) = (   0.0700169   0.0080849   0.0000000), wk =   0.0277778
        k(   60) = (   0.0700169   0.0242546   0.0000000), wk =   0.0277778
        k(   61) = (   0.0700169   0.0404243   0.0000000), wk =   0.0277778
        k(   62) = (   0.0700169  -0.1374425   0.0000000), wk =   0.0277778
        k(   63) = (   0.0700169  -0.1212728   0.0000000), wk =   0.0277778
        k(   64) = (   0.0700169  -0.1051031   0.0000000), wk =   0.0277778
        k(   65) = (   0.0700169  -0.0889334   0.0000000), wk =   0.0277778
        k(   66) = (   0.0700169  -0.0727637   0.0000000), wk =   0.0277778
        k(   67) = (   0.0700169  -0.0565940   0.0000000), wk =   0.0277778
        k(   68) = (  -0.0840203   0.0485091   0.0000000), wk =   0.0138889
        k(   69) = (  -0.0840203   0.0646788   0.0000000), wk =   0.0277778
        k(   70) = (  -0.0840203   0.0808485   0.0000000), wk =   0.0277778
        k(   71) = (  -0.0840203   0.0970182   0.0000000), wk =   0.0277778
        k(   72) = (  -0.0840203   0.1131879   0.0000000), wk =   0.0277778
        k(   73) = (  -0.0840203   0.1293576   0.0000000), wk =   0.0277778
        k(   74) = (  -0.0840203  -0.0485091   0.0000000), wk =   0.0138889

     Dense  grid:  1124229 G-vectors     FFT dimensions: (  90,  90, 360)

     Smooth grid:   284575 G-vectors     FFT dimensions: (  54,  54, 225)

     Estimated max dynamical RAM per process >     214.09 MB

     Estimated total dynamical RAM >       7.74 GB

     Initial potential from superposition of free atoms

     starting charge  131.99868, renormalised to  132.00000

     negative rho (up, down):  1.349E-03 0.000E+00


     %%%%%%%%%%%%%%%%%%%%%%%%%%%%%%%%%%%%%%%%%%%%%%%%%%%%%%%%%%%%%%%%%%%%%%%%
     %                                                                      %
     % You are using vdW-DF, which was implemented by the Thonhauser group. %
     % Please cite the following two papers that made this development      %
     % possible and the two reviews that describe the various versions:     %
     %                                                                      %
     %   T. Thonhauser et al., PRL 115, 136402 (2015).                      %
     %   T. Thonhauser et al., PRB 76, 125112 (2007).                       %
     %   K. Berland et al., Rep. Prog. Phys. 78, 066501 (2015).             %
     %   D.C. Langreth et al., J. Phys.: Condens. Matter 21, 084203 (2009). %
     %                                                                      %
     %                                                                      %
     % If you are calculating the stress with vdW-DF, please also cite:     %
     %                                                                      %
     %   R. Sabatini et al., J. Phys.: Condens. Matter 24, 424209 (2012).   %
     %                                                                      %
     %%%%%%%%%%%%%%%%%%%%%%%%%%%%%%%%%%%%%%%%%%%%%%%%%%%%%%%%%%%%%%%%%%%%%%%%



     Adding external electric field

     Computed dipole along edir(3) : 
        Dipole               -0.0000 Ry au,         -0.0000 Debye
        Dipole field         -0.0000 Ry au, 

        Potential amp.        0.0000 Ry
        Total length         45.8021 bohr

     Starting wfcs are  108 randomized atomic wfcs

     total cpu time spent up to now is      479.0 secs

     Self-consistent Calculation

     iteration #  1     ecut=    55.12 Ry     beta= 0.10
     Davidson diagonalization with overlap
     ethr =  1.00E-02,  avg # of iterations =  4.0

     Threshold (ethr) on eigenvalues was too large:
     Diagonalizing with lowered threshold

     Davidson diagonalization with overlap
     ethr =  1.27E-04,  avg # of iterations =  6.5

     negative rho (up, down):  1.326E-03 0.000E+00

     Adding external electric field

     Computed dipole along edir(3) : 
        Dipole               -0.0065 Ry au,         -0.0166 Debye
        Dipole field         -0.0000 Ry au, 

        Potential amp.        0.0015 Ry
        Total length         45.8021 bohr


     total cpu time spent up to now is     3084.9 secs

     total energy              =   -1037.81635377 Ry
     estimated scf accuracy    <       0.18455649 Ry

     iteration #  2     ecut=    55.12 Ry     beta= 0.10
     Davidson diagonalization with overlap
     ethr =  1.40E-04,  avg # of iterations =  1.5

     negative rho (up, down):  1.308E-03 0.000E+00

     Adding external electric field

     Computed dipole along edir(3) : 
        Dipole                0.0176 Ry au,          0.0447 Debye
        Dipole field          0.0000 Ry au, 

        Potential amp.       -0.0039 Ry
        Total length         45.8021 bohr


     total cpu time spent up to now is     3298.3 secs

     total energy              =   -1037.79331555 Ry
     estimated scf accuracy    <       0.11753259 Ry

     iteration #  3     ecut=    55.12 Ry     beta= 0.10
     Davidson diagonalization with overlap
     ethr =  8.90E-05,  avg # of iterations =  2.2

     negative rho (up, down):  1.315E-03 0.000E+00

     Adding external electric field

     Computed dipole along edir(3) : 
        Dipole               -0.0578 Ry au,         -0.1470 Debye
        Dipole field         -0.0001 Ry au, 

        Potential amp.        0.0129 Ry
        Total length         45.8021 bohr


     total cpu time spent up to now is     3441.4 secs

     total energy              =   -1037.79263875 Ry
     estimated scf accuracy    <       0.03577910 Ry

     iteration #  4     ecut=    55.12 Ry     beta= 0.10
     Davidson diagonalization with overlap
     ethr =  2.71E-05,  avg # of iterations =  5.6

     negative rho (up, down):  1.316E-03 0.000E+00

     Adding external electric field

     Computed dipole along edir(3) : 
        Dipole               -0.0051 Ry au,         -0.0129 Debye
        Dipole field         -0.0000 Ry au, 

        Potential amp.        0.0011 Ry
        Total length         45.8021 bohr


     total cpu time spent up to now is     3665.6 secs

     total energy              =   -1037.80349793 Ry
     estimated scf accuracy    <       0.02001871 Ry

     iteration #  5     ecut=    55.12 Ry     beta= 0.10
     Davidson diagonalization with overlap
     ethr =  1.52E-05,  avg # of iterations =  2.7

     negative rho (up, down):  1.303E-03 0.000E+00

     Adding external electric field

     Computed dipole along edir(3) : 
        Dipole               -0.0091 Ry au,         -0.0232 Debye
        Dipole field         -0.0000 Ry au, 

        Potential amp.        0.0020 Ry
        Total length         45.8021 bohr


     total cpu time spent up to now is     4185.2 secs

     total energy              =   -1037.81130720 Ry
     estimated scf accuracy    <       0.00597315 Ry

     iteration #  6     ecut=    55.12 Ry     beta= 0.10
     Davidson diagonalization with overlap
     c_bands:  1 eigenvalues not converged
     c_bands:  1 eigenvalues not converged
     c_bands:  1 eigenvalues not converged
     c_bands:  1 eigenvalues not converged
     c_bands:  1 eigenvalues not converged
     c_bands:  1 eigenvalues not converged
     c_bands:  1 eigenvalues not converged
     c_bands:  1 eigenvalues not converged
     c_bands:  1 eigenvalues not converged
     c_bands:  1 eigenvalues not converged
     c_bands:  1 eigenvalues not converged
     c_bands:  1 eigenvalues not converged
     c_bands:  1 eigenvalues not converged
     ethr =  4.53E-06,  avg # of iterations = 10.0

     negative rho (up, down):  1.342E-03 0.000E+00

     Adding external electric field

     Computed dipole along edir(3) : 
        Dipole               -0.0020 Ry au,         -0.0051 Debye
        Dipole field         -0.0000 Ry au, 

        Potential amp.        0.0004 Ry
        Total length         45.8021 bohr


     total cpu time spent up to now is     6039.3 secs

     total energy              =   -1037.80383256 Ry
     estimated scf accuracy    <       0.03363626 Ry

     iteration #  7     ecut=    55.12 Ry     beta= 0.10
     Davidson diagonalization with overlap
     c_bands:  1 eigenvalues not converged
     c_bands:  1 eigenvalues not converged
     c_bands:  1 eigenvalues not converged
     c_bands:  1 eigenvalues not converged
     ethr =  4.53E-06,  avg # of iterations =  5.7

     negative rho (up, down):  1.336E-03 0.000E+00

     Adding external electric field

     Computed dipole along edir(3) : 
        Dipole               -0.0064 Ry au,         -0.0161 Debye
        Dipole field         -0.0000 Ry au, 

        Potential amp.        0.0014 Ry
        Total length         45.8021 bohr


     total cpu time spent up to now is     7263.1 secs

     total energy              =   -1037.80537767 Ry
     estimated scf accuracy    <       0.00555308 Ry

     iteration #  8     ecut=    55.12 Ry     beta= 0.10
     Davidson diagonalization with overlap
     ethr =  4.21E-06,  avg # of iterations =  1.3

     negative rho (up, down):  1.338E-03 0.000E+00

     Adding external electric field

     Computed dipole along edir(3) : 
        Dipole               -0.0025 Ry au,         -0.0064 Debye
        Dipole field         -0.0000 Ry au, 

        Potential amp.        0.0006 Ry
        Total length         45.8021 bohr


     total cpu time spent up to now is     8083.4 secs

     total energy              =   -1037.80435465 Ry
     estimated scf accuracy    <       0.00310775 Ry

     iteration #  9     ecut=    55.12 Ry     beta= 0.10
     Davidson diagonalization with overlap
     c_bands:  1 eigenvalues not converged
     ethr =  2.35E-06,  avg # of iterations =  2.8

     negative rho (up, down):  1.335E-03 0.000E+00

     Adding external electric field

     Computed dipole along edir(3) : 
        Dipole               -0.0025 Ry au,         -0.0064 Debye
        Dipole field         -0.0000 Ry au, 

        Potential amp.        0.0006 Ry
        Total length         45.8021 bohr


     total cpu time spent up to now is     9128.5 secs

     total energy              =   -1037.80495150 Ry
     estimated scf accuracy    <       0.00026755 Ry

     iteration # 10     ecut=    55.12 Ry     beta= 0.10
     Davidson diagonalization with overlap
     c_bands:  1 eigenvalues not converged
     ethr =  2.03E-07,  avg # of iterations =  7.3

     negative rho (up, down):  1.326E-03 0.000E+00

     Adding external electric field

     Computed dipole along edir(3) : 
        Dipole               -0.0032 Ry au,         -0.0081 Debye
        Dipole field         -0.0000 Ry au, 

        Potential amp.        0.0007 Ry
        Total length         45.8021 bohr


     total cpu time spent up to now is     9702.4 secs

     total energy              =   -1037.80529474 Ry
     estimated scf accuracy    <       0.00008070 Ry

     iteration # 11     ecut=    55.12 Ry     beta= 0.10
     Davidson diagonalization with overlap
     ethr =  6.11E-08,  avg # of iterations =  3.9

     negative rho (up, down):  1.320E-03 0.000E+00

     Adding external electric field

     Computed dipole along edir(3) : 
        Dipole               -0.0022 Ry au,         -0.0055 Debye
        Dipole field         -0.0000 Ry au, 

        Potential amp.        0.0005 Ry
        Total length         45.8021 bohr


     total cpu time spent up to now is     9883.3 secs

     total energy              =   -1037.80530981 Ry
     estimated scf accuracy    <       0.00002748 Ry

     iteration # 12     ecut=    55.12 Ry     beta= 0.10
     Davidson diagonalization with overlap
     ethr =  2.08E-08,  avg # of iterations =  5.0

     negative rho (up, down):  1.316E-03 0.000E+00

     Adding external electric field

     Computed dipole along edir(3) : 
        Dipole               -0.0021 Ry au,         -0.0054 Debye
        Dipole field         -0.0000 Ry au, 

        Potential amp.        0.0005 Ry
        Total length         45.8021 bohr


     total cpu time spent up to now is    10142.2 secs

     total energy              =   -1037.80532494 Ry
     estimated scf accuracy    <       0.00004819 Ry

     iteration # 13     ecut=    55.12 Ry     beta= 0.10
     Davidson diagonalization with overlap
     ethr =  2.08E-08,  avg # of iterations =  1.1

     negative rho (up, down):  1.313E-03 0.000E+00

     Adding external electric field

     Computed dipole along edir(3) : 
        Dipole               -0.0021 Ry au,         -0.0053 Debye
        Dipole field         -0.0000 Ry au, 

        Potential amp.        0.0005 Ry
        Total length         45.8021 bohr


     total cpu time spent up to now is    10268.4 secs

     total energy              =   -1037.80530961 Ry
     estimated scf accuracy    <       0.00003377 Ry

     iteration # 14     ecut=    55.12 Ry     beta= 0.10
     Davidson diagonalization with overlap
     ethr =  2.08E-08,  avg # of iterations =  2.0

     negative rho (up, down):  1.302E-03 0.000E+00

     Adding external electric field

     Computed dipole along edir(3) : 
        Dipole               -0.0018 Ry au,         -0.0047 Debye
        Dipole field         -0.0000 Ry au, 

        Potential amp.        0.0004 Ry
        Total length         45.8021 bohr


     total cpu time spent up to now is    10424.1 secs

     End of self-consistent calculation

          k = 0.0000 0.0000 0.0000 ( 35553 PWs)   bands (ev):

    -7.8330  -6.3883  -6.0580  -5.7914  -5.7914  -5.7914  -5.5877  -5.5877
    -5.5877  -5.3003  -5.3003  -5.3003  -5.1672  -5.1672  -5.1672  -4.1991
    -4.1991  -4.1991  -4.0663  -4.0663  -4.0663  -3.9794  -3.9345  -3.9345
    -3.6940  -3.6940  -3.6170  -3.6170  -3.6170  -3.5423  -3.5423  -3.5328
    -3.0397  -3.0397  -3.0397  -2.6895  -2.6895  -2.6410  -2.6410  -2.6410
    -2.3897  -2.3897  -2.3897  -2.2638  -2.2638  -1.9480  -1.9480  -1.9480
    -1.8523  -1.8523  -1.8369  -1.8369  -1.8369  -1.7115  -1.7115  -1.7115
    -1.4627  -1.4627  -1.4627  -1.4303  -1.4303  -1.4303  -1.2232   0.7745
     0.7745   0.7746   0.8778   1.4863   1.4863   1.4863   1.8188   1.8188
     1.8188   3.4234   3.4234   3.4234   4.2304   4.2304   4.2308

          k = 0.0000 0.0162 0.0000 ( 35559 PWs)   bands (ev):

    -7.7837  -6.3389  -6.0151  -5.7870  -5.7573  -5.7573  -5.5724  -5.5575
    -5.5575  -5.2904  -5.2843  -5.2843  -5.1473  -5.1268  -5.1268  -4.1985
    -4.1985  -4.1915  -4.0492  -4.0492  -4.0476  -3.9769  -3.9631  -3.9059
    -3.7475  -3.6714  -3.6386  -3.6386  -3.6084  -3.5538  -3.5129  -3.5121
    -3.0720  -3.0589  -3.0589  -2.7007  -2.6965  -2.6687  -2.6687  -2.6391
    -2.4188  -2.4081  -2.4081  -2.3266  -2.2644  -1.9729  -1.9729  -1.9571
    -1.9078  -1.8707  -1.8512  -1.8491  -1.8491  -1.7698  -1.7698  -1.7451
    -1.5246  -1.5246  -1.5036  -1.5036  -1.5017  -1.4723  -1.1396   0.0488
     0.6098   0.6098   0.9959   1.0317   1.4864   1.4864   2.0747   2.0747
     2.4711   3.5741   3.6156   3.6156   4.0337   4.0337   4.0873

          k = 0.0000 0.0323 0.0000 ( 35603 PWs)   bands (ev):

    -7.6380  -6.1945  -5.8904  -5.7812  -5.6573  -5.6573  -5.5284  -5.4709
    -5.4709  -5.2606  -5.2348  -5.2348  -5.0893  -5.0090  -5.0090  -4.2021
    -4.2021  -4.1674  -4.0457  -3.9975  -3.9975  -3.9965  -3.9756  -3.8512
    -3.8218  -3.6984  -3.6983  -3.6071  -3.5833  -3.5801  -3.5011  -3.4259
    -3.1676  -3.1234  -3.1234  -2.7396  -2.7396  -2.7339  -2.7284  -2.6358
    -2.5079  -2.4785  -2.4785  -2.4585  -2.2678  -2.0555  -2.0555  -2.0300
    -1.9988  -1.9778  -1.9765  -1.9765  -1.8798  -1.8798  -1.8479  -1.8293
    -1.7279  -1.7279  -1.6188  -1.5929  -1.5929  -1.5821  -0.9352  -0.8887
     0.1329   0.3963   0.3963   1.3156   1.4072   1.4072   2.4724   2.6788
     2.6788   3.7016   3.7016   3.9326   4.1569   4.1569   4.5448

          k = 0.0000 0.0485 0.0000 ( 35555 PWs)   bands (ev):

    -7.4030  -5.9684  -5.7981  -5.6976  -5.4998  -5.4998  -5.4618  -5.3432
    -5.3432  -5.2118  -5.1490  -5.1490  -4.9974  -4.8220  -4.8220  -4.2214
    -4.2214  -4.1664  -4.1270  -4.0245  -3.9289  -3.9270  -3.9108  -3.9108
    -3.7899  -3.7899  -3.6878  -3.6061  -3.5440  -3.5216  -3.5126  -3.3179
    -3.2846  -3.2446  -3.2445  -2.8321  -2.8321  -2.8312  -2.7552  -2.6547
    -2.6410  -2.6089  -2.6089  -2.5970  -2.3415  -2.3415  -2.2768  -2.1872
    -2.1738  -2.1738  -2.1157  -2.1110  -2.0467  -2.0467  -1.9301  -1.8430
    -1.8410  -1.8410  -1.8081  -1.7100  -1.6920  -1.6337  -1.6337  -0.6921
    -0.6728   0.2739   0.2739   1.3314   1.3314   1.7727   1.7733   3.3250
     3.3250   3.5655   3.5655   4.7059   4.8150   4.8150   4.9835

          k = 0.0000 0.0647 0.0000 ( 35553 PWs)   bands (ev):

    -7.0932  -5.8801  -5.6939  -5.4648  -5.3854  -5.3066  -5.3066  -5.2068
    -5.2068  -5.1489  -5.0198  -5.0198  -4.8773  -4.5861  -4.5861  -4.3036
    -4.2545  -4.2545  -4.1452  -4.0801  -3.9268  -3.9258  -3.9258  -3.8934
    -3.7897  -3.7897  -3.6463  -3.5223  -3.5222  -3.4950  -3.4658  -3.4048
    -3.4040  -3.4040  -3.0951  -2.9695  -2.9409  -2.9409  -2.8465  -2.7723
    -2.7723  -2.7508  -2.7402  -2.7402  -2.7358  -2.6844  -2.5667  -2.4088
    -2.4088  -2.2912  -2.2753  -2.2660  -2.1758  -2.1758  -2.1013  -2.0909
    -2.0339  -1.8606  -1.8606  -1.8374  -1.7871  -1.6386  -1.6386  -1.2961
    -0.3813   0.2196   0.2196   1.1699   1.2822   1.2822   2.3168   3.2774
     3.2774   4.2477   4.2477   4.8073   4.9334   5.5250   5.5250

          k = 0.0000 0.0808 0.0000 ( 35577 PWs)   bands (ev):

    -6.7349  -6.0711  -5.4469  -5.3239  -5.2391  -5.1340  -5.1340  -5.1012
    -5.1012  -5.0915  -4.8477  -4.8477  -4.7364  -4.4414  -4.4076  -4.4076
    -4.2445  -4.2259  -4.2259  -4.1017  -4.1017  -4.0985  -3.9245  -3.8760
    -3.6847  -3.6454  -3.6454  -3.5280  -3.5280  -3.4809  -3.4531  -3.4442
    -3.4131  -3.2468  -3.1637  -3.1637  -3.1221  -3.1031  -3.1031  -3.0745
    -3.0311  -2.8661  -2.8261  -2.8261  -2.8225  -2.8167  -2.6785  -2.6372
    -2.6044  -2.6044  -2.3977  -2.3334  -2.3053  -2.2371  -2.2371  -2.2227
    -2.0098  -1.8638  -1.8638  -1.8315  -1.8142  -1.6520  -1.6353  -1.6352
    -0.0667   0.1994   0.1994   0.6817   1.2561   1.2561   2.9160   3.1912
     3.1912   4.1958   5.0380   5.0380   5.2291   6.0300   6.0928

          k = 0.0000-0.0970 0.0000 ( 35574 PWs)   bands (ev):

    -6.3732  -6.3732  -5.3236  -5.3236  -5.0984  -5.0984  -5.0685  -5.0685
    -5.0559  -5.0559  -4.7257  -4.7257  -4.5860  -4.5860  -4.4049  -4.4049
    -4.2595  -4.2595  -4.2254  -4.2254  -4.0671  -4.0671  -3.8837  -3.8837
    -3.5896  -3.5896  -3.5381  -3.5381  -3.5268  -3.5268  -3.4068  -3.4068
    -3.3180  -3.3180  -3.3062  -3.3062  -3.3015  -3.3015  -3.2350  -3.2350
    -3.0262  -3.0262  -2.8155  -2.8155  -2.8023  -2.8023  -2.6893  -2.6893
    -2.6107  -2.6107  -2.5351  -2.5351  -2.3017  -2.3016  -2.2569  -2.2569
    -1.8649  -1.8649  -1.8638  -1.8637  -1.8250  -1.8250  -1.6333  -1.6333
     0.1944   0.1944   0.2801   0.2801   1.2480   1.2480   3.1625   3.1625
     3.5493   3.5493   5.5753   5.5753   5.5953   5.5953   6.1208

          k = 0.0140-0.0081 0.0000 ( 35559 PWs)   bands (ev):

    -7.7837  -6.3389  -6.0151  -5.7870  -5.7573  -5.7573  -5.5724  -5.5575
    -5.5575  -5.2904  -5.2843  -5.2843  -5.1473  -5.1268  -5.1268  -4.1985
    -4.1985  -4.1915  -4.0492  -4.0492  -4.0476  -3.9769  -3.9631  -3.9059
    -3.7475  -3.6714  -3.6386  -3.6386  -3.6084  -3.5538  -3.5129  -3.5121
    -3.0720  -3.0589  -3.0589  -2.7007  -2.6965  -2.6687  -2.6687  -2.6391
    -2.4188  -2.4081  -2.4081  -2.3266  -2.2644  -1.9729  -1.9729  -1.9571
    -1.9078  -1.8707  -1.8512  -1.8491  -1.8491  -1.7698  -1.7698  -1.7451
    -1.5246  -1.5246  -1.5036  -1.5036  -1.5017  -1.4723  -1.1396   0.0488
     0.6098   0.6098   0.9959   1.0317   1.4864   1.4864   2.0747   2.0747
     2.4711   3.5741   3.6156   3.6156   4.0337   4.0337   4.0873

          k = 0.0140 0.0081 0.0000 ( 35559 PWs)   bands (ev):

    -7.7837  -6.3389  -6.0151  -5.7870  -5.7573  -5.7573  -5.5724  -5.5575
    -5.5575  -5.2904  -5.2843  -5.2843  -5.1473  -5.1268  -5.1268  -4.1985
    -4.1985  -4.1915  -4.0492  -4.0492  -4.0476  -3.9769  -3.9631  -3.9059
    -3.7475  -3.6714  -3.6386  -3.6386  -3.6084  -3.5538  -3.5129  -3.5121
    -3.0720  -3.0589  -3.0589  -2.7007  -2.6965  -2.6687  -2.6687  -2.6391
    -2.4188  -2.4081  -2.4081  -2.3266  -2.2644  -1.9729  -1.9729  -1.9571
    -1.9078  -1.8707  -1.8512  -1.8491  -1.8491  -1.7698  -1.7698  -1.7451
    -1.5246  -1.5246  -1.5036  -1.5036  -1.5017  -1.4723  -1.1396   0.0488
     0.6098   0.6098   0.9959   1.0317   1.4864   1.4864   2.0747   2.0747
     2.4711   3.5741   3.6156   3.6156   4.0337   4.0338   4.0874

          k = 0.0140 0.0243 0.0000 ( 35561 PWs)   bands (ev):

    -7.6862  -6.2419  -5.9312  -5.7500  -5.7500  -5.6623  -5.5270  -5.5270
    -5.4867  -5.2636  -5.2636  -5.2454  -5.0888  -5.0888  -5.0269  -4.2068
    -4.1844  -4.1844  -4.0195  -4.0172  -4.0127  -4.0127  -3.9742  -3.8485
    -3.8238  -3.7018  -3.6285  -3.6245  -3.6245  -3.5721  -3.5015  -3.4533
    -3.1224  -3.1224  -3.0916  -2.7437  -2.7321  -2.7072  -2.6639  -2.6639
    -2.4734  -2.4734  -2.4393  -2.4118  -2.2815  -2.0446  -1.9998  -1.9998
    -1.9830  -1.9276  -1.9276  -1.8892  -1.8563  -1.8539  -1.8375  -1.8375
    -1.6979  -1.6123  -1.6123  -1.5779  -1.5709  -1.5709  -0.9974  -0.3154
    -0.3154   0.6920   0.6920   1.1595   1.2139   1.6882   2.1457   2.7942
     2.7942   3.4668   3.4943   3.4943   4.3746   4.5126   4.6254

          k = 0.0140 0.0404 0.0000 ( 35562 PWs)   bands (ev):

    -7.4955  -6.0555  -5.7714  -5.7506  -5.6496  -5.5088  -5.4699  -5.4252
    -5.3741  -5.2230  -5.2036  -5.1683  -5.0155  -4.9563  -4.8558  -4.2290
    -4.1851  -4.1542  -4.1228  -3.9853  -3.9511  -3.9507  -3.9454  -3.9249
    -3.7796  -3.7368  -3.6930  -3.6081  -3.6013  -3.5399  -3.5166  -3.3350
    -3.2436  -3.2157  -3.1812  -2.8400  -2.7999  -2.7413  -2.7334  -2.6621
    -2.5986  -2.5839  -2.5328  -2.5149  -2.3275  -2.2202  -2.1926  -2.1368
    -2.1084  -2.0716  -2.0587  -2.0528  -1.9990  -1.9571  -1.9056  -1.8756
    -1.8607  -1.7847  -1.7602  -1.6916  -1.6509  -1.6486  -1.1307  -0.7692
    -0.4571  -0.1853   0.5197   1.1685   1.5991   2.1277   2.1737   2.4175
     2.7127   3.7734   3.9983   4.3112   4.5294   4.6413   5.2346

          k = 0.0140 0.0566 0.0000 ( 35555 PWs)   bands (ev):

    -7.2219  -5.8002  -5.7932  -5.5552  -5.4975  -5.3949  -5.3131  -5.2844
    -5.2444  -5.1645  -5.1102  -5.0469  -4.9117  -4.7567  -4.6316  -4.2740
    -4.2525  -4.2017  -4.1111  -4.0851  -3.9565  -3.8947  -3.8743  -3.8631
    -3.8433  -3.8084  -3.6370  -3.5852  -3.5803  -3.5521  -3.4399  -3.3830
    -3.3574  -3.3202  -3.1627  -2.9355  -2.8995  -2.8479  -2.7913  -2.7798
    -2.7129  -2.6860  -2.6694  -2.6229  -2.6139  -2.5393  -2.4676  -2.3643
    -2.3484  -2.2670  -2.2576  -2.1434  -2.1369  -2.0700  -2.0688  -1.9294
    -1.9033  -1.8576  -1.8396  -1.8203  -1.6739  -1.6667  -1.6665  -0.9161
    -0.4975  -0.4817   0.4555   1.0405   1.5025   2.0953   2.2030   2.5729
     3.0808   4.1089   4.4862   4.7002   4.8356   5.0762   5.5375

          k = 0.0140 0.0728 0.0000 ( 35600 PWs)   bands (ev):

    -6.8846  -5.9259  -5.5264  -5.3245  -5.3197  -5.3185  -5.1507  -5.1345
    -5.1051  -5.0968  -4.9696  -4.8835  -4.7839  -4.5178  -4.4458  -4.3841
    -4.2681  -4.2239  -4.2141  -4.0891  -4.0315  -3.9947  -3.9302  -3.9195
    -3.7159  -3.7114  -3.6900  -3.5695  -3.5551  -3.5065  -3.4597  -3.4350
    -3.4175  -3.3275  -3.0878  -3.0425  -3.0270  -3.0220  -2.9822  -2.9426
    -2.9120  -2.9038  -2.8282  -2.8249  -2.7709  -2.7449  -2.6652  -2.5902
    -2.5438  -2.4796  -2.3395  -2.3168  -2.2213  -2.1707  -2.1378  -2.0412
    -2.0263  -1.9060  -1.8526  -1.8486  -1.8185  -1.6757  -1.6642  -1.4220
    -0.4726  -0.1983   0.4381   0.9509   0.9577   2.1430   2.4798   2.6631
     3.7274   4.1660   4.5564   5.0973   5.2129   5.4301   5.8731

          k = 0.0140-0.1051 0.0000 ( 35563 PWs)   bands (ev):

    -6.5180  -6.1771  -5.3323  -5.2789  -5.1990  -5.1219  -5.0752  -5.0548
    -5.0482  -4.9888  -4.7907  -4.7100  -4.6427  -4.5069  -4.4507  -4.4288
    -4.2849  -4.2051  -4.2012  -4.1933  -4.1468  -4.0314  -3.9113  -3.8699
    -3.6886  -3.6621  -3.5752  -3.5301  -3.5229  -3.5202  -3.5096  -3.4598
    -3.4144  -3.3580  -3.2818  -3.2689  -3.2259  -3.1829  -3.1767  -3.1672
    -3.1146  -2.9233  -2.8480  -2.8193  -2.7761  -2.7283  -2.6977  -2.6876
    -2.6465  -2.5717  -2.4535  -2.3875  -2.3207  -2.2698  -2.2432  -2.2125
    -1.9311  -1.9038  -1.8555  -1.8543  -1.8282  -1.7141  -1.6743  -1.6601
    -0.4628   0.1303   0.4354   0.5041   0.9198   2.1042   2.4355   3.2770
     3.8035   3.9173   4.8218   5.4285   5.4947   5.8301   6.0124

          k = 0.0140-0.0889 0.0000 ( 35563 PWs)   bands (ev):

    -6.5180  -6.1771  -5.3323  -5.2789  -5.1990  -5.1219  -5.0752  -5.0548
    -5.0482  -4.9888  -4.7907  -4.7100  -4.6427  -4.5069  -4.4507  -4.4288
    -4.2849  -4.2051  -4.2012  -4.1933  -4.1468  -4.0314  -3.9113  -3.8699
    -3.6886  -3.6621  -3.5752  -3.5301  -3.5229  -3.5202  -3.5096  -3.4598
    -3.4144  -3.3580  -3.2818  -3.2689  -3.2259  -3.1829  -3.1767  -3.1672
    -3.1146  -2.9233  -2.8480  -2.8193  -2.7761  -2.7283  -2.6977  -2.6876
    -2.6465  -2.5717  -2.4535  -2.3875  -2.3207  -2.2698  -2.2432  -2.2125
    -1.9311  -1.9038  -1.8555  -1.8543  -1.8282  -1.7141  -1.6743  -1.6601
    -0.4628   0.1303   0.4354   0.5041   0.9198   2.1042   2.4355   3.2770
     3.8035   3.9173   4.8218   5.4285   5.4947   5.8301   6.0112

          k = 0.0140-0.0728 0.0000 ( 35600 PWs)   bands (ev):

    -6.8846  -5.9259  -5.5264  -5.3245  -5.3197  -5.3185  -5.1507  -5.1345
    -5.1051  -5.0968  -4.9696  -4.8835  -4.7839  -4.5178  -4.4458  -4.3841
    -4.2681  -4.2239  -4.2141  -4.0891  -4.0315  -3.9947  -3.9302  -3.9195
    -3.7159  -3.7114  -3.6900  -3.5695  -3.5551  -3.5065  -3.4597  -3.4350
    -3.4175  -3.3275  -3.0878  -3.0425  -3.0270  -3.0220  -2.9822  -2.9426
    -2.9120  -2.9038  -2.8282  -2.8249  -2.7709  -2.7449  -2.6652  -2.5902
    -2.5438  -2.4796  -2.3395  -2.3168  -2.2213  -2.1707  -2.1378  -2.0412
    -2.0263  -1.9060  -1.8526  -1.8486  -1.8185  -1.6757  -1.6642  -1.4220
    -0.4726  -0.1983   0.4381   0.9509   0.9577   2.1430   2.4798   2.6631
     3.7274   4.1660   4.5564   5.0973   5.2129   5.4301   5.8729

          k = 0.0140-0.0566 0.0000 ( 35555 PWs)   bands (ev):

    -7.2219  -5.8002  -5.7932  -5.5552  -5.4975  -5.3949  -5.3131  -5.2844
    -5.2444  -5.1645  -5.1102  -5.0469  -4.9117  -4.7567  -4.6316  -4.2740
    -4.2525  -4.2017  -4.1111  -4.0851  -3.9565  -3.8947  -3.8743  -3.8631
    -3.8433  -3.8084  -3.6370  -3.5852  -3.5803  -3.5521  -3.4399  -3.3830
    -3.3574  -3.3202  -3.1627  -2.9355  -2.8995  -2.8479  -2.7913  -2.7798
    -2.7129  -2.6860  -2.6694  -2.6229  -2.6139  -2.5393  -2.4676  -2.3643
    -2.3484  -2.2670  -2.2576  -2.1434  -2.1369  -2.0700  -2.0688  -1.9294
    -1.9033  -1.8576  -1.8396  -1.8203  -1.6739  -1.6667  -1.6665  -0.9161
    -0.4975  -0.4817   0.4555   1.0405   1.5025   2.0953   2.2030   2.5729
     3.0808   4.1089   4.4862   4.7002   4.8357   5.0762   5.7903

          k = 0.0140-0.0404 0.0000 ( 35562 PWs)   bands (ev):

    -7.4955  -6.0555  -5.7714  -5.7506  -5.6496  -5.5088  -5.4699  -5.4252
    -5.3741  -5.2230  -5.2036  -5.1684  -5.0155  -4.9563  -4.8558  -4.2290
    -4.1851  -4.1542  -4.1228  -3.9853  -3.9511  -3.9507  -3.9454  -3.9249
    -3.7796  -3.7368  -3.6930  -3.6081  -3.6013  -3.5399  -3.5166  -3.3350
    -3.2436  -3.2157  -3.1812  -2.8400  -2.7998  -2.7413  -2.7334  -2.6621
    -2.5986  -2.5839  -2.5328  -2.5149  -2.3275  -2.2202  -2.1926  -2.1368
    -2.1084  -2.0716  -2.0587  -2.0528  -1.9990  -1.9571  -1.9056  -1.8756
    -1.8607  -1.7847  -1.7602  -1.6916  -1.6509  -1.6486  -1.1307  -0.7692
    -0.4571  -0.1853   0.5197   1.1685   1.5991   2.1277   2.1737   2.4175
     2.7127   3.7734   3.9983   4.3112   4.5294   4.6413   5.2347

          k = 0.0140-0.0243 0.0000 ( 35561 PWs)   bands (ev):

    -7.6862  -6.2419  -5.9312  -5.7500  -5.7500  -5.6623  -5.5270  -5.5270
    -5.4867  -5.2636  -5.2636  -5.2454  -5.0888  -5.0888  -5.0269  -4.2068
    -4.1844  -4.1844  -4.0195  -4.0172  -4.0127  -4.0127  -3.9742  -3.8485
    -3.8238  -3.7018  -3.6285  -3.6245  -3.6245  -3.5721  -3.5015  -3.4533
    -3.1224  -3.1224  -3.0916  -2.7437  -2.7321  -2.7072  -2.6639  -2.6639
    -2.4734  -2.4734  -2.4393  -2.4118  -2.2815  -2.0446  -1.9998  -1.9998
    -1.9830  -1.9276  -1.9276  -1.8892  -1.8563  -1.8539  -1.8375  -1.8375
    -1.6979  -1.6123  -1.6123  -1.5779  -1.5709  -1.5709  -0.9974  -0.3154
    -0.3154   0.6920   0.6920   1.1595   1.2139   1.6882   2.1457   2.7942
     2.7942   3.4668   3.4943   3.4943   4.3747   4.6215   4.6255

          k = 0.0280-0.0162 0.0000 ( 35603 PWs)   bands (ev):

    -7.6380  -6.1945  -5.8904  -5.7812  -5.6573  -5.6573  -5.5284  -5.4709
    -5.4709  -5.2606  -5.2348  -5.2348  -5.0893  -5.0090  -5.0090  -4.2021
    -4.2021  -4.1674  -4.0457  -3.9975  -3.9975  -3.9965  -3.9756  -3.8512
    -3.8218  -3.6984  -3.6983  -3.6071  -3.5833  -3.5801  -3.5011  -3.4259
    -3.1676  -3.1235  -3.1234  -2.7396  -2.7396  -2.7339  -2.7284  -2.6358
    -2.5079  -2.4785  -2.4785  -2.4585  -2.2678  -2.0555  -2.0555  -2.0300
    -1.9988  -1.9778  -1.9765  -1.9765  -1.8798  -1.8798  -1.8479  -1.8293
    -1.7279  -1.7279  -1.6188  -1.5929  -1.5928  -1.5821  -0.9352  -0.8887
     0.1329   0.3963   0.3963   1.3156   1.4072   1.4072   2.4724   2.6788
     2.6788   3.7016   3.7016   3.9326   4.1569   4.1569   4.5447

          k = 0.0280 0.0000 0.0000 ( 35561 PWs)   bands (ev):

    -7.6862  -6.2419  -5.9312  -5.7500  -5.7500  -5.6623  -5.5270  -5.5270
    -5.4867  -5.2636  -5.2636  -5.2454  -5.0888  -5.0888  -5.0269  -4.2068
    -4.1844  -4.1844  -4.0195  -4.0172  -4.0127  -4.0127  -3.9742  -3.8485
    -3.8238  -3.7018  -3.6285  -3.6245  -3.6245  -3.5721  -3.5015  -3.4534
    -3.1224  -3.1224  -3.0916  -2.7437  -2.7321  -2.7072  -2.6639  -2.6639
    -2.4734  -2.4734  -2.4393  -2.4118  -2.2815  -2.0446  -1.9998  -1.9998
    -1.9830  -1.9276  -1.9276  -1.8892  -1.8563  -1.8539  -1.8375  -1.8375
    -1.6979  -1.6123  -1.6123  -1.5779  -1.5709  -1.5709  -0.9974  -0.3154
    -0.3154   0.6920   0.6920   1.1595   1.2139   1.6882   2.1457   2.7942
     2.7942   3.4667   3.4943   3.4943   4.3746   4.5129   4.6254

          k = 0.0280 0.0162 0.0000 ( 35603 PWs)   bands (ev):

    -7.6380  -6.1945  -5.8904  -5.7812  -5.6573  -5.6573  -5.5284  -5.4709
    -5.4709  -5.2606  -5.2348  -5.2348  -5.0893  -5.0090  -5.0090  -4.2021
    -4.2021  -4.1674  -4.0457  -3.9975  -3.9975  -3.9965  -3.9756  -3.8512
    -3.8218  -3.6984  -3.6983  -3.6071  -3.5833  -3.5801  -3.5011  -3.4259
    -3.1676  -3.1234  -3.1234  -2.7396  -2.7396  -2.7339  -2.7284  -2.6358
    -2.5079  -2.4785  -2.4785  -2.4585  -2.2678  -2.0555  -2.0555  -2.0300
    -1.9988  -1.9778  -1.9765  -1.9765  -1.8798  -1.8798  -1.8479  -1.8293
    -1.7279  -1.7279  -1.6188  -1.5929  -1.5929  -1.5821  -0.9352  -0.8887
     0.1329   0.3963   0.3963   1.3156   1.4072   1.4072   2.4724   2.6788
     2.6788   3.7016   3.7016   3.9326   4.1569   4.1569   4.5447

          k = 0.0280 0.0323 0.0000 ( 35562 PWs)   bands (ev):

    -7.4955  -6.0555  -5.7714  -5.7506  -5.6496  -5.5088  -5.4699  -5.4252
    -5.3741  -5.2230  -5.2036  -5.1683  -5.0155  -4.9563  -4.8558  -4.2290
    -4.1851  -4.1542  -4.1228  -3.9853  -3.9511  -3.9507  -3.9454  -3.9249
    -3.7796  -3.7368  -3.6930  -3.6081  -3.6014  -3.5399  -3.5166  -3.3350
    -3.2436  -3.2157  -3.1812  -2.8400  -2.7998  -2.7413  -2.7334  -2.6621
    -2.5986  -2.5839  -2.5328  -2.5149  -2.3275  -2.2202  -2.1926  -2.1368
    -2.1084  -2.0716  -2.0587  -2.0528  -1.9990  -1.9571  -1.9056  -1.8756
    -1.8607  -1.7847  -1.7602  -1.6916  -1.6509  -1.6486  -1.1307  -0.7692
    -0.4571  -0.1853   0.5197   1.1685   1.5991   2.1277   2.1737   2.4175
     2.7127   3.7734   3.9983   4.3112   4.5294   4.6413   5.2348

          k = 0.0280 0.0485 0.0000 ( 35557 PWs)   bands (ev):

    -7.2653  -5.8366  -5.6639  -5.6639  -5.5857  -5.3551  -5.3551  -5.3177
    -5.2576  -5.1526  -5.1526  -5.0555  -4.8722  -4.8722  -4.6474  -4.2799
    -4.2379  -4.1541  -4.1541  -4.0372  -3.9968  -3.8880  -3.8880  -3.8734
    -3.8496  -3.6988  -3.6988  -3.6483  -3.5874  -3.5672  -3.4509  -3.3442
    -3.3442  -3.2897  -3.1791  -2.9414  -2.8706  -2.8048  -2.7812  -2.7812
    -2.6886  -2.6886  -2.6486  -2.5279  -2.5130  -2.5130  -2.4705  -2.4357
    -2.3154  -2.3154  -2.2125  -2.0995  -2.0995  -2.0200  -1.9722  -1.9486
    -1.8858  -1.8544  -1.8544  -1.7451  -1.7451  -1.7159  -1.1264  -1.1264
    -0.5375  -0.2966  -0.2966   1.8934   1.9700   1.9700   2.0188   2.1068
     2.9573   3.6024   4.8032   4.8527   5.1110   5.1110   5.5077

          k = 0.0280 0.0647 0.0000 ( 35570 PWs)   bands (ev):

    -6.9608  -5.7451  -5.5667  -5.5385  -5.3570  -5.2726  -5.2053  -5.1454
    -5.1054  -5.0837  -5.0507  -4.8991  -4.7624  -4.6645  -4.4724  -4.3663
    -4.2913  -4.1798  -4.1589  -4.1284  -4.0132  -3.9480  -3.9268  -3.9170
    -3.7621  -3.7403  -3.6810  -3.6790  -3.6303  -3.4703  -3.4400  -3.4279
    -3.4136  -3.3675  -3.0334  -3.0060  -2.9740  -2.9619  -2.9479  -2.9323
    -2.9312  -2.8583  -2.7938  -2.7696  -2.7185  -2.7150  -2.5918  -2.5644
    -2.5582  -2.4406  -2.3920  -2.2092  -2.1866  -2.0607  -1.9784  -1.9680
    -1.9599  -1.8929  -1.8778  -1.8464  -1.7545  -1.7492  -1.6044  -1.0827
    -0.9601  -0.3146  -0.2644   1.3345   1.8174   1.8464   2.5325   2.7583
     3.1137   4.0559   4.9814   5.0237   5.0318   5.4122   5.9381

          k = 0.0280-0.1132 0.0000 ( 35550 PWs)   bands (ev):

    -6.6064  -5.9391  -5.4152  -5.3171  -5.2023  -5.1285  -5.0851  -5.0350
    -5.0100  -4.9524  -4.8910  -4.7117  -4.6367  -4.5165  -4.4726  -4.4582
    -4.2894  -4.2464  -4.2216  -4.1401  -4.0927  -3.9963  -3.9644  -3.9457
    -3.7601  -3.7064  -3.6484  -3.6286  -3.6253  -3.5398  -3.4933  -3.4922
    -3.4278  -3.3788  -3.3121  -3.1985  -3.1902  -3.1565  -3.1171  -3.0840
    -3.0733  -2.8603  -2.8586  -2.7915  -2.7502  -2.7070  -2.6988  -2.6467
    -2.5723  -2.5469  -2.3765  -2.3570  -2.2572  -2.1336  -2.1333  -1.9990
    -1.9634  -1.9428  -1.8848  -1.8636  -1.8487  -1.7616  -1.7520  -1.4360
    -1.0493  -0.3082   0.0441   0.8179   1.7125   1.7820   2.9316   3.1099
     3.5350   4.3689   4.5202   5.3291   5.3417   5.4601   6.0524

          k = 0.0280-0.0970 0.0000 ( 35570 PWs)   bands (ev):

    -6.2449  -6.2449  -5.3607  -5.1938  -5.1938  -5.0442  -4.9910  -4.9910
    -4.9780  -4.9071  -4.7369  -4.5912  -4.5521  -4.5375  -4.5277  -4.5277
    -4.3557  -4.3557  -4.2007  -4.1314  -4.1223  -3.9022  -3.8878  -3.8878
    -3.7949  -3.7339  -3.7339  -3.6413  -3.6321  -3.6321  -3.5388  -3.4939
    -3.4435  -3.3770  -3.3770  -3.3695  -3.2687  -3.2369  -3.1781  -3.1781
    -3.0072  -3.0072  -2.8359  -2.7603  -2.7158  -2.7158  -2.7150  -2.6774
    -2.4984  -2.4984  -2.3748  -2.3748  -2.2872  -2.2392  -2.2392  -2.1581
    -1.9601  -1.9130  -1.9129  -1.8864  -1.7649  -1.7499  -1.7150  -1.7150
    -1.0374  -0.3039   0.3975   0.3975   1.6776   1.7621   2.9065   3.7291
     3.7291   3.8065   4.8212   5.2522   5.4626   5.6969   5.6969

          k = 0.0280-0.0808 0.0000 ( 35550 PWs)   bands (ev):

    -6.6064  -5.9391  -5.4152  -5.3171  -5.2023  -5.1285  -5.0851  -5.0350
    -5.0100  -4.9524  -4.8910  -4.7117  -4.6367  -4.5165  -4.4726  -4.4582
    -4.2894  -4.2464  -4.2216  -4.1401  -4.0927  -3.9963  -3.9644  -3.9457
    -3.7601  -3.7064  -3.6484  -3.6286  -3.6253  -3.5398  -3.4933  -3.4922
    -3.4278  -3.3788  -3.3121  -3.1985  -3.1902  -3.1565  -3.1171  -3.0840
    -3.0733  -2.8603  -2.8586  -2.7915  -2.7502  -2.7070  -2.6988  -2.6467
    -2.5723  -2.5469  -2.3765  -2.3570  -2.2572  -2.1336  -2.1333  -1.9990
    -1.9634  -1.9428  -1.8848  -1.8636  -1.8487  -1.7616  -1.7520  -1.4360
    -1.0493  -0.3082   0.0441   0.8179   1.7125   1.7820   2.9316   3.1099
     3.5350   4.3689   4.5202   5.3291   5.3417   5.4601   6.0521

          k = 0.0280-0.0647 0.0000 ( 35570 PWs)   bands (ev):

    -6.9608  -5.7451  -5.5667  -5.5385  -5.3570  -5.2726  -5.2053  -5.1454
    -5.1054  -5.0837  -5.0507  -4.8991  -4.7624  -4.6645  -4.4724  -4.3663
    -4.2913  -4.1798  -4.1589  -4.1284  -4.0132  -3.9480  -3.9268  -3.9170
    -3.7621  -3.7403  -3.6810  -3.6790  -3.6303  -3.4703  -3.4400  -3.4279
    -3.4136  -3.3675  -3.0334  -3.0060  -2.9739  -2.9619  -2.9479  -2.9323
    -2.9312  -2.8583  -2.7938  -2.7696  -2.7185  -2.7150  -2.5918  -2.5644
    -2.5582  -2.4406  -2.3920  -2.2092  -2.1866  -2.0607  -1.9784  -1.9680
    -1.9599  -1.8929  -1.8778  -1.8464  -1.7545  -1.7492  -1.6044  -1.0827
    -0.9601  -0.3146  -0.2644   1.3345   1.8174   1.8464   2.5325   2.7583
     3.1137   4.0559   4.9814   5.0237   5.0318   5.4121   5.9386

          k = 0.0280-0.0485 0.0000 ( 35557 PWs)   bands (ev):

    -7.2653  -5.8366  -5.6639  -5.6639  -5.5857  -5.3551  -5.3551  -5.3177
    -5.2576  -5.1526  -5.1526  -5.0555  -4.8722  -4.8722  -4.6474  -4.2799
    -4.2379  -4.1541  -4.1541  -4.0372  -3.9968  -3.8880  -3.8880  -3.8734
    -3.8496  -3.6988  -3.6988  -3.6483  -3.5874  -3.5672  -3.4509  -3.3442
    -3.3442  -3.2897  -3.1791  -2.9414  -2.8706  -2.8048  -2.7812  -2.7812
    -2.6886  -2.6886  -2.6486  -2.5279  -2.5130  -2.5130  -2.4705  -2.4357
    -2.3154  -2.3154  -2.2125  -2.0995  -2.0995  -2.0200  -1.9722  -1.9486
    -1.8858  -1.8544  -1.8544  -1.7451  -1.7451  -1.7159  -1.1264  -1.1264
    -0.5375  -0.2966  -0.2966   1.8934   1.9700   1.9700   2.0188   2.1068
     2.9573   3.6024   4.8032   4.8527   5.1109   5.1110   5.5078

          k = 0.0280-0.0323 0.0000 ( 35562 PWs)   bands (ev):

    -7.4955  -6.0555  -5.7714  -5.7506  -5.6496  -5.5088  -5.4699  -5.4252
    -5.3741  -5.2230  -5.2036  -5.1684  -5.0155  -4.9563  -4.8558  -4.2290
    -4.1851  -4.1542  -4.1228  -3.9853  -3.9511  -3.9507  -3.9454  -3.9249
    -3.7796  -3.7368  -3.6930  -3.6081  -3.6014  -3.5399  -3.5166  -3.3350
    -3.2436  -3.2157  -3.1812  -2.8400  -2.7998  -2.7413  -2.7334  -2.6621
    -2.5986  -2.5839  -2.5328  -2.5149  -2.3275  -2.2202  -2.1926  -2.1368
    -2.1084  -2.0716  -2.0587  -2.0528  -1.9990  -1.9571  -1.9056  -1.8756
    -1.8607  -1.7847  -1.7602  -1.6916  -1.6509  -1.6486  -1.1307  -0.7692
    -0.4571  -0.1853   0.5197   1.1685   1.5991   2.1277   2.1737   2.4175
     2.7127   3.7734   3.9983   4.3112   4.5294   4.6413   5.2347

          k = 0.0420-0.0243 0.0000 ( 35555 PWs)   bands (ev):

    -7.4030  -5.9684  -5.7981  -5.6976  -5.4998  -5.4998  -5.4618  -5.3432
    -5.3432  -5.2118  -5.1490  -5.1490  -4.9974  -4.8220  -4.8220  -4.2214
    -4.2214  -4.1664  -4.1270  -4.0245  -3.9289  -3.9270  -3.9108  -3.9108
    -3.7899  -3.7899  -3.6878  -3.6061  -3.5440  -3.5216  -3.5126  -3.3179
    -3.2846  -3.2446  -3.2445  -2.8321  -2.8321  -2.8312  -2.7552  -2.6547
    -2.6410  -2.6089  -2.6089  -2.5970  -2.3415  -2.3415  -2.2768  -2.1872
    -2.1738  -2.1738  -2.1157  -2.1110  -2.0467  -2.0467  -1.9301  -1.8430
    -1.8410  -1.8410  -1.8081  -1.7100  -1.6920  -1.6337  -1.6337  -0.6921
    -0.6728   0.2739   0.2739   1.3313   1.3314   1.7727   1.7733   3.3250
     3.3250   3.5655   3.5655   4.7059   4.8150   4.8150   4.9835

          k = 0.0420-0.0081 0.0000 ( 35562 PWs)   bands (ev):

    -7.4955  -6.0555  -5.7714  -5.7506  -5.6496  -5.5088  -5.4699  -5.4252
    -5.3741  -5.2230  -5.2036  -5.1683  -5.0155  -4.9563  -4.8558  -4.2290
    -4.1851  -4.1542  -4.1228  -3.9853  -3.9511  -3.9507  -3.9454  -3.9249
    -3.7796  -3.7368  -3.6930  -3.6081  -3.6014  -3.5399  -3.5166  -3.3350
    -3.2436  -3.2157  -3.1812  -2.8400  -2.7999  -2.7413  -2.7334  -2.6621
    -2.5986  -2.5839  -2.5328  -2.5149  -2.3275  -2.2202  -2.1926  -2.1368
    -2.1084  -2.0716  -2.0587  -2.0528  -1.9990  -1.9571  -1.9056  -1.8756
    -1.8607  -1.7847  -1.7602  -1.6916  -1.6509  -1.6486  -1.1307  -0.7692
    -0.4571  -0.1853   0.5197   1.1685   1.5991   2.1277   2.1737   2.4175
     2.7127   3.7734   3.9983   4.3111   4.5294   4.6413   5.2348

          k = 0.0420 0.0081 0.0000 ( 35562 PWs)   bands (ev):

    -7.4955  -6.0555  -5.7714  -5.7506  -5.6496  -5.5088  -5.4699  -5.4252
    -5.3741  -5.2230  -5.2036  -5.1683  -5.0155  -4.9563  -4.8558  -4.2290
    -4.1851  -4.1542  -4.1228  -3.9853  -3.9511  -3.9507  -3.9454  -3.9249
    -3.7796  -3.7368  -3.6930  -3.6081  -3.6014  -3.5399  -3.5166  -3.3350
    -3.2436  -3.2157  -3.1812  -2.8400  -2.7999  -2.7413  -2.7334  -2.6621
    -2.5986  -2.5839  -2.5328  -2.5149  -2.3275  -2.2202  -2.1926  -2.1368
    -2.1084  -2.0716  -2.0587  -2.0528  -1.9990  -1.9571  -1.9056  -1.8756
    -1.8607  -1.7847  -1.7602  -1.6916  -1.6509  -1.6486  -1.1307  -0.7692
    -0.4571  -0.1853   0.5197   1.1685   1.5991   2.1277   2.1737   2.4175
     2.7127   3.7734   3.9983   4.3112   4.5294   4.6413   5.2350

          k = 0.0420 0.0243 0.0000 ( 35555 PWs)   bands (ev):

    -7.4030  -5.9684  -5.7981  -5.6976  -5.4998  -5.4998  -5.4618  -5.3432
    -5.3432  -5.2118  -5.1490  -5.1490  -4.9974  -4.8220  -4.8220  -4.2214
    -4.2214  -4.1664  -4.1270  -4.0245  -3.9289  -3.9270  -3.9108  -3.9108
    -3.7899  -3.7899  -3.6878  -3.6061  -3.5440  -3.5216  -3.5126  -3.3179
    -3.2846  -3.2445  -3.2445  -2.8321  -2.8321  -2.8312  -2.7552  -2.6547
    -2.6410  -2.6089  -2.6089  -2.5970  -2.3415  -2.3415  -2.2768  -2.1872
    -2.1738  -2.1738  -2.1157  -2.1110  -2.0467  -2.0467  -1.9301  -1.8430
    -1.8410  -1.8410  -1.8081  -1.7100  -1.6920  -1.6337  -1.6337  -0.6921
    -0.6728   0.2739   0.2739   1.3313   1.3314   1.7727   1.7733   3.3250
     3.3250   3.5655   3.5655   4.7059   4.8150   4.8150   4.9834

          k = 0.0420 0.0404 0.0000 ( 35555 PWs)   bands (ev):

    -7.2219  -5.8002  -5.7932  -5.5552  -5.4975  -5.3949  -5.3131  -5.2844
    -5.2444  -5.1645  -5.1102  -5.0469  -4.9117  -4.7567  -4.6316  -4.2740
    -4.2525  -4.2017  -4.1111  -4.0851  -3.9565  -3.8947  -3.8743  -3.8631
    -3.8433  -3.8084  -3.6370  -3.5852  -3.5803  -3.5521  -3.4399  -3.3830
    -3.3574  -3.3202  -3.1627  -2.9355  -2.8995  -2.8479  -2.7913  -2.7798
    -2.7129  -2.6860  -2.6694  -2.6229  -2.6139  -2.5393  -2.4676  -2.3643
    -2.3484  -2.2670  -2.2576  -2.1434  -2.1369  -2.0700  -2.0688  -1.9294
    -1.9033  -1.8576  -1.8396  -1.8203  -1.6739  -1.6667  -1.6665  -0.9161
    -0.4975  -0.4817   0.4555   1.0405   1.5025   2.0953   2.2030   2.5729
     3.0808   4.1089   4.4862   4.7002   4.8356   5.0762   5.5377

          k = 0.0420 0.0566 0.0000 ( 35570 PWs)   bands (ev):

    -6.9608  -5.7451  -5.5667  -5.5385  -5.3570  -5.2726  -5.2053  -5.1454
    -5.1054  -5.0837  -5.0507  -4.8991  -4.7624  -4.6645  -4.4724  -4.3663
    -4.2913  -4.1798  -4.1589  -4.1284  -4.0132  -3.9480  -3.9268  -3.9170
    -3.7621  -3.7403  -3.6810  -3.6790  -3.6303  -3.4703  -3.4400  -3.4279
    -3.4136  -3.3675  -3.0334  -3.0060  -2.9740  -2.9619  -2.9479  -2.9323
    -2.9312  -2.8583  -2.7938  -2.7696  -2.7185  -2.7150  -2.5918  -2.5644
    -2.5582  -2.4406  -2.3920  -2.2092  -2.1866  -2.0607  -1.9784  -1.9680
    -1.9599  -1.8930  -1.8778  -1.8464  -1.7545  -1.7492  -1.6044  -1.0827
    -0.9601  -0.3146  -0.2644   1.3345   1.8174   1.8464   2.5325   2.7583
     3.1137   4.0559   4.9814   5.0237   5.0318   5.4121   5.9383

          k = 0.0420-0.1213 0.0000 ( 35543 PWs)   bands (ev):

    -6.6361  -5.6758  -5.6758  -5.3057  -5.1296  -5.1217  -5.1217  -5.0304
    -4.9706  -4.9706  -4.9392  -4.7131  -4.5521  -4.5521  -4.5445  -4.4856
    -4.2576  -4.2576  -4.2286  -4.1234  -4.0723  -4.0036  -4.0036  -3.9708
    -3.7357  -3.7227  -3.6990  -3.6990  -3.6544  -3.5291  -3.5291  -3.4787
    -3.3913  -3.3727  -3.3727  -3.2028  -3.1461  -3.1383  -3.1383  -3.0633
    -3.0212  -2.8601  -2.7932  -2.7932  -2.7642  -2.7154  -2.6601  -2.6600
    -2.5345  -2.5079  -2.4307  -2.2672  -2.2671  -2.0417  -2.0295  -1.9639
    -1.9639  -1.9335  -1.8659  -1.8639  -1.8639  -1.8212  -1.5550  -1.5550
    -0.9515  -0.9515   0.0161   1.2402   1.2402   2.5399   2.5771   3.0536
     3.7268   4.0737   4.8894   4.8894   5.2961   5.6379   5.7562

          k = 0.0420-0.1051 0.0000 ( 35506 PWs)   bands (ev):

    -6.2775  -5.9352  -5.6227  -5.1106  -5.0673  -5.0248  -4.9271  -4.9212
    -4.8913  -4.8587  -4.7892  -4.6513  -4.5604  -4.5366  -4.5163  -4.4542
    -4.4286  -4.3127  -4.2440  -4.1906  -4.0311  -4.0235  -3.9371  -3.8364
    -3.8356  -3.8239  -3.7825  -3.7640  -3.7481  -3.7454  -3.5330  -3.4834
    -3.4430  -3.4196  -3.3873  -3.3145  -3.2855  -3.2526  -3.2351  -3.1923
    -3.0273  -2.9003  -2.8316  -2.8189  -2.6691  -2.6658  -2.6447  -2.6423
    -2.5611  -2.4053  -2.3591  -2.3156  -2.2403  -2.1203  -2.0828  -2.0151
    -1.9754  -1.9643  -1.9458  -1.8945  -1.8701  -1.8630  -1.7118  -1.5289
    -1.4263  -0.9399   0.3478   0.7477   1.1984   2.4521   3.1725   3.5520
     3.6345   4.2553   4.6721   4.8394   5.5279   5.6304   5.9323

          k = 0.0420-0.0889 0.0000 ( 35506 PWs)   bands (ev):

    -6.2775  -5.9352  -5.6227  -5.1106  -5.0673  -5.0248  -4.9271  -4.9212
    -4.8913  -4.8587  -4.7892  -4.6513  -4.5604  -4.5366  -4.5163  -4.4542
    -4.4286  -4.3127  -4.2440  -4.1906  -4.0311  -4.0235  -3.9371  -3.8364
    -3.8356  -3.8239  -3.7825  -3.7640  -3.7481  -3.7454  -3.5330  -3.4834
    -3.4430  -3.4196  -3.3873  -3.3145  -3.2855  -3.2526  -3.2351  -3.1923
    -3.0273  -2.9003  -2.8316  -2.8189  -2.6691  -2.6658  -2.6447  -2.6423
    -2.5611  -2.4053  -2.3591  -2.3156  -2.2403  -2.1203  -2.0828  -2.0151
    -1.9754  -1.9643  -1.9458  -1.8945  -1.8701  -1.8630  -1.7118  -1.5289
    -1.4263  -0.9399   0.3478   0.7477   1.1984   2.4521   3.1725   3.5520
     3.6345   4.2553   4.6721   4.8394   5.5279   5.6304   5.9323

          k = 0.0420-0.0728 0.0000 ( 35543 PWs)   bands (ev):

    -6.6361  -5.6758  -5.6758  -5.3057  -5.1296  -5.1217  -5.1217  -5.0304
    -4.9706  -4.9706  -4.9392  -4.7131  -4.5521  -4.5521  -4.5445  -4.4856
    -4.2576  -4.2576  -4.2286  -4.1234  -4.0723  -4.0036  -4.0036  -3.9708
    -3.7357  -3.7227  -3.6990  -3.6990  -3.6544  -3.5291  -3.5291  -3.4787
    -3.3913  -3.3727  -3.3727  -3.2028  -3.1461  -3.1383  -3.1383  -3.0633
    -3.0212  -2.8601  -2.7932  -2.7932  -2.7642  -2.7154  -2.6601  -2.6601
    -2.5345  -2.5079  -2.4307  -2.2671  -2.2671  -2.0417  -2.0295  -1.9639
    -1.9639  -1.9335  -1.8660  -1.8639  -1.8639  -1.8212  -1.5550  -1.5550
    -0.9515  -0.9515   0.0161   1.2402   1.2402   2.5399   2.5771   3.0536
     3.7268   4.0737   4.8894   4.8894   5.2961   5.6379   5.7562

          k = 0.0420-0.0566 0.0000 ( 35570 PWs)   bands (ev):

    -6.9608  -5.7451  -5.5667  -5.5385  -5.3570  -5.2726  -5.2053  -5.1454
    -5.1054  -5.0837  -5.0507  -4.8991  -4.7624  -4.6645  -4.4724  -4.3663
    -4.2913  -4.1798  -4.1589  -4.1284  -4.0132  -3.9480  -3.9268  -3.9170
    -3.7621  -3.7403  -3.6810  -3.6790  -3.6303  -3.4703  -3.4400  -3.4279
    -3.4136  -3.3675  -3.0334  -3.0060  -2.9740  -2.9619  -2.9479  -2.9323
    -2.9312  -2.8583  -2.7938  -2.7696  -2.7185  -2.7150  -2.5918  -2.5644
    -2.5582  -2.4406  -2.3920  -2.2092  -2.1866  -2.0607  -1.9784  -1.9680
    -1.9599  -1.8930  -1.8778  -1.8464  -1.7545  -1.7492  -1.6044  -1.0827
    -0.9601  -0.3146  -0.2644   1.3345   1.8174   1.8464   2.5325   2.7583
     3.1137   4.0559   4.9814   5.0237   5.0318   5.4121   5.9383

          k = 0.0420-0.0404 0.0000 ( 35555 PWs)   bands (ev):

    -7.2219  -5.8002  -5.7932  -5.5552  -5.4975  -5.3949  -5.3131  -5.2844
    -5.2444  -5.1645  -5.1102  -5.0469  -4.9117  -4.7567  -4.6316  -4.2740
    -4.2525  -4.2017  -4.1111  -4.0851  -3.9565  -3.8947  -3.8743  -3.8631
    -3.8433  -3.8084  -3.6370  -3.5852  -3.5803  -3.5521  -3.4399  -3.3830
    -3.3574  -3.3202  -3.1627  -2.9355  -2.8995  -2.8479  -2.7913  -2.7798
    -2.7129  -2.6860  -2.6694  -2.6229  -2.6139  -2.5393  -2.4676  -2.3643
    -2.3484  -2.2670  -2.2576  -2.1434  -2.1369  -2.0700  -2.0688  -1.9294
    -1.9033  -1.8576  -1.8396  -1.8203  -1.6739  -1.6667  -1.6665  -0.9161
    -0.4975  -0.4817   0.4555   1.0405   1.5025   2.0953   2.2030   2.5729
     3.0808   4.1089   4.4862   4.7002   4.8357   5.0762   5.5377

          k = 0.0560-0.0323 0.0000 ( 35553 PWs)   bands (ev):

    -7.0932  -5.8801  -5.6939  -5.4648  -5.3854  -5.3066  -5.3066  -5.2068
    -5.2068  -5.1489  -5.0198  -5.0198  -4.8773  -4.5861  -4.5861  -4.3036
    -4.2545  -4.2545  -4.1452  -4.0801  -3.9268  -3.9258  -3.9258  -3.8934
    -3.7897  -3.7897  -3.6463  -3.5223  -3.5222  -3.4950  -3.4658  -3.4048
    -3.4040  -3.4040  -3.0951  -2.9695  -2.9409  -2.9409  -2.8465  -2.7723
    -2.7723  -2.7508  -2.7402  -2.7402  -2.7358  -2.6844  -2.5667  -2.4088
    -2.4088  -2.2912  -2.2753  -2.2660  -2.1758  -2.1758  -2.1013  -2.0909
    -2.0339  -1.8607  -1.8606  -1.8374  -1.7871  -1.6386  -1.6386  -1.2961
    -0.3813   0.2196   0.2196   1.1699   1.2822   1.2822   2.3168   3.2774
     3.2774   4.2477   4.2477   4.8073   4.9333   5.5249   5.5250

          k = 0.0560-0.0162 0.0000 ( 35555 PWs)   bands (ev):

    -7.2219  -5.8002  -5.7932  -5.5552  -5.4975  -5.3949  -5.3131  -5.2844
    -5.2444  -5.1645  -5.1102  -5.0469  -4.9117  -4.7567  -4.6316  -4.2740
    -4.2525  -4.2017  -4.1111  -4.0851  -3.9565  -3.8947  -3.8743  -3.8631
    -3.8433  -3.8084  -3.6370  -3.5852  -3.5803  -3.5521  -3.4399  -3.3830
    -3.3574  -3.3202  -3.1627  -2.9355  -2.8995  -2.8479  -2.7913  -2.7798
    -2.7129  -2.6860  -2.6694  -2.6229  -2.6139  -2.5393  -2.4676  -2.3643
    -2.3484  -2.2670  -2.2576  -2.1434  -2.1369  -2.0700  -2.0688  -1.9294
    -1.9033  -1.8576  -1.8396  -1.8203  -1.6739  -1.6667  -1.6665  -0.9161
    -0.4975  -0.4817   0.4555   1.0405   1.5025   2.0953   2.2030   2.5729
     3.0808   4.1089   4.4862   4.7002   4.8357   5.0762   5.7912

          k = 0.0560 0.0000 0.0000 ( 35557 PWs)   bands (ev):

    -7.2653  -5.8366  -5.6639  -5.6639  -5.5857  -5.3551  -5.3551  -5.3177
    -5.2576  -5.1526  -5.1526  -5.0555  -4.8722  -4.8722  -4.6474  -4.2799
    -4.2379  -4.1541  -4.1541  -4.0372  -3.9968  -3.8880  -3.8880  -3.8734
    -3.8496  -3.6988  -3.6988  -3.6483  -3.5874  -3.5672  -3.4509  -3.3442
    -3.3442  -3.2897  -3.1791  -2.9414  -2.8706  -2.8048  -2.7812  -2.7812
    -2.6886  -2.6886  -2.6486  -2.5279  -2.5130  -2.5130  -2.4705  -2.4357
    -2.3154  -2.3154  -2.2125  -2.0995  -2.0995  -2.0200  -1.9722  -1.9486
    -1.8858  -1.8544  -1.8544  -1.7451  -1.7451  -1.7159  -1.1264  -1.1264
    -0.5375  -0.2966  -0.2966   1.8934   1.9700   1.9700   2.0188   2.1068
     2.9573   3.6024   4.8032   4.8527   5.1110   5.1110   5.5078

          k = 0.0560 0.0162 0.0000 ( 35555 PWs)   bands (ev):

    -7.2219  -5.8002  -5.7932  -5.5552  -5.4975  -5.3949  -5.3131  -5.2844
    -5.2444  -5.1645  -5.1102  -5.0469  -4.9117  -4.7567  -4.6316  -4.2740
    -4.2525  -4.2017  -4.1111  -4.0851  -3.9565  -3.8947  -3.8743  -3.8631
    -3.8433  -3.8084  -3.6370  -3.5852  -3.5803  -3.5521  -3.4399  -3.3830
    -3.3574  -3.3202  -3.1627  -2.9355  -2.8995  -2.8479  -2.7913  -2.7798
    -2.7129  -2.6860  -2.6694  -2.6229  -2.6139  -2.5393  -2.4676  -2.3643
    -2.3484  -2.2670  -2.2576  -2.1434  -2.1369  -2.0700  -2.0688  -1.9294
    -1.9033  -1.8576  -1.8396  -1.8203  -1.6739  -1.6667  -1.6665  -0.9161
    -0.4975  -0.4817   0.4555   1.0405   1.5025   2.0953   2.2030   2.5729
     3.0808   4.1089   4.4861   4.7002   4.8356   5.0762   5.5375

          k = 0.0560 0.0323 0.0000 ( 35553 PWs)   bands (ev):

    -7.0932  -5.8801  -5.6939  -5.4648  -5.3854  -5.3066  -5.3066  -5.2068
    -5.2068  -5.1489  -5.0198  -5.0198  -4.8773  -4.5861  -4.5861  -4.3036
    -4.2545  -4.2545  -4.1452  -4.0801  -3.9268  -3.9258  -3.9258  -3.8934
    -3.7897  -3.7897  -3.6463  -3.5223  -3.5222  -3.4950  -3.4658  -3.4048
    -3.4040  -3.4040  -3.0951  -2.9695  -2.9409  -2.9409  -2.8465  -2.7723
    -2.7723  -2.7509  -2.7402  -2.7402  -2.7358  -2.6844  -2.5667  -2.4088
    -2.4088  -2.2912  -2.2753  -2.2660  -2.1758  -2.1758  -2.1013  -2.0909
    -2.0339  -1.8606  -1.8606  -1.8374  -1.7871  -1.6387  -1.6386  -1.2961
    -0.3813   0.2196   0.2196   1.1699   1.2822   1.2822   2.3168   3.2774
     3.2774   4.2477   4.2477   4.8073   4.9333   5.5249   5.5250

          k = 0.0560 0.0485 0.0000 ( 35600 PWs)   bands (ev):

    -6.8846  -5.9259  -5.5264  -5.3245  -5.3197  -5.3185  -5.1507  -5.1345
    -5.1051  -5.0968  -4.9696  -4.8835  -4.7839  -4.5178  -4.4458  -4.3841
    -4.2681  -4.2239  -4.2141  -4.0891  -4.0315  -3.9947  -3.9302  -3.9195
    -3.7159  -3.7114  -3.6900  -3.5695  -3.5551  -3.5065  -3.4597  -3.4350
    -3.4175  -3.3275  -3.0878  -3.0425  -3.0270  -3.0220  -2.9822  -2.9426
    -2.9120  -2.9038  -2.8282  -2.8249  -2.7709  -2.7449  -2.6652  -2.5902
    -2.5438  -2.4796  -2.3395  -2.3168  -2.2213  -2.1707  -2.1378  -2.0412
    -2.0263  -1.9060  -1.8526  -1.8487  -1.8185  -1.6757  -1.6642  -1.4220
    -0.4726  -0.1983   0.4381   0.9509   0.9577   2.1430   2.4798   2.6631
     3.7274   4.1660   4.5564   5.0973   5.2129   5.4301   5.8724

          k = 0.0560-0.1294 0.0000 ( 35550 PWs)   bands (ev):

    -6.6064  -5.9391  -5.4152  -5.3171  -5.2023  -5.1285  -5.0851  -5.0350
    -5.0100  -4.9524  -4.8910  -4.7117  -4.6367  -4.5165  -4.4726  -4.4582
    -4.2894  -4.2464  -4.2216  -4.1401  -4.0927  -3.9963  -3.9644  -3.9457
    -3.7601  -3.7064  -3.6484  -3.6286  -3.6253  -3.5398  -3.4933  -3.4922
    -3.4278  -3.3788  -3.3121  -3.1985  -3.1902  -3.1565  -3.1171  -3.0840
    -3.0733  -2.8603  -2.8586  -2.7915  -2.7502  -2.7070  -2.6988  -2.6467
    -2.5723  -2.5469  -2.3765  -2.3570  -2.2572  -2.1336  -2.1333  -1.9990
    -1.9634  -1.9428  -1.8849  -1.8636  -1.8487  -1.7616  -1.7520  -1.4360
    -1.0493  -0.3082   0.0441   0.8179   1.7125   1.7820   2.9316   3.1099
     3.5350   4.3689   4.5202   5.3291   5.3420   5.4601   6.1309

          k = 0.0560-0.1132 0.0000 ( 35506 PWs)   bands (ev):

    -6.2775  -5.9352  -5.6227  -5.1106  -5.0673  -5.0248  -4.9271  -4.9212
    -4.8913  -4.8587  -4.7892  -4.6513  -4.5604  -4.5366  -4.5163  -4.4542
    -4.4286  -4.3127  -4.2440  -4.1906  -4.0311  -4.0235  -3.9371  -3.8364
    -3.8356  -3.8239  -3.7825  -3.7640  -3.7481  -3.7454  -3.5330  -3.4834
    -3.4430  -3.4196  -3.3873  -3.3145  -3.2855  -3.2526  -3.2351  -3.1923
    -3.0273  -2.9003  -2.8316  -2.8189  -2.6691  -2.6658  -2.6447  -2.6423
    -2.5611  -2.4053  -2.3591  -2.3156  -2.2403  -2.1203  -2.0828  -2.0151
    -1.9754  -1.9643  -1.9458  -1.8945  -1.8701  -1.8630  -1.7118  -1.5289
    -1.4263  -0.9399   0.3478   0.7477   1.1984   2.4521   3.1725   3.5520
     3.6345   4.2553   4.6721   4.8394   5.5279   5.6304   5.9323

          k = 0.0560-0.0970 0.0000 ( 35505 PWs)   bands (ev):

    -5.9312  -5.9312  -5.9312  -5.0068  -5.0068  -5.0068  -4.8316  -4.7948
    -4.7828  -4.7439  -4.7439  -4.7438  -4.6527  -4.6527  -4.6527  -4.3368
    -4.3300  -4.2157  -4.2157  -4.2157  -4.0660  -4.0660  -4.0659  -3.9061
    -3.9061  -3.9061  -3.8324  -3.8324  -3.8324  -3.7156  -3.4212  -3.4206
    -3.4105  -3.4056  -3.3839  -3.3839  -3.3839  -3.3068  -3.3068  -3.3068
    -2.9048  -2.9048  -2.9048  -2.7643  -2.7543  -2.6218  -2.6218  -2.6218
    -2.4360  -2.4360  -2.4360  -2.1147  -2.1147  -2.1147  -2.0423  -2.0419
    -1.9717  -1.9717  -1.9717  -1.9210  -1.9016  -1.9016  -1.9016  -1.4210
    -1.4210  -1.4210   0.7258   0.7258   0.7258   3.0053   3.2006   3.2080
     4.2174   4.2174   4.2174   5.3725   5.3735   5.3863   6.0007

          k = 0.0560-0.0808 0.0000 ( 35506 PWs)   bands (ev):

    -6.2775  -5.9352  -5.6227  -5.1106  -5.0673  -5.0248  -4.9271  -4.9212
    -4.8913  -4.8587  -4.7892  -4.6513  -4.5604  -4.5366  -4.5163  -4.4542
    -4.4286  -4.3127  -4.2440  -4.1906  -4.0311  -4.0235  -3.9371  -3.8364
    -3.8356  -3.8239  -3.7825  -3.7640  -3.7481  -3.7454  -3.5330  -3.4834
    -3.4430  -3.4196  -3.3873  -3.3145  -3.2855  -3.2526  -3.2351  -3.1923
    -3.0273  -2.9003  -2.8316  -2.8189  -2.6691  -2.6658  -2.6447  -2.6423
    -2.5611  -2.4053  -2.3591  -2.3156  -2.2403  -2.1203  -2.0828  -2.0151
    -1.9754  -1.9643  -1.9458  -1.8945  -1.8701  -1.8630  -1.7118  -1.5289
    -1.4263  -0.9399   0.3478   0.7477   1.1984   2.4521   3.1725   3.5520
     3.6345   4.2553   4.6721   4.8394   5.5279   5.6304   5.9323

          k = 0.0560-0.0647 0.0000 ( 35550 PWs)   bands (ev):

    -6.6064  -5.9391  -5.4152  -5.3171  -5.2023  -5.1285  -5.0851  -5.0350
    -5.0100  -4.9524  -4.8910  -4.7117  -4.6367  -4.5165  -4.4726  -4.4582
    -4.2894  -4.2464  -4.2216  -4.1401  -4.0927  -3.9963  -3.9644  -3.9457
    -3.7601  -3.7064  -3.6484  -3.6286  -3.6253  -3.5398  -3.4933  -3.4922
    -3.4278  -3.3788  -3.3121  -3.1985  -3.1902  -3.1565  -3.1171  -3.0840
    -3.0733  -2.8603  -2.8586  -2.7915  -2.7502  -2.7070  -2.6988  -2.6467
    -2.5723  -2.5469  -2.3765  -2.3570  -2.2572  -2.1336  -2.1333  -1.9990
    -1.9634  -1.9428  -1.8849  -1.8636  -1.8487  -1.7616  -1.7520  -1.4360
    -1.0493  -0.3082   0.0441   0.8179   1.7125   1.7820   2.9316   3.1099
     3.5350   4.3689   4.5202   5.3291   5.3420   5.4601   6.1306

          k = 0.0560-0.0485 0.0000 ( 35600 PWs)   bands (ev):

    -6.8846  -5.9259  -5.5264  -5.3245  -5.3197  -5.3185  -5.1507  -5.1345
    -5.1051  -5.0968  -4.9696  -4.8835  -4.7839  -4.5178  -4.4458  -4.3841
    -4.2681  -4.2239  -4.2141  -4.0891  -4.0315  -3.9947  -3.9302  -3.9195
    -3.7159  -3.7114  -3.6900  -3.5695  -3.5551  -3.5065  -3.4597  -3.4350
    -3.4175  -3.3275  -3.0878  -3.0425  -3.0270  -3.0220  -2.9822  -2.9426
    -2.9120  -2.9038  -2.8282  -2.8249  -2.7709  -2.7449  -2.6652  -2.5902
    -2.5438  -2.4796  -2.3395  -2.3168  -2.2213  -2.1707  -2.1378  -2.0412
    -2.0263  -1.9060  -1.8526  -1.8487  -1.8185  -1.6757  -1.6642  -1.4220
    -0.4726  -0.1983   0.4381   0.9509   0.9577   2.1430   2.4798   2.6631
     3.7274   4.1660   4.5564   5.0973   5.2129   5.4300   5.8724

          k = 0.0700-0.0404 0.0000 ( 35577 PWs)   bands (ev):

    -6.7349  -6.0711  -5.4469  -5.3239  -5.2391  -5.1340  -5.1340  -5.1012
    -5.1012  -5.0915  -4.8477  -4.8477  -4.7364  -4.4414  -4.4077  -4.4076
    -4.2445  -4.2259  -4.2259  -4.1017  -4.1017  -4.0985  -3.9245  -3.8760
    -3.6847  -3.6454  -3.6454  -3.5280  -3.5280  -3.4809  -3.4531  -3.4442
    -3.4131  -3.2468  -3.1637  -3.1637  -3.1221  -3.1031  -3.1031  -3.0745
    -3.0311  -2.8661  -2.8261  -2.8261  -2.8225  -2.8167  -2.6785  -2.6372
    -2.6044  -2.6044  -2.3977  -2.3334  -2.3053  -2.2371  -2.2371  -2.2227
    -2.0098  -1.8638  -1.8638  -1.8315  -1.8142  -1.6520  -1.6353  -1.6352
    -0.0667   0.1994   0.1994   0.6817   1.2561   1.2561   2.9160   3.1912
     3.1912   4.1958   5.0380   5.0380   5.2291   6.0310   6.0927

          k = 0.0700-0.0243 0.0000 ( 35600 PWs)   bands (ev):

    -6.8846  -5.9259  -5.5264  -5.3245  -5.3197  -5.3185  -5.1507  -5.1345
    -5.1051  -5.0968  -4.9696  -4.8835  -4.7839  -4.5178  -4.4458  -4.3841
    -4.2681  -4.2239  -4.2141  -4.0891  -4.0315  -3.9947  -3.9302  -3.9195
    -3.7159  -3.7114  -3.6900  -3.5695  -3.5551  -3.5065  -3.4597  -3.4350
    -3.4175  -3.3275  -3.0878  -3.0425  -3.0270  -3.0220  -2.9822  -2.9426
    -2.9120  -2.9038  -2.8282  -2.8249  -2.7709  -2.7449  -2.6652  -2.5902
    -2.5438  -2.4796  -2.3395  -2.3168  -2.2213  -2.1707  -2.1378  -2.0412
    -2.0263  -1.9060  -1.8526  -1.8487  -1.8185  -1.6757  -1.6642  -1.4220
    -0.4726  -0.1983   0.4381   0.9509   0.9577   2.1430   2.4798   2.6631
     3.7274   4.1660   4.5564   5.0973   5.2129   5.4300   5.8723

          k = 0.0700-0.0081 0.0000 ( 35570 PWs)   bands (ev):

    -6.9608  -5.7451  -5.5667  -5.5385  -5.3570  -5.2726  -5.2053  -5.1454
    -5.1054  -5.0837  -5.0507  -4.8991  -4.7624  -4.6645  -4.4724  -4.3663
    -4.2913  -4.1798  -4.1589  -4.1284  -4.0132  -3.9480  -3.9268  -3.9170
    -3.7621  -3.7403  -3.6810  -3.6790  -3.6303  -3.4703  -3.4400  -3.4279
    -3.4136  -3.3675  -3.0334  -3.0060  -2.9740  -2.9619  -2.9479  -2.9323
    -2.9312  -2.8583  -2.7938  -2.7696  -2.7185  -2.7150  -2.5918  -2.5644
    -2.5582  -2.4406  -2.3920  -2.2092  -2.1866  -2.0607  -1.9784  -1.9680
    -1.9599  -1.8930  -1.8778  -1.8464  -1.7545  -1.7492  -1.6044  -1.0827
    -0.9601  -0.3146  -0.2644   1.3345   1.8174   1.8464   2.5325   2.7583
     3.1137   4.0559   4.9814   5.0237   5.0318   5.4121   5.9378

          k = 0.0700 0.0081 0.0000 ( 35570 PWs)   bands (ev):

    -6.9608  -5.7451  -5.5667  -5.5385  -5.3570  -5.2726  -5.2053  -5.1454
    -5.1054  -5.0837  -5.0507  -4.8991  -4.7624  -4.6645  -4.4724  -4.3663
    -4.2913  -4.1798  -4.1589  -4.1284  -4.0132  -3.9480  -3.9268  -3.9170
    -3.7621  -3.7403  -3.6810  -3.6790  -3.6303  -3.4703  -3.4400  -3.4279
    -3.4136  -3.3675  -3.0334  -3.0060  -2.9740  -2.9619  -2.9479  -2.9323
    -2.9312  -2.8583  -2.7938  -2.7696  -2.7185  -2.7150  -2.5918  -2.5644
    -2.5582  -2.4406  -2.3920  -2.2092  -2.1866  -2.0607  -1.9784  -1.9680
    -1.9599  -1.8930  -1.8778  -1.8464  -1.7546  -1.7492  -1.6044  -1.0827
    -0.9601  -0.3146  -0.2644   1.3345   1.8174   1.8464   2.5325   2.7583
     3.1137   4.0559   4.9814   5.0237   5.0318   5.4121   5.9384

          k = 0.0700 0.0243 0.0000 ( 35600 PWs)   bands (ev):

    -6.8846  -5.9259  -5.5264  -5.3245  -5.3197  -5.3185  -5.1507  -5.1345
    -5.1051  -5.0968  -4.9696  -4.8835  -4.7839  -4.5178  -4.4458  -4.3841
    -4.2681  -4.2239  -4.2141  -4.0891  -4.0315  -3.9947  -3.9302  -3.9195
    -3.7159  -3.7114  -3.6900  -3.5695  -3.5551  -3.5065  -3.4597  -3.4350
    -3.4175  -3.3275  -3.0878  -3.0425  -3.0270  -3.0220  -2.9822  -2.9426
    -2.9120  -2.9038  -2.8282  -2.8249  -2.7709  -2.7449  -2.6652  -2.5902
    -2.5438  -2.4796  -2.3395  -2.3168  -2.2213  -2.1707  -2.1378  -2.0412
    -2.0263  -1.9060  -1.8526  -1.8487  -1.8185  -1.6757  -1.6642  -1.4220
    -0.4726  -0.1983   0.4381   0.9509   0.9577   2.1430   2.4798   2.6631
     3.7274   4.1660   4.5564   5.0973   5.2129   5.4301   5.8730

          k = 0.0700 0.0404 0.0000 ( 35577 PWs)   bands (ev):

    -6.7349  -6.0711  -5.4469  -5.3239  -5.2391  -5.1340  -5.1340  -5.1012
    -5.1012  -5.0915  -4.8477  -4.8477  -4.7364  -4.4414  -4.4076  -4.4076
    -4.2445  -4.2259  -4.2259  -4.1017  -4.1017  -4.0985  -3.9245  -3.8760
    -3.6847  -3.6454  -3.6454  -3.5280  -3.5280  -3.4809  -3.4531  -3.4442
    -3.4131  -3.2468  -3.1637  -3.1637  -3.1221  -3.1031  -3.1031  -3.0745
    -3.0311  -2.8661  -2.8261  -2.8261  -2.8225  -2.8167  -2.6785  -2.6372
    -2.6044  -2.6044  -2.3977  -2.3334  -2.3053  -2.2371  -2.2371  -2.2227
    -2.0098  -1.8638  -1.8638  -1.8315  -1.8142  -1.6520  -1.6353  -1.6352
    -0.0667   0.1994   0.1994   0.6817   1.2561   1.2561   2.9160   3.1912
     3.1912   4.1958   5.0380   5.0380   5.2291   6.0312   6.0927

          k = 0.0700-0.1374 0.0000 ( 35563 PWs)   bands (ev):

    -6.5180  -6.1771  -5.3323  -5.2789  -5.1990  -5.1219  -5.0752  -5.0548
    -5.0482  -4.9888  -4.7907  -4.7100  -4.6427  -4.5069  -4.4507  -4.4288
    -4.2849  -4.2051  -4.2012  -4.1933  -4.1468  -4.0314  -3.9113  -3.8699
    -3.6886  -3.6621  -3.5752  -3.5301  -3.5229  -3.5202  -3.5096  -3.4598
    -3.4144  -3.3580  -3.2818  -3.2689  -3.2259  -3.1829  -3.1767  -3.1672
    -3.1146  -2.9233  -2.8480  -2.8193  -2.7761  -2.7283  -2.6977  -2.6876
    -2.6465  -2.5717  -2.4535  -2.3875  -2.3207  -2.2698  -2.2432  -2.2125
    -1.9311  -1.9038  -1.8555  -1.8543  -1.8282  -1.7141  -1.6743  -1.6601
    -0.4628   0.1303   0.4354   0.5041   0.9198   2.1042   2.4355   3.2770
     3.8035   3.9173   4.8218   5.4285   5.4947   5.8301   6.0124

          k = 0.0700-0.1213 0.0000 ( 35570 PWs)   bands (ev):

    -6.2449  -6.2449  -5.3607  -5.1938  -5.1938  -5.0442  -4.9910  -4.9910
    -4.9780  -4.9071  -4.7369  -4.5912  -4.5521  -4.5375  -4.5277  -4.5277
    -4.3557  -4.3557  -4.2007  -4.1314  -4.1223  -3.9022  -3.8878  -3.8878
    -3.7949  -3.7339  -3.7339  -3.6413  -3.6321  -3.6321  -3.5388  -3.4939
    -3.4435  -3.3770  -3.3770  -3.3695  -3.2687  -3.2369  -3.1781  -3.1781
    -3.0072  -3.0072  -2.8359  -2.7603  -2.7158  -2.7158  -2.7150  -2.6774
    -2.4984  -2.4984  -2.3748  -2.3748  -2.2872  -2.2392  -2.2392  -2.1581
    -1.9601  -1.9130  -1.9129  -1.8864  -1.7649  -1.7499  -1.7150  -1.7150
    -1.0374  -0.3039   0.3975   0.3975   1.6776   1.7621   2.9065   3.7291
     3.7291   3.8065   4.8212   5.2522   5.4626   5.6969   5.6969

          k = 0.0700-0.1051 0.0000 ( 35506 PWs)   bands (ev):

    -6.2775  -5.9352  -5.6227  -5.1106  -5.0673  -5.0248  -4.9271  -4.9212
    -4.8913  -4.8587  -4.7892  -4.6513  -4.5604  -4.5366  -4.5163  -4.4542
    -4.4286  -4.3127  -4.2440  -4.1907  -4.0311  -4.0235  -3.9371  -3.8364
    -3.8356  -3.8239  -3.7825  -3.7640  -3.7481  -3.7454  -3.5330  -3.4834
    -3.4430  -3.4196  -3.3873  -3.3145  -3.2855  -3.2526  -3.2351  -3.1923
    -3.0273  -2.9003  -2.8316  -2.8189  -2.6691  -2.6658  -2.6447  -2.6423
    -2.5611  -2.4053  -2.3591  -2.3156  -2.2403  -2.1203  -2.0828  -2.0151
    -1.9754  -1.9643  -1.9458  -1.8945  -1.8701  -1.8630  -1.7118  -1.5289
    -1.4263  -0.9399   0.3478   0.7477   1.1984   2.4521   3.1725   3.5520
     3.6345   4.2553   4.6721   4.8394   5.5279   5.6304   5.9324

          k = 0.0700-0.0889 0.0000 ( 35506 PWs)   bands (ev):

    -6.2775  -5.9352  -5.6227  -5.1106  -5.0673  -5.0248  -4.9271  -4.9212
    -4.8913  -4.8587  -4.7892  -4.6513  -4.5604  -4.5366  -4.5163  -4.4542
    -4.4286  -4.3127  -4.2440  -4.1907  -4.0311  -4.0235  -3.9371  -3.8364
    -3.8356  -3.8239  -3.7825  -3.7640  -3.7481  -3.7454  -3.5330  -3.4834
    -3.4430  -3.4196  -3.3873  -3.3145  -3.2855  -3.2526  -3.2351  -3.1923
    -3.0273  -2.9003  -2.8316  -2.8189  -2.6691  -2.6658  -2.6447  -2.6423
    -2.5611  -2.4053  -2.3591  -2.3156  -2.2403  -2.1203  -2.0828  -2.0151
    -1.9754  -1.9643  -1.9458  -1.8945  -1.8701  -1.8630  -1.7118  -1.5289
    -1.4263  -0.9399   0.3478   0.7477   1.1984   2.4521   3.1725   3.5520
     3.6345   4.2553   4.6721   4.8394   5.5279   5.6304   5.9326

          k = 0.0700-0.0728 0.0000 ( 35570 PWs)   bands (ev):

    -6.2449  -6.2449  -5.3607  -5.1939  -5.1938  -5.0442  -4.9910  -4.9910
    -4.9780  -4.9071  -4.7369  -4.5912  -4.5521  -4.5375  -4.5277  -4.5277
    -4.3557  -4.3557  -4.2007  -4.1314  -4.1223  -3.9022  -3.8878  -3.8878
    -3.7949  -3.7339  -3.7339  -3.6413  -3.6321  -3.6321  -3.5388  -3.4939
    -3.4435  -3.3770  -3.3770  -3.3695  -3.2687  -3.2369  -3.1781  -3.1781
    -3.0072  -3.0072  -2.8359  -2.7603  -2.7158  -2.7158  -2.7150  -2.6774
    -2.4984  -2.4984  -2.3748  -2.3748  -2.2872  -2.2392  -2.2392  -2.1581
    -1.9601  -1.9130  -1.9129  -1.8864  -1.7649  -1.7499  -1.7150  -1.7150
    -1.0374  -0.3039   0.3975   0.3975   1.6776   1.7621   2.9065   3.7291
     3.7291   3.8065   4.8212   5.2522   5.4626   5.6969   5.6969

          k = 0.0700-0.0566 0.0000 ( 35563 PWs)   bands (ev):

    -6.5180  -6.1771  -5.3323  -5.2789  -5.1990  -5.1219  -5.0752  -5.0548
    -5.0482  -4.9888  -4.7907  -4.7100  -4.6427  -4.5069  -4.4507  -4.4288
    -4.2849  -4.2051  -4.2012  -4.1933  -4.1468  -4.0314  -3.9113  -3.8699
    -3.6886  -3.6621  -3.5752  -3.5301  -3.5229  -3.5202  -3.5096  -3.4598
    -3.4144  -3.3580  -3.2818  -3.2689  -3.2259  -3.1829  -3.1767  -3.1672
    -3.1146  -2.9233  -2.8480  -2.8193  -2.7761  -2.7283  -2.6977  -2.6876
    -2.6465  -2.5717  -2.4535  -2.3875  -2.3207  -2.2698  -2.2432  -2.2125
    -1.9311  -1.9038  -1.8555  -1.8543  -1.8282  -1.7141  -1.6743  -1.6601
    -0.4628   0.1303   0.4354   0.5041   0.9198   2.1042   2.4355   3.2770
     3.8035   3.9173   4.8218   5.4286   5.4947   5.8302   6.0122

          k =-0.0840 0.0485 0.0000 ( 35574 PWs)   bands (ev):

    -6.3732  -6.3732  -5.3236  -5.3236  -5.0984  -5.0984  -5.0685  -5.0685
    -5.0559  -5.0559  -4.7257  -4.7257  -4.5860  -4.5860  -4.4049  -4.4049
    -4.2595  -4.2595  -4.2254  -4.2254  -4.0671  -4.0671  -3.8837  -3.8837
    -3.5896  -3.5896  -3.5381  -3.5381  -3.5268  -3.5268  -3.4068  -3.4068
    -3.3180  -3.3180  -3.3062  -3.3061  -3.3015  -3.3015  -3.2350  -3.2350
    -3.0262  -3.0262  -2.8155  -2.8155  -2.8023  -2.8023  -2.6893  -2.6893
    -2.6107  -2.6107  -2.5351  -2.5351  -2.3017  -2.3016  -2.2569  -2.2569
    -1.8649  -1.8649  -1.8638  -1.8637  -1.8250  -1.8250  -1.6333  -1.6333
     0.1944   0.1944   0.2801   0.2801   1.2480   1.2480   3.1625   3.1625
     3.5493   3.5493   5.5753   5.5753   5.5953   5.5953   6.1208

          k =-0.0840 0.0647 0.0000 ( 35563 PWs)   bands (ev):

    -6.5180  -6.1771  -5.3323  -5.2789  -5.1990  -5.1219  -5.0752  -5.0548
    -5.0482  -4.9888  -4.7907  -4.7100  -4.6427  -4.5069  -4.4507  -4.4288
    -4.2849  -4.2051  -4.2012  -4.1933  -4.1468  -4.0314  -3.9113  -3.8699
    -3.6886  -3.6621  -3.5752  -3.5301  -3.5229  -3.5202  -3.5096  -3.4598
    -3.4144  -3.3580  -3.2818  -3.2689  -3.2259  -3.1829  -3.1767  -3.1672
    -3.1146  -2.9233  -2.8480  -2.8193  -2.7761  -2.7283  -2.6976  -2.6876
    -2.6465  -2.5717  -2.4535  -2.3875  -2.3207  -2.2698  -2.2432  -2.2125
    -1.9311  -1.9038  -1.8555  -1.8543  -1.8282  -1.7141  -1.6743  -1.6601
    -0.4628   0.1303   0.4354   0.5041   0.9198   2.1042   2.4355   3.2770
     3.8035   3.9173   4.8218   5.4285   5.4947   5.8301   6.0114

          k =-0.0840 0.0808 0.0000 ( 35550 PWs)   bands (ev):

    -6.6064  -5.9391  -5.4152  -5.3171  -5.2023  -5.1285  -5.0851  -5.0350
    -5.0100  -4.9524  -4.8910  -4.7117  -4.6367  -4.5165  -4.4726  -4.4582
    -4.2894  -4.2464  -4.2216  -4.1401  -4.0927  -3.9963  -3.9644  -3.9457
    -3.7601  -3.7064  -3.6484  -3.6286  -3.6253  -3.5398  -3.4933  -3.4922
    -3.4278  -3.3788  -3.3121  -3.1985  -3.1902  -3.1565  -3.1171  -3.0840
    -3.0733  -2.8603  -2.8586  -2.7915  -2.7502  -2.7070  -2.6988  -2.6467
    -2.5723  -2.5469  -2.3765  -2.3570  -2.2572  -2.1336  -2.1333  -1.9990
    -1.9634  -1.9428  -1.8849  -1.8636  -1.8487  -1.7616  -1.7520  -1.4360
    -1.0493  -0.3082   0.0441   0.8179   1.7125   1.7820   2.9316   3.1099
     3.5350   4.3689   4.5202   5.3291   5.3417   5.4601   6.0522

          k =-0.0840 0.0970 0.0000 ( 35543 PWs)   bands (ev):

    -6.6361  -5.6758  -5.6758  -5.3057  -5.1296  -5.1217  -5.1217  -5.0304
    -4.9706  -4.9706  -4.9392  -4.7131  -4.5521  -4.5521  -4.5445  -4.4856
    -4.2576  -4.2576  -4.2286  -4.1234  -4.0723  -4.0036  -4.0036  -3.9708
    -3.7357  -3.7227  -3.6990  -3.6990  -3.6544  -3.5291  -3.5291  -3.4787
    -3.3913  -3.3727  -3.3727  -3.2028  -3.1461  -3.1383  -3.1383  -3.0633
    -3.0212  -2.8601  -2.7932  -2.7932  -2.7642  -2.7154  -2.6601  -2.6601
    -2.5345  -2.5079  -2.4307  -2.2671  -2.2671  -2.0416  -2.0295  -1.9639
    -1.9639  -1.9335  -1.8659  -1.8639  -1.8639  -1.8212  -1.5550  -1.5550
    -0.9515  -0.9515   0.0161   1.2402   1.2402   2.5399   2.5771   3.0536
     3.7268   4.0737   4.8894   4.8894   5.2961   5.6379   5.7563

          k =-0.0840 0.1132 0.0000 ( 35550 PWs)   bands (ev):

    -6.6064  -5.9391  -5.4152  -5.3171  -5.2023  -5.1285  -5.0851  -5.0350
    -5.0100  -4.9524  -4.8910  -4.7117  -4.6367  -4.5165  -4.4726  -4.4582
    -4.2894  -4.2464  -4.2216  -4.1401  -4.0927  -3.9963  -3.9644  -3.9457
    -3.7601  -3.7064  -3.6484  -3.6286  -3.6253  -3.5398  -3.4933  -3.4922
    -3.4278  -3.3788  -3.3121  -3.1985  -3.1902  -3.1565  -3.1171  -3.0840
    -3.0733  -2.8603  -2.8586  -2.7915  -2.7502  -2.7070  -2.6988  -2.6467
    -2.5723  -2.5469  -2.3765  -2.3570  -2.2572  -2.1336  -2.1333  -1.9990
    -1.9634  -1.9428  -1.8849  -1.8636  -1.8487  -1.7616  -1.7520  -1.4360
    -1.0493  -0.3082   0.0441   0.8179   1.7125   1.7820   2.9316   3.1099
     3.5350   4.3689   4.5202   5.3291   5.3417   5.4601   6.0521

          k =-0.0840 0.1294 0.0000 ( 35563 PWs)   bands (ev):

    -6.5180  -6.1771  -5.3323  -5.2789  -5.1990  -5.1219  -5.0752  -5.0548
    -5.0482  -4.9888  -4.7907  -4.7100  -4.6427  -4.5069  -4.4507  -4.4288
    -4.2849  -4.2051  -4.2012  -4.1933  -4.1468  -4.0314  -3.9113  -3.8699
    -3.6886  -3.6621  -3.5752  -3.5301  -3.5229  -3.5202  -3.5096  -3.4598
    -3.4144  -3.3580  -3.2818  -3.2689  -3.2259  -3.1829  -3.1767  -3.1672
    -3.1146  -2.9233  -2.8480  -2.8193  -2.7761  -2.7283  -2.6976  -2.6876
    -2.6465  -2.5717  -2.4535  -2.3875  -2.3207  -2.2698  -2.2432  -2.2125
    -1.9311  -1.9038  -1.8555  -1.8543  -1.8282  -1.7141  -1.6743  -1.6601
    -0.4628   0.1303   0.4354   0.5041   0.9198   2.1042   2.4355   3.2770
     3.8035   3.9173   4.8217   5.4285   5.4947   5.8301   6.0125

          k =-0.0840-0.0485 0.0000 ( 35574 PWs)   bands (ev):

    -6.3732  -6.3732  -5.3236  -5.3236  -5.0984  -5.0984  -5.0685  -5.0685
    -5.0559  -5.0559  -4.7257  -4.7257  -4.5860  -4.5860  -4.4049  -4.4049
    -4.2595  -4.2595  -4.2254  -4.2254  -4.0671  -4.0671  -3.8837  -3.8837
    -3.5896  -3.5896  -3.5381  -3.5381  -3.5268  -3.5268  -3.4068  -3.4068
    -3.3180  -3.3180  -3.3062  -3.3061  -3.3015  -3.3015  -3.2350  -3.2350
    -3.0262  -3.0262  -2.8155  -2.8155  -2.8023  -2.8023  -2.6893  -2.6893
    -2.6107  -2.6107  -2.5351  -2.5351  -2.3017  -2.3016  -2.2569  -2.2569
    -1.8649  -1.8649  -1.8638  -1.8638  -1.8250  -1.8250  -1.6334  -1.6333
     0.1944   0.1944   0.2801   0.2801   1.2480   1.2480   3.1625   3.1625
     3.5493   3.5493   5.5753   5.5753   5.5953   5.5953   6.1208

     the Fermi energy is     0.1772 ev

!    total energy              =   -1037.80531037 Ry
     estimated scf accuracy    <       0.00000350 Ry
     smearing contrib. (-TS)   =      -0.01723368 Ry
     internal energy E=F+TS    =   -1037.78807669 Ry

     The total energy is F=E-TS. E is the sum of the following terms:
     one-electron contribution =   -7941.56792287 Ry
     hartree contribution      =    4057.35312902 Ry
     xc contribution           =    -398.48916315 Ry
     ewald contribution        =    3244.91588031 Ry
     electric field correction =       0.00000001 Ry

     convergence has been achieved in  14 iterations

     negative rho (up, down):  1.302E-03 0.000E+00

     Forces acting on atoms (cartesian axes, Ry/au):

     atom    1 type  1   force =     0.00000039    0.00000191   -0.00461510
     atom    2 type  1   force =     0.00000208   -0.00000486   -0.00460487
     atom    3 type  1   force =    -0.00000787    0.00000026   -0.00460608
     atom    4 type  1   force =     0.00001030   -0.00000605   -0.00459646
     atom    5 type  1   force =    -0.00000843    0.00000465    0.00179781
     atom    6 type  1   force =    -0.00000234    0.00000663    0.00180704
     atom    7 type  1   force =     0.00000183   -0.00000111    0.00179223
     atom    8 type  1   force =     0.00000376    0.00000613    0.00179694
     atom    9 type  1   force =    -0.00001142   -0.00000666    0.00280834
     atom   10 type  1   force =    -0.00000149   -0.00000305    0.00280220
     atom   11 type  1   force =     0.00000544    0.00000089    0.00280621
     atom   12 type  1   force =     0.00000776    0.00000127    0.00281173

     Total force =     0.011371     Total SCF correction =     0.004087
     SCF correction compared to forces is large: reduce conv_thr to get better values

     Writing output data file ./Au750/Au750_beef.save/

     init_run     :    474.68s CPU    475.14s WALL (       1 calls)
     electrons    :   8071.60s CPU   9945.87s WALL (       1 calls)
     forces       :     48.11s CPU     48.33s WALL (       1 calls)

     Called by init_run:
     wfcinit      :    451.21s CPU    451.54s WALL (       1 calls)
     potinit      :     19.43s CPU     19.49s WALL (       1 calls)
     hinit0       :      1.88s CPU      1.89s WALL (       1 calls)

     Called by electrons:
     c_bands      :   6988.64s CPU   8629.02s WALL (      15 calls)
     sum_band     :   1007.85s CPU   1223.17s WALL (      15 calls)
     v_of_rho     :     75.28s CPU     88.89s WALL (      15 calls)
     newd         :     11.57s CPU     13.57s WALL (      15 calls)
     mix_rho      :      5.21s CPU      6.83s WALL (      15 calls)
     vdW_kernel   :      8.47s CPU      8.47s WALL (       1 calls)

     Called by c_bands:
     init_us_2    :      7.50s CPU      7.58s WALL (    2368 calls)
     cegterg      :   6945.98s CPU   8573.67s WALL (    1110 calls)

     Called by *egterg:
     cdiaghg      :     91.68s CPU    103.72s WALL (    5591 calls)
     h_psi        :   5844.14s CPU   7206.72s WALL (    5739 calls)
     s_psi        :    347.65s CPU    369.37s WALL (    5739 calls)
     g_psi        :      1.22s CPU      1.35s WALL (    4555 calls)

     Called by h_psi:
     h_psi:calbec :    599.67s CPU    690.17s WALL (    5739 calls)
     vloc_psi     :   4884.85s CPU   6140.28s WALL (    5739 calls)
     add_vuspsi   :    356.25s CPU    372.83s WALL (    5739 calls)

     General routines
     calbec       :    826.72s CPU    939.38s WALL (    7145 calls)
     fft          :     67.69s CPU     81.66s WALL (    1005 calls)
     ffts         :      1.94s CPU      2.36s WALL (      30 calls)
     fftw         :   5660.40s CPU   7106.61s WALL (  619354 calls)
     interpolate  :      1.91s CPU      2.38s WALL (      15 calls)

     Parallel routines
     fft_scatt_xy :     38.23s CPU     38.55s WALL (  620389 calls)
     fft_scatt_yz :   5342.67s CPU   6800.40s WALL (  620389 calls)

     PWSCF        :      2h47m CPU      3h21m WALL


   This run was terminated on:  16:56:47  20Jun2022            

=------------------------------------------------------------------------------=
   JOB DONE.
=------------------------------------------------------------------------------=
