
     Program PWSCF v.6.6 starts on 21Jun2022 at  5:43: 5 

     This program is part of the open-source Quantum ESPRESSO suite
     for quantum simulation of materials; please cite
         "P. Giannozzi et al., J. Phys.:Condens. Matter 21 395502 (2009);
         "P. Giannozzi et al., J. Phys.:Condens. Matter 29 465901 (2017);
          URL http://www.quantum-espresso.org", 
     in publications or presentations arising from this work. More details at
     http://www.quantum-espresso.org/quote

     Parallel version (MPI), running on    37 processors

     MPI processes distributed on     1 nodes
     R & G space division:  proc/nbgrp/npool/nimage =      37
     Fft bands division:     nmany     =       1
     Reading input from Ir-750.in
Warning: card &CELL ignored
Warning: card / ignored

     Current dimensions of program PWSCF are:
     Max number of different atomic species (ntypx) = 10
     Max number of k-points (npk) =  40000
     Max angular momentum in pseudopotentials (lmaxx) =  3
     Presently stress not available with electric field and gates

     Message from routine cell_base_init:
     DEPRECATED: use true lattice parameter, not A to a.u. conversion factor
     file Ir.pbe-n-rrkjus_psl.0.2.3.UPF: wavefunction(s)  5D renormalized

     **************************************************************************
     Initializing libbeef V0.1.2 with the BEEF-vdW functional.
     Citation: Wellendorff et al., PRB 85, 235149 (2012).
     **************************************************************************


     IMPORTANT: XC functional enforced from input :
     Exchange-correlation= BEEF-VDW
                           (   1   4  43  14   2   0   0)
     Any further DFT definition will be discarded
     Please, verify this is what you really want


     Subspace diagonalization in iterative solution of the eigenvalue problem:
     a serial algorithm will be used


     Parallelization info
     --------------------
     sticks:   dense  smooth     PW     G-vecs:    dense   smooth      PW
     Min         110      44     12                25398     6424     990
     Max         111      45     13                25409     6437    1003
     Sum        4081    1639    475               939885   237909   36903



     bravais-lattice index     =            0
     lattice parameter (alat)  =       1.8897  a.u.
     unit-cell volume          =    4299.0708 (a.u.)^3
     number of atoms/cell      =           12
     number of atomic types    =            1
     number of electrons       =       108.00
     number of Kohn-Sham states=           65
     kinetic-energy cutoff     =      55.1240  Ry
     charge density cutoff     =     551.2396  Ry
     convergence threshold     =      1.0E-05
     mixing beta               =       0.1000
     number of iterations used =           10  plain     mixing
     Exchange-correlation= BEEF-VDW
                           (   1   4  43  14   2   0   0)

     celldm(1)=   1.889726  celldm(2)=   0.000000  celldm(3)=   0.000000
     celldm(4)=   0.000000  celldm(5)=   0.000000  celldm(6)=   0.000000

     crystal axes: (cart. coord. in units of alat)
               a(1) = (   5.482164   0.000000   0.000000 )  
               a(2) = (   2.741082   4.747693   0.000000 )  
               a(3) = (   0.000000   0.000000  24.476168 )  

     reciprocal axes: (cart. coord. in units 2 pi/alat)
               b(1) = (  0.182410 -0.105314  0.000000 )  
               b(2) = (  0.000000  0.210629  0.000000 )  
               b(3) = (  0.000000  0.000000  0.040856 )  


     PseudoPot. # 1 for Ir read from file:
     ../pseudo/Ir.pbe-n-rrkjus_psl.0.2.3.UPF
     MD5 check sum: a93e608e8ddc29ee62145620b5f41564
     Pseudo is Ultrasoft + core correction, Zval =  9.0
     Generated using "atomic" code by A. Dal Corso v.5.0.2 svn rev. 9415
     Using radial grid of 1277 points,  6 beta functions with: 
                l(1) =   0
                l(2) =   0
                l(3) =   1
                l(4) =   1
                l(5) =   2
                l(6) =   2
     Q(r) pseudized with 0 coefficients 


     atomic species   valence    mass     pseudopotential
        Ir             9.00   192.21700     Ir( 1.00)

     No symmetry found



   Cartesian axes

     site n.     atom                  positions (alat units)
         1           Ir  tau(   1) = (   1.3705410   0.7912822  10.0000000  )
         2           Ir  tau(   2) = (   4.1116229   0.7912822  10.0000000  )
         3           Ir  tau(   3) = (   2.7410819   3.1651288  10.0000000  )
         4           Ir  tau(   4) = (   5.4821639   3.1651288  10.0000000  )
         5           Ir  tau(   5) = (   5.4821639   1.5825644  12.2380840  )
         6           Ir  tau(   6) = (   2.7410819   1.5825644  12.2380840  )
         7           Ir  tau(   7) = (   6.8527049   3.9564110  12.2380840  )
         8           Ir  tau(   8) = (   4.1116229   3.9564110  12.2380840  )
         9           Ir  tau(   9) = (   2.7412123   4.7475933  14.4200773  )
        10           Ir  tau(  10) = (   5.4820899   4.7475523  14.4199760  )
        11           Ir  tau(  11) = (   6.8526940   2.3739324  14.4197994  )
        12           Ir  tau(  12) = (   4.1116995   2.3740384  14.4200415  )

     number of k points=    74  Fermi-Dirac smearing, width (Ry)=  0.0100
                       cart. coord. in units 2pi/alat
        k(    1) = (   0.0000000   0.0000000   0.0000000), wk =   0.0138889
        k(    2) = (   0.0000000   0.0175524   0.0000000), wk =   0.0277778
        k(    3) = (   0.0000000   0.0351048   0.0000000), wk =   0.0277778
        k(    4) = (   0.0000000   0.0526572   0.0000000), wk =   0.0277778
        k(    5) = (   0.0000000   0.0702095   0.0000000), wk =   0.0277778
        k(    6) = (   0.0000000   0.0877619   0.0000000), wk =   0.0277778
        k(    7) = (   0.0000000  -0.1053143   0.0000000), wk =   0.0138889
        k(    8) = (   0.0152008  -0.0087762   0.0000000), wk =   0.0277778
        k(    9) = (   0.0152008   0.0087762   0.0000000), wk =   0.0277778
        k(   10) = (   0.0152008   0.0263286   0.0000000), wk =   0.0277778
        k(   11) = (   0.0152008   0.0438810   0.0000000), wk =   0.0277778
        k(   12) = (   0.0152008   0.0614333   0.0000000), wk =   0.0277778
        k(   13) = (   0.0152008   0.0789857   0.0000000), wk =   0.0277778
        k(   14) = (   0.0152008  -0.1140905   0.0000000), wk =   0.0277778
        k(   15) = (   0.0152008  -0.0965381   0.0000000), wk =   0.0277778
        k(   16) = (   0.0152008  -0.0789857   0.0000000), wk =   0.0277778
        k(   17) = (   0.0152008  -0.0614333   0.0000000), wk =   0.0277778
        k(   18) = (   0.0152008  -0.0438810   0.0000000), wk =   0.0277778
        k(   19) = (   0.0152008  -0.0263286   0.0000000), wk =   0.0277778
        k(   20) = (   0.0304016  -0.0175524   0.0000000), wk =   0.0277778
        k(   21) = (   0.0304016   0.0000000   0.0000000), wk =   0.0277778
        k(   22) = (   0.0304016   0.0175524   0.0000000), wk =   0.0277778
        k(   23) = (   0.0304016   0.0351048   0.0000000), wk =   0.0277778
        k(   24) = (   0.0304016   0.0526572   0.0000000), wk =   0.0277778
        k(   25) = (   0.0304016   0.0702095   0.0000000), wk =   0.0277778
        k(   26) = (   0.0304016  -0.1228667   0.0000000), wk =   0.0277778
        k(   27) = (   0.0304016  -0.1053143   0.0000000), wk =   0.0277778
        k(   28) = (   0.0304016  -0.0877619   0.0000000), wk =   0.0277778
        k(   29) = (   0.0304016  -0.0702095   0.0000000), wk =   0.0277778
        k(   30) = (   0.0304016  -0.0526572   0.0000000), wk =   0.0277778
        k(   31) = (   0.0304016  -0.0351048   0.0000000), wk =   0.0277778
        k(   32) = (   0.0456024  -0.0263286   0.0000000), wk =   0.0277778
        k(   33) = (   0.0456024  -0.0087762   0.0000000), wk =   0.0277778
        k(   34) = (   0.0456024   0.0087762   0.0000000), wk =   0.0277778
        k(   35) = (   0.0456024   0.0263286   0.0000000), wk =   0.0277778
        k(   36) = (   0.0456024   0.0438810   0.0000000), wk =   0.0277778
        k(   37) = (   0.0456024   0.0614333   0.0000000), wk =   0.0277778
        k(   38) = (   0.0456024  -0.1316429   0.0000000), wk =   0.0277778
        k(   39) = (   0.0456024  -0.1140905   0.0000000), wk =   0.0277778
        k(   40) = (   0.0456024  -0.0965381   0.0000000), wk =   0.0277778
        k(   41) = (   0.0456024  -0.0789857   0.0000000), wk =   0.0277778
        k(   42) = (   0.0456024  -0.0614333   0.0000000), wk =   0.0277778
        k(   43) = (   0.0456024  -0.0438810   0.0000000), wk =   0.0277778
        k(   44) = (   0.0608032  -0.0351048   0.0000000), wk =   0.0277778
        k(   45) = (   0.0608032  -0.0175524   0.0000000), wk =   0.0277778
        k(   46) = (   0.0608032   0.0000000   0.0000000), wk =   0.0277778
        k(   47) = (   0.0608032   0.0175524   0.0000000), wk =   0.0277778
        k(   48) = (   0.0608032   0.0351048   0.0000000), wk =   0.0277778
        k(   49) = (   0.0608032   0.0526572   0.0000000), wk =   0.0277778
        k(   50) = (   0.0608032  -0.1404191   0.0000000), wk =   0.0277778
        k(   51) = (   0.0608032  -0.1228667   0.0000000), wk =   0.0277778
        k(   52) = (   0.0608032  -0.1053143   0.0000000), wk =   0.0277778
        k(   53) = (   0.0608032  -0.0877619   0.0000000), wk =   0.0277778
        k(   54) = (   0.0608032  -0.0702095   0.0000000), wk =   0.0277778
        k(   55) = (   0.0608032  -0.0526572   0.0000000), wk =   0.0277778
        k(   56) = (   0.0760040  -0.0438810   0.0000000), wk =   0.0277778
        k(   57) = (   0.0760040  -0.0263286   0.0000000), wk =   0.0277778
        k(   58) = (   0.0760040  -0.0087762   0.0000000), wk =   0.0277778
        k(   59) = (   0.0760040   0.0087762   0.0000000), wk =   0.0277778
        k(   60) = (   0.0760040   0.0263286   0.0000000), wk =   0.0277778
        k(   61) = (   0.0760040   0.0438810   0.0000000), wk =   0.0277778
        k(   62) = (   0.0760040  -0.1491953   0.0000000), wk =   0.0277778
        k(   63) = (   0.0760040  -0.1316429   0.0000000), wk =   0.0277778
        k(   64) = (   0.0760040  -0.1140905   0.0000000), wk =   0.0277778
        k(   65) = (   0.0760040  -0.0965381   0.0000000), wk =   0.0277778
        k(   66) = (   0.0760040  -0.0789857   0.0000000), wk =   0.0277778
        k(   67) = (   0.0760040  -0.0614333   0.0000000), wk =   0.0277778
        k(   68) = (  -0.0912049   0.0526572   0.0000000), wk =   0.0138889
        k(   69) = (  -0.0912049   0.0702095   0.0000000), wk =   0.0277778
        k(   70) = (  -0.0912049   0.0877619   0.0000000), wk =   0.0277778
        k(   71) = (  -0.0912049   0.1053143   0.0000000), wk =   0.0277778
        k(   72) = (  -0.0912049   0.1228667   0.0000000), wk =   0.0277778
        k(   73) = (  -0.0912049   0.1404191   0.0000000), wk =   0.0277778
        k(   74) = (  -0.0912049  -0.0526572   0.0000000), wk =   0.0138889

     Dense  grid:   939885 G-vectors     FFT dimensions: (  80,  80, 360)

     Smooth grid:   237909 G-vectors     FFT dimensions: (  50,  50, 225)

     Estimated max dynamical RAM per process >     166.14 MB

     Estimated total dynamical RAM >       6.00 GB

     Initial potential from superposition of free atoms

     starting charge  107.99821, renormalised to  108.00000

     negative rho (up, down):  4.704E-04 0.000E+00


     %%%%%%%%%%%%%%%%%%%%%%%%%%%%%%%%%%%%%%%%%%%%%%%%%%%%%%%%%%%%%%%%%%%%%%%%
     %                                                                      %
     % You are using vdW-DF, which was implemented by the Thonhauser group. %
     % Please cite the following two papers that made this development      %
     % possible and the two reviews that describe the various versions:     %
     %                                                                      %
     %   T. Thonhauser et al., PRL 115, 136402 (2015).                      %
     %   T. Thonhauser et al., PRB 76, 125112 (2007).                       %
     %   K. Berland et al., Rep. Prog. Phys. 78, 066501 (2015).             %
     %   D.C. Langreth et al., J. Phys.: Condens. Matter 21, 084203 (2009). %
     %                                                                      %
     %                                                                      %
     % If you are calculating the stress with vdW-DF, please also cite:     %
     %                                                                      %
     %   R. Sabatini et al., J. Phys.: Condens. Matter 24, 424209 (2012).   %
     %                                                                      %
     %%%%%%%%%%%%%%%%%%%%%%%%%%%%%%%%%%%%%%%%%%%%%%%%%%%%%%%%%%%%%%%%%%%%%%%%



     Adding external electric field

     Computed dipole along edir(3) : 
        Dipole                0.0000 Ry au,          0.0000 Debye
        Dipole field          0.0000 Ry au, 

        Potential amp.       -0.0000 Ry
        Total length         45.0969 bohr

     Starting wfcs are  108 randomized atomic wfcs

     total cpu time spent up to now is      251.7 secs

     Self-consistent Calculation

     iteration #  1     ecut=    55.12 Ry     beta= 0.10
     Davidson diagonalization with overlap
     ethr =  1.00E-02,  avg # of iterations =  2.0

     Threshold (ethr) on eigenvalues was too large:
     Diagonalizing with lowered threshold

     Davidson diagonalization with overlap
     ethr =  3.01E-04,  avg # of iterations =  4.2

     negative rho (up, down):  4.796E-04 0.000E+00

     Adding external electric field

     Computed dipole along edir(3) : 
        Dipole                0.1140 Ry au,          0.2897 Debye
        Dipole field          0.0003 Ry au, 

        Potential amp.       -0.0300 Ry
        Total length         45.0969 bohr


     total cpu time spent up to now is      474.0 secs

     total energy              =    -756.66568877 Ry
     estimated scf accuracy    <       0.38603290 Ry

     iteration #  2     ecut=    55.12 Ry     beta= 0.10
     Davidson diagonalization with overlap
     ethr =  3.57E-04,  avg # of iterations =  1.6

     negative rho (up, down):  5.207E-04 0.000E+00

     Adding external electric field

     Computed dipole along edir(3) : 
        Dipole               -0.0617 Ry au,         -0.1569 Debye
        Dipole field         -0.0002 Ry au, 

        Potential amp.        0.0163 Ry
        Total length         45.0969 bohr


     total cpu time spent up to now is      557.8 secs

     total energy              =    -756.65192363 Ry
     estimated scf accuracy    <       1.03856534 Ry

     iteration #  3     ecut=    55.12 Ry     beta= 0.10
     Davidson diagonalization with overlap
     ethr =  3.57E-04,  avg # of iterations =  1.1

     negative rho (up, down):  5.054E-04 0.000E+00

     Adding external electric field

     Computed dipole along edir(3) : 
        Dipole                0.0044 Ry au,          0.0112 Debye
        Dipole field          0.0000 Ry au, 

        Potential amp.       -0.0012 Ry
        Total length         45.0969 bohr


     total cpu time spent up to now is      637.9 secs

     total energy              =    -756.63546027 Ry
     estimated scf accuracy    <       0.63611561 Ry

     iteration #  4     ecut=    55.12 Ry     beta= 0.10
     Davidson diagonalization with overlap
     ethr =  3.57E-04,  avg # of iterations =  1.8

     negative rho (up, down):  5.336E-04 0.000E+00

     Adding external electric field

     Computed dipole along edir(3) : 
        Dipole                0.0040 Ry au,          0.0103 Debye
        Dipole field          0.0000 Ry au, 

        Potential amp.       -0.0011 Ry
        Total length         45.0969 bohr


     total cpu time spent up to now is      722.5 secs

     total energy              =    -756.65901005 Ry
     estimated scf accuracy    <       0.03213958 Ry

     iteration #  5     ecut=    55.12 Ry     beta= 0.10
     Davidson diagonalization with overlap
     ethr =  2.98E-05,  avg # of iterations =  8.6

     negative rho (up, down):  5.153E-04 0.000E+00

     Adding external electric field

     Computed dipole along edir(3) : 
        Dipole                0.0097 Ry au,          0.0245 Debye
        Dipole field          0.0000 Ry au, 

        Potential amp.       -0.0025 Ry
        Total length         45.0969 bohr


     total cpu time spent up to now is      853.9 secs

     total energy              =    -756.66322811 Ry
     estimated scf accuracy    <       0.02943952 Ry

     iteration #  6     ecut=    55.12 Ry     beta= 0.10
     Davidson diagonalization with overlap
     ethr =  2.73E-05,  avg # of iterations =  5.2

     negative rho (up, down):  1.249E-03 0.000E+00

     Adding external electric field

     Computed dipole along edir(3) : 
        Dipole               -0.0017 Ry au,         -0.0043 Debye
        Dipole field         -0.0000 Ry au, 

        Potential amp.        0.0004 Ry
        Total length         45.0969 bohr


     total cpu time spent up to now is      973.3 secs

     total energy              =    -756.68048291 Ry
     estimated scf accuracy    <       0.06364072 Ry

     iteration #  7     ecut=    55.12 Ry     beta= 0.10
     Davidson diagonalization with overlap
     ethr =  2.73E-05,  avg # of iterations =  2.0

     negative rho (up, down):  1.175E-03 0.000E+00

     Adding external electric field

     Computed dipole along edir(3) : 
        Dipole               -0.0019 Ry au,         -0.0050 Debye
        Dipole field         -0.0000 Ry au, 

        Potential amp.        0.0005 Ry
        Total length         45.0969 bohr


     total cpu time spent up to now is     1059.3 secs

     total energy              =    -756.66420966 Ry
     estimated scf accuracy    <       0.05186386 Ry

     iteration #  8     ecut=    55.12 Ry     beta= 0.10
     Davidson diagonalization with overlap
     ethr =  2.73E-05,  avg # of iterations =  3.5

     negative rho (up, down):  1.085E-03 0.000E+00

     Adding external electric field

     Computed dipole along edir(3) : 
        Dipole               -0.0012 Ry au,         -0.0031 Debye
        Dipole field         -0.0000 Ry au, 

        Potential amp.        0.0003 Ry
        Total length         45.0969 bohr


     total cpu time spent up to now is     1166.2 secs

     total energy              =    -756.67246767 Ry
     estimated scf accuracy    <       0.00127230 Ry

     iteration #  9     ecut=    55.12 Ry     beta= 0.10
     Davidson diagonalization with overlap
     ethr =  1.18E-06,  avg # of iterations =  7.0

     negative rho (up, down):  9.906E-04 0.000E+00

     Adding external electric field

     Computed dipole along edir(3) : 
        Dipole               -0.0019 Ry au,         -0.0047 Debye
        Dipole field         -0.0000 Ry au, 

        Potential amp.        0.0005 Ry
        Total length         45.0969 bohr


     total cpu time spent up to now is     1314.7 secs

     total energy              =    -756.67309468 Ry
     estimated scf accuracy    <       0.00245820 Ry

     iteration # 10     ecut=    55.12 Ry     beta= 0.10
     Davidson diagonalization with overlap
     ethr =  1.18E-06,  avg # of iterations =  3.0

     negative rho (up, down):  9.425E-04 0.000E+00

     Adding external electric field

     Computed dipole along edir(3) : 
        Dipole               -0.0041 Ry au,         -0.0105 Debye
        Dipole field         -0.0000 Ry au, 

        Potential amp.        0.0011 Ry
        Total length         45.0969 bohr


     total cpu time spent up to now is     1406.5 secs

     total energy              =    -756.67310349 Ry
     estimated scf accuracy    <       0.00417479 Ry

     iteration # 11     ecut=    55.12 Ry     beta= 0.10
     Davidson diagonalization with overlap
     ethr =  1.18E-06,  avg # of iterations =  5.2

     negative rho (up, down):  8.529E-04 0.000E+00

     Adding external electric field

     Computed dipole along edir(3) : 
        Dipole               -0.0030 Ry au,         -0.0076 Debye
        Dipole field         -0.0000 Ry au, 

        Potential amp.        0.0008 Ry
        Total length         45.0969 bohr


     total cpu time spent up to now is     1519.6 secs

     total energy              =    -756.67341854 Ry
     estimated scf accuracy    <       0.00770391 Ry

     iteration # 12     ecut=    55.12 Ry     beta= 0.10
     Davidson diagonalization with overlap
     ethr =  1.18E-06,  avg # of iterations =  1.2

     negative rho (up, down):  8.002E-04 0.000E+00

     Adding external electric field

     Computed dipole along edir(3) : 
        Dipole               -0.0003 Ry au,         -0.0009 Debye
        Dipole field         -0.0000 Ry au, 

        Potential amp.        0.0001 Ry
        Total length         45.0969 bohr


     total cpu time spent up to now is     1599.8 secs

     total energy              =    -756.67285741 Ry
     estimated scf accuracy    <       0.00772474 Ry

     iteration # 13     ecut=    55.12 Ry     beta= 0.10
     Davidson diagonalization with overlap
     ethr =  1.18E-06,  avg # of iterations =  1.3

     negative rho (up, down):  7.632E-04 0.000E+00

     Adding external electric field

     Computed dipole along edir(3) : 
        Dipole                0.0012 Ry au,          0.0030 Debye
        Dipole field          0.0000 Ry au, 

        Potential amp.       -0.0003 Ry
        Total length         45.0969 bohr


     total cpu time spent up to now is     1680.8 secs

     total energy              =    -756.67236112 Ry
     estimated scf accuracy    <       0.00505788 Ry

     iteration # 14     ecut=    55.12 Ry     beta= 0.10
     Davidson diagonalization with overlap
     ethr =  1.18E-06,  avg # of iterations =  2.2

     negative rho (up, down):  7.215E-04 0.000E+00

     Adding external electric field

     Computed dipole along edir(3) : 
        Dipole                0.0002 Ry au,          0.0006 Debye
        Dipole field          0.0000 Ry au, 

        Potential amp.       -0.0001 Ry
        Total length         45.0969 bohr


     total cpu time spent up to now is     1772.1 secs

     total energy              =    -756.67225881 Ry
     estimated scf accuracy    <       0.00197237 Ry

     iteration # 15     ecut=    55.12 Ry     beta= 0.10
     Davidson diagonalization with overlap
     ethr =  1.18E-06,  avg # of iterations =  2.4

     negative rho (up, down):  6.901E-04 0.000E+00

     Adding external electric field

     Computed dipole along edir(3) : 
        Dipole                0.0003 Ry au,          0.0008 Debye
        Dipole field          0.0000 Ry au, 

        Potential amp.       -0.0001 Ry
        Total length         45.0969 bohr


     total cpu time spent up to now is     1858.0 secs

     total energy              =    -756.67213674 Ry
     estimated scf accuracy    <       0.00067566 Ry

     iteration # 16     ecut=    55.12 Ry     beta= 0.10
     Davidson diagonalization with overlap
     ethr =  6.26E-07,  avg # of iterations =  4.9

     negative rho (up, down):  6.597E-04 0.000E+00

     Adding external electric field

     Computed dipole along edir(3) : 
        Dipole                0.0004 Ry au,          0.0011 Debye
        Dipole field          0.0000 Ry au, 

        Potential amp.       -0.0001 Ry
        Total length         45.0969 bohr


     total cpu time spent up to now is     1969.5 secs

     total energy              =    -756.67229250 Ry
     estimated scf accuracy    <       0.00002237 Ry

     iteration # 17     ecut=    55.12 Ry     beta= 0.10
     Davidson diagonalization with overlap
     ethr =  2.07E-08,  avg # of iterations =  7.4

     negative rho (up, down):  6.349E-04 0.000E+00

     Adding external electric field

     Computed dipole along edir(3) : 
        Dipole                0.0005 Ry au,          0.0014 Debye
        Dipole field          0.0000 Ry au, 

        Potential amp.       -0.0001 Ry
        Total length         45.0969 bohr


     total cpu time spent up to now is     2140.7 secs

     total energy              =    -756.67232358 Ry
     estimated scf accuracy    <       0.00010300 Ry

     iteration # 18     ecut=    55.12 Ry     beta= 0.10
     Davidson diagonalization with overlap
     ethr =  2.07E-08,  avg # of iterations =  2.2

     negative rho (up, down):  6.113E-04 0.000E+00

     Adding external electric field

     Computed dipole along edir(3) : 
        Dipole                0.0009 Ry au,          0.0023 Debye
        Dipole field          0.0000 Ry au, 

        Potential amp.       -0.0002 Ry
        Total length         45.0969 bohr


     total cpu time spent up to now is     2229.4 secs

     total energy              =    -756.67233760 Ry
     estimated scf accuracy    <       0.00017284 Ry

     iteration # 19     ecut=    55.12 Ry     beta= 0.10
     Davidson diagonalization with overlap
     ethr =  2.07E-08,  avg # of iterations =  3.3

     negative rho (up, down):  5.951E-04 0.000E+00

     Adding external electric field

     Computed dipole along edir(3) : 
        Dipole                0.0004 Ry au,          0.0009 Debye
        Dipole field          0.0000 Ry au, 

        Potential amp.       -0.0001 Ry
        Total length         45.0969 bohr


     total cpu time spent up to now is     2709.0 secs

     total energy              =    -756.67226308 Ry
     estimated scf accuracy    <       0.00026605 Ry

     iteration # 20     ecut=    55.12 Ry     beta= 0.10
     Davidson diagonalization with overlap
     ethr =  2.07E-08,  avg # of iterations =  5.9

     negative rho (up, down):  5.251E-04 0.000E+00

     Adding external electric field

     Computed dipole along edir(3) : 
        Dipole                0.0020 Ry au,          0.0052 Debye
        Dipole field          0.0000 Ry au, 

        Potential amp.       -0.0005 Ry
        Total length         45.0969 bohr


     total cpu time spent up to now is     2864.1 secs

     End of self-consistent calculation

          k = 0.0000 0.0000 0.0000 ( 29749 PWs)   bands (ev):

    -8.7746  -6.7692  -6.4048  -6.1243  -6.1243  -6.1243  -5.8142  -5.8142
    -5.8141  -5.3057  -5.3056  -5.3055  -4.9341  -4.9341  -4.9341  -3.4707
    -3.4707  -3.4706  -2.8393  -2.8391  -2.8390  -2.6389  -2.6142  -2.6142
    -2.3659  -2.1594  -2.1593  -2.1590  -2.1467  -2.1467  -1.7650  -1.7650
    -1.5359  -1.5358  -1.5358  -0.1861  -0.1860  -0.1860  -0.1189  -0.1189
    -0.1188  -0.1017  -0.1016  -0.0533   0.6478   0.6478   1.2966   1.2966
     1.2966   1.3999   1.4123   1.4125   1.4125   1.6056   1.6056   1.8681
     1.8682   1.8682   2.1194   2.1195   2.1195   2.3823   2.3823   2.3824
     2.4827

          k = 0.0000 0.0176 0.0000 ( 29715 PWs)   bands (ev):

    -8.7098  -6.7031  -6.3409  -6.1159  -6.0705  -6.0705  -5.7890  -5.7706
    -5.7705  -5.2876  -5.2742  -5.2740  -4.9033  -4.8693  -4.8693  -3.4685
    -3.4684  -3.4532  -2.8141  -2.8118  -2.8116  -2.7130  -2.6401  -2.5634
    -2.4424  -2.2296  -2.2293  -2.1427  -2.1096  -2.0795  -1.7916  -1.7120
    -1.6008  -1.5458  -1.5457  -0.3166  -0.3165  -0.2785  -0.2009  -0.1837
    -0.1300  -0.1057  -0.1056  -0.0977   0.6529   0.8051   0.9425   1.2204
     1.2643   1.2644   1.3060   1.3061   1.3865   1.4620   1.4621   1.6089
     1.7946   1.8118   1.9403   1.9403   2.1939   2.2743   2.2743   2.2975
     2.3863

          k = 0.0000 0.0351 0.0000 ( 29679 PWs)   bands (ev):

    -8.5188  -6.5104  -6.1547  -6.1035  -5.9135  -5.9134  -5.7158  -5.6465
    -5.6464  -5.2342  -5.1787  -5.1784  -4.8124  -4.6798  -4.6798  -3.4699
    -3.4698  -3.4040  -2.9398  -2.7461  -2.7318  -2.7315  -2.6849  -2.5753
    -2.4138  -2.4109  -2.4106  -2.0944  -2.0108  -2.0048  -1.8480  -1.7770
    -1.5992  -1.5991  -1.5545  -0.6368  -0.5567  -0.5565  -0.4482  -0.2033
    -0.2032  -0.1973  -0.1823  -0.1422   0.3508   0.6180   0.6181   0.6599
     0.8376   1.1383   1.1384   1.2713   1.2785   1.3025   1.3318   1.3318
     1.5184   1.5184   1.6181   1.6187   2.0419   2.0610   2.0611   2.1472
     2.3097

          k = 0.0000 0.0527 0.0000 ( 29671 PWs)   bands (ev):

    -8.2130  -6.2116  -6.1268  -5.8646  -5.6691  -5.6691  -5.6036  -5.4627
    -5.4625  -5.1469  -5.0183  -5.0180  -4.6656  -4.3815  -4.3815  -3.4918
    -3.4916  -3.3366  -3.2165  -2.8848  -2.6981  -2.6978  -2.6682  -2.6417
    -2.5659  -2.5656  -2.1757  -2.0427  -2.0186  -1.9931  -1.8702  -1.8530
    -1.7257  -1.7255  -1.2970  -0.9667  -0.8548  -0.8546  -0.8389  -0.3902
    -0.3901  -0.3678  -0.2594  -0.2036  -0.1432  -0.1431   0.0366   0.1430
     0.6560   0.7949   0.7950   0.8739   1.0015   1.0035   1.0036   1.3679
     1.3679   1.3970   1.4729   1.6340   1.6347   1.7472   1.9021   1.9670
     1.9671

          k = 0.0000 0.0702 0.0000 ( 29721 PWs)   bands (ev):

    -7.8139  -6.2457  -5.8540  -5.5080  -5.4734  -5.3779  -5.3778  -5.2521
    -5.2520  -5.0324  -4.7993  -4.7990  -4.4701  -4.0280  -4.0279  -3.5154
    -3.5153  -3.4991  -3.2978  -3.1572  -2.9971  -2.9968  -2.6730  -2.6617
    -2.3899  -2.3895  -2.1623  -2.0853  -1.9233  -1.9228  -1.9225  -1.8915
    -1.8668  -1.6724  -1.2896  -1.2099  -1.1764  -1.1764  -0.9478  -0.8943
    -0.8941  -0.8060  -0.6902  -0.5545  -0.5544  -0.3036  -0.2543   0.1982
     0.2784   0.3093   0.3093   0.6395   0.6638   0.7470   0.7470   1.0307
     1.0399   1.1867   1.3511   1.3512   1.6523   1.7676   1.9617   1.9617
     2.1987

          k = 0.0000 0.0878 0.0000 ( 29724 PWs)   bands (ev):

    -7.3571  -6.5062  -5.5326  -5.3685  -5.1543  -5.1349  -5.1348  -5.0555
    -5.0555  -4.9258  -4.5452  -4.5451  -4.2378  -3.8419  -3.8417  -3.7556
    -3.4399  -3.4398  -3.4093  -3.3809  -3.2333  -3.2330  -2.6700  -2.6172
    -2.3082  -2.1928  -2.1927  -2.0850  -2.0844  -2.0108  -1.8778  -1.8231
    -1.7365  -1.6660  -1.6164  -1.6164  -1.5061  -1.4475  -1.4473  -1.4057
    -1.3668  -0.8240  -0.5925  -0.5924  -0.5623  -0.5198  -0.2735  -0.1220
    -0.0941  -0.0940   0.3455   0.3681   0.5347   0.5903   0.5903   0.6254
     0.7714   0.8313   1.3481   1.3481   1.6711   1.7157   1.9782   1.9782
     2.6469

          k = 0.0000-0.1053 0.0000 ( 29734 PWs)   bands (ev):

    -6.8976  -6.8973  -5.3636  -5.3635  -5.0428  -5.0426  -4.9677  -4.9676
    -4.9313  -4.9311  -4.3816  -4.3815  -3.9918  -3.9917  -3.8603  -3.8603
    -3.5546  -3.5544  -3.5003  -3.5001  -3.0681  -3.0679  -2.5847  -2.5846
    -2.2249  -2.2248  -2.1876  -2.1868  -2.0893  -2.0886  -1.8470  -1.8468
    -1.7830  -1.7822  -1.7523  -1.7521  -1.7448  -1.7446  -1.6199  -1.6197
    -0.9548  -0.9544  -0.6579  -0.6576  -0.5285  -0.5283  -0.3032  -0.3031
    -0.0388  -0.0374   0.1382   0.1388   0.5364   0.5365   0.5420   0.5425
     0.6569   0.6569   1.3485   1.3485   1.6902   1.6904   1.9864   1.9864
     3.0879

          k = 0.0152-0.0088 0.0000 ( 29715 PWs)   bands (ev):

    -8.7098  -6.7031  -6.3409  -6.1159  -6.0705  -6.0705  -5.7890  -5.7706
    -5.7705  -5.2876  -5.2742  -5.2741  -4.9033  -4.8693  -4.8693  -3.4685
    -3.4684  -3.4532  -2.8141  -2.8117  -2.8117  -2.7130  -2.6401  -2.5634
    -2.4424  -2.2295  -2.2294  -2.1427  -2.1096  -2.0795  -1.7916  -1.7120
    -1.6008  -1.5457  -1.5457  -0.3165  -0.3165  -0.2785  -0.2009  -0.1837
    -0.1300  -0.1056  -0.1056  -0.0978   0.6529   0.8051   0.9425   1.2204
     1.2643   1.2644   1.3060   1.3061   1.3865   1.4621   1.4621   1.6089
     1.7946   1.8118   1.9403   1.9403   2.1939   2.2743   2.2743   2.2975
     2.3863

          k = 0.0152 0.0088 0.0000 ( 29715 PWs)   bands (ev):

    -8.7098  -6.7031  -6.3409  -6.1159  -6.0705  -6.0705  -5.7889  -5.7706
    -5.7705  -5.2876  -5.2742  -5.2741  -4.9033  -4.8694  -4.8693  -3.4685
    -3.4684  -3.4532  -2.8141  -2.8118  -2.8116  -2.7130  -2.6401  -2.5634
    -2.4424  -2.2296  -2.2293  -2.1427  -2.1096  -2.0795  -1.7916  -1.7120
    -1.6008  -1.5458  -1.5456  -0.3165  -0.3165  -0.2785  -0.2010  -0.1837
    -0.1300  -0.1056  -0.1056  -0.0977   0.6529   0.8051   0.9425   1.2204
     1.2643   1.2644   1.3060   1.3061   1.3865   1.4621   1.4621   1.6089
     1.7946   1.8118   1.9403   1.9403   2.1939   2.2743   2.2743   2.2975
     2.3863

          k = 0.0152 0.0263 0.0000 ( 29725 PWs)   bands (ev):

    -8.5818  -6.5735  -6.2157  -6.0567  -6.0567  -5.9222  -5.7206  -5.7205
    -5.6716  -5.2385  -5.2384  -5.1958  -4.8090  -4.8090  -4.7092  -3.4829
    -3.4367  -3.4367  -2.8719  -2.7638  -2.7637  -2.7563  -2.6588  -2.5474
    -2.4611  -2.4086  -2.2129  -2.2128  -2.0402  -2.0211  -1.8351  -1.6554
    -1.6553  -1.6048  -1.5512  -0.5341  -0.5305  -0.4014  -0.4013  -0.2121
    -0.1891  -0.1891  -0.1393  -0.0809   0.3980   0.7602   0.7942   0.9173
     0.9174   1.1255   1.1916   1.1916   1.2556   1.3203   1.3766   1.3767
     1.6245   1.6341   1.7390   1.7390   2.0507   2.0507   2.1122   2.5094
     2.5094

          k = 0.0152 0.0439 0.0000 ( 29699 PWs)   bands (ev):

    -8.3329  -6.3261  -6.0556  -5.9763  -5.9009  -5.6834  -5.6254  -5.5727
    -5.5089  -5.1679  -5.1269  -5.0496  -4.6911  -4.5930  -4.4376  -3.5128
    -3.4327  -3.3799  -3.1165  -2.7847  -2.6891  -2.6778  -2.6614  -2.6468
    -2.6176  -2.4192  -2.2641  -2.2027  -2.0109  -1.9509  -1.8498  -1.8120
    -1.7167  -1.6465  -1.3919  -0.8382  -0.7853  -0.7132  -0.6975  -0.3375
    -0.3003  -0.2951  -0.2255  -0.1226   0.0747   0.1198   0.1758   0.2407
     0.7562   0.8894   0.9254   0.9985   1.1273   1.2023   1.2557   1.3200
     1.4056   1.4092   1.4180   1.7015   1.7571   1.9135   1.9489   2.1181
     2.3731

          k = 0.0152 0.0614 0.0000 ( 29697 PWs)   bands (ev):

    -7.9788  -6.1200  -5.9913  -5.6721  -5.6485  -5.4988  -5.3913  -5.3710
    -5.2979  -5.0643  -4.9529  -4.8414  -4.5216  -4.2731  -4.0995  -3.5599
    -3.4542  -3.3899  -3.3249  -3.0322  -2.8750  -2.8159  -2.7043  -2.6627
    -2.4923  -2.4447  -2.2083  -2.1054  -2.0075  -1.9283  -1.8870  -1.8609
    -1.8098  -1.7235  -1.1120  -1.0962  -1.0624  -1.0558  -1.0529  -0.6989
    -0.5960  -0.5579  -0.5179  -0.4739  -0.4409  -0.2711  -0.2418   0.0931
     0.3656   0.4327   0.6131   0.7381   0.8333   0.8514   0.9569   1.1519
     1.2970   1.3646   1.3726   1.5332   1.6965   1.8365   1.8887   1.8926
     2.0807

          k = 0.0152 0.0790 0.0000 ( 29727 PWs)   bands (ev):

    -7.5466  -6.3095  -5.6365  -5.4242  -5.3713  -5.2816  -5.1654  -5.1481
    -5.0293  -4.9423  -4.7171  -4.5949  -4.3100  -3.9318  -3.8977  -3.6499
    -3.4781  -3.4555  -3.3553  -3.3093  -3.1583  -3.1211  -2.7125  -2.7089
    -2.2920  -2.2691  -2.2562  -2.1269  -2.0850  -2.0119  -1.9822  -1.8955
    -1.7061  -1.5409  -1.5057  -1.4646  -1.3424  -1.3249  -1.3172  -1.2138
    -1.1309  -0.8325  -0.6693  -0.6325  -0.5291  -0.4354  -0.1973  -0.0807
    -0.0691   0.1776   0.2234   0.4959   0.6166   0.7182   0.7601   0.8918
     0.9667   1.1422   1.2942   1.3490   1.5848   1.7076   1.8923   1.9062
     2.4936

          k = 0.0152-0.1141 0.0000 ( 29723 PWs)   bands (ev):

    -7.0803  -6.6438  -5.3786  -5.3028  -5.2548  -5.0271  -4.9921  -4.9721
    -4.8655  -4.8458  -4.4589  -4.3591  -4.0761  -3.9133  -3.8941  -3.8630
    -3.5324  -3.5251  -3.5072  -3.3965  -3.2110  -3.0208  -2.6545  -2.6045
    -2.3850  -2.3692  -2.1414  -2.1184  -2.1169  -2.0589  -2.0301  -2.0208
    -1.9306  -1.7163  -1.6939  -1.6474  -1.6272  -1.5891  -1.5553  -1.4630
    -1.1318  -0.7688  -0.7674  -0.5812  -0.5083  -0.4747  -0.3332  -0.2000
    -0.1805  -0.0072   0.2034   0.3721   0.4228   0.4851   0.6649   0.7137
     0.7246   0.8008   1.2979   1.3439   1.6202   1.6547   1.9000   1.9239
     2.9237

          k = 0.0152-0.0965 0.0000 ( 29723 PWs)   bands (ev):

    -7.0803  -6.6438  -5.3785  -5.3028  -5.2548  -5.0271  -4.9921  -4.9721
    -4.8655  -4.8458  -4.4589  -4.3591  -4.0761  -3.9133  -3.8941  -3.8630
    -3.5324  -3.5251  -3.5072  -3.3965  -3.2110  -3.0208  -2.6545  -2.6045
    -2.3850  -2.3692  -2.1415  -2.1184  -2.1169  -2.0589  -2.0301  -2.0208
    -1.9306  -1.7164  -1.6939  -1.6474  -1.6272  -1.5891  -1.5553  -1.4630
    -1.1318  -0.7688  -0.7674  -0.5811  -0.5083  -0.4747  -0.3332  -0.2000
    -0.1805  -0.0072   0.2034   0.3721   0.4228   0.4851   0.6649   0.7136
     0.7246   0.8008   1.2979   1.3439   1.6202   1.6547   1.9000   1.9239
     2.9238

          k = 0.0152-0.0790 0.0000 ( 29727 PWs)   bands (ev):

    -7.5466  -6.3095  -5.6365  -5.4242  -5.3713  -5.2816  -5.1654  -5.1481
    -5.0293  -4.9423  -4.7171  -4.5949  -4.3100  -3.9318  -3.8977  -3.6499
    -3.4781  -3.4555  -3.3553  -3.3093  -3.1582  -3.1211  -2.7125  -2.7089
    -2.2920  -2.2691  -2.2562  -2.1269  -2.0850  -2.0119  -1.9822  -1.8955
    -1.7060  -1.5409  -1.5057  -1.4646  -1.3424  -1.3249  -1.3172  -1.2139
    -1.1309  -0.8326  -0.6693  -0.6325  -0.5291  -0.4354  -0.1972  -0.0807
    -0.0691   0.1776   0.2235   0.4959   0.6166   0.7181   0.7601   0.8918
     0.9667   1.1422   1.2942   1.3490   1.5848   1.7076   1.8922   1.9061
     2.4936

          k = 0.0152-0.0614 0.0000 ( 29697 PWs)   bands (ev):

    -7.9788  -6.1200  -5.9913  -5.6720  -5.6484  -5.4988  -5.3913  -5.3710
    -5.2979  -5.0643  -4.9529  -4.8414  -4.5216  -4.2731  -4.0995  -3.5599
    -3.4542  -3.3899  -3.3249  -3.0322  -2.8751  -2.8159  -2.7044  -2.6626
    -2.4923  -2.4448  -2.2084  -2.1054  -2.0075  -1.9283  -1.8870  -1.8609
    -1.8097  -1.7235  -1.1120  -1.0962  -1.0624  -1.0558  -1.0529  -0.6989
    -0.5960  -0.5579  -0.5178  -0.4739  -0.4409  -0.2711  -0.2418   0.0931
     0.3656   0.4327   0.6131   0.7380   0.8333   0.8514   0.9569   1.1519
     1.2970   1.3646   1.3726   1.5332   1.6965   1.8365   1.8886   1.8926
     2.0808

          k = 0.0152-0.0439 0.0000 ( 29699 PWs)   bands (ev):

    -8.3329  -6.3261  -6.0556  -5.9763  -5.9009  -5.6835  -5.6254  -5.5727
    -5.5089  -5.1679  -5.1269  -5.0496  -4.6911  -4.5930  -4.4376  -3.5128
    -3.4327  -3.3799  -3.1165  -2.7847  -2.6890  -2.6779  -2.6615  -2.6468
    -2.6176  -2.4192  -2.2641  -2.2027  -2.0109  -1.9509  -1.8498  -1.8120
    -1.7167  -1.6465  -1.3919  -0.8382  -0.7853  -0.7132  -0.6975  -0.3375
    -0.3003  -0.2951  -0.2255  -0.1225   0.0748   0.1198   0.1758   0.2407
     0.7562   0.8894   0.9254   0.9985   1.1273   1.2023   1.2558   1.3200
     1.4056   1.4091   1.4180   1.7015   1.7571   1.9136   1.9489   2.1181
     2.3731

          k = 0.0152-0.0263 0.0000 ( 29725 PWs)   bands (ev):

    -8.5818  -6.5735  -6.2157  -6.0567  -6.0567  -5.9222  -5.7206  -5.7205
    -5.6716  -5.2385  -5.2384  -5.1958  -4.8090  -4.8090  -4.7092  -3.4829
    -3.4367  -3.4366  -2.8719  -2.7639  -2.7637  -2.7563  -2.6588  -2.5474
    -2.4611  -2.4086  -2.2129  -2.2128  -2.0402  -2.0211  -1.8351  -1.6554
    -1.6553  -1.6048  -1.5512  -0.5341  -0.5305  -0.4014  -0.4013  -0.2122
    -0.1892  -0.1891  -0.1393  -0.0808   0.3981   0.7602   0.7942   0.9173
     0.9174   1.1255   1.1916   1.1917   1.2556   1.3203   1.3766   1.3767
     1.6245   1.6340   1.7390   1.7391   2.0506   2.0507   2.1122   2.5093
     2.5095

          k = 0.0304-0.0176 0.0000 ( 29679 PWs)   bands (ev):

    -8.5188  -6.5104  -6.1547  -6.1035  -5.9134  -5.9134  -5.7158  -5.6465
    -5.6464  -5.2342  -5.1786  -5.1785  -4.8124  -4.6798  -4.6798  -3.4699
    -3.4698  -3.4039  -2.9398  -2.7461  -2.7317  -2.7316  -2.6849  -2.5753
    -2.4138  -2.4108  -2.4107  -2.0944  -2.0108  -2.0048  -1.8480  -1.7770
    -1.5992  -1.5991  -1.5545  -0.6368  -0.5566  -0.5565  -0.4482  -0.2032
    -0.2032  -0.1973  -0.1823  -0.1422   0.3508   0.6181   0.6181   0.6599
     0.8376   1.1384   1.1384   1.2712   1.2785   1.3025   1.3318   1.3318
     1.5184   1.5184   1.6181   1.6187   2.0419   2.0610   2.0611   2.1472
     2.3097

          k = 0.0304 0.0000 0.0000 ( 29725 PWs)   bands (ev):

    -8.5818  -6.5735  -6.2157  -6.0567  -6.0567  -5.9222  -5.7206  -5.7205
    -5.6716  -5.2385  -5.2384  -5.1958  -4.8090  -4.8089  -4.7092  -3.4829
    -3.4367  -3.4366  -2.8719  -2.7639  -2.7636  -2.7563  -2.6588  -2.5474
    -2.4611  -2.4086  -2.2129  -2.2128  -2.0402  -2.0211  -1.8351  -1.6554
    -1.6553  -1.6048  -1.5512  -0.5341  -0.5305  -0.4014  -0.4013  -0.2121
    -0.1892  -0.1891  -0.1393  -0.0809   0.3980   0.7602   0.7942   0.9173
     0.9175   1.1255   1.1916   1.1917   1.2556   1.3203   1.3766   1.3768
     1.6245   1.6341   1.7389   1.7391   2.0506   2.0508   2.1122   2.5094
     2.5094

          k = 0.0304 0.0176 0.0000 ( 29679 PWs)   bands (ev):

    -8.5188  -6.5104  -6.1547  -6.1035  -5.9134  -5.9134  -5.7158  -5.6465
    -5.6464  -5.2342  -5.1786  -5.1785  -4.8124  -4.6798  -4.6798  -3.4699
    -3.4698  -3.4040  -2.9398  -2.7461  -2.7318  -2.7316  -2.6848  -2.5753
    -2.4138  -2.4109  -2.4106  -2.0945  -2.0108  -2.0048  -1.8480  -1.7770
    -1.5993  -1.5991  -1.5545  -0.6368  -0.5566  -0.5565  -0.4482  -0.2033
    -0.2032  -0.1974  -0.1823  -0.1421   0.3508   0.6180   0.6181   0.6599
     0.8376   1.1383   1.1384   1.2712   1.2785   1.3025   1.3318   1.3318
     1.5184   1.5184   1.6181   1.6187   2.0419   2.0610   2.0611   2.1472
     2.3097

          k = 0.0304 0.0351 0.0000 ( 29699 PWs)   bands (ev):

    -8.3329  -6.3261  -6.0556  -5.9763  -5.9009  -5.6834  -5.6254  -5.5727
    -5.5089  -5.1679  -5.1269  -5.0496  -4.6911  -4.5930  -4.4376  -3.5128
    -3.4327  -3.3799  -3.1165  -2.7847  -2.6890  -2.6779  -2.6615  -2.6468
    -2.6176  -2.4192  -2.2641  -2.2027  -2.0109  -1.9509  -1.8498  -1.8119
    -1.7167  -1.6465  -1.3919  -0.8382  -0.7853  -0.7132  -0.6975  -0.3375
    -0.3003  -0.2951  -0.2255  -0.1226   0.0748   0.1198   0.1758   0.2407
     0.7562   0.8894   0.9253   0.9985   1.1273   1.2023   1.2558   1.3201
     1.4056   1.4092   1.4180   1.7015   1.7571   1.9135   1.9489   2.1181
     2.3731

          k = 0.0304 0.0527 0.0000 ( 29720 PWs)   bands (ev):

    -8.0344  -6.0380  -5.9270  -5.9269  -5.6958  -5.4573  -5.4573  -5.4038
    -5.3107  -5.0402  -5.0401  -4.8544  -4.4532  -4.4532  -4.1250  -3.5748
    -3.3855  -3.3854  -3.3520  -2.9653  -2.8335  -2.7459  -2.6959  -2.6959
    -2.5297  -2.3815  -2.3815  -2.0834  -2.0429  -1.9783  -1.8412  -1.8411
    -1.7713  -1.7386  -1.1185  -1.0364  -1.0364  -1.0256  -0.9866  -0.5810
    -0.5650  -0.5650  -0.4662  -0.3332  -0.3331  -0.3315  -0.1897   0.0021
     0.4094   0.4094   0.7196   0.8500   0.9107   0.9107   1.1252   1.2411
     1.3094   1.3094   1.3948   1.6955   1.6955   1.8161   2.0759   2.2408
     2.2409

          k = 0.0304 0.0702 0.0000 ( 29713 PWs)   bands (ev):

    -7.6426  -6.0542  -5.7508  -5.6875  -5.3455  -5.3203  -5.2445  -5.1708
    -5.0157  -4.9201  -4.8488  -4.6138  -4.2683  -4.1204  -3.9468  -3.6014
    -3.5104  -3.4441  -3.3926  -3.2004  -3.0199  -2.9620  -2.8392  -2.8003
    -2.3770  -2.3095  -2.2650  -2.2108  -2.1375  -2.0295  -1.9570  -1.9110
    -1.7105  -1.6243  -1.3904  -1.3368  -1.2816  -1.2673  -1.2663  -1.0093
    -0.8796  -0.8730  -0.7050  -0.6173  -0.4442  -0.4045  -0.2415  -0.0785
    -0.0527   0.1288   0.3609   0.6487   0.6842   0.8777   0.9820   1.1437
     1.2013   1.2984   1.4115   1.4215   1.6992   1.7435   1.7676   1.8334
     2.3782

          k = 0.0304-0.1229 0.0000 ( 29744 PWs)   bands (ev):

    -7.1901  -6.3271  -5.5891  -5.3644  -5.2060  -5.0589  -4.9882  -4.9732
    -4.7929  -4.7630  -4.5863  -4.3569  -4.0531  -4.0310  -3.8892  -3.8082
    -3.5575  -3.4609  -3.4475  -3.4260  -3.1866  -2.9946  -2.8247  -2.7826
    -2.4283  -2.4058  -2.2694  -2.2504  -2.1939  -2.1128  -2.0913  -1.9961
    -1.9908  -1.8086  -1.6172  -1.5344  -1.4841  -1.4177  -1.3962  -1.3696
    -1.1750  -0.7694  -0.6744  -0.6247  -0.5158  -0.3387  -0.2951  -0.2522
    -0.1543  -0.0066   0.3144   0.3539   0.5014   0.8502   0.8788   0.8880
     1.0343   1.1726   1.2040   1.2896   1.4550   1.5982   1.7173   1.7175
     2.4714

          k = 0.0304-0.1053 0.0000 ( 29696 PWs)   bands (ev):

    -6.7282  -6.7280  -5.5217  -5.1938  -5.1936  -4.9844  -4.8678  -4.7664
    -4.7662  -4.6932  -4.3664  -4.2120  -4.0617  -4.0344  -3.8916  -3.8915
    -3.6718  -3.6717  -3.5596  -3.2539  -3.1680  -2.8080  -2.6728  -2.6725
    -2.6696  -2.5130  -2.5126  -2.4389  -2.3053  -2.3050  -2.0722  -1.9725
    -1.8046  -1.7398  -1.6948  -1.6946  -1.6876  -1.6698  -1.3920  -1.3918
    -0.9941  -0.9940  -0.5446  -0.5266  -0.5185  -0.5182  -0.3952  -0.2333
     0.0142   0.0148   0.3266   0.3275   0.4232   0.6960   0.6964   0.8008
     0.9115   0.9116   1.2088   1.2863   1.5123   1.5124   1.7114   1.7267
     2.5036

          k = 0.0304-0.0878 0.0000 ( 29744 PWs)   bands (ev):

    -7.1901  -6.3271  -5.5891  -5.3644  -5.2060  -5.0589  -4.9882  -4.9732
    -4.7929  -4.7630  -4.5863  -4.3569  -4.0531  -4.0310  -3.8892  -3.8082
    -3.5575  -3.4609  -3.4475  -3.4260  -3.1866  -2.9946  -2.8247  -2.7825
    -2.4283  -2.4059  -2.2695  -2.2504  -2.1939  -2.1128  -2.0913  -1.9961
    -1.9908  -1.8086  -1.6171  -1.5344  -1.4840  -1.4177  -1.3962  -1.3697
    -1.1750  -0.7694  -0.6743  -0.6247  -0.5158  -0.3387  -0.2951  -0.2522
    -0.1543  -0.0066   0.3144   0.3539   0.5014   0.8502   0.8788   0.8880
     1.0343   1.1725   1.2040   1.2896   1.4550   1.5982   1.7173   1.7175
     2.4714

          k = 0.0304-0.0702 0.0000 ( 29713 PWs)   bands (ev):

    -7.6426  -6.0542  -5.7508  -5.6875  -5.3454  -5.3203  -5.2445  -5.1708
    -5.0157  -4.9201  -4.8488  -4.6139  -4.2683  -4.1204  -3.9468  -3.6014
    -3.5104  -3.4441  -3.3926  -3.2004  -3.0199  -2.9620  -2.8392  -2.8003
    -2.3770  -2.3096  -2.2651  -2.2108  -2.1375  -2.0295  -1.9570  -1.9110
    -1.7105  -1.6242  -1.3904  -1.3368  -1.2816  -1.2673  -1.2664  -1.0093
    -0.8796  -0.8730  -0.7050  -0.6172  -0.4442  -0.4045  -0.2414  -0.0784
    -0.0527   0.1288   0.3609   0.6487   0.6842   0.8777   0.9820   1.1437
     1.2013   1.2984   1.4115   1.4215   1.6992   1.7435   1.7676   1.8334
     2.3783

          k = 0.0304-0.0527 0.0000 ( 29720 PWs)   bands (ev):

    -8.0344  -6.0380  -5.9270  -5.9269  -5.6958  -5.4574  -5.4573  -5.4038
    -5.3107  -5.0402  -5.0401  -4.8544  -4.4533  -4.4532  -4.1250  -3.5748
    -3.3855  -3.3853  -3.3520  -2.9653  -2.8335  -2.7459  -2.6959  -2.6958
    -2.5297  -2.3816  -2.3815  -2.0834  -2.0429  -1.9783  -1.8413  -1.8410
    -1.7713  -1.7386  -1.1185  -1.0365  -1.0363  -1.0256  -0.9866  -0.5811
    -0.5651  -0.5649  -0.4661  -0.3332  -0.3331  -0.3315  -0.1897   0.0021
     0.4094   0.4095   0.7196   0.8500   0.9107   0.9108   1.1252   1.2411
     1.3094   1.3094   1.3947   1.6955   1.6956   1.8161   2.0759   2.2408
     2.2410

          k = 0.0304-0.0351 0.0000 ( 29699 PWs)   bands (ev):

    -8.3329  -6.3261  -6.0556  -5.9763  -5.9009  -5.6835  -5.6254  -5.5727
    -5.5089  -5.1679  -5.1269  -5.0496  -4.6912  -4.5930  -4.4376  -3.5128
    -3.4327  -3.3799  -3.1165  -2.7847  -2.6891  -2.6778  -2.6614  -2.6468
    -2.6176  -2.4193  -2.2641  -2.2027  -2.0109  -1.9509  -1.8498  -1.8120
    -1.7167  -1.6465  -1.3919  -0.8382  -0.7853  -0.7132  -0.6975  -0.3375
    -0.3003  -0.2951  -0.2255  -0.1225   0.0748   0.1198   0.1758   0.2407
     0.7562   0.8894   0.9254   0.9985   1.1273   1.2023   1.2558   1.3200
     1.4056   1.4091   1.4180   1.7015   1.7571   1.9136   1.9489   2.1181
     2.3731

          k = 0.0456-0.0263 0.0000 ( 29671 PWs)   bands (ev):

    -8.2130  -6.2116  -6.1268  -5.8646  -5.6691  -5.6691  -5.6036  -5.4626
    -5.4626  -5.1469  -5.0182  -5.0181  -4.6656  -4.3815  -4.3815  -3.4917
    -3.4917  -3.3366  -3.2165  -2.8848  -2.6980  -2.6979  -2.6682  -2.6417
    -2.5658  -2.5657  -2.1757  -2.0427  -2.0186  -1.9931  -1.8702  -1.8530
    -1.7256  -1.7255  -1.2970  -0.9667  -0.8547  -0.8547  -0.8389  -0.3902
    -0.3901  -0.3678  -0.2594  -0.2036  -0.1432  -0.1431   0.0366   0.1430
     0.6560   0.7949   0.7950   0.8739   1.0015   1.0035   1.0036   1.3679
     1.3679   1.3970   1.4729   1.6340   1.6347   1.7472   1.9021   1.9670
     1.9671

          k = 0.0456-0.0088 0.0000 ( 29699 PWs)   bands (ev):

    -8.3329  -6.3261  -6.0556  -5.9763  -5.9009  -5.6834  -5.6254  -5.5727
    -5.5089  -5.1679  -5.1269  -5.0496  -4.6912  -4.5930  -4.4376  -3.5128
    -3.4327  -3.3799  -3.1165  -2.7847  -2.6891  -2.6778  -2.6614  -2.6468
    -2.6176  -2.4192  -2.2641  -2.2027  -2.0109  -1.9509  -1.8498  -1.8120
    -1.7167  -1.6465  -1.3919  -0.8382  -0.7853  -0.7132  -0.6975  -0.3375
    -0.3003  -0.2951  -0.2255  -0.1226   0.0748   0.1198   0.1758   0.2407
     0.7562   0.8894   0.9254   0.9985   1.1273   1.2023   1.2557   1.3200
     1.4056   1.4091   1.4180   1.7015   1.7570   1.9135   1.9489   2.1181
     2.3731

          k = 0.0456 0.0088 0.0000 ( 29699 PWs)   bands (ev):

    -8.3329  -6.3261  -6.0556  -5.9763  -5.9009  -5.6834  -5.6254  -5.5727
    -5.5089  -5.1679  -5.1269  -5.0496  -4.6911  -4.5930  -4.4376  -3.5128
    -3.4327  -3.3799  -3.1165  -2.7847  -2.6890  -2.6779  -2.6615  -2.6468
    -2.6176  -2.4192  -2.2641  -2.2027  -2.0109  -1.9509  -1.8498  -1.8119
    -1.7167  -1.6465  -1.3919  -0.8382  -0.7853  -0.7132  -0.6975  -0.3375
    -0.3003  -0.2951  -0.2255  -0.1226   0.0748   0.1198   0.1758   0.2407
     0.7562   0.8894   0.9253   0.9985   1.1273   1.2023   1.2558   1.3200
     1.4056   1.4092   1.4180   1.7015   1.7571   1.9135   1.9489   2.1181
     2.3731

          k = 0.0456 0.0263 0.0000 ( 29671 PWs)   bands (ev):

    -8.2130  -6.2116  -6.1268  -5.8646  -5.6691  -5.6691  -5.6036  -5.4626
    -5.4626  -5.1469  -5.0182  -5.0181  -4.6656  -4.3815  -4.3815  -3.4918
    -3.4916  -3.3366  -3.2165  -2.8848  -2.6981  -2.6978  -2.6682  -2.6417
    -2.5659  -2.5656  -2.1757  -2.0427  -2.0186  -1.9930  -1.8702  -1.8530
    -1.7257  -1.7255  -1.2970  -0.9667  -0.8547  -0.8546  -0.8389  -0.3902
    -0.3901  -0.3678  -0.2595  -0.2036  -0.1432  -0.1431   0.0366   0.1430
     0.6560   0.7949   0.7950   0.8738   1.0015   1.0034   1.0036   1.3679
     1.3679   1.3970   1.4729   1.6340   1.6347   1.7472   1.9021   1.9670
     1.9671

          k = 0.0456 0.0439 0.0000 ( 29697 PWs)   bands (ev):

    -7.9788  -6.1200  -5.9913  -5.6720  -5.6485  -5.4988  -5.3913  -5.3710
    -5.2979  -5.0643  -4.9529  -4.8414  -4.5216  -4.2731  -4.0995  -3.5599
    -3.4542  -3.3899  -3.3249  -3.0322  -2.8750  -2.8159  -2.7043  -2.6626
    -2.4923  -2.4447  -2.2083  -2.1054  -2.0075  -1.9283  -1.8870  -1.8609
    -1.8098  -1.7235  -1.1120  -1.0962  -1.0624  -1.0558  -1.0529  -0.6989
    -0.5960  -0.5579  -0.5179  -0.4739  -0.4409  -0.2710  -0.2419   0.0931
     0.3656   0.4327   0.6131   0.7380   0.8333   0.8514   0.9569   1.1519
     1.2970   1.3646   1.3726   1.5332   1.6965   1.8365   1.8886   1.8926
     2.0808

          k = 0.0456 0.0614 0.0000 ( 29713 PWs)   bands (ev):

    -7.6426  -6.0542  -5.7508  -5.6875  -5.3455  -5.3203  -5.2445  -5.1708
    -5.0157  -4.9201  -4.8488  -4.6138  -4.2683  -4.1204  -3.9468  -3.6013
    -3.5104  -3.4441  -3.3926  -3.2004  -3.0199  -2.9620  -2.8392  -2.8003
    -2.3770  -2.3095  -2.2651  -2.2108  -2.1375  -2.0295  -1.9570  -1.9110
    -1.7105  -1.6243  -1.3904  -1.3369  -1.2816  -1.2673  -1.2663  -1.0093
    -0.8796  -0.8730  -0.7050  -0.6173  -0.4442  -0.4045  -0.2415  -0.0785
    -0.0528   0.1288   0.3609   0.6487   0.6842   0.8777   0.9820   1.1437
     1.2013   1.2984   1.4116   1.4215   1.6992   1.7435   1.7676   1.8334
     2.3782

          k = 0.0456-0.1316 0.0000 ( 29720 PWs)   bands (ev):

    -7.2266  -5.9647  -5.9646  -5.3535  -5.1127  -5.1127  -4.9916  -4.9679
    -4.7307  -4.7086  -4.7085  -4.3565  -4.0849  -3.9377  -3.9376  -3.8187
    -3.5869  -3.5868  -3.3837  -3.3524  -2.9880  -2.9781  -2.9714  -2.9713
    -2.4003  -2.3842  -2.3841  -2.3169  -2.2422  -2.1183  -2.1183  -1.9726
    -1.9162  -1.9161  -1.6133  -1.4980  -1.3980  -1.3980  -1.3799  -1.2958
    -1.1562  -0.7129  -0.6365  -0.5897  -0.5896  -0.2953  -0.2952  -0.2812
    -0.2256   0.0767   0.3376   0.4703   0.4703   0.9875   1.0107   1.1078
     1.1692   1.1693   1.3338   1.4504   1.4504   1.5983   1.7960   1.7961
     1.8827

          k = 0.0456-0.1141 0.0000 ( 29695 PWs)   bands (ev):

    -6.7673  -6.3220  -5.8999  -5.1011  -5.0344  -4.9700  -4.7734  -4.6660
    -4.5934  -4.5809  -4.4143  -4.2932  -4.0458  -4.0292  -3.9761  -3.8899
    -3.6951  -3.5560  -3.5076  -3.3965  -3.0508  -2.9753  -2.8365  -2.7434
    -2.6847  -2.6427  -2.6237  -2.5496  -2.4879  -2.4569  -2.0845  -1.9615
    -1.7944  -1.7627  -1.7457  -1.6585  -1.6066  -1.5545  -1.4259  -1.3773
    -1.1057  -0.8614  -0.7016  -0.5236  -0.4093  -0.3359  -0.3238  -0.1952
    -0.1912   0.1425   0.3270   0.3391   0.6965   0.9118   0.9607   1.0496
     1.1089   1.1224   1.1799   1.2194   1.3478   1.4621   1.4662   1.5143
     1.8226

          k = 0.0456-0.0965 0.0000 ( 29695 PWs)   bands (ev):

    -6.7673  -6.3220  -5.8999  -5.1011  -5.0344  -4.9700  -4.7734  -4.6660
    -4.5934  -4.5809  -4.4143  -4.2932  -4.0458  -4.0292  -3.9761  -3.8899
    -3.6951  -3.5560  -3.5076  -3.3965  -3.0508  -2.9753  -2.8364  -2.7434
    -2.6847  -2.6427  -2.6237  -2.5496  -2.4879  -2.4569  -2.0845  -1.9615
    -1.7944  -1.7627  -1.7457  -1.6585  -1.6066  -1.5545  -1.4259  -1.3774
    -1.1057  -0.8614  -0.7016  -0.5236  -0.4093  -0.3359  -0.3238  -0.1951
    -0.1912   0.1425   0.3270   0.3391   0.6965   0.9118   0.9607   1.0496
     1.1089   1.1224   1.1799   1.2194   1.3478   1.4621   1.4662   1.5143
     1.8226

          k = 0.0456-0.0790 0.0000 ( 29720 PWs)   bands (ev):

    -7.2266  -5.9647  -5.9645  -5.3535  -5.1128  -5.1127  -4.9916  -4.9679
    -4.7307  -4.7086  -4.7084  -4.3565  -4.0849  -3.9377  -3.9375  -3.8187
    -3.5870  -3.5868  -3.3837  -3.3524  -2.9880  -2.9781  -2.9714  -2.9713
    -2.4004  -2.3843  -2.3840  -2.3169  -2.2422  -2.1183  -2.1182  -1.9725
    -1.9163  -1.9161  -1.6132  -1.4981  -1.3981  -1.3979  -1.3800  -1.2958
    -1.1563  -0.7129  -0.6365  -0.5897  -0.5895  -0.2953  -0.2952  -0.2812
    -0.2256   0.0767   0.3376   0.4703   0.4703   0.9875   1.0107   1.1078
     1.1692   1.1693   1.3338   1.4504   1.4504   1.5984   1.7959   1.7962
     1.8828

          k = 0.0456-0.0614 0.0000 ( 29713 PWs)   bands (ev):

    -7.6426  -6.0542  -5.7508  -5.6875  -5.3454  -5.3203  -5.2445  -5.1708
    -5.0157  -4.9201  -4.8488  -4.6139  -4.2683  -4.1204  -3.9468  -3.6014
    -3.5104  -3.4441  -3.3926  -3.2004  -3.0199  -2.9620  -2.8392  -2.8003
    -2.3770  -2.3096  -2.2651  -2.2108  -2.1375  -2.0295  -1.9570  -1.9110
    -1.7105  -1.6242  -1.3904  -1.3368  -1.2816  -1.2673  -1.2664  -1.0093
    -0.8796  -0.8730  -0.7050  -0.6172  -0.4442  -0.4045  -0.2414  -0.0785
    -0.0527   0.1288   0.3609   0.6487   0.6842   0.8777   0.9820   1.1437
     1.2013   1.2984   1.4115   1.4215   1.6992   1.7435   1.7676   1.8334
     2.3783

          k = 0.0456-0.0439 0.0000 ( 29697 PWs)   bands (ev):

    -7.9788  -6.1200  -5.9913  -5.6720  -5.6484  -5.4988  -5.3913  -5.3710
    -5.2979  -5.0643  -4.9529  -4.8414  -4.5216  -4.2731  -4.0995  -3.5599
    -3.4542  -3.3899  -3.3249  -3.0322  -2.8751  -2.8159  -2.7043  -2.6627
    -2.4923  -2.4448  -2.2084  -2.1054  -2.0075  -1.9283  -1.8870  -1.8609
    -1.8097  -1.7235  -1.1120  -1.0962  -1.0624  -1.0558  -1.0529  -0.6989
    -0.5960  -0.5579  -0.5178  -0.4739  -0.4409  -0.2711  -0.2418   0.0931
     0.3656   0.4327   0.6131   0.7380   0.8333   0.8514   0.9569   1.1519
     1.2970   1.3646   1.3726   1.5331   1.6965   1.8365   1.8887   1.8926
     2.0808

          k = 0.0608-0.0351 0.0000 ( 29721 PWs)   bands (ev):

    -7.8139  -6.2457  -5.8540  -5.5080  -5.4734  -5.3779  -5.3778  -5.2521
    -5.2520  -5.0324  -4.7992  -4.7991  -4.4701  -4.0280  -4.0279  -3.5154
    -3.5154  -3.4991  -3.2978  -3.1572  -2.9970  -2.9969  -2.6730  -2.6617
    -2.3898  -2.3896  -2.1623  -2.0853  -1.9233  -1.9227  -1.9226  -1.8915
    -1.8668  -1.6724  -1.2896  -1.2099  -1.1764  -1.1764  -0.9478  -0.8942
    -0.8942  -0.8060  -0.6902  -0.5544  -0.5544  -0.3036  -0.2543   0.1982
     0.2784   0.3093   0.3093   0.6395   0.6638   0.7470   0.7471   1.0307
     1.0399   1.1867   1.3511   1.3512   1.6523   1.7676   1.9617   1.9617
     2.1987

          k = 0.0608-0.0176 0.0000 ( 29697 PWs)   bands (ev):

    -7.9788  -6.1200  -5.9913  -5.6721  -5.6485  -5.4988  -5.3913  -5.3710
    -5.2979  -5.0643  -4.9529  -4.8414  -4.5216  -4.2731  -4.0995  -3.5599
    -3.4542  -3.3899  -3.3249  -3.0322  -2.8751  -2.8159  -2.7043  -2.6627
    -2.4923  -2.4447  -2.2083  -2.1054  -2.0076  -1.9283  -1.8870  -1.8609
    -1.8097  -1.7235  -1.1120  -1.0962  -1.0624  -1.0558  -1.0529  -0.6989
    -0.5960  -0.5579  -0.5179  -0.4739  -0.4409  -0.2711  -0.2418   0.0931
     0.3656   0.4327   0.6131   0.7381   0.8333   0.8514   0.9569   1.1519
     1.2970   1.3646   1.3726   1.5332   1.6965   1.8365   1.8887   1.8926
     2.0808

          k = 0.0608 0.0000 0.0000 ( 29720 PWs)   bands (ev):

    -8.0344  -6.0380  -5.9270  -5.9268  -5.6958  -5.4574  -5.4572  -5.4038
    -5.3107  -5.0403  -5.0401  -4.8544  -4.4533  -4.4531  -4.1250  -3.5748
    -3.3855  -3.3853  -3.3520  -2.9653  -2.8335  -2.7459  -2.6960  -2.6958
    -2.5297  -2.3815  -2.3815  -2.0834  -2.0429  -1.9783  -1.8413  -1.8410
    -1.7713  -1.7386  -1.1185  -1.0365  -1.0363  -1.0256  -0.9866  -0.5810
    -0.5651  -0.5649  -0.4662  -0.3332  -0.3331  -0.3315  -0.1897   0.0021
     0.4094   0.4095   0.7196   0.8500   0.9107   0.9108   1.1252   1.2411
     1.3094   1.3094   1.3947   1.6955   1.6956   1.8161   2.0759   2.2407
     2.2410

          k = 0.0608 0.0176 0.0000 ( 29697 PWs)   bands (ev):

    -7.9788  -6.1200  -5.9913  -5.6720  -5.6485  -5.4988  -5.3913  -5.3710
    -5.2979  -5.0643  -4.9529  -4.8414  -4.5216  -4.2731  -4.0995  -3.5599
    -3.4542  -3.3899  -3.3249  -3.0322  -2.8750  -2.8159  -2.7043  -2.6626
    -2.4923  -2.4447  -2.2084  -2.1054  -2.0075  -1.9283  -1.8870  -1.8609
    -1.8097  -1.7235  -1.1120  -1.0962  -1.0624  -1.0558  -1.0529  -0.6989
    -0.5960  -0.5579  -0.5178  -0.4739  -0.4409  -0.2710  -0.2419   0.0931
     0.3656   0.4327   0.6131   0.7380   0.8333   0.8514   0.9569   1.1519
     1.2970   1.3646   1.3726   1.5332   1.6965   1.8365   1.8887   1.8926
     2.0808

          k = 0.0608 0.0351 0.0000 ( 29721 PWs)   bands (ev):

    -7.8139  -6.2457  -5.8540  -5.5081  -5.4734  -5.3779  -5.3778  -5.2521
    -5.2520  -5.0324  -4.7992  -4.7990  -4.4701  -4.0280  -4.0279  -3.5154
    -3.5153  -3.4991  -3.2978  -3.1572  -2.9971  -2.9968  -2.6730  -2.6616
    -2.3899  -2.3895  -2.1623  -2.0853  -1.9233  -1.9227  -1.9226  -1.8915
    -1.8668  -1.6724  -1.2896  -1.2099  -1.1764  -1.1763  -0.9478  -0.8943
    -0.8941  -0.8060  -0.6902  -0.5545  -0.5544  -0.3036  -0.2543   0.1982
     0.2784   0.3092   0.3094   0.6395   0.6638   0.7470   0.7471   1.0307
     1.0399   1.1867   1.3511   1.3512   1.6523   1.7676   1.9616   1.9617
     2.1987

          k = 0.0608 0.0527 0.0000 ( 29727 PWs)   bands (ev):

    -7.5466  -6.3095  -5.6365  -5.4242  -5.3713  -5.2816  -5.1654  -5.1481
    -5.0293  -4.9423  -4.7171  -4.5949  -4.3100  -3.9318  -3.8977  -3.6499
    -3.4781  -3.4555  -3.3553  -3.3093  -3.1582  -3.1210  -2.7125  -2.7089
    -2.2920  -2.2691  -2.2562  -2.1269  -2.0850  -2.0119  -1.9822  -1.8955
    -1.7061  -1.5409  -1.5057  -1.4646  -1.3424  -1.3249  -1.3172  -1.2138
    -1.1309  -0.8325  -0.6693  -0.6325  -0.5291  -0.4354  -0.1973  -0.0807
    -0.0691   0.1776   0.2235   0.4959   0.6166   0.7181   0.7601   0.8918
     0.9667   1.1422   1.2942   1.3490   1.5848   1.7076   1.8922   1.9061
     2.4936

          k = 0.0608-0.1404 0.0000 ( 29744 PWs)   bands (ev):

    -7.1901  -6.3271  -5.5891  -5.3644  -5.2060  -5.0589  -4.9882  -4.9732
    -4.7929  -4.7630  -4.5863  -4.3569  -4.0531  -4.0310  -3.8892  -3.8082
    -3.5575  -3.4609  -3.4475  -3.4260  -3.1866  -2.9946  -2.8247  -2.7826
    -2.4283  -2.4058  -2.2694  -2.2504  -2.1939  -2.1128  -2.0913  -1.9961
    -1.9908  -1.8086  -1.6172  -1.5344  -1.4840  -1.4177  -1.3962  -1.3696
    -1.1750  -0.7694  -0.6744  -0.6247  -0.5158  -0.3387  -0.2951  -0.2522
    -0.1543  -0.0066   0.3144   0.3539   0.5014   0.8501   0.8788   0.8880
     1.0343   1.1726   1.2040   1.2896   1.4550   1.5982   1.7172   1.7175
     2.4714

          k = 0.0608-0.1229 0.0000 ( 29695 PWs)   bands (ev):

    -6.7673  -6.3220  -5.8999  -5.1011  -5.0344  -4.9700  -4.7734  -4.6660
    -4.5934  -4.5809  -4.4143  -4.2932  -4.0458  -4.0292  -3.9761  -3.8899
    -3.6951  -3.5560  -3.5076  -3.3965  -3.0508  -2.9753  -2.8365  -2.7434
    -2.6847  -2.6427  -2.6237  -2.5496  -2.4879  -2.4569  -2.0845  -1.9615
    -1.7944  -1.7627  -1.7457  -1.6585  -1.6066  -1.5544  -1.4259  -1.3774
    -1.1057  -0.8614  -0.7017  -0.5236  -0.4093  -0.3359  -0.3238  -0.1952
    -0.1912   0.1425   0.3270   0.3391   0.6965   0.9118   0.9606   1.0496
     1.1089   1.1224   1.1799   1.2194   1.3478   1.4621   1.4662   1.5143
     1.8226

          k = 0.0608-0.1053 0.0000 ( 29682 PWs)   bands (ev):

    -6.3172  -6.3171  -6.3168  -4.9592  -4.9591  -4.9588  -4.5943  -4.5412
    -4.4751  -4.3666  -4.3664  -4.3661  -4.1548  -4.1547  -4.1546  -3.8102
    -3.7482  -3.3780  -3.3776  -3.3773  -3.0532  -3.0527  -3.0524  -2.8547
    -2.8545  -2.8543  -2.5867  -2.5863  -2.5860  -2.5112  -1.9546  -1.9363
    -1.8791  -1.8452  -1.5925  -1.5922  -1.5920  -1.5764  -1.5763  -1.5762
    -0.9035  -0.9033  -0.9033  -0.4053  -0.3267  -0.2924  -0.2923  -0.2923
     0.0486   0.0487   0.0489   0.9225   0.9228   0.9230   1.0432   1.0463
     1.1548   1.1549   1.1550   1.2815   1.2815   1.2816   1.3721   1.3723
     1.3727

          k = 0.0608-0.0878 0.0000 ( 29695 PWs)   bands (ev):

    -6.7673  -6.3220  -5.8999  -5.1011  -5.0344  -4.9700  -4.7734  -4.6660
    -4.5934  -4.5809  -4.4143  -4.2932  -4.0458  -4.0292  -3.9761  -3.8899
    -3.6951  -3.5560  -3.5076  -3.3965  -3.0508  -2.9753  -2.8364  -2.7434
    -2.6847  -2.6427  -2.6237  -2.5496  -2.4879  -2.4569  -2.0845  -1.9615
    -1.7944  -1.7627  -1.7457  -1.6585  -1.6066  -1.5545  -1.4259  -1.3774
    -1.1057  -0.8614  -0.7016  -0.5236  -0.4093  -0.3359  -0.3238  -0.1951
    -0.1912   0.1425   0.3270   0.3391   0.6965   0.9118   0.9607   1.0496
     1.1089   1.1224   1.1799   1.2194   1.3478   1.4621   1.4662   1.5143
     1.8226

          k = 0.0608-0.0702 0.0000 ( 29744 PWs)   bands (ev):

    -7.1901  -6.3271  -5.5891  -5.3644  -5.2060  -5.0589  -4.9882  -4.9732
    -4.7929  -4.7630  -4.5863  -4.3569  -4.0531  -4.0310  -3.8892  -3.8083
    -3.5575  -3.4609  -3.4475  -3.4260  -3.1866  -2.9946  -2.8247  -2.7826
    -2.4283  -2.4059  -2.2695  -2.2504  -2.1939  -2.1128  -2.0913  -1.9961
    -1.9908  -1.8086  -1.6171  -1.5344  -1.4841  -1.4177  -1.3962  -1.3697
    -1.1750  -0.7694  -0.6744  -0.6247  -0.5158  -0.3387  -0.2951  -0.2522
    -0.1543  -0.0066   0.3144   0.3539   0.5014   0.8502   0.8788   0.8880
     1.0343   1.1725   1.2039   1.2896   1.4550   1.5982   1.7173   1.7175
     2.4714

          k = 0.0608-0.0527 0.0000 ( 29727 PWs)   bands (ev):

    -7.5466  -6.3095  -5.6365  -5.4242  -5.3713  -5.2816  -5.1654  -5.1481
    -5.0293  -4.9423  -4.7171  -4.5949  -4.3100  -3.9318  -3.8977  -3.6499
    -3.4781  -3.4555  -3.3553  -3.3093  -3.1582  -3.1211  -2.7125  -2.7089
    -2.2920  -2.2691  -2.2562  -2.1269  -2.0850  -2.0119  -1.9822  -1.8955
    -1.7060  -1.5409  -1.5057  -1.4646  -1.3424  -1.3249  -1.3172  -1.2139
    -1.1309  -0.8326  -0.6693  -0.6325  -0.5291  -0.4354  -0.1972  -0.0807
    -0.0691   0.1776   0.2235   0.4959   0.6166   0.7181   0.7601   0.8918
     0.9667   1.1422   1.2942   1.3490   1.5848   1.7076   1.8923   1.9061
     2.4936

          k = 0.0760-0.0439 0.0000 ( 29724 PWs)   bands (ev):

    -7.3571  -6.5062  -5.5326  -5.3685  -5.1543  -5.1349  -5.1349  -5.0555
    -5.0555  -4.9258  -4.5452  -4.5451  -4.2378  -3.8419  -3.8418  -3.7557
    -3.4399  -3.4398  -3.4093  -3.3809  -3.2332  -3.2331  -2.6700  -2.6172
    -2.3082  -2.1927  -2.1927  -2.0848  -2.0846  -2.0108  -1.8778  -1.8231
    -1.7365  -1.6660  -1.6164  -1.6164  -1.5061  -1.4474  -1.4473  -1.4057
    -1.3668  -0.8240  -0.5924  -0.5924  -0.5623  -0.5198  -0.2735  -0.1220
    -0.0941  -0.0940   0.3455   0.3681   0.5347   0.5903   0.5903   0.6254
     0.7714   0.8313   1.3481   1.3482   1.6711   1.7157   1.9782   1.9783
     2.6469

          k = 0.0760-0.0263 0.0000 ( 29727 PWs)   bands (ev):

    -7.5466  -6.3095  -5.6365  -5.4242  -5.3713  -5.2816  -5.1654  -5.1481
    -5.0293  -4.9423  -4.7171  -4.5949  -4.3100  -3.9318  -3.8977  -3.6499
    -3.4781  -3.4555  -3.3553  -3.3093  -3.1583  -3.1211  -2.7125  -2.7090
    -2.2920  -2.2691  -2.2562  -2.1269  -2.0850  -2.0119  -1.9822  -1.8955
    -1.7060  -1.5409  -1.5057  -1.4646  -1.3424  -1.3249  -1.3172  -1.2138
    -1.1309  -0.8325  -0.6693  -0.6325  -0.5291  -0.4354  -0.1972  -0.0807
    -0.0691   0.1776   0.2234   0.4959   0.6166   0.7182   0.7601   0.8918
     0.9667   1.1422   1.2942   1.3490   1.5848   1.7076   1.8923   1.9061
     2.4936

          k = 0.0760-0.0088 0.0000 ( 29713 PWs)   bands (ev):

    -7.6426  -6.0542  -5.7508  -5.6875  -5.3455  -5.3203  -5.2445  -5.1708
    -5.0157  -4.9201  -4.8488  -4.6138  -4.2683  -4.1204  -3.9468  -3.6014
    -3.5104  -3.4441  -3.3926  -3.2004  -3.0199  -2.9620  -2.8392  -2.8003
    -2.3770  -2.3095  -2.2651  -2.2108  -2.1375  -2.0295  -1.9570  -1.9110
    -1.7105  -1.6243  -1.3904  -1.3368  -1.2816  -1.2673  -1.2663  -1.0093
    -0.8796  -0.8730  -0.7050  -0.6172  -0.4442  -0.4045  -0.2415  -0.0785
    -0.0527   0.1288   0.3609   0.6487   0.6842   0.8777   0.9820   1.1437
     1.2013   1.2984   1.4115   1.4215   1.6992   1.7435   1.7676   1.8334
     2.3782

          k = 0.0760 0.0088 0.0000 ( 29713 PWs)   bands (ev):

    -7.6426  -6.0542  -5.7508  -5.6875  -5.3455  -5.3203  -5.2445  -5.1708
    -5.0157  -4.9201  -4.8488  -4.6138  -4.2683  -4.1204  -3.9468  -3.6014
    -3.5104  -3.4441  -3.3926  -3.2004  -3.0199  -2.9620  -2.8392  -2.8003
    -2.3770  -2.3095  -2.2651  -2.2108  -2.1375  -2.0295  -1.9570  -1.9110
    -1.7105  -1.6243  -1.3903  -1.3369  -1.2816  -1.2673  -1.2663  -1.0093
    -0.8796  -0.8730  -0.7050  -0.6172  -0.4442  -0.4045  -0.2415  -0.0784
    -0.0527   0.1288   0.3609   0.6487   0.6842   0.8777   0.9820   1.1437
     1.2013   1.2984   1.4115   1.4215   1.6992   1.7435   1.7676   1.8334
     2.3782

          k = 0.0760 0.0263 0.0000 ( 29727 PWs)   bands (ev):

    -7.5466  -6.3095  -5.6365  -5.4242  -5.3713  -5.2816  -5.1654  -5.1481
    -5.0293  -4.9423  -4.7171  -4.5949  -4.3100  -3.9318  -3.8977  -3.6499
    -3.4781  -3.4555  -3.3553  -3.3093  -3.1582  -3.1210  -2.7125  -2.7089
    -2.2920  -2.2691  -2.2562  -2.1269  -2.0850  -2.0119  -1.9822  -1.8955
    -1.7060  -1.5409  -1.5057  -1.4646  -1.3424  -1.3249  -1.3172  -1.2138
    -1.1309  -0.8325  -0.6693  -0.6325  -0.5291  -0.4354  -0.1973  -0.0807
    -0.0691   0.1776   0.2235   0.4959   0.6166   0.7181   0.7601   0.8918
     0.9667   1.1422   1.2942   1.3490   1.5848   1.7076   1.8922   1.9061
     2.4936

          k = 0.0760 0.0439 0.0000 ( 29724 PWs)   bands (ev):

    -7.3571  -6.5062  -5.5326  -5.3685  -5.1543  -5.1349  -5.1348  -5.0556
    -5.0555  -4.9258  -4.5452  -4.5451  -4.2378  -3.8419  -3.8417  -3.7556
    -3.4399  -3.4398  -3.4093  -3.3809  -3.2332  -3.2330  -2.6700  -2.6172
    -2.3082  -2.1927  -2.1927  -2.0849  -2.0845  -2.0108  -1.8778  -1.8231
    -1.7365  -1.6660  -1.6164  -1.6163  -1.5062  -1.4475  -1.4473  -1.4057
    -1.3668  -0.8240  -0.5925  -0.5924  -0.5623  -0.5198  -0.2735  -0.1220
    -0.0941  -0.0940   0.3455   0.3681   0.5347   0.5903   0.5903   0.6254
     0.7714   0.8313   1.3481   1.3482   1.6711   1.7157   1.9782   1.9782
     2.6469

          k = 0.0760-0.1492 0.0000 ( 29723 PWs)   bands (ev):

    -7.0803  -6.6438  -5.3786  -5.3028  -5.2548  -5.0271  -4.9921  -4.9721
    -4.8655  -4.8458  -4.4589  -4.3591  -4.0761  -3.9133  -3.8941  -3.8630
    -3.5324  -3.5251  -3.5072  -3.3965  -3.2110  -3.0208  -2.6545  -2.6045
    -2.3850  -2.3692  -2.1414  -2.1184  -2.1169  -2.0589  -2.0301  -2.0208
    -1.9306  -1.7163  -1.6939  -1.6474  -1.6272  -1.5891  -1.5553  -1.4630
    -1.1318  -0.7688  -0.7674  -0.5811  -0.5083  -0.4747  -0.3332  -0.2000
    -0.1805  -0.0072   0.2034   0.3721   0.4228   0.4851   0.6648   0.7137
     0.7246   0.8008   1.2979   1.3439   1.6202   1.6547   1.9000   1.9239
     2.9237

          k = 0.0760-0.1316 0.0000 ( 29696 PWs)   bands (ev):

    -6.7282  -6.7280  -5.5217  -5.1938  -5.1936  -4.9844  -4.8678  -4.7663
    -4.7663  -4.6932  -4.3664  -4.2120  -4.0617  -4.0344  -3.8916  -3.8914
    -3.6718  -3.6717  -3.5595  -3.2539  -3.1680  -2.8080  -2.6729  -2.6725
    -2.6695  -2.5129  -2.5127  -2.4389  -2.3053  -2.3050  -2.0722  -1.9725
    -1.8046  -1.7398  -1.6948  -1.6946  -1.6876  -1.6698  -1.3920  -1.3919
    -0.9941  -0.9939  -0.5447  -0.5267  -0.5184  -0.5182  -0.3952  -0.2333
     0.0143   0.0147   0.3268   0.3273   0.4232   0.6961   0.6963   0.8008
     0.9115   0.9116   1.2088   1.2863   1.5123   1.5125   1.7114   1.7266
     2.5036

          k = 0.0760-0.1141 0.0000 ( 29695 PWs)   bands (ev):

    -6.7673  -6.3220  -5.8999  -5.1011  -5.0344  -4.9700  -4.7734  -4.6660
    -4.5934  -4.5809  -4.4143  -4.2932  -4.0458  -4.0292  -3.9761  -3.8899
    -3.6951  -3.5560  -3.5076  -3.3965  -3.0508  -2.9753  -2.8364  -2.7434
    -2.6847  -2.6427  -2.6237  -2.5496  -2.4879  -2.4569  -2.0845  -1.9615
    -1.7944  -1.7627  -1.7457  -1.6585  -1.6066  -1.5544  -1.4259  -1.3774
    -1.1057  -0.8614  -0.7017  -0.5236  -0.4093  -0.3359  -0.3238  -0.1952
    -0.1912   0.1425   0.3270   0.3391   0.6965   0.9118   0.9606   1.0496
     1.1089   1.1224   1.1799   1.2194   1.3478   1.4621   1.4662   1.5143
     1.8226

          k = 0.0760-0.0965 0.0000 ( 29695 PWs)   bands (ev):

    -6.7673  -6.3220  -5.8999  -5.1011  -5.0344  -4.9700  -4.7734  -4.6660
    -4.5934  -4.5809  -4.4143  -4.2932  -4.0458  -4.0292  -3.9761  -3.8899
    -3.6951  -3.5560  -3.5076  -3.3965  -3.0508  -2.9753  -2.8365  -2.7434
    -2.6847  -2.6427  -2.6237  -2.5496  -2.4879  -2.4569  -2.0845  -1.9615
    -1.7944  -1.7627  -1.7457  -1.6585  -1.6066  -1.5545  -1.4259  -1.3773
    -1.1057  -0.8614  -0.7016  -0.5236  -0.4093  -0.3359  -0.3238  -0.1952
    -0.1912   0.1425   0.3270   0.3391   0.6965   0.9118   0.9607   1.0496
     1.1089   1.1224   1.1799   1.2194   1.3478   1.4621   1.4662   1.5143
     1.8226

          k = 0.0760-0.0790 0.0000 ( 29696 PWs)   bands (ev):

    -6.7281  -6.7281  -5.5217  -5.1937  -5.1936  -4.9844  -4.8678  -4.7663
    -4.7663  -4.6932  -4.3664  -4.2120  -4.0617  -4.0344  -3.8916  -3.8915
    -3.6718  -3.6717  -3.5596  -3.2539  -3.1680  -2.8080  -2.6728  -2.6726
    -2.6695  -2.5128  -2.5128  -2.4389  -2.3052  -2.3051  -2.0722  -1.9725
    -1.8046  -1.7398  -1.6947  -1.6947  -1.6876  -1.6698  -1.3920  -1.3919
    -0.9941  -0.9940  -0.5446  -0.5266  -0.5184  -0.5183  -0.3952  -0.2333
     0.0144   0.0146   0.3269   0.3272   0.4232   0.6962   0.6963   0.8008
     0.9116   0.9116   1.2088   1.2863   1.5123   1.5124   1.7114   1.7267
     2.5036

          k = 0.0760-0.0614 0.0000 ( 29723 PWs)   bands (ev):

    -7.0803  -6.6438  -5.3786  -5.3028  -5.2548  -5.0271  -4.9921  -4.9721
    -4.8655  -4.8458  -4.4589  -4.3591  -4.0762  -3.9133  -3.8941  -3.8630
    -3.5324  -3.5251  -3.5072  -3.3965  -3.2110  -3.0208  -2.6545  -2.6045
    -2.3850  -2.3692  -2.1415  -2.1183  -2.1169  -2.0589  -2.0301  -2.0208
    -1.9306  -1.7164  -1.6939  -1.6474  -1.6272  -1.5891  -1.5553  -1.4630
    -1.1318  -0.7688  -0.7674  -0.5811  -0.5083  -0.4747  -0.3332  -0.2000
    -0.1805  -0.0072   0.2034   0.3721   0.4228   0.4851   0.6649   0.7136
     0.7246   0.8008   1.2979   1.3439   1.6202   1.6547   1.9000   1.9239
     2.9238

          k =-0.0912 0.0527 0.0000 ( 29734 PWs)   bands (ev):

    -6.8975  -6.8974  -5.3636  -5.3635  -5.0427  -5.0426  -4.9677  -4.9676
    -4.9312  -4.9312  -4.3816  -4.3816  -3.9917  -3.9917  -3.8603  -3.8603
    -3.5546  -3.5545  -3.5002  -3.5002  -3.0680  -3.0680  -2.5847  -2.5846
    -2.2249  -2.2248  -2.1873  -2.1871  -2.0890  -2.0888  -1.8469  -1.8468
    -1.7827  -1.7824  -1.7522  -1.7522  -1.7447  -1.7447  -1.6199  -1.6198
    -0.9547  -0.9546  -0.6578  -0.6577  -0.5284  -0.5284  -0.3032  -0.3031
    -0.0383  -0.0379   0.1384   0.1386   0.5364   0.5364   0.5422   0.5423
     0.6569   0.6569   1.3484   1.3485   1.6902   1.6903   1.9863   1.9863
     3.0880

          k =-0.0912 0.0702 0.0000 ( 29723 PWs)   bands (ev):

    -7.0803  -6.6438  -5.3786  -5.3028  -5.2548  -5.0271  -4.9921  -4.9721
    -4.8655  -4.8458  -4.4589  -4.3591  -4.0762  -3.9133  -3.8941  -3.8630
    -3.5324  -3.5251  -3.5072  -3.3965  -3.2110  -3.0208  -2.6545  -2.6045
    -2.3850  -2.3692  -2.1414  -2.1183  -2.1170  -2.0589  -2.0301  -2.0208
    -1.9305  -1.7163  -1.6939  -1.6474  -1.6272  -1.5891  -1.5553  -1.4630
    -1.1318  -0.7688  -0.7674  -0.5812  -0.5083  -0.4747  -0.3332  -0.2000
    -0.1805  -0.0072   0.2034   0.3721   0.4228   0.4851   0.6649   0.7136
     0.7246   0.8008   1.2979   1.3439   1.6202   1.6547   1.9000   1.9239
     2.9237

          k =-0.0912 0.0878 0.0000 ( 29744 PWs)   bands (ev):

    -7.1901  -6.3271  -5.5891  -5.3644  -5.2060  -5.0589  -4.9882  -4.9732
    -4.7929  -4.7630  -4.5863  -4.3569  -4.0531  -4.0310  -3.8892  -3.8083
    -3.5575  -3.4609  -3.4475  -3.4260  -3.1866  -2.9946  -2.8247  -2.7826
    -2.4283  -2.4058  -2.2694  -2.2504  -2.1939  -2.1128  -2.0913  -1.9961
    -1.9908  -1.8086  -1.6172  -1.5344  -1.4841  -1.4177  -1.3962  -1.3696
    -1.1750  -0.7694  -0.6744  -0.6247  -0.5158  -0.3387  -0.2951  -0.2522
    -0.1543  -0.0066   0.3144   0.3539   0.5014   0.8502   0.8788   0.8880
     1.0343   1.1726   1.2039   1.2896   1.4550   1.5982   1.7173   1.7175
     2.4714

          k =-0.0912 0.1053 0.0000 ( 29720 PWs)   bands (ev):

    -7.2266  -5.9648  -5.9645  -5.3535  -5.1128  -5.1126  -4.9916  -4.9679
    -4.7307  -4.7086  -4.7084  -4.3565  -4.0849  -3.9378  -3.9375  -3.8187
    -3.5869  -3.5869  -3.3837  -3.3524  -2.9880  -2.9781  -2.9715  -2.9713
    -2.4003  -2.3843  -2.3839  -2.3169  -2.2422  -2.1183  -2.1182  -1.9725
    -1.9163  -1.9160  -1.6133  -1.4980  -1.3981  -1.3979  -1.3799  -1.2958
    -1.1562  -0.7129  -0.6365  -0.5897  -0.5895  -0.2953  -0.2952  -0.2812
    -0.2256   0.0767   0.3376   0.4702   0.4704   0.9875   1.0107   1.1078
     1.1692   1.1693   1.3338   1.4503   1.4504   1.5983   1.7958   1.7963
     1.8828

          k =-0.0912 0.1229 0.0000 ( 29744 PWs)   bands (ev):

    -7.1901  -6.3271  -5.5891  -5.3644  -5.2060  -5.0589  -4.9882  -4.9732
    -4.7929  -4.7630  -4.5863  -4.3569  -4.0531  -4.0310  -3.8892  -3.8082
    -3.5575  -3.4609  -3.4475  -3.4260  -3.1866  -2.9946  -2.8247  -2.7825
    -2.4283  -2.4058  -2.2694  -2.2504  -2.1939  -2.1128  -2.0913  -1.9961
    -1.9908  -1.8086  -1.6171  -1.5344  -1.4840  -1.4177  -1.3962  -1.3696
    -1.1750  -0.7694  -0.6743  -0.6247  -0.5158  -0.3387  -0.2951  -0.2522
    -0.1543  -0.0066   0.3144   0.3539   0.5014   0.8501   0.8788   0.8880
     1.0343   1.1726   1.2040   1.2896   1.4550   1.5982   1.7172   1.7175
     2.4714

          k =-0.0912 0.1404 0.0000 ( 29723 PWs)   bands (ev):

    -7.0803  -6.6438  -5.3786  -5.3028  -5.2548  -5.0271  -4.9922  -4.9721
    -4.8655  -4.8458  -4.4589  -4.3591  -4.0761  -3.9133  -3.8941  -3.8630
    -3.5324  -3.5251  -3.5072  -3.3965  -3.2110  -3.0208  -2.6545  -2.6045
    -2.3850  -2.3692  -2.1414  -2.1183  -2.1169  -2.0589  -2.0301  -2.0208
    -1.9306  -1.7163  -1.6939  -1.6474  -1.6272  -1.5891  -1.5553  -1.4630
    -1.1318  -0.7688  -0.7674  -0.5811  -0.5083  -0.4747  -0.3332  -0.2000
    -0.1805  -0.0072   0.2034   0.3721   0.4228   0.4851   0.6648   0.7136
     0.7246   0.8008   1.2979   1.3439   1.6202   1.6548   1.9000   1.9239
     2.9238

          k =-0.0912-0.0527 0.0000 ( 29734 PWs)   bands (ev):

    -6.8975  -6.8973  -5.3637  -5.3634  -5.0427  -5.0426  -4.9677  -4.9676
    -4.9313  -4.9312  -4.3816  -4.3815  -3.9917  -3.9917  -3.8604  -3.8603
    -3.5546  -3.5544  -3.5003  -3.5001  -3.0681  -3.0680  -2.5847  -2.5845
    -2.2249  -2.2248  -2.1874  -2.1869  -2.0892  -2.0887  -1.8470  -1.8468
    -1.7829  -1.7822  -1.7522  -1.7521  -1.7448  -1.7447  -1.6199  -1.6197
    -0.9547  -0.9545  -0.6579  -0.6576  -0.5284  -0.5283  -0.3033  -0.3031
    -0.0385  -0.0376   0.1383   0.1387   0.5364   0.5364   0.5421   0.5424
     0.6568   0.6569   1.3484   1.3485   1.6902   1.6904   1.9863   1.9864
     3.0880

     the Fermi energy is     0.9551 ev

!    total energy              =    -756.67229623 Ry
     estimated scf accuracy    <       0.00000518 Ry
     smearing contrib. (-TS)   =      -0.07940239 Ry
     internal energy E=F+TS    =    -756.59289384 Ry

     The total energy is F=E-TS. E is the sum of the following terms:
     one-electron contribution =   -6376.17454382 Ry
     hartree contribution      =    3254.57933627 Ry
     xc contribution           =    -389.96653857 Ry
     ewald contribution        =    2754.96885227 Ry
     electric field correction =       0.00000001 Ry

     convergence has been achieved in  20 iterations

     negative rho (up, down):  5.251E-04 0.000E+00

     Forces acting on atoms (cartesian axes, Ry/au):

     atom    1 type  1   force =     0.00000142   -0.00000833    0.01385553
     atom    2 type  1   force =     0.00000162   -0.00000216    0.01384287
     atom    3 type  1   force =    -0.00000054    0.00000059    0.01384129
     atom    4 type  1   force =    -0.00000103   -0.00000237    0.01385682
     atom    5 type  1   force =    -0.00001086   -0.00001435   -0.01820421
     atom    6 type  1   force =     0.00001752   -0.00000668   -0.01820349
     atom    7 type  1   force =     0.00000802    0.00001355   -0.01821313
     atom    8 type  1   force =     0.00000131   -0.00000263   -0.01823336
     atom    9 type  1   force =    -0.00007434    0.00007808    0.00431456
     atom   10 type  1   force =     0.00006549    0.00009064    0.00436094
     atom   11 type  1   force =     0.00001552   -0.00003535    0.00445157
     atom   12 type  1   force =    -0.00002412   -0.00011099    0.00433061

     Total force =     0.046587     Total SCF correction =     0.012150
     SCF correction compared to forces is large: reduce conv_thr to get better values

     Writing output data file ./Ir750/Ir750_beef.save/

     init_run     :    236.84s CPU    237.17s WALL (       1 calls)
     electrons    :   2598.37s CPU   2612.51s WALL (       1 calls)
     forces       :     31.84s CPU     32.00s WALL (       1 calls)

     Called by init_run:
     wfcinit      :    204.60s CPU    204.84s WALL (       1 calls)
     potinit      :     28.31s CPU     28.34s WALL (       1 calls)
     hinit0       :      1.87s CPU      1.88s WALL (       1 calls)

     Called by electrons:
     c_bands      :   2322.22s CPU   2331.88s WALL (      21 calls)
     sum_band     :    246.47s CPU    248.80s WALL (      21 calls)
     v_of_rho     :     43.13s CPU     44.25s WALL (      21 calls)
     newd         :     13.60s CPU     14.57s WALL (      21 calls)
     mix_rho      :      0.61s CPU      0.63s WALL (      21 calls)
     vdW_kernel   :     14.93s CPU     14.93s WALL (       1 calls)

     Called by c_bands:
     init_us_2    :     12.11s CPU     12.27s WALL (    3256 calls)
     cegterg      :   2292.63s CPU   2299.81s WALL (    1554 calls)

     Called by *egterg:
     cdiaghg      :     73.83s CPU     73.88s WALL (    7113 calls)
     h_psi        :   1670.08s CPU   1677.02s WALL (    7261 calls)
     s_psi        :    354.76s CPU    354.89s WALL (    7261 calls)
     g_psi        :      1.07s CPU      1.08s WALL (    5633 calls)

     Called by h_psi:
     h_psi:calbec :    401.58s CPU    402.39s WALL (    7261 calls)
     vloc_psi     :    879.71s CPU    885.72s WALL (    7261 calls)
     add_vuspsi   :    385.91s CPU    386.03s WALL (    7261 calls)

     General routines
     calbec       :    569.76s CPU    570.94s WALL (    9111 calls)
     fft          :     23.41s CPU     23.82s WALL (    1383 calls)
     ffts         :      0.25s CPU      0.25s WALL (      42 calls)
     fftw         :    933.37s CPU    939.95s WALL (  640788 calls)
     interpolate  :      0.53s CPU      0.55s WALL (      21 calls)

     Parallel routines
     fft_scatt_xy :     37.03s CPU     37.48s WALL (  642213 calls)
     fft_scatt_yz :    570.05s CPU    571.58s WALL (  642213 calls)

     PWSCF        :      1h14m CPU      1h15m WALL


   This run was terminated on:   6:58:22  21Jun2022            

=------------------------------------------------------------------------------=
   JOB DONE.
=------------------------------------------------------------------------------=
