
     Program PWSCF v.6.6 starts on 21Jun2022 at 20:50: 3 

     This program is part of the open-source Quantum ESPRESSO suite
     for quantum simulation of materials; please cite
         "P. Giannozzi et al., J. Phys.:Condens. Matter 21 395502 (2009);
         "P. Giannozzi et al., J. Phys.:Condens. Matter 29 465901 (2017);
          URL http://www.quantum-espresso.org", 
     in publications or presentations arising from this work. More details at
     http://www.quantum-espresso.org/quote

     Parallel version (MPI), running on    37 processors

     MPI processes distributed on     1 nodes
     R & G space division:  proc/nbgrp/npool/nimage =      37
     Fft bands division:     nmany     =       1
     Reading input from Pd-750.in
Warning: card &CELL ignored
Warning: card / ignored

     Current dimensions of program PWSCF are:
     Max number of different atomic species (ntypx) = 10
     Max number of k-points (npk) =  40000
     Max angular momentum in pseudopotentials (lmaxx) =  3
     Presently stress not available with electric field and gates

     Message from routine cell_base_init:
     DEPRECATED: use true lattice parameter, not A to a.u. conversion factor
     file Pd.pbe-n-rrkjus_psl.1.0.0.UPF: wavefunction(s)  4D renormalized

     **************************************************************************
     Initializing libbeef V0.1.2 with the BEEF-vdW functional.
     Citation: Wellendorff et al., PRB 85, 235149 (2012).
     **************************************************************************


     IMPORTANT: XC functional enforced from input :
     Exchange-correlation= BEEF-VDW
                           (   1   4  43  14   2   0   0)
     Any further DFT definition will be discarded
     Please, verify this is what you really want


     Subspace diagonalization in iterative solution of the eigenvalue problem:
     a serial algorithm will be used

     Found symmetry operation: I + ( -0.5000  0.0000  0.0000)
     This is a supercell, fractional translations are disabled

     Parallelization info
     --------------------
     sticks:   dense  smooth     PW     G-vecs:    dense   smooth      PW
     Min         116      46     13                26978     6822    1051
     Max         117      47     14                27001     6841    1070
     Sum        4303    1735    499               998657   252861   39183



     bravais-lattice index     =            0
     lattice parameter (alat)  =       1.8897  a.u.
     unit-cell volume          =    4569.9951 (a.u.)^3
     number of atoms/cell      =           12
     number of atomic types    =            1
     number of electrons       =       120.00
     number of Kohn-Sham states=           72
     kinetic-energy cutoff     =      55.1240  Ry
     charge density cutoff     =     551.2396  Ry
     convergence threshold     =      1.0E-05
     mixing beta               =       0.1000
     number of iterations used =           10  plain     mixing
     Exchange-correlation= BEEF-VDW
                           (   1   4  43  14   2   0   0)

     celldm(1)=   1.889726  celldm(2)=   0.000000  celldm(3)=   0.000000
     celldm(4)=   0.000000  celldm(5)=   0.000000  celldm(6)=   0.000000

     crystal axes: (cart. coord. in units of alat)
               a(1) = (   5.637663   0.000000   0.000000 )  
               a(2) = (   2.818831   4.882359   0.000000 )  
               a(3) = (   0.000000   0.000000  24.603132 )  

     reciprocal axes: (cart. coord. in units 2 pi/alat)
               b(1) = (  0.177378 -0.102409  0.000000 )  
               b(2) = (  0.000000  0.204819  0.000000 )  
               b(3) = (  0.000000  0.000000  0.040645 )  


     PseudoPot. # 1 for Pd read from file:
     ../pseudo/Pd.pbe-n-rrkjus_psl.1.0.0.UPF
     MD5 check sum: d9f693bf1c5b493397a6bd6f2231cfc3
     Pseudo is Ultrasoft + core correction, Zval = 10.0
     Generated using "atomic" code by A. Dal Corso v.6.3
     Using radial grid of 1235 points,  6 beta functions with: 
                l(1) =   0
                l(2) =   0
                l(3) =   1
                l(4) =   1
                l(5) =   2
                l(6) =   2
     Q(r) pseudized with 0 coefficients 


     atomic species   valence    mass     pseudopotential
        Pd            10.00   106.42000     Pd( 1.00)

     No symmetry found



   Cartesian axes

     site n.     atom                  positions (alat units)
         1           Pd  tau(   1) = (   1.4094159   0.8137267   9.9999996  )
         2           Pd  tau(   2) = (   4.2282474   0.8137267   9.9999996  )
         3           Pd  tau(   3) = (   2.8188314   3.2549062   9.9999996  )
         4           Pd  tau(   4) = (   5.6376629   3.2549062   9.9999996  )
         5           Pd  tau(   5) = (   5.6376626   1.6274528  12.3015660  )
         6           Pd  tau(   6) = (   2.8188311   1.6274528  12.3015660  )
         7           Pd  tau(   7) = (   7.0470781   4.0686323  12.3015660  )
         8           Pd  tau(   8) = (   4.2282466   4.0686323  12.3015660  )
         9           Pd  tau(   9) = (   0.0000000   0.0000000  14.6031324  )
        10           Pd  tau(  10) = (   2.8188315   0.0000000  14.6031324  )
        11           Pd  tau(  11) = (   1.4094155   2.4411795  14.6031324  )
        12           Pd  tau(  12) = (   4.2282470   2.4411795  14.6031324  )

     number of k points=    74  Fermi-Dirac smearing, width (Ry)=  0.0100
                       cart. coord. in units 2pi/alat
        k(    1) = (   0.0000000   0.0000000   0.0000000), wk =   0.0138889
        k(    2) = (   0.0000000   0.0170683   0.0000000), wk =   0.0277778
        k(    3) = (   0.0000000   0.0341365   0.0000000), wk =   0.0277778
        k(    4) = (   0.0000000   0.0512048   0.0000000), wk =   0.0277778
        k(    5) = (   0.0000000   0.0682730   0.0000000), wk =   0.0277778
        k(    6) = (   0.0000000   0.0853413   0.0000000), wk =   0.0277778
        k(    7) = (   0.0000000  -0.1024095   0.0000000), wk =   0.0138889
        k(    8) = (   0.0147815  -0.0085341   0.0000000), wk =   0.0277778
        k(    9) = (   0.0147815   0.0085341   0.0000000), wk =   0.0277778
        k(   10) = (   0.0147815   0.0256024   0.0000000), wk =   0.0277778
        k(   11) = (   0.0147815   0.0426706   0.0000000), wk =   0.0277778
        k(   12) = (   0.0147815   0.0597389   0.0000000), wk =   0.0277778
        k(   13) = (   0.0147815   0.0768071   0.0000000), wk =   0.0277778
        k(   14) = (   0.0147815  -0.1109436   0.0000000), wk =   0.0277778
        k(   15) = (   0.0147815  -0.0938754   0.0000000), wk =   0.0277778
        k(   16) = (   0.0147815  -0.0768071   0.0000000), wk =   0.0277778
        k(   17) = (   0.0147815  -0.0597389   0.0000000), wk =   0.0277778
        k(   18) = (   0.0147815  -0.0426706   0.0000000), wk =   0.0277778
        k(   19) = (   0.0147815  -0.0256024   0.0000000), wk =   0.0277778
        k(   20) = (   0.0295631  -0.0170682   0.0000000), wk =   0.0277778
        k(   21) = (   0.0295631   0.0000000   0.0000000), wk =   0.0277778
        k(   22) = (   0.0295631   0.0170683   0.0000000), wk =   0.0277778
        k(   23) = (   0.0295631   0.0341365   0.0000000), wk =   0.0277778
        k(   24) = (   0.0295631   0.0512048   0.0000000), wk =   0.0277778
        k(   25) = (   0.0295631   0.0682730   0.0000000), wk =   0.0277778
        k(   26) = (   0.0295631  -0.1194778   0.0000000), wk =   0.0277778
        k(   27) = (   0.0295631  -0.1024095   0.0000000), wk =   0.0277778
        k(   28) = (   0.0295631  -0.0853413   0.0000000), wk =   0.0277778
        k(   29) = (   0.0295631  -0.0682730   0.0000000), wk =   0.0277778
        k(   30) = (   0.0295631  -0.0512048   0.0000000), wk =   0.0277778
        k(   31) = (   0.0295631  -0.0341365   0.0000000), wk =   0.0277778
        k(   32) = (   0.0443446  -0.0256024   0.0000000), wk =   0.0277778
        k(   33) = (   0.0443446  -0.0085341   0.0000000), wk =   0.0277778
        k(   34) = (   0.0443446   0.0085341   0.0000000), wk =   0.0277778
        k(   35) = (   0.0443446   0.0256024   0.0000000), wk =   0.0277778
        k(   36) = (   0.0443446   0.0426706   0.0000000), wk =   0.0277778
        k(   37) = (   0.0443446   0.0597389   0.0000000), wk =   0.0277778
        k(   38) = (   0.0443446  -0.1280119   0.0000000), wk =   0.0277778
        k(   39) = (   0.0443446  -0.1109436   0.0000000), wk =   0.0277778
        k(   40) = (   0.0443446  -0.0938754   0.0000000), wk =   0.0277778
        k(   41) = (   0.0443446  -0.0768071   0.0000000), wk =   0.0277778
        k(   42) = (   0.0443446  -0.0597389   0.0000000), wk =   0.0277778
        k(   43) = (   0.0443446  -0.0426706   0.0000000), wk =   0.0277778
        k(   44) = (   0.0591262  -0.0341365   0.0000000), wk =   0.0277778
        k(   45) = (   0.0591262  -0.0170682   0.0000000), wk =   0.0277778
        k(   46) = (   0.0591262   0.0000000   0.0000000), wk =   0.0277778
        k(   47) = (   0.0591262   0.0170683   0.0000000), wk =   0.0277778
        k(   48) = (   0.0591262   0.0341365   0.0000000), wk =   0.0277778
        k(   49) = (   0.0591262   0.0512048   0.0000000), wk =   0.0277778
        k(   50) = (   0.0591262  -0.1365460   0.0000000), wk =   0.0277778
        k(   51) = (   0.0591262  -0.1194778   0.0000000), wk =   0.0277778
        k(   52) = (   0.0591262  -0.1024095   0.0000000), wk =   0.0277778
        k(   53) = (   0.0591262  -0.0853413   0.0000000), wk =   0.0277778
        k(   54) = (   0.0591262  -0.0682730   0.0000000), wk =   0.0277778
        k(   55) = (   0.0591262  -0.0512047   0.0000000), wk =   0.0277778
        k(   56) = (   0.0739077  -0.0426706   0.0000000), wk =   0.0277778
        k(   57) = (   0.0739077  -0.0256024   0.0000000), wk =   0.0277778
        k(   58) = (   0.0739077  -0.0085341   0.0000000), wk =   0.0277778
        k(   59) = (   0.0739077   0.0085341   0.0000000), wk =   0.0277778
        k(   60) = (   0.0739077   0.0256024   0.0000000), wk =   0.0277778
        k(   61) = (   0.0739077   0.0426706   0.0000000), wk =   0.0277778
        k(   62) = (   0.0739077  -0.1450801   0.0000000), wk =   0.0277778
        k(   63) = (   0.0739077  -0.1280119   0.0000000), wk =   0.0277778
        k(   64) = (   0.0739077  -0.1109436   0.0000000), wk =   0.0277778
        k(   65) = (   0.0739077  -0.0938754   0.0000000), wk =   0.0277778
        k(   66) = (   0.0739077  -0.0768071   0.0000000), wk =   0.0277778
        k(   67) = (   0.0739077  -0.0597389   0.0000000), wk =   0.0277778
        k(   68) = (  -0.0886892   0.0512047   0.0000000), wk =   0.0138889
        k(   69) = (  -0.0886892   0.0682730   0.0000000), wk =   0.0277778
        k(   70) = (  -0.0886892   0.0853413   0.0000000), wk =   0.0277778
        k(   71) = (  -0.0886892   0.1024095   0.0000000), wk =   0.0277778
        k(   72) = (  -0.0886892   0.1194778   0.0000000), wk =   0.0277778
        k(   73) = (  -0.0886892   0.1365460   0.0000000), wk =   0.0277778
        k(   74) = (  -0.0886892  -0.0512048   0.0000000), wk =   0.0138889

     Dense  grid:   998657 G-vectors     FFT dimensions: (  80,  80, 360)

     Smooth grid:   252861 G-vectors     FFT dimensions: (  54,  54, 225)

     Estimated max dynamical RAM per process >     182.99 MB

     Estimated total dynamical RAM >       6.61 GB

     Initial potential from superposition of free atoms

     starting charge  119.99314, renormalised to  120.00000

     negative rho (up, down):  1.260E-03 0.000E+00


     %%%%%%%%%%%%%%%%%%%%%%%%%%%%%%%%%%%%%%%%%%%%%%%%%%%%%%%%%%%%%%%%%%%%%%%%
     %                                                                      %
     % You are using vdW-DF, which was implemented by the Thonhauser group. %
     % Please cite the following two papers that made this development      %
     % possible and the two reviews that describe the various versions:     %
     %                                                                      %
     %   T. Thonhauser et al., PRL 115, 136402 (2015).                      %
     %   T. Thonhauser et al., PRB 76, 125112 (2007).                       %
     %   K. Berland et al., Rep. Prog. Phys. 78, 066501 (2015).             %
     %   D.C. Langreth et al., J. Phys.: Condens. Matter 21, 084203 (2009). %
     %                                                                      %
     %                                                                      %
     % If you are calculating the stress with vdW-DF, please also cite:     %
     %                                                                      %
     %   R. Sabatini et al., J. Phys.: Condens. Matter 24, 424209 (2012).   %
     %                                                                      %
     %%%%%%%%%%%%%%%%%%%%%%%%%%%%%%%%%%%%%%%%%%%%%%%%%%%%%%%%%%%%%%%%%%%%%%%%



     Adding external electric field

     Computed dipole along edir(3) : 
        Dipole                0.0000 Ry au,          0.0000 Debye
        Dipole field          0.0000 Ry au, 

        Potential amp.       -0.0000 Ry
        Total length         45.3308 bohr

     Starting wfcs are  108 randomized atomic wfcs

     total cpu time spent up to now is       84.0 secs

     Self-consistent Calculation

     iteration #  1     ecut=    55.12 Ry     beta= 0.10
     Davidson diagonalization with overlap
     ethr =  1.00E-02,  avg # of iterations =  2.1

     Threshold (ethr) on eigenvalues was too large:
     Diagonalizing with lowered threshold

     Davidson diagonalization with overlap
     ethr =  2.16E-04,  avg # of iterations =  4.9

     negative rho (up, down):  1.257E-03 0.000E+00

     Adding external electric field

     Computed dipole along edir(3) : 
        Dipole                0.0000 Ry au,          0.0000 Debye
        Dipole field          0.0000 Ry au, 

        Potential amp.       -0.0000 Ry
        Total length         45.3308 bohr


     total cpu time spent up to now is      332.2 secs

     total energy              =    -822.09535641 Ry
     estimated scf accuracy    <       0.35064627 Ry

     iteration #  2     ecut=    55.12 Ry     beta= 0.10
     Davidson diagonalization with overlap
     ethr =  2.92E-04,  avg # of iterations =  1.2

     negative rho (up, down):  1.265E-03 0.000E+00

     Adding external electric field

     Computed dipole along edir(3) : 
        Dipole               -0.0001 Ry au,         -0.0002 Debye
        Dipole field         -0.0000 Ry au, 

        Potential amp.        0.0000 Ry
        Total length         45.3308 bohr


     total cpu time spent up to now is      430.7 secs

     total energy              =    -822.09172590 Ry
     estimated scf accuracy    <       0.23696888 Ry

     iteration #  3     ecut=    55.12 Ry     beta= 0.10
     Davidson diagonalization with overlap
     ethr =  1.97E-04,  avg # of iterations =  1.1

     negative rho (up, down):  1.412E-03 0.000E+00

     Adding external electric field

     Computed dipole along edir(3) : 
        Dipole                0.0010 Ry au,          0.0027 Debye
        Dipole field          0.0000 Ry au, 

        Potential amp.       -0.0003 Ry
        Total length         45.3308 bohr


     total cpu time spent up to now is      528.1 secs

     total energy              =    -822.06963546 Ry
     estimated scf accuracy    <       0.11009748 Ry

     iteration #  4     ecut=    55.12 Ry     beta= 0.10
     Davidson diagonalization with overlap
     ethr =  9.17E-05,  avg # of iterations =  2.2

     negative rho (up, down):  1.660E-03 0.000E+00

     Adding external electric field

     Computed dipole along edir(3) : 
        Dipole               -0.0280 Ry au,         -0.0712 Debye
        Dipole field         -0.0001 Ry au, 

        Potential amp.        0.0070 Ry
        Total length         45.3308 bohr


     total cpu time spent up to now is      638.4 secs

     total energy              =    -822.07963191 Ry
     estimated scf accuracy    <       0.02016910 Ry

     iteration #  5     ecut=    55.12 Ry     beta= 0.10
     Davidson diagonalization with overlap
     ethr =  1.68E-05,  avg # of iterations =  2.3

     negative rho (up, down):  1.542E-03 0.000E+00

     Adding external electric field

     Computed dipole along edir(3) : 
        Dipole                0.0036 Ry au,          0.0091 Debye
        Dipole field          0.0000 Ry au, 

        Potential amp.       -0.0009 Ry
        Total length         45.3308 bohr


     total cpu time spent up to now is      748.5 secs

     total energy              =    -822.08067436 Ry
     estimated scf accuracy    <       0.07978106 Ry

     iteration #  6     ecut=    55.12 Ry     beta= 0.10
     Davidson diagonalization with overlap
     ethr =  1.68E-05,  avg # of iterations =  1.0

     negative rho (up, down):  2.670E-03 0.000E+00

     Adding external electric field

     Computed dipole along edir(3) : 
        Dipole                0.0002 Ry au,          0.0006 Debye
        Dipole field          0.0000 Ry au, 

        Potential amp.       -0.0001 Ry
        Total length         45.3308 bohr


     total cpu time spent up to now is      845.9 secs

     total energy              =    -822.07925796 Ry
     estimated scf accuracy    <       0.00990022 Ry

     iteration #  7     ecut=    55.12 Ry     beta= 0.10
     Davidson diagonalization with overlap
     ethr =  8.25E-06,  avg # of iterations =  5.5

     negative rho (up, down):  2.626E-03 0.000E+00

     Adding external electric field

     Computed dipole along edir(3) : 
        Dipole               -0.0000 Ry au,         -0.0000 Debye
        Dipole field         -0.0000 Ry au, 

        Potential amp.        0.0000 Ry
        Total length         45.3308 bohr


     total cpu time spent up to now is     1006.3 secs

     total energy              =    -822.08036395 Ry
     estimated scf accuracy    <       0.01025413 Ry

     iteration #  8     ecut=    55.12 Ry     beta= 0.10
     Davidson diagonalization with overlap
     ethr =  8.25E-06,  avg # of iterations =  1.9

     negative rho (up, down):  2.382E-03 0.000E+00

     Adding external electric field

     Computed dipole along edir(3) : 
        Dipole               -0.0000 Ry au,         -0.0001 Debye
        Dipole field         -0.0000 Ry au, 

        Potential amp.        0.0000 Ry
        Total length         45.3308 bohr


     total cpu time spent up to now is     1110.6 secs

     total energy              =    -822.08078279 Ry
     estimated scf accuracy    <       0.00103293 Ry

     iteration #  9     ecut=    55.12 Ry     beta= 0.10
     Davidson diagonalization with overlap
     ethr =  8.61E-07,  avg # of iterations =  3.8

     negative rho (up, down):  2.293E-03 0.000E+00

     Adding external electric field

     Computed dipole along edir(3) : 
        Dipole               -0.0001 Ry au,         -0.0002 Debye
        Dipole field         -0.0000 Ry au, 

        Potential amp.        0.0000 Ry
        Total length         45.3308 bohr


     total cpu time spent up to now is     1247.2 secs

     total energy              =    -822.08102022 Ry
     estimated scf accuracy    <       0.00006392 Ry

     iteration # 10     ecut=    55.12 Ry     beta= 0.10
     Davidson diagonalization with overlap
     ethr =  5.33E-08,  avg # of iterations =  3.5

     negative rho (up, down):  2.186E-03 0.000E+00

     Adding external electric field

     Computed dipole along edir(3) : 
        Dipole               -0.0001 Ry au,         -0.0002 Debye
        Dipole field         -0.0000 Ry au, 

        Potential amp.        0.0000 Ry
        Total length         45.3308 bohr


     total cpu time spent up to now is     1959.4 secs

     total energy              =    -822.08099737 Ry
     estimated scf accuracy    <       0.00008071 Ry

     iteration # 11     ecut=    55.12 Ry     beta= 0.10
     Davidson diagonalization with overlap
     ethr =  5.33E-08,  avg # of iterations =  2.3

     negative rho (up, down):  2.017E-03 0.000E+00

     Adding external electric field

     Computed dipole along edir(3) : 
        Dipole               -0.0000 Ry au,         -0.0001 Debye
        Dipole field         -0.0000 Ry au, 

        Potential amp.        0.0000 Ry
        Total length         45.3308 bohr


     total cpu time spent up to now is     2100.3 secs

     total energy              =    -822.08101751 Ry
     estimated scf accuracy    <       0.00006734 Ry

     iteration # 12     ecut=    55.12 Ry     beta= 0.10
     Davidson diagonalization with overlap
     ethr =  5.33E-08,  avg # of iterations =  1.3

     negative rho (up, down):  1.885E-03 0.000E+00

     Adding external electric field

     Computed dipole along edir(3) : 
        Dipole                0.0001 Ry au,          0.0002 Debye
        Dipole field          0.0000 Ry au, 

        Potential amp.       -0.0000 Ry
        Total length         45.3308 bohr


     total cpu time spent up to now is     2200.1 secs

     total energy              =    -822.08100984 Ry
     estimated scf accuracy    <       0.00001643 Ry

     iteration # 13     ecut=    55.12 Ry     beta= 0.10
     Davidson diagonalization with overlap
     ethr =  1.37E-08,  avg # of iterations =  2.6

     negative rho (up, down):  1.241E-03 0.000E+00

     Adding external electric field

     Computed dipole along edir(3) : 
        Dipole                0.0004 Ry au,          0.0011 Debye
        Dipole field          0.0000 Ry au, 

        Potential amp.       -0.0001 Ry
        Total length         45.3308 bohr


     total cpu time spent up to now is     2338.6 secs

     End of self-consistent calculation

          k = 0.0000 0.0000 0.0000 ( 31693 PWs)   bands (ev):

    -5.9550  -4.7172  -4.7020  -4.6704  -4.6704  -4.6704  -4.4745  -4.4745
    -4.4745  -4.2975  -4.2975  -4.2975  -4.1101  -4.1101  -4.1101  -3.1764
    -3.1764  -3.1764  -2.8915  -2.8915  -2.8915  -2.7407  -2.6909  -2.6909
    -2.5024  -2.5024  -2.3744  -2.3744  -2.3744  -2.3555  -2.3555  -2.2541
    -1.7039  -1.7039  -1.7039  -1.3398  -1.3398  -1.3350  -1.3349  -1.3349
    -1.1216  -1.1216  -1.1215  -0.9093  -0.9093  -0.5536  -0.5536  -0.5536
    -0.4761  -0.4761  -0.4761  -0.4516  -0.4516  -0.2906  -0.2906  -0.2906
    -0.1123  -0.0983  -0.0983  -0.0983  -0.0570  -0.0570  -0.0570   1.3522
     2.0727   2.0727   2.0727   3.3016   3.3016   3.3018   3.6309   3.6309

          k = 0.0000 0.0171 0.0000 ( 31615 PWs)   bands (ev):

    -5.9030  -4.6669  -4.6612  -4.6511  -4.6338  -4.6337  -4.4576  -4.4436
    -4.4436  -4.2800  -4.2764  -4.2764  -4.0887  -4.0690  -4.0690  -3.1721
    -3.1721  -3.1617  -2.8755  -2.8749  -2.8749  -2.7394  -2.7205  -2.6594
    -2.5601  -2.4775  -2.3969  -2.3969  -2.3674  -2.3648  -2.3233  -2.2397
    -1.7367  -1.7291  -1.7291  -1.3702  -1.3702  -1.3543  -1.3458  -1.3325
    -1.1528  -1.1438  -1.1438  -1.0136  -0.9092  -0.5817  -0.5817  -0.5638
    -0.5545  -0.5163  -0.4901  -0.4901  -0.4502  -0.3692  -0.3692  -0.3278
    -0.1606  -0.1606  -0.1384  -0.1384  -0.1382  -0.1019   0.0281   1.5145
     1.6545   2.1007   2.1007   2.6923   3.1563   3.1563   3.9440   3.9440

          k = 0.0000 0.0341 0.0000 ( 31632 PWs)   bands (ev):

    -5.7500  -4.5962  -4.5452  -4.5270  -4.5270  -4.5199  -4.4102  -4.3552
    -4.3552  -4.2272  -4.2124  -4.2124  -4.0261  -3.9485  -3.9485  -3.1654
    -3.1654  -3.1184  -2.8297  -2.8248  -2.8248  -2.8067  -2.7493  -2.6782
    -2.5666  -2.4575  -2.4575  -2.4063  -2.3918  -2.3366  -2.2408  -2.2280
    -1.8352  -1.8151  -1.8151  -1.4614  -1.4614  -1.4036  -1.3908  -1.3276
    -1.2436  -1.2200  -1.2200  -1.1830  -0.9113  -0.7535  -0.6832  -0.6831
    -0.6506  -0.6506  -0.6404  -0.6093  -0.5017  -0.5017  -0.4463  -0.4252
    -0.3712  -0.3711  -0.2594  -0.2158  -0.2120  -0.2120   0.3334   0.8210
     1.8918   1.9121   2.1477   2.1477   3.0956   3.0956   4.1170   4.4380

          k = 0.0000 0.0512 0.0000 ( 31618 PWs)   bands (ev):

    -5.5076  -4.5177  -4.3735  -4.3634  -4.3634  -4.3421  -4.2942  -4.2203
    -4.2203  -4.1386  -4.1060  -4.1060  -3.9263  -3.7578  -3.7578  -3.1703
    -3.1703  -3.0499  -2.9433  -2.8559  -2.7637  -2.7404  -2.7404  -2.7296
    -2.5451  -2.5451  -2.4185  -2.4014  -2.3005  -2.2924  -2.2862  -2.0735
    -1.9951  -1.9800  -1.9800  -1.5820  -1.5820  -1.5566  -1.4305  -1.3828
    -1.3440  -1.3440  -1.3423  -1.3298  -1.0751  -1.0751  -0.9196  -0.8631
    -0.8433  -0.8015  -0.8015  -0.7320  -0.6926  -0.6926  -0.5575  -0.4747
    -0.4747  -0.4588  -0.4406  -0.3314  -0.2385  -0.2385  -0.0341   0.7019
     1.1035   2.1873   2.1873   2.4272   3.1430   3.1430   3.6478   4.8817

          k = 0.0000 0.0683 0.0000 ( 31572 PWs)   bands (ev):

    -5.1999  -4.4486  -4.2628  -4.1936  -4.1842  -4.1842  -4.0399  -4.0399
    -4.0275  -4.0148  -3.9689  -3.9689  -3.7961  -3.5239  -3.5239  -3.1846
    -3.1846  -3.1181  -2.9986  -2.9665  -2.7162  -2.7109  -2.6766  -2.6766
    -2.6115  -2.6115  -2.4197  -2.3118  -2.2400  -2.2375  -2.1991  -2.1991
    -2.1809  -2.1719  -1.8664  -1.7290  -1.7240  -1.7240  -1.5517  -1.5237
    -1.5237  -1.5204  -1.4661  -1.4661  -1.4421  -1.3675  -1.2170  -1.0448
    -1.0448  -0.9339  -0.9132  -0.8386  -0.8386  -0.7674  -0.7635  -0.7593
    -0.6839  -0.4900  -0.4900  -0.4340  -0.3907  -0.2364  -0.2364   0.4413
     1.1062   2.2216   2.2216   3.0024   3.0745   3.2114   3.2114   5.1586

          k = 0.0000 0.0853 0.0000 ( 31566 PWs)   bands (ev):

    -4.8732  -4.4573  -4.1709  -4.0845  -4.0471  -4.0471  -3.8782  -3.8782
    -3.8680  -3.7994  -3.7903  -3.7903  -3.6452  -3.3680  -3.3680  -3.3068
    -3.1118  -3.1118  -3.0984  -2.9227  -2.8492  -2.8492  -2.7354  -2.6474
    -2.4694  -2.4693  -2.4382  -2.3701  -2.3701  -2.2601  -2.2237  -2.1810
    -2.1457  -1.9714  -1.9714  -1.9634  -1.9022  -1.8601  -1.8600  -1.7457
    -1.6805  -1.6164  -1.6029  -1.5347  -1.5347  -1.4954  -1.3842  -1.2708
    -1.2520  -1.2520  -1.0871  -1.0370  -0.9472  -0.9105  -0.9105  -0.8626
    -0.6009  -0.4921  -0.4921  -0.4276  -0.4119  -0.2291  -0.2291  -0.0380
     1.5415   2.2462   2.2462   2.5211   3.2592   3.2592   3.6144   4.9252

          k = 0.0000-0.1024 0.0000 ( 31582 PWs)   bands (ev):

    -4.6019  -4.6019  -4.0910  -4.0910  -3.9887  -3.9886  -3.8411  -3.8411
    -3.7503  -3.7503  -3.6479  -3.6479  -3.4830  -3.4830  -3.3674  -3.3674
    -3.0485  -3.0485  -2.9908  -2.9908  -2.9633  -2.9633  -2.6930  -2.6930
    -2.4228  -2.4228  -2.3891  -2.3891  -2.2482  -2.2482  -2.1403  -2.1402
    -2.1053  -2.1053  -2.0701  -2.0701  -2.0471  -2.0471  -1.9506  -1.9506
    -1.7163  -1.7163  -1.5379  -1.5379  -1.5258  -1.5258  -1.3414  -1.3414
    -1.3375  -1.3375  -1.2455  -1.2455  -0.9400  -0.9399  -0.9342  -0.9341
    -0.4919  -0.4919  -0.4212  -0.4212  -0.3661  -0.3661  -0.2260  -0.2259
     2.0109   2.0109   2.2551   2.2552   3.2757   3.2757   4.2557   4.2557

          k = 0.0148-0.0085 0.0000 ( 31615 PWs)   bands (ev):

    -5.9030  -4.6669  -4.6612  -4.6511  -4.6338  -4.6337  -4.4576  -4.4436
    -4.4436  -4.2800  -4.2764  -4.2764  -4.0887  -4.0690  -4.0690  -3.1721
    -3.1721  -3.1617  -2.8755  -2.8749  -2.8749  -2.7394  -2.7205  -2.6594
    -2.5601  -2.4775  -2.3969  -2.3969  -2.3674  -2.3648  -2.3233  -2.2397
    -1.7367  -1.7291  -1.7291  -1.3702  -1.3702  -1.3543  -1.3458  -1.3325
    -1.1528  -1.1438  -1.1438  -1.0136  -0.9092  -0.5817  -0.5817  -0.5638
    -0.5545  -0.5163  -0.4901  -0.4901  -0.4502  -0.3692  -0.3692  -0.3278
    -0.1606  -0.1606  -0.1384  -0.1384  -0.1382  -0.1019   0.0281   1.5145
     1.6545   2.1007   2.1007   2.6923   3.1563   3.1563   3.9440   3.9440

          k = 0.0148 0.0085 0.0000 ( 31615 PWs)   bands (ev):

    -5.9030  -4.6669  -4.6612  -4.6511  -4.6337  -4.6337  -4.4576  -4.4436
    -4.4436  -4.2800  -4.2764  -4.2764  -4.0887  -4.0690  -4.0690  -3.1721
    -3.1721  -3.1617  -2.8755  -2.8749  -2.8749  -2.7394  -2.7205  -2.6594
    -2.5601  -2.4775  -2.3969  -2.3969  -2.3674  -2.3648  -2.3233  -2.2397
    -1.7367  -1.7291  -1.7291  -1.3702  -1.3702  -1.3543  -1.3458  -1.3325
    -1.1528  -1.1438  -1.1438  -1.0136  -0.9092  -0.5817  -0.5817  -0.5638
    -0.5545  -0.5163  -0.4901  -0.4901  -0.4502  -0.3692  -0.3692  -0.3278
    -0.1606  -0.1606  -0.1384  -0.1384  -0.1382  -0.1019   0.0281   1.5145
     1.6545   2.1007   2.1007   2.6923   3.1563   3.1563   3.9440   3.9440

          k = 0.0148 0.0256 0.0000 ( 31631 PWs)   bands (ev):

    -5.8004  -4.5954  -4.5954  -4.5821  -4.5685  -4.5471  -4.4104  -4.4104
    -4.3724  -4.2422  -4.2422  -4.2279  -4.0269  -4.0269  -3.9696  -3.1757
    -3.1452  -3.1451  -2.8430  -2.8430  -2.8419  -2.7795  -2.7408  -2.6491
    -2.5961  -2.4654  -2.4309  -2.3851  -2.3787  -2.3787  -2.2587  -2.2356
    -1.7962  -1.7962  -1.7790  -1.4640  -1.4053  -1.3661  -1.3661  -1.3513
    -1.2074  -1.2073  -1.1874  -1.1297  -0.9393  -0.6744  -0.6671  -0.6208
    -0.6208  -0.5756  -0.5756  -0.5464  -0.4927  -0.4600  -0.4422  -0.4422
    -0.3318  -0.2511  -0.2511  -0.2067  -0.1997  -0.1997   0.2442   1.4038
     1.4038   1.7904   2.4133   2.4133   2.5948   3.6184   4.0140   4.2828

          k = 0.0148 0.0427 0.0000 ( 31632 PWs)   bands (ev):

    -5.6021  -4.5253  -4.4694  -4.4348  -4.4040  -4.3822  -4.3507  -4.3070
    -4.2527  -4.1734  -4.1660  -4.1309  -3.9453  -3.8867  -3.7987  -3.1833
    -3.1341  -3.0926  -2.8927  -2.7913  -2.7852  -2.7775  -2.7774  -2.7423
    -2.5519  -2.4727  -2.4372  -2.4188  -2.3459  -2.3293  -2.2702  -2.1262
    -1.9286  -1.9227  -1.9006  -1.5876  -1.5212  -1.4610  -1.3958  -1.3739
    -1.3135  -1.3027  -1.2944  -1.2372  -1.0214  -0.9301  -0.8908  -0.8139
    -0.7455  -0.7265  -0.7225  -0.6675  -0.6370  -0.5806  -0.5295  -0.5169
    -0.4659  -0.4201  -0.4017  -0.3070  -0.2653  -0.2595   0.5688   0.5731
     1.3427   1.6076   2.2363   2.3168   2.9438   3.8186   3.9790   4.5818

          k = 0.0148 0.0597 0.0000 ( 31599 PWs)   bands (ev):

    -5.3245  -4.4433  -4.2862  -4.2762  -4.2494  -4.2390  -4.1626  -4.1333
    -4.0810  -4.0687  -4.0557  -3.9943  -3.8299  -3.6785  -3.5790  -3.2031
    -3.1412  -3.0470  -3.0197  -2.9364  -2.7572  -2.7218  -2.6866  -2.6803
    -2.6473  -2.5360  -2.4265  -2.3420  -2.3105  -2.2972  -2.2153  -2.1251
    -2.1039  -2.0889  -1.9362  -1.7191  -1.6540  -1.5954  -1.5066  -1.4918
    -1.4398  -1.4259  -1.3612  -1.3481  -1.3276  -1.3152  -1.1383  -1.0200
    -1.0031  -0.9052  -0.8509  -0.7893  -0.7891  -0.7348  -0.7157  -0.5868
    -0.5365  -0.4692  -0.4609  -0.4009  -0.2775  -0.2697  -0.1266   0.8635
     0.9463   1.3674   2.3183   2.7713   3.0866   3.4172   4.0228   4.4715

          k = 0.0148 0.0768 0.0000 ( 31563 PWs)   bands (ev):

    -5.0008  -4.4020  -4.1891  -4.0980  -4.0925  -4.0908  -3.9944  -3.9310
    -3.9140  -3.8741  -3.8731  -3.8412  -3.6893  -3.4409  -3.4108  -3.2214
    -3.1556  -3.1506  -3.0764  -2.9497  -2.7777  -2.7518  -2.7211  -2.7105
    -2.5498  -2.5161  -2.4768  -2.3473  -2.3320  -2.3067  -2.2826  -2.2043
    -2.1497  -2.0625  -1.8726  -1.8619  -1.7900  -1.7427  -1.7035  -1.6961
    -1.6591  -1.6052  -1.5795  -1.5487  -1.4722  -1.4193  -1.3653  -1.2455
    -1.1790  -1.1222  -0.9865  -0.9793  -0.8903  -0.8289  -0.8175  -0.6460
    -0.6112  -0.5376  -0.4815  -0.4481  -0.4218  -0.2737  -0.2632   0.2670
     1.3607   1.4073   2.3464   2.8391   3.1330   3.3571   4.1695   4.4981

          k = 0.0148-0.1109 0.0000 ( 31564 PWs)   bands (ev):

    -4.6909  -4.4756  -4.0937  -4.0391  -3.9877  -3.9872  -3.8892  -3.8041
    -3.7832  -3.7192  -3.7190  -3.6301  -3.5363  -3.4004  -3.3854  -3.3547
    -3.1363  -3.0577  -3.0132  -2.9818  -2.9264  -2.9201  -2.7359  -2.6633
    -2.4683  -2.4244  -2.4171  -2.3847  -2.3771  -2.2745  -2.2643  -2.2193
    -2.1546  -2.1255  -2.0704  -2.0136  -2.0018  -1.9796  -1.9157  -1.8378
    -1.8260  -1.6137  -1.5802  -1.5557  -1.4806  -1.4375  -1.4164  -1.3604
    -1.2964  -1.2668  -1.1526  -1.0769  -0.9566  -0.9507  -0.8767  -0.8633
    -0.5350  -0.5012  -0.4844  -0.4507  -0.3984  -0.2696  -0.2568  -0.1522
     1.4323   1.8109   2.3017   2.3666   3.1480   3.9781   4.2346   4.5070

          k = 0.0148-0.0939 0.0000 ( 31564 PWs)   bands (ev):

    -4.6909  -4.4756  -4.0937  -4.0391  -3.9877  -3.9872  -3.8892  -3.8041
    -3.7832  -3.7192  -3.7190  -3.6301  -3.5363  -3.4004  -3.3854  -3.3547
    -3.1363  -3.0577  -3.0132  -2.9818  -2.9264  -2.9201  -2.7359  -2.6633
    -2.4683  -2.4244  -2.4171  -2.3847  -2.3771  -2.2745  -2.2643  -2.2193
    -2.1546  -2.1255  -2.0704  -2.0136  -2.0018  -1.9796  -1.9157  -1.8378
    -1.8260  -1.6137  -1.5802  -1.5557  -1.4806  -1.4375  -1.4164  -1.3604
    -1.2964  -1.2668  -1.1526  -1.0769  -0.9566  -0.9507  -0.8767  -0.8633
    -0.5350  -0.5012  -0.4844  -0.4507  -0.3984  -0.2696  -0.2568  -0.1522
     1.4323   1.8109   2.3017   2.3666   3.1480   3.9781   4.2346   4.5070

          k = 0.0148-0.0768 0.0000 ( 31563 PWs)   bands (ev):

    -5.0008  -4.4020  -4.1891  -4.0980  -4.0925  -4.0908  -3.9944  -3.9310
    -3.9140  -3.8741  -3.8731  -3.8412  -3.6893  -3.4409  -3.4108  -3.2214
    -3.1556  -3.1506  -3.0764  -2.9497  -2.7777  -2.7518  -2.7211  -2.7105
    -2.5498  -2.5161  -2.4768  -2.3473  -2.3320  -2.3067  -2.2826  -2.2043
    -2.1497  -2.0625  -1.8726  -1.8619  -1.7900  -1.7427  -1.7035  -1.6961
    -1.6591  -1.6052  -1.5795  -1.5487  -1.4722  -1.4193  -1.3653  -1.2455
    -1.1790  -1.1222  -0.9865  -0.9793  -0.8903  -0.8289  -0.8175  -0.6460
    -0.6112  -0.5376  -0.4815  -0.4481  -0.4218  -0.2737  -0.2632   0.2670
     1.3607   1.4073   2.3464   2.8391   3.1330   3.3571   4.1695   4.4981

          k = 0.0148-0.0597 0.0000 ( 31599 PWs)   bands (ev):

    -5.3245  -4.4433  -4.2862  -4.2762  -4.2494  -4.2390  -4.1626  -4.1333
    -4.0810  -4.0687  -4.0557  -3.9943  -3.8299  -3.6785  -3.5790  -3.2031
    -3.1412  -3.0470  -3.0197  -2.9364  -2.7572  -2.7218  -2.6866  -2.6803
    -2.6473  -2.5360  -2.4265  -2.3420  -2.3105  -2.2972  -2.2153  -2.1251
    -2.1039  -2.0889  -1.9362  -1.7191  -1.6540  -1.5954  -1.5066  -1.4918
    -1.4398  -1.4259  -1.3612  -1.3481  -1.3276  -1.3152  -1.1383  -1.0200
    -1.0031  -0.9052  -0.8509  -0.7893  -0.7891  -0.7348  -0.7157  -0.5868
    -0.5365  -0.4692  -0.4609  -0.4009  -0.2775  -0.2697  -0.1266   0.8635
     0.9463   1.3674   2.3183   2.7713   3.0866   3.4172   4.0228   4.4715

          k = 0.0148-0.0427 0.0000 ( 31632 PWs)   bands (ev):

    -5.6021  -4.5253  -4.4694  -4.4348  -4.4040  -4.3822  -4.3507  -4.3070
    -4.2527  -4.1734  -4.1660  -4.1309  -3.9453  -3.8867  -3.7987  -3.1833
    -3.1341  -3.0926  -2.8927  -2.7913  -2.7852  -2.7775  -2.7774  -2.7423
    -2.5519  -2.4727  -2.4372  -2.4188  -2.3459  -2.3293  -2.2702  -2.1262
    -1.9286  -1.9227  -1.9006  -1.5876  -1.5212  -1.4610  -1.3958  -1.3739
    -1.3135  -1.3027  -1.2944  -1.2372  -1.0214  -0.9301  -0.8908  -0.8139
    -0.7455  -0.7265  -0.7225  -0.6675  -0.6370  -0.5806  -0.5295  -0.5169
    -0.4659  -0.4201  -0.4017  -0.3070  -0.2653  -0.2595   0.5688   0.5731
     1.3427   1.6076   2.2363   2.3168   2.9438   3.8186   3.9790   4.5815

          k = 0.0148-0.0256 0.0000 ( 31631 PWs)   bands (ev):

    -5.8004  -4.5954  -4.5954  -4.5821  -4.5685  -4.5471  -4.4104  -4.4104
    -4.3724  -4.2422  -4.2422  -4.2279  -4.0269  -4.0269  -3.9696  -3.1757
    -3.1452  -3.1451  -2.8430  -2.8430  -2.8419  -2.7795  -2.7408  -2.6491
    -2.5961  -2.4654  -2.4309  -2.3851  -2.3787  -2.3787  -2.2587  -2.2356
    -1.7962  -1.7962  -1.7790  -1.4640  -1.4053  -1.3661  -1.3661  -1.3513
    -1.2073  -1.2073  -1.1874  -1.1297  -0.9393  -0.6744  -0.6671  -0.6208
    -0.6208  -0.5756  -0.5756  -0.5464  -0.4927  -0.4600  -0.4422  -0.4422
    -0.3318  -0.2511  -0.2511  -0.2067  -0.1997  -0.1997   0.2442   1.4038
     1.4038   1.7904   2.4133   2.4133   2.5948   3.6184   4.0140   4.2828

          k = 0.0296-0.0171 0.0000 ( 31632 PWs)   bands (ev):

    -5.7500  -4.5962  -4.5452  -4.5270  -4.5270  -4.5199  -4.4102  -4.3552
    -4.3552  -4.2272  -4.2124  -4.2124  -4.0261  -3.9485  -3.9485  -3.1654
    -3.1654  -3.1184  -2.8297  -2.8248  -2.8248  -2.8067  -2.7493  -2.6782
    -2.5666  -2.4575  -2.4575  -2.4063  -2.3918  -2.3366  -2.2408  -2.2280
    -1.8352  -1.8151  -1.8151  -1.4614  -1.4614  -1.4036  -1.3908  -1.3276
    -1.2436  -1.2200  -1.2200  -1.1830  -0.9113  -0.7535  -0.6832  -0.6831
    -0.6506  -0.6506  -0.6404  -0.6093  -0.5017  -0.5017  -0.4463  -0.4252
    -0.3711  -0.3711  -0.2594  -0.2158  -0.2120  -0.2120   0.3334   0.8210
     1.8918   1.9121   2.1477   2.1477   3.0956   3.0956   4.1170   4.4380

          k = 0.0296 0.0000 0.0000 ( 31631 PWs)   bands (ev):

    -5.8004  -4.5954  -4.5954  -4.5821  -4.5685  -4.5471  -4.4104  -4.4104
    -4.3724  -4.2422  -4.2422  -4.2279  -4.0269  -4.0269  -3.9696  -3.1757
    -3.1451  -3.1451  -2.8430  -2.8430  -2.8419  -2.7795  -2.7408  -2.6491
    -2.5961  -2.4654  -2.4309  -2.3851  -2.3787  -2.3787  -2.2587  -2.2356
    -1.7962  -1.7962  -1.7790  -1.4640  -1.4053  -1.3661  -1.3661  -1.3513
    -1.2074  -1.2073  -1.1874  -1.1297  -0.9393  -0.6744  -0.6671  -0.6208
    -0.6208  -0.5756  -0.5756  -0.5464  -0.4927  -0.4600  -0.4422  -0.4422
    -0.3318  -0.2511  -0.2511  -0.2067  -0.1997  -0.1997   0.2442   1.4038
     1.4038   1.7904   2.4133   2.4133   2.5948   3.6184   4.0140   4.2828

          k = 0.0296 0.0171 0.0000 ( 31632 PWs)   bands (ev):

    -5.7500  -4.5962  -4.5452  -4.5270  -4.5270  -4.5199  -4.4102  -4.3552
    -4.3552  -4.2272  -4.2124  -4.2124  -4.0261  -3.9485  -3.9485  -3.1654
    -3.1654  -3.1184  -2.8297  -2.8248  -2.8248  -2.8067  -2.7493  -2.6782
    -2.5666  -2.4575  -2.4575  -2.4063  -2.3918  -2.3366  -2.2408  -2.2280
    -1.8352  -1.8151  -1.8151  -1.4614  -1.4614  -1.4036  -1.3908  -1.3276
    -1.2436  -1.2200  -1.2200  -1.1830  -0.9113  -0.7535  -0.6832  -0.6832
    -0.6506  -0.6506  -0.6404  -0.6093  -0.5017  -0.5017  -0.4463  -0.4252
    -0.3712  -0.3711  -0.2594  -0.2158  -0.2120  -0.2120   0.3334   0.8210
     1.8918   1.9121   2.1477   2.1477   3.0956   3.0956   4.1170   4.4380

          k = 0.0296 0.0341 0.0000 ( 31632 PWs)   bands (ev):

    -5.6021  -4.5253  -4.4694  -4.4348  -4.4040  -4.3822  -4.3507  -4.3070
    -4.2527  -4.1734  -4.1660  -4.1309  -3.9453  -3.8867  -3.7987  -3.1833
    -3.1341  -3.0926  -2.8927  -2.7913  -2.7852  -2.7775  -2.7774  -2.7423
    -2.5519  -2.4727  -2.4372  -2.4188  -2.3459  -2.3293  -2.2702  -2.1262
    -1.9286  -1.9227  -1.9006  -1.5876  -1.5212  -1.4610  -1.3958  -1.3739
    -1.3135  -1.3027  -1.2944  -1.2372  -1.0214  -0.9301  -0.8908  -0.8139
    -0.7455  -0.7265  -0.7225  -0.6675  -0.6370  -0.5806  -0.5295  -0.5169
    -0.4659  -0.4201  -0.4017  -0.3070  -0.2653  -0.2595   0.5688   0.5731
     1.3427   1.6076   2.2363   2.3168   2.9438   3.8186   3.9790   4.5818

          k = 0.0296 0.0512 0.0000 ( 31611 PWs)   bands (ev):

    -5.3668  -4.3850  -4.3850  -4.2648  -4.2577  -4.2382  -4.2382  -4.1727
    -4.0962  -4.0869  -4.0869  -4.0024  -3.7881  -3.7881  -3.5980  -3.2084
    -3.0827  -3.0827  -3.0264  -2.8946  -2.7944  -2.7169  -2.7169  -2.7047
    -2.6406  -2.4516  -2.4168  -2.4168  -2.3421  -2.3160  -2.2273  -2.0862
    -2.0862  -2.0478  -1.9508  -1.7255  -1.6334  -1.5038  -1.5038  -1.5009
    -1.4205  -1.3890  -1.3890  -1.2445  -1.2227  -1.2013  -1.2013  -1.1465
    -0.9443  -0.9443  -0.8603  -0.7417  -0.7417  -0.6738  -0.6034  -0.5852
    -0.4990  -0.4920  -0.4920  -0.3524  -0.3524  -0.3256   0.5786   0.5786
     0.8922   1.5179   1.5179   2.6904   3.6662   3.8828   3.8828   4.3736

          k = 0.0296 0.0683 0.0000 ( 31588 PWs)   bands (ev):

    -5.0662  -4.3086  -4.1891  -4.1571  -4.1171  -4.0946  -4.0731  -3.9744
    -3.9721  -3.9273  -3.8789  -3.8579  -3.6598  -3.5667  -3.4401  -3.1834
    -3.1789  -3.0992  -3.0228  -3.0222  -2.8239  -2.7331  -2.7094  -2.7044
    -2.6068  -2.4953  -2.4864  -2.4361  -2.4049  -2.2783  -2.2298  -2.2194
    -2.1592  -2.1083  -1.8693  -1.7467  -1.7186  -1.6907  -1.6539  -1.6403
    -1.6278  -1.6225  -1.5903  -1.5383  -1.4038  -1.3901  -1.2618  -1.2521
    -1.2235  -1.1072  -1.0393  -0.8632  -0.8438  -0.7026  -0.6167  -0.6020
    -0.5978  -0.5148  -0.5048  -0.4445  -0.3610  -0.3537  -0.0415   0.6390
     0.8019   1.2709   1.5159   3.2230   3.2701   3.8236   4.0235   4.8381

          k = 0.0296-0.1195 0.0000 ( 31565 PWs)   bands (ev):

    -4.7426  -4.3181  -4.0538  -3.9995  -3.9877  -3.9676  -3.9470  -3.8277
    -3.8176  -3.7640  -3.7117  -3.6333  -3.5125  -3.4578  -3.3611  -3.3224
    -3.1609  -3.1175  -3.0408  -2.9848  -2.8629  -2.8611  -2.7794  -2.7386
    -2.5823  -2.4869  -2.4814  -2.4562  -2.3714  -2.3555  -2.3405  -2.2928
    -2.1691  -2.1308  -2.0372  -2.0319  -1.9171  -1.9167  -1.8961  -1.8569
    -1.7864  -1.5692  -1.5550  -1.5462  -1.4352  -1.4349  -1.3884  -1.3455
    -1.2261  -1.2168  -1.0297  -1.0136  -0.9321  -0.8073  -0.7813  -0.5972
    -0.5488  -0.5397  -0.5222  -0.4687  -0.4112  -0.3629  -0.3570   0.2275
     0.6868   1.5332   1.6951   2.6904   3.7926   3.8070   4.0969   5.1661

          k = 0.0296-0.1024 0.0000 ( 31542 PWs)   bands (ev):

    -4.4680  -4.4680  -3.9585  -3.9585  -3.9256  -3.9219  -3.9167  -3.7513
    -3.6891  -3.6891  -3.6571  -3.4901  -3.4821  -3.4125  -3.3737  -3.3737
    -3.2086  -3.2086  -3.0150  -3.0034  -2.9286  -2.8117  -2.7187  -2.7187
    -2.5627  -2.4514  -2.4514  -2.4277  -2.4145  -2.4054  -2.4054  -2.3597
    -2.2005  -2.1766  -2.1766  -2.1485  -2.1294  -2.0814  -1.9014  -1.9014
    -1.7132  -1.7132  -1.5373  -1.4370  -1.4370  -1.4357  -1.4134  -1.3334
    -1.2004  -1.2004  -1.0438  -1.0438  -0.9707  -0.8413  -0.8413  -0.8085
    -0.5940  -0.5241  -0.5228  -0.5228  -0.3651  -0.3542  -0.1735  -0.1735
     0.7041   1.5414   2.1663   2.1663   3.7830   4.1075   4.4307   4.4307

          k = 0.0296-0.0853 0.0000 ( 31565 PWs)   bands (ev):

    -4.7426  -4.3181  -4.0538  -3.9995  -3.9877  -3.9676  -3.9470  -3.8277
    -3.8176  -3.7640  -3.7117  -3.6333  -3.5125  -3.4578  -3.3611  -3.3224
    -3.1609  -3.1175  -3.0408  -2.9848  -2.8629  -2.8611  -2.7794  -2.7386
    -2.5823  -2.4869  -2.4814  -2.4562  -2.3714  -2.3555  -2.3405  -2.2928
    -2.1691  -2.1308  -2.0372  -2.0319  -1.9171  -1.9167  -1.8961  -1.8569
    -1.7864  -1.5692  -1.5550  -1.5462  -1.4352  -1.4349  -1.3884  -1.3455
    -1.2261  -1.2168  -1.0297  -1.0136  -0.9321  -0.8073  -0.7813  -0.5972
    -0.5488  -0.5397  -0.5222  -0.4687  -0.4112  -0.3629  -0.3570   0.2275
     0.6868   1.5332   1.6951   2.6904   3.7926   3.8070   4.0969   5.1661

          k = 0.0296-0.0683 0.0000 ( 31588 PWs)   bands (ev):

    -5.0662  -4.3086  -4.1891  -4.1571  -4.1171  -4.0946  -4.0731  -3.9744
    -3.9721  -3.9273  -3.8789  -3.8579  -3.6598  -3.5667  -3.4401  -3.1834
    -3.1789  -3.0992  -3.0228  -3.0222  -2.8239  -2.7331  -2.7094  -2.7044
    -2.6068  -2.4953  -2.4864  -2.4361  -2.4049  -2.2783  -2.2298  -2.2194
    -2.1592  -2.1083  -1.8693  -1.7467  -1.7186  -1.6907  -1.6539  -1.6403
    -1.6278  -1.6225  -1.5903  -1.5383  -1.4038  -1.3901  -1.2618  -1.2521
    -1.2235  -1.1072  -1.0393  -0.8632  -0.8438  -0.7026  -0.6167  -0.6020
    -0.5978  -0.5148  -0.5048  -0.4445  -0.3610  -0.3537  -0.0415   0.6390
     0.8019   1.2709   1.5159   3.2230   3.2701   3.8236   4.0235   4.8381

          k = 0.0296-0.0512 0.0000 ( 31611 PWs)   bands (ev):

    -5.3668  -4.3850  -4.3850  -4.2648  -4.2577  -4.2382  -4.2382  -4.1727
    -4.0962  -4.0869  -4.0869  -4.0024  -3.7881  -3.7881  -3.5980  -3.2084
    -3.0827  -3.0827  -3.0264  -2.8946  -2.7944  -2.7169  -2.7169  -2.7047
    -2.6406  -2.4516  -2.4168  -2.4168  -2.3421  -2.3160  -2.2273  -2.0862
    -2.0862  -2.0478  -1.9508  -1.7255  -1.6334  -1.5038  -1.5038  -1.5009
    -1.4205  -1.3890  -1.3890  -1.2445  -1.2227  -1.2013  -1.2013  -1.1465
    -0.9443  -0.9443  -0.8603  -0.7417  -0.7417  -0.6738  -0.6034  -0.5852
    -0.4990  -0.4920  -0.4920  -0.3524  -0.3524  -0.3256   0.5786   0.5786
     0.8922   1.5179   1.5179   2.6904   3.6662   3.8828   3.8828   4.3732

          k = 0.0296-0.0341 0.0000 ( 31632 PWs)   bands (ev):

    -5.6021  -4.5253  -4.4694  -4.4348  -4.4040  -4.3822  -4.3507  -4.3070
    -4.2527  -4.1734  -4.1660  -4.1309  -3.9453  -3.8867  -3.7987  -3.1833
    -3.1341  -3.0926  -2.8927  -2.7913  -2.7852  -2.7775  -2.7774  -2.7423
    -2.5519  -2.4727  -2.4372  -2.4188  -2.3459  -2.3293  -2.2702  -2.1262
    -1.9286  -1.9227  -1.9006  -1.5876  -1.5212  -1.4610  -1.3958  -1.3739
    -1.3135  -1.3027  -1.2944  -1.2372  -1.0214  -0.9301  -0.8908  -0.8139
    -0.7455  -0.7265  -0.7225  -0.6675  -0.6370  -0.5806  -0.5295  -0.5169
    -0.4659  -0.4201  -0.4017  -0.3070  -0.2653  -0.2595   0.5688   0.5731
     1.3427   1.6076   2.2363   2.3168   2.9438   3.8186   3.9790   4.5817

          k = 0.0443-0.0256 0.0000 ( 31618 PWs)   bands (ev):

    -5.5076  -4.5177  -4.3735  -4.3634  -4.3634  -4.3421  -4.2942  -4.2203
    -4.2203  -4.1386  -4.1060  -4.1059  -3.9263  -3.7578  -3.7578  -3.1703
    -3.1703  -3.0499  -2.9433  -2.8559  -2.7637  -2.7404  -2.7404  -2.7296
    -2.5451  -2.5451  -2.4185  -2.4014  -2.3005  -2.2924  -2.2862  -2.0735
    -1.9951  -1.9800  -1.9800  -1.5820  -1.5820  -1.5566  -1.4305  -1.3828
    -1.3440  -1.3440  -1.3423  -1.3298  -1.0751  -1.0751  -0.9196  -0.8631
    -0.8433  -0.8015  -0.8015  -0.7320  -0.6926  -0.6926  -0.5575  -0.4747
    -0.4747  -0.4588  -0.4406  -0.3314  -0.2385  -0.2385  -0.0341   0.7019
     1.1035   2.1873   2.1873   2.4272   3.1430   3.1430   3.6478   4.8816

          k = 0.0443-0.0085 0.0000 ( 31632 PWs)   bands (ev):

    -5.6021  -4.5253  -4.4694  -4.4348  -4.4040  -4.3822  -4.3507  -4.3070
    -4.2527  -4.1734  -4.1660  -4.1309  -3.9453  -3.8867  -3.7987  -3.1833
    -3.1341  -3.0926  -2.8927  -2.7913  -2.7852  -2.7775  -2.7774  -2.7423
    -2.5519  -2.4727  -2.4372  -2.4188  -2.3459  -2.3293  -2.2702  -2.1262
    -1.9286  -1.9227  -1.9006  -1.5876  -1.5212  -1.4610  -1.3958  -1.3739
    -1.3135  -1.3027  -1.2944  -1.2372  -1.0214  -0.9301  -0.8908  -0.8139
    -0.7455  -0.7265  -0.7225  -0.6675  -0.6370  -0.5806  -0.5295  -0.5169
    -0.4659  -0.4201  -0.4017  -0.3070  -0.2653  -0.2595   0.5688   0.5731
     1.3427   1.6076   2.2363   2.3168   2.9438   3.8186   3.9790   4.5819

          k = 0.0443 0.0085 0.0000 ( 31632 PWs)   bands (ev):

    -5.6021  -4.5253  -4.4694  -4.4348  -4.4040  -4.3822  -4.3507  -4.3070
    -4.2527  -4.1734  -4.1660  -4.1309  -3.9453  -3.8867  -3.7987  -3.1833
    -3.1341  -3.0926  -2.8927  -2.7913  -2.7852  -2.7775  -2.7774  -2.7423
    -2.5519  -2.4727  -2.4372  -2.4188  -2.3459  -2.3293  -2.2702  -2.1262
    -1.9286  -1.9227  -1.9006  -1.5876  -1.5212  -1.4610  -1.3958  -1.3739
    -1.3135  -1.3027  -1.2944  -1.2372  -1.0214  -0.9301  -0.8908  -0.8139
    -0.7455  -0.7265  -0.7225  -0.6675  -0.6370  -0.5806  -0.5295  -0.5169
    -0.4659  -0.4201  -0.4017  -0.3070  -0.2653  -0.2595   0.5688   0.5731
     1.3427   1.6076   2.2363   2.3168   2.9438   3.8186   3.9790   4.5819

          k = 0.0443 0.0256 0.0000 ( 31618 PWs)   bands (ev):

    -5.5076  -4.5177  -4.3735  -4.3634  -4.3634  -4.3421  -4.2942  -4.2203
    -4.2203  -4.1386  -4.1060  -4.1060  -3.9263  -3.7578  -3.7578  -3.1703
    -3.1703  -3.0499  -2.9433  -2.8559  -2.7637  -2.7404  -2.7404  -2.7296
    -2.5451  -2.5451  -2.4185  -2.4014  -2.3005  -2.2924  -2.2862  -2.0735
    -1.9951  -1.9800  -1.9800  -1.5820  -1.5820  -1.5566  -1.4305  -1.3828
    -1.3440  -1.3440  -1.3423  -1.3298  -1.0751  -1.0751  -0.9196  -0.8631
    -0.8433  -0.8015  -0.8015  -0.7320  -0.6926  -0.6926  -0.5575  -0.4747
    -0.4747  -0.4588  -0.4406  -0.3314  -0.2385  -0.2385  -0.0341   0.7019
     1.1035   2.1873   2.1873   2.4272   3.1430   3.1430   3.6478   4.8817

          k = 0.0443 0.0427 0.0000 ( 31599 PWs)   bands (ev):

    -5.3245  -4.4433  -4.2862  -4.2762  -4.2494  -4.2390  -4.1626  -4.1333
    -4.0810  -4.0687  -4.0557  -3.9943  -3.8299  -3.6785  -3.5790  -3.2031
    -3.1412  -3.0470  -3.0197  -2.9364  -2.7572  -2.7218  -2.6866  -2.6803
    -2.6473  -2.5360  -2.4265  -2.3420  -2.3105  -2.2972  -2.2153  -2.1251
    -2.1039  -2.0889  -1.9362  -1.7191  -1.6540  -1.5954  -1.5066  -1.4918
    -1.4398  -1.4259  -1.3612  -1.3481  -1.3276  -1.3152  -1.1383  -1.0200
    -1.0031  -0.9052  -0.8509  -0.7893  -0.7891  -0.7348  -0.7157  -0.5868
    -0.5365  -0.4692  -0.4609  -0.4009  -0.2775  -0.2697  -0.1266   0.8635
     0.9463   1.3674   2.3183   2.7713   3.0866   3.4172   4.0228   4.4715

          k = 0.0443 0.0597 0.0000 ( 31588 PWs)   bands (ev):

    -5.0662  -4.3086  -4.1891  -4.1571  -4.1171  -4.0946  -4.0731  -3.9744
    -3.9721  -3.9273  -3.8789  -3.8579  -3.6598  -3.5667  -3.4401  -3.1834
    -3.1789  -3.0992  -3.0228  -3.0222  -2.8239  -2.7331  -2.7094  -2.7044
    -2.6068  -2.4953  -2.4864  -2.4361  -2.4049  -2.2783  -2.2298  -2.2194
    -2.1592  -2.1083  -1.8693  -1.7467  -1.7186  -1.6907  -1.6539  -1.6403
    -1.6278  -1.6225  -1.5903  -1.5383  -1.4038  -1.3901  -1.2618  -1.2521
    -1.2235  -1.1072  -1.0393  -0.8632  -0.8438  -0.7026  -0.6167  -0.6020
    -0.5978  -0.5148  -0.5048  -0.4445  -0.3610  -0.3537  -0.0415   0.6390
     0.8019   1.2709   1.5159   3.2230   3.2701   3.8236   4.0235   4.8381

          k = 0.0443-0.1280 0.0000 ( 31547 PWs)   bands (ev):

    -4.7594  -4.1456  -4.1456  -3.9970  -3.9970  -3.9885  -3.8754  -3.8587
    -3.8587  -3.7430  -3.7420  -3.6353  -3.4901  -3.4324  -3.4324  -3.3294
    -3.0973  -3.0973  -3.0705  -2.9867  -2.8979  -2.8264  -2.8181  -2.8181
    -2.5589  -2.5555  -2.5234  -2.4384  -2.4384  -2.3460  -2.3460  -2.3190
    -2.1364  -2.1117  -2.1116  -2.0325  -1.9078  -1.8817  -1.8496  -1.8296
    -1.8296  -1.5728  -1.5087  -1.4791  -1.4791  -1.4462  -1.3592  -1.3592
    -1.1911  -1.1563  -1.0802  -0.9355  -0.9355  -0.6833  -0.6632  -0.6185
    -0.6185  -0.5562  -0.4713  -0.4713  -0.4254  -0.4212   0.0302   0.0302
     0.8042   0.8042   1.6575   3.1856   3.1856   3.7491   4.8905   5.2926

          k = 0.0443-0.1109 0.0000 ( 31536 PWs)   bands (ev):

    -4.4550  -4.2318  -4.0335  -3.8677  -3.8631  -3.8604  -3.7822  -3.7254
    -3.6960  -3.6928  -3.6489  -3.5786  -3.4189  -3.4084  -3.4078  -3.3220
    -3.2238  -3.1330  -3.0691  -3.0234  -2.8798  -2.8027  -2.7978  -2.7148
    -2.6816  -2.6046  -2.5858  -2.5308  -2.4850  -2.4798  -2.4242  -2.3523
    -2.2472  -2.2309  -2.1879  -2.1409  -2.1383  -2.0587  -1.9822  -1.9672
    -1.7276  -1.5986  -1.5245  -1.5073  -1.3583  -1.3581  -1.3396  -1.3342
    -1.2657  -1.0892  -1.0162  -0.9987  -0.8361  -0.7889  -0.7231  -0.6507
    -0.6184  -0.5702  -0.5479  -0.4807  -0.4661  -0.4591  -0.1741   0.0685
     0.2284   0.8147   2.1023   2.6098   3.1476   4.3305   4.9583   5.1101

          k = 0.0443-0.0939 0.0000 ( 31536 PWs)   bands (ev):

    -4.4550  -4.2318  -4.0335  -3.8677  -3.8631  -3.8604  -3.7822  -3.7254
    -3.6960  -3.6928  -3.6489  -3.5786  -3.4189  -3.4084  -3.4078  -3.3220
    -3.2238  -3.1330  -3.0691  -3.0234  -2.8798  -2.8027  -2.7978  -2.7148
    -2.6816  -2.6046  -2.5858  -2.5308  -2.4850  -2.4798  -2.4242  -2.3523
    -2.2472  -2.2309  -2.1879  -2.1409  -2.1383  -2.0587  -1.9822  -1.9672
    -1.7276  -1.5986  -1.5245  -1.5073  -1.3583  -1.3581  -1.3396  -1.3342
    -1.2657  -1.0892  -1.0162  -0.9987  -0.8361  -0.7889  -0.7231  -0.6507
    -0.6184  -0.5702  -0.5479  -0.4807  -0.4661  -0.4591  -0.1741   0.0685
     0.2284   0.8147   2.1023   2.6098   3.1476   4.3305   4.9583   5.1102

          k = 0.0443-0.0768 0.0000 ( 31547 PWs)   bands (ev):

    -4.7594  -4.1456  -4.1456  -3.9970  -3.9970  -3.9885  -3.8754  -3.8587
    -3.8587  -3.7430  -3.7420  -3.6353  -3.4901  -3.4324  -3.4324  -3.3294
    -3.0973  -3.0973  -3.0705  -2.9867  -2.8979  -2.8264  -2.8181  -2.8181
    -2.5589  -2.5555  -2.5234  -2.4384  -2.4384  -2.3460  -2.3460  -2.3190
    -2.1364  -2.1117  -2.1116  -2.0325  -1.9078  -1.8817  -1.8496  -1.8296
    -1.8296  -1.5728  -1.5087  -1.4791  -1.4791  -1.4462  -1.3592  -1.3592
    -1.1911  -1.1563  -1.0802  -0.9355  -0.9355  -0.6833  -0.6632  -0.6185
    -0.6185  -0.5562  -0.4713  -0.4713  -0.4254  -0.4212   0.0302   0.0302
     0.8042   0.8042   1.6575   3.1856   3.1856   3.7491   4.8905   5.2926

          k = 0.0443-0.0597 0.0000 ( 31588 PWs)   bands (ev):

    -5.0662  -4.3086  -4.1891  -4.1571  -4.1171  -4.0946  -4.0731  -3.9744
    -3.9721  -3.9273  -3.8789  -3.8579  -3.6598  -3.5667  -3.4401  -3.1834
    -3.1789  -3.0992  -3.0228  -3.0222  -2.8239  -2.7331  -2.7094  -2.7044
    -2.6068  -2.4953  -2.4864  -2.4361  -2.4049  -2.2783  -2.2298  -2.2194
    -2.1592  -2.1083  -1.8693  -1.7467  -1.7186  -1.6907  -1.6539  -1.6403
    -1.6278  -1.6225  -1.5903  -1.5383  -1.4038  -1.3901  -1.2618  -1.2521
    -1.2235  -1.1072  -1.0393  -0.8632  -0.8438  -0.7026  -0.6167  -0.6020
    -0.5978  -0.5148  -0.5048  -0.4445  -0.3610  -0.3537  -0.0415   0.6390
     0.8019   1.2709   1.5159   3.2230   3.2701   3.8236   4.0235   4.8381

          k = 0.0443-0.0427 0.0000 ( 31599 PWs)   bands (ev):

    -5.3245  -4.4433  -4.2862  -4.2762  -4.2494  -4.2390  -4.1626  -4.1333
    -4.0810  -4.0687  -4.0557  -3.9943  -3.8299  -3.6785  -3.5790  -3.2031
    -3.1412  -3.0470  -3.0197  -2.9364  -2.7572  -2.7218  -2.6866  -2.6803
    -2.6473  -2.5360  -2.4265  -2.3420  -2.3105  -2.2972  -2.2153  -2.1251
    -2.1039  -2.0889  -1.9362  -1.7191  -1.6540  -1.5954  -1.5066  -1.4918
    -1.4398  -1.4259  -1.3612  -1.3481  -1.3276  -1.3152  -1.1383  -1.0200
    -1.0031  -0.9052  -0.8509  -0.7893  -0.7891  -0.7348  -0.7157  -0.5868
    -0.5365  -0.4692  -0.4609  -0.4009  -0.2775  -0.2697  -0.1266   0.8635
     0.9463   1.3674   2.3183   2.7713   3.0866   3.4172   4.0228   4.4715

          k = 0.0591-0.0341 0.0000 ( 31572 PWs)   bands (ev):

    -5.1999  -4.4486  -4.2628  -4.1936  -4.1842  -4.1842  -4.0399  -4.0399
    -4.0275  -4.0148  -3.9689  -3.9689  -3.7961  -3.5239  -3.5239  -3.1846
    -3.1845  -3.1181  -2.9986  -2.9665  -2.7162  -2.7109  -2.6766  -2.6766
    -2.6115  -2.6115  -2.4197  -2.3118  -2.2400  -2.2375  -2.1991  -2.1991
    -2.1809  -2.1719  -1.8664  -1.7290  -1.7240  -1.7240  -1.5517  -1.5237
    -1.5237  -1.5204  -1.4661  -1.4661  -1.4421  -1.3675  -1.2170  -1.0448
    -1.0448  -0.9339  -0.9132  -0.8386  -0.8386  -0.7674  -0.7635  -0.7593
    -0.6839  -0.4900  -0.4900  -0.4340  -0.3907  -0.2364  -0.2364   0.4413
     1.1062   2.2216   2.2216   3.0024   3.0745   3.2114   3.2114   5.1586

          k = 0.0591-0.0171 0.0000 ( 31599 PWs)   bands (ev):

    -5.3245  -4.4433  -4.2862  -4.2762  -4.2494  -4.2390  -4.1626  -4.1333
    -4.0810  -4.0687  -4.0557  -3.9943  -3.8299  -3.6785  -3.5790  -3.2031
    -3.1412  -3.0470  -3.0197  -2.9364  -2.7572  -2.7218  -2.6866  -2.6803
    -2.6473  -2.5360  -2.4265  -2.3420  -2.3105  -2.2972  -2.2153  -2.1251
    -2.1039  -2.0889  -1.9362  -1.7191  -1.6540  -1.5954  -1.5066  -1.4918
    -1.4398  -1.4259  -1.3612  -1.3481  -1.3276  -1.3152  -1.1383  -1.0200
    -1.0031  -0.9052  -0.8509  -0.7893  -0.7891  -0.7348  -0.7157  -0.5868
    -0.5365  -0.4692  -0.4609  -0.4009  -0.2775  -0.2697  -0.1266   0.8635
     0.9463   1.3674   2.3183   2.7713   3.0866   3.4172   4.0228   4.4715

          k = 0.0591 0.0000 0.0000 ( 31611 PWs)   bands (ev):

    -5.3668  -4.3850  -4.3850  -4.2648  -4.2577  -4.2382  -4.2382  -4.1727
    -4.0962  -4.0869  -4.0869  -4.0024  -3.7881  -3.7881  -3.5980  -3.2084
    -3.0827  -3.0827  -3.0264  -2.8946  -2.7944  -2.7169  -2.7169  -2.7047
    -2.6406  -2.4516  -2.4168  -2.4168  -2.3421  -2.3160  -2.2273  -2.0862
    -2.0862  -2.0478  -1.9508  -1.7255  -1.6334  -1.5038  -1.5038  -1.5009
    -1.4205  -1.3890  -1.3890  -1.2445  -1.2227  -1.2013  -1.2013  -1.1465
    -0.9443  -0.9443  -0.8603  -0.7417  -0.7417  -0.6738  -0.6034  -0.5852
    -0.4990  -0.4920  -0.4920  -0.3524  -0.3524  -0.3256   0.5786   0.5786
     0.8922   1.5179   1.5179   2.6904   3.6662   3.8828   3.8828   4.3736

          k = 0.0591 0.0171 0.0000 ( 31599 PWs)   bands (ev):

    -5.3245  -4.4433  -4.2862  -4.2762  -4.2494  -4.2390  -4.1626  -4.1333
    -4.0810  -4.0687  -4.0557  -3.9943  -3.8299  -3.6785  -3.5790  -3.2031
    -3.1412  -3.0470  -3.0197  -2.9364  -2.7572  -2.7218  -2.6866  -2.6803
    -2.6473  -2.5360  -2.4265  -2.3420  -2.3105  -2.2972  -2.2153  -2.1251
    -2.1039  -2.0889  -1.9362  -1.7191  -1.6540  -1.5954  -1.5066  -1.4918
    -1.4398  -1.4259  -1.3612  -1.3481  -1.3276  -1.3152  -1.1383  -1.0200
    -1.0031  -0.9052  -0.8509  -0.7893  -0.7891  -0.7348  -0.7157  -0.5868
    -0.5365  -0.4692  -0.4609  -0.4009  -0.2775  -0.2697  -0.1266   0.8635
     0.9463   1.3674   2.3183   2.7713   3.0866   3.4172   4.0228   4.4715

          k = 0.0591 0.0341 0.0000 ( 31572 PWs)   bands (ev):

    -5.1999  -4.4486  -4.2628  -4.1936  -4.1842  -4.1842  -4.0399  -4.0399
    -4.0275  -4.0148  -3.9689  -3.9689  -3.7961  -3.5239  -3.5239  -3.1846
    -3.1846  -3.1181  -2.9986  -2.9665  -2.7162  -2.7109  -2.6766  -2.6766
    -2.6115  -2.6115  -2.4197  -2.3118  -2.2400  -2.2375  -2.1991  -2.1991
    -2.1809  -2.1719  -1.8664  -1.7290  -1.7240  -1.7240  -1.5517  -1.5237
    -1.5237  -1.5204  -1.4661  -1.4661  -1.4421  -1.3675  -1.2170  -1.0448
    -1.0448  -0.9339  -0.9132  -0.8386  -0.8386  -0.7674  -0.7635  -0.7593
    -0.6839  -0.4900  -0.4900  -0.4340  -0.3907  -0.2364  -0.2364   0.4413
     1.1062   2.2216   2.2216   3.0024   3.0745   3.2114   3.2114   5.1586

          k = 0.0591 0.0512 0.0000 ( 31563 PWs)   bands (ev):

    -5.0008  -4.4020  -4.1891  -4.0980  -4.0925  -4.0908  -3.9944  -3.9310
    -3.9140  -3.8741  -3.8731  -3.8412  -3.6893  -3.4409  -3.4108  -3.2214
    -3.1556  -3.1506  -3.0764  -2.9497  -2.7777  -2.7518  -2.7211  -2.7105
    -2.5498  -2.5161  -2.4768  -2.3473  -2.3320  -2.3067  -2.2826  -2.2043
    -2.1497  -2.0625  -1.8726  -1.8619  -1.7900  -1.7427  -1.7035  -1.6961
    -1.6591  -1.6052  -1.5795  -1.5487  -1.4722  -1.4193  -1.3653  -1.2455
    -1.1790  -1.1222  -0.9865  -0.9793  -0.8903  -0.8289  -0.8175  -0.6460
    -0.6112  -0.5376  -0.4815  -0.4481  -0.4218  -0.2737  -0.2632   0.2670
     1.3607   1.4073   2.3464   2.8391   3.1330   3.3571   4.1695   4.4981

          k = 0.0591-0.1365 0.0000 ( 31565 PWs)   bands (ev):

    -4.7426  -4.3181  -4.0538  -3.9995  -3.9877  -3.9676  -3.9470  -3.8277
    -3.8176  -3.7640  -3.7117  -3.6333  -3.5125  -3.4578  -3.3611  -3.3224
    -3.1609  -3.1175  -3.0408  -2.9848  -2.8629  -2.8611  -2.7794  -2.7386
    -2.5823  -2.4869  -2.4814  -2.4562  -2.3714  -2.3555  -2.3405  -2.2928
    -2.1691  -2.1308  -2.0372  -2.0319  -1.9171  -1.9167  -1.8961  -1.8569
    -1.7864  -1.5692  -1.5550  -1.5462  -1.4352  -1.4349  -1.3884  -1.3455
    -1.2261  -1.2168  -1.0297  -1.0136  -0.9321  -0.8073  -0.7813  -0.5972
    -0.5488  -0.5397  -0.5222  -0.4687  -0.4112  -0.3629  -0.3570   0.2275
     0.6868   1.5332   1.6951   2.6904   3.7926   3.8070   4.0969   5.1661

          k = 0.0591-0.1195 0.0000 ( 31536 PWs)   bands (ev):

    -4.4550  -4.2318  -4.0335  -3.8677  -3.8631  -3.8604  -3.7822  -3.7254
    -3.6960  -3.6928  -3.6489  -3.5786  -3.4189  -3.4084  -3.4078  -3.3220
    -3.2238  -3.1330  -3.0691  -3.0234  -2.8798  -2.8027  -2.7978  -2.7148
    -2.6816  -2.6046  -2.5858  -2.5308  -2.4850  -2.4798  -2.4242  -2.3523
    -2.2472  -2.2309  -2.1879  -2.1409  -2.1383  -2.0587  -1.9822  -1.9672
    -1.7276  -1.5986  -1.5245  -1.5073  -1.3583  -1.3581  -1.3396  -1.3342
    -1.2657  -1.0892  -1.0162  -0.9987  -0.8361  -0.7889  -0.7231  -0.6507
    -0.6184  -0.5702  -0.5479  -0.4807  -0.4661  -0.4591  -0.1741   0.0685
     0.2284   0.8147   2.1023   2.6098   3.1476   4.3305   4.9583   5.1102

          k = 0.0591-0.1024 0.0000 ( 31518 PWs)   bands (ev):

    -4.1939  -4.1939  -4.1939  -3.7482  -3.7482  -3.7482  -3.7259  -3.7259
    -3.6637  -3.5865  -3.5865  -3.5865  -3.5435  -3.5435  -3.5435  -3.1965
    -3.1965  -2.9759  -2.9759  -2.9759  -2.8993  -2.8993  -2.8993  -2.6976
    -2.6976  -2.6976  -2.6476  -2.6476  -2.6476  -2.5636  -2.3252  -2.3251
    -2.3239  -2.3144  -2.1253  -2.1253  -2.1253  -2.1142  -2.1142  -2.1142
    -1.6021  -1.6021  -1.6021  -1.4373  -1.4373  -1.3094  -1.3094  -1.3094
    -1.1298  -1.1298  -1.1298  -0.7817  -0.7817  -0.7817  -0.6802  -0.6802
    -0.5639  -0.5639  -0.5639  -0.5218  -0.4446  -0.4445  -0.4445   0.2318
     0.2318   0.2318   2.5844   2.5844   2.5844   4.9144   4.9144   4.9145

          k = 0.0591-0.0853 0.0000 ( 31536 PWs)   bands (ev):

    -4.4550  -4.2318  -4.0335  -3.8677  -3.8631  -3.8604  -3.7822  -3.7254
    -3.6960  -3.6928  -3.6489  -3.5786  -3.4189  -3.4084  -3.4078  -3.3220
    -3.2238  -3.1330  -3.0691  -3.0234  -2.8798  -2.8027  -2.7978  -2.7148
    -2.6816  -2.6046  -2.5858  -2.5308  -2.4850  -2.4798  -2.4242  -2.3523
    -2.2472  -2.2309  -2.1879  -2.1409  -2.1383  -2.0587  -1.9822  -1.9672
    -1.7276  -1.5986  -1.5245  -1.5073  -1.3583  -1.3581  -1.3396  -1.3342
    -1.2657  -1.0892  -1.0162  -0.9987  -0.8361  -0.7889  -0.7231  -0.6507
    -0.6184  -0.5702  -0.5479  -0.4807  -0.4661  -0.4591  -0.1741   0.0685
     0.2284   0.8147   2.1023   2.6098   3.1476   4.3305   4.9584   5.1102

          k = 0.0591-0.0683 0.0000 ( 31565 PWs)   bands (ev):

    -4.7426  -4.3181  -4.0538  -3.9995  -3.9877  -3.9676  -3.9470  -3.8277
    -3.8176  -3.7640  -3.7117  -3.6333  -3.5125  -3.4578  -3.3611  -3.3224
    -3.1609  -3.1175  -3.0408  -2.9848  -2.8629  -2.8611  -2.7794  -2.7386
    -2.5823  -2.4869  -2.4814  -2.4562  -2.3714  -2.3555  -2.3405  -2.2928
    -2.1691  -2.1308  -2.0372  -2.0319  -1.9171  -1.9167  -1.8961  -1.8569
    -1.7864  -1.5692  -1.5550  -1.5462  -1.4352  -1.4349  -1.3884  -1.3455
    -1.2261  -1.2168  -1.0297  -1.0136  -0.9321  -0.8073  -0.7813  -0.5972
    -0.5488  -0.5397  -0.5222  -0.4687  -0.4112  -0.3629  -0.3570   0.2275
     0.6868   1.5332   1.6951   2.6904   3.7926   3.8070   4.0969   5.1661

          k = 0.0591-0.0512 0.0000 ( 31563 PWs)   bands (ev):

    -5.0008  -4.4020  -4.1891  -4.0980  -4.0925  -4.0908  -3.9944  -3.9310
    -3.9140  -3.8741  -3.8731  -3.8412  -3.6893  -3.4409  -3.4108  -3.2214
    -3.1556  -3.1506  -3.0764  -2.9497  -2.7777  -2.7518  -2.7211  -2.7105
    -2.5498  -2.5161  -2.4768  -2.3473  -2.3320  -2.3067  -2.2826  -2.2043
    -2.1497  -2.0625  -1.8726  -1.8619  -1.7900  -1.7427  -1.7035  -1.6961
    -1.6591  -1.6052  -1.5795  -1.5487  -1.4722  -1.4193  -1.3653  -1.2455
    -1.1790  -1.1222  -0.9865  -0.9793  -0.8903  -0.8289  -0.8175  -0.6460
    -0.6112  -0.5376  -0.4815  -0.4481  -0.4218  -0.2737  -0.2632   0.2670
     1.3607   1.4073   2.3464   2.8391   3.1330   3.3571   4.1695   4.4981

          k = 0.0739-0.0427 0.0000 ( 31566 PWs)   bands (ev):

    -4.8732  -4.4573  -4.1709  -4.0845  -4.0471  -4.0471  -3.8782  -3.8782
    -3.8680  -3.7994  -3.7903  -3.7903  -3.6452  -3.3680  -3.3680  -3.3068
    -3.1118  -3.1118  -3.0984  -2.9227  -2.8492  -2.8492  -2.7354  -2.6474
    -2.4694  -2.4693  -2.4382  -2.3701  -2.3701  -2.2601  -2.2237  -2.1810
    -2.1457  -1.9714  -1.9714  -1.9634  -1.9022  -1.8601  -1.8600  -1.7457
    -1.6805  -1.6164  -1.6029  -1.5347  -1.5347  -1.4954  -1.3842  -1.2708
    -1.2520  -1.2520  -1.0871  -1.0370  -0.9472  -0.9105  -0.9105  -0.8626
    -0.6009  -0.4921  -0.4921  -0.4276  -0.4119  -0.2291  -0.2291  -0.0380
     1.5415   2.2462   2.2462   2.5211   3.2592   3.2592   3.6144   4.9252

          k = 0.0739-0.0256 0.0000 ( 31563 PWs)   bands (ev):

    -5.0008  -4.4020  -4.1891  -4.0980  -4.0925  -4.0908  -3.9944  -3.9310
    -3.9140  -3.8741  -3.8731  -3.8412  -3.6893  -3.4409  -3.4108  -3.2214
    -3.1556  -3.1506  -3.0764  -2.9497  -2.7777  -2.7518  -2.7211  -2.7105
    -2.5498  -2.5161  -2.4768  -2.3473  -2.3320  -2.3067  -2.2826  -2.2043
    -2.1497  -2.0625  -1.8726  -1.8619  -1.7900  -1.7427  -1.7035  -1.6961
    -1.6591  -1.6052  -1.5795  -1.5487  -1.4722  -1.4193  -1.3653  -1.2455
    -1.1790  -1.1222  -0.9865  -0.9793  -0.8903  -0.8289  -0.8175  -0.6460
    -0.6112  -0.5376  -0.4815  -0.4481  -0.4218  -0.2737  -0.2632   0.2670
     1.3607   1.4073   2.3464   2.8391   3.1330   3.3571   4.1695   4.4981

          k = 0.0739-0.0085 0.0000 ( 31588 PWs)   bands (ev):

    -5.0662  -4.3086  -4.1891  -4.1571  -4.1171  -4.0946  -4.0731  -3.9744
    -3.9721  -3.9273  -3.8789  -3.8579  -3.6598  -3.5667  -3.4401  -3.1834
    -3.1789  -3.0992  -3.0228  -3.0222  -2.8239  -2.7331  -2.7094  -2.7044
    -2.6068  -2.4953  -2.4864  -2.4361  -2.4049  -2.2783  -2.2298  -2.2194
    -2.1592  -2.1083  -1.8693  -1.7467  -1.7186  -1.6907  -1.6539  -1.6403
    -1.6278  -1.6225  -1.5903  -1.5383  -1.4038  -1.3901  -1.2618  -1.2521
    -1.2235  -1.1072  -1.0393  -0.8632  -0.8438  -0.7026  -0.6167  -0.6020
    -0.5978  -0.5148  -0.5048  -0.4445  -0.3610  -0.3537  -0.0415   0.6390
     0.8019   1.2709   1.5159   3.2230   3.2701   3.8236   4.0235   4.8381

          k = 0.0739 0.0085 0.0000 ( 31588 PWs)   bands (ev):

    -5.0662  -4.3086  -4.1891  -4.1571  -4.1171  -4.0946  -4.0731  -3.9744
    -3.9721  -3.9273  -3.8789  -3.8579  -3.6598  -3.5667  -3.4401  -3.1834
    -3.1789  -3.0992  -3.0228  -3.0222  -2.8239  -2.7331  -2.7094  -2.7044
    -2.6068  -2.4953  -2.4864  -2.4361  -2.4049  -2.2783  -2.2298  -2.2194
    -2.1592  -2.1083  -1.8693  -1.7467  -1.7186  -1.6907  -1.6539  -1.6403
    -1.6278  -1.6225  -1.5903  -1.5383  -1.4038  -1.3901  -1.2618  -1.2521
    -1.2235  -1.1072  -1.0393  -0.8632  -0.8438  -0.7026  -0.6167  -0.6020
    -0.5978  -0.5148  -0.5048  -0.4445  -0.3610  -0.3537  -0.0415   0.6390
     0.8019   1.2709   1.5159   3.2230   3.2701   3.8236   4.0235   4.8381

          k = 0.0739 0.0256 0.0000 ( 31563 PWs)   bands (ev):

    -5.0008  -4.4020  -4.1891  -4.0980  -4.0925  -4.0908  -3.9944  -3.9310
    -3.9140  -3.8741  -3.8731  -3.8412  -3.6893  -3.4409  -3.4108  -3.2214
    -3.1556  -3.1506  -3.0764  -2.9497  -2.7777  -2.7518  -2.7211  -2.7105
    -2.5498  -2.5161  -2.4768  -2.3473  -2.3320  -2.3067  -2.2826  -2.2043
    -2.1497  -2.0625  -1.8726  -1.8619  -1.7900  -1.7427  -1.7035  -1.6961
    -1.6591  -1.6052  -1.5795  -1.5487  -1.4722  -1.4193  -1.3653  -1.2455
    -1.1790  -1.1222  -0.9865  -0.9793  -0.8903  -0.8289  -0.8175  -0.6460
    -0.6112  -0.5376  -0.4815  -0.4481  -0.4218  -0.2737  -0.2632   0.2670
     1.3607   1.4073   2.3464   2.8391   3.1330   3.3571   4.1695   4.4981

          k = 0.0739 0.0427 0.0000 ( 31566 PWs)   bands (ev):

    -4.8732  -4.4573  -4.1709  -4.0845  -4.0471  -4.0471  -3.8782  -3.8782
    -3.8680  -3.7994  -3.7903  -3.7903  -3.6452  -3.3680  -3.3680  -3.3068
    -3.1118  -3.1118  -3.0984  -2.9227  -2.8492  -2.8492  -2.7354  -2.6474
    -2.4694  -2.4694  -2.4382  -2.3701  -2.3701  -2.2601  -2.2237  -2.1810
    -2.1457  -1.9714  -1.9714  -1.9634  -1.9022  -1.8601  -1.8600  -1.7457
    -1.6805  -1.6164  -1.6029  -1.5347  -1.5347  -1.4954  -1.3842  -1.2708
    -1.2520  -1.2520  -1.0871  -1.0370  -0.9472  -0.9105  -0.9105  -0.8626
    -0.6009  -0.4921  -0.4921  -0.4276  -0.4119  -0.2291  -0.2291  -0.0380
     1.5415   2.2462   2.2462   2.5211   3.2592   3.2592   3.6144   4.9252

          k = 0.0739-0.1451 0.0000 ( 31564 PWs)   bands (ev):

    -4.6909  -4.4756  -4.0937  -4.0391  -3.9877  -3.9872  -3.8892  -3.8041
    -3.7832  -3.7192  -3.7190  -3.6301  -3.5363  -3.4004  -3.3854  -3.3547
    -3.1363  -3.0577  -3.0132  -2.9818  -2.9264  -2.9201  -2.7359  -2.6633
    -2.4683  -2.4244  -2.4171  -2.3847  -2.3771  -2.2745  -2.2643  -2.2193
    -2.1546  -2.1255  -2.0704  -2.0136  -2.0018  -1.9796  -1.9157  -1.8378
    -1.8260  -1.6137  -1.5802  -1.5557  -1.4806  -1.4375  -1.4164  -1.3604
    -1.2964  -1.2668  -1.1526  -1.0769  -0.9566  -0.9507  -0.8767  -0.8633
    -0.5350  -0.5012  -0.4844  -0.4507  -0.3984  -0.2696  -0.2568  -0.1522
     1.4323   1.8109   2.3017   2.3666   3.1480   3.9781   4.2346   4.5070

          k = 0.0739-0.1280 0.0000 ( 31542 PWs)   bands (ev):

    -4.4680  -4.4680  -3.9585  -3.9585  -3.9256  -3.9219  -3.9167  -3.7513
    -3.6891  -3.6891  -3.6571  -3.4901  -3.4821  -3.4125  -3.3737  -3.3737
    -3.2086  -3.2086  -3.0150  -3.0034  -2.9286  -2.8117  -2.7187  -2.7187
    -2.5627  -2.4514  -2.4514  -2.4277  -2.4145  -2.4054  -2.4054  -2.3597
    -2.2005  -2.1766  -2.1766  -2.1485  -2.1294  -2.0814  -1.9014  -1.9014
    -1.7132  -1.7132  -1.5373  -1.4370  -1.4370  -1.4357  -1.4134  -1.3334
    -1.2004  -1.2004  -1.0438  -1.0438  -0.9707  -0.8413  -0.8413  -0.8085
    -0.5940  -0.5241  -0.5228  -0.5228  -0.3651  -0.3542  -0.1735  -0.1735
     0.7041   1.5414   2.1663   2.1663   3.7830   4.1075   4.4307   4.4307

          k = 0.0739-0.1109 0.0000 ( 31536 PWs)   bands (ev):

    -4.4550  -4.2318  -4.0335  -3.8677  -3.8631  -3.8604  -3.7822  -3.7254
    -3.6960  -3.6928  -3.6489  -3.5786  -3.4189  -3.4084  -3.4078  -3.3220
    -3.2238  -3.1330  -3.0691  -3.0234  -2.8798  -2.8027  -2.7978  -2.7148
    -2.6816  -2.6046  -2.5858  -2.5308  -2.4850  -2.4798  -2.4242  -2.3523
    -2.2472  -2.2309  -2.1879  -2.1409  -2.1383  -2.0587  -1.9822  -1.9672
    -1.7276  -1.5986  -1.5245  -1.5073  -1.3583  -1.3581  -1.3396  -1.3342
    -1.2657  -1.0892  -1.0162  -0.9987  -0.8361  -0.7889  -0.7231  -0.6507
    -0.6184  -0.5702  -0.5479  -0.4807  -0.4661  -0.4591  -0.1741   0.0685
     0.2284   0.8147   2.1023   2.6098   3.1476   4.3305   4.9583   5.1101

          k = 0.0739-0.0939 0.0000 ( 31536 PWs)   bands (ev):

    -4.4550  -4.2318  -4.0335  -3.8677  -3.8631  -3.8604  -3.7822  -3.7254
    -3.6960  -3.6928  -3.6489  -3.5786  -3.4189  -3.4084  -3.4078  -3.3220
    -3.2238  -3.1330  -3.0691  -3.0234  -2.8798  -2.8027  -2.7978  -2.7148
    -2.6816  -2.6046  -2.5858  -2.5308  -2.4850  -2.4798  -2.4242  -2.3523
    -2.2472  -2.2309  -2.1879  -2.1409  -2.1383  -2.0587  -1.9822  -1.9672
    -1.7276  -1.5986  -1.5245  -1.5073  -1.3583  -1.3581  -1.3396  -1.3342
    -1.2657  -1.0892  -1.0162  -0.9987  -0.8361  -0.7889  -0.7231  -0.6507
    -0.6184  -0.5702  -0.5479  -0.4807  -0.4661  -0.4591  -0.1741   0.0685
     0.2284   0.8147   2.1023   2.6098   3.1476   4.3305   4.9583   5.1102

          k = 0.0739-0.0768 0.0000 ( 31542 PWs)   bands (ev):

    -4.4680  -4.4680  -3.9585  -3.9585  -3.9256  -3.9219  -3.9167  -3.7513
    -3.6891  -3.6891  -3.6571  -3.4901  -3.4821  -3.4125  -3.3737  -3.3737
    -3.2086  -3.2086  -3.0150  -3.0034  -2.9286  -2.8117  -2.7187  -2.7187
    -2.5627  -2.4514  -2.4514  -2.4277  -2.4145  -2.4054  -2.4054  -2.3597
    -2.2005  -2.1766  -2.1766  -2.1485  -2.1294  -2.0814  -1.9014  -1.9014
    -1.7132  -1.7132  -1.5373  -1.4370  -1.4370  -1.4357  -1.4134  -1.3334
    -1.2004  -1.2004  -1.0438  -1.0438  -0.9707  -0.8413  -0.8413  -0.8085
    -0.5940  -0.5241  -0.5228  -0.5228  -0.3651  -0.3542  -0.1735  -0.1735
     0.7041   1.5414   2.1662   2.1663   3.7830   4.1075   4.4307   4.4307

          k = 0.0739-0.0597 0.0000 ( 31564 PWs)   bands (ev):

    -4.6909  -4.4756  -4.0937  -4.0391  -3.9877  -3.9872  -3.8892  -3.8041
    -3.7832  -3.7192  -3.7190  -3.6301  -3.5363  -3.4004  -3.3854  -3.3547
    -3.1363  -3.0577  -3.0132  -2.9818  -2.9264  -2.9201  -2.7359  -2.6633
    -2.4683  -2.4244  -2.4171  -2.3847  -2.3771  -2.2745  -2.2643  -2.2193
    -2.1546  -2.1255  -2.0704  -2.0136  -2.0018  -1.9796  -1.9157  -1.8378
    -1.8260  -1.6137  -1.5802  -1.5557  -1.4806  -1.4375  -1.4163  -1.3604
    -1.2964  -1.2668  -1.1526  -1.0769  -0.9566  -0.9507  -0.8767  -0.8633
    -0.5350  -0.5012  -0.4844  -0.4507  -0.3984  -0.2696  -0.2568  -0.1522
     1.4323   1.8109   2.3017   2.3666   3.1480   3.9781   4.2346   4.5070

          k =-0.0887 0.0512 0.0000 ( 31582 PWs)   bands (ev):

    -4.6019  -4.6019  -4.0911  -4.0910  -3.9887  -3.9886  -3.8411  -3.8411
    -3.7503  -3.7503  -3.6479  -3.6479  -3.4830  -3.4830  -3.3674  -3.3674
    -3.0485  -3.0485  -2.9908  -2.9908  -2.9633  -2.9633  -2.6930  -2.6930
    -2.4228  -2.4228  -2.3891  -2.3891  -2.2482  -2.2482  -2.1403  -2.1402
    -2.1053  -2.1053  -2.0701  -2.0701  -2.0471  -2.0471  -1.9506  -1.9506
    -1.7163  -1.7162  -1.5379  -1.5379  -1.5258  -1.5258  -1.3414  -1.3414
    -1.3375  -1.3375  -1.2455  -1.2455  -0.9399  -0.9399  -0.9342  -0.9341
    -0.4919  -0.4919  -0.4212  -0.4212  -0.3661  -0.3661  -0.2260  -0.2259
     2.0109   2.0109   2.2551   2.2552   3.2757   3.2757   4.2557   4.2557

          k =-0.0887 0.0683 0.0000 ( 31564 PWs)   bands (ev):

    -4.6909  -4.4756  -4.0937  -4.0391  -3.9877  -3.9872  -3.8892  -3.8041
    -3.7832  -3.7192  -3.7190  -3.6301  -3.5363  -3.4005  -3.3854  -3.3547
    -3.1363  -3.0577  -3.0132  -2.9818  -2.9264  -2.9201  -2.7359  -2.6633
    -2.4683  -2.4244  -2.4171  -2.3847  -2.3771  -2.2745  -2.2643  -2.2193
    -2.1546  -2.1255  -2.0704  -2.0136  -2.0018  -1.9796  -1.9157  -1.8378
    -1.8260  -1.6137  -1.5802  -1.5557  -1.4806  -1.4375  -1.4163  -1.3604
    -1.2964  -1.2668  -1.1526  -1.0769  -0.9566  -0.9507  -0.8767  -0.8633
    -0.5350  -0.5012  -0.4844  -0.4507  -0.3984  -0.2696  -0.2568  -0.1522
     1.4323   1.8109   2.3017   2.3666   3.1480   3.9781   4.2346   4.5070

          k =-0.0887 0.0853 0.0000 ( 31565 PWs)   bands (ev):

    -4.7426  -4.3181  -4.0538  -3.9995  -3.9877  -3.9676  -3.9470  -3.8277
    -3.8176  -3.7640  -3.7117  -3.6333  -3.5125  -3.4578  -3.3611  -3.3224
    -3.1609  -3.1175  -3.0408  -2.9848  -2.8629  -2.8611  -2.7794  -2.7386
    -2.5823  -2.4869  -2.4814  -2.4562  -2.3714  -2.3555  -2.3405  -2.2928
    -2.1691  -2.1308  -2.0372  -2.0319  -1.9171  -1.9167  -1.8961  -1.8569
    -1.7864  -1.5692  -1.5550  -1.5462  -1.4352  -1.4349  -1.3884  -1.3455
    -1.2261  -1.2168  -1.0297  -1.0136  -0.9321  -0.8073  -0.7813  -0.5972
    -0.5488  -0.5397  -0.5222  -0.4687  -0.4112  -0.3629  -0.3570   0.2275
     0.6868   1.5332   1.6951   2.6904   3.7926   3.8070   4.0969   5.1661

          k =-0.0887 0.1024 0.0000 ( 31547 PWs)   bands (ev):

    -4.7594  -4.1456  -4.1456  -3.9970  -3.9970  -3.9885  -3.8754  -3.8587
    -3.8587  -3.7430  -3.7420  -3.6353  -3.4901  -3.4324  -3.4324  -3.3294
    -3.0973  -3.0973  -3.0705  -2.9867  -2.8979  -2.8264  -2.8181  -2.8181
    -2.5589  -2.5555  -2.5234  -2.4384  -2.4384  -2.3460  -2.3460  -2.3190
    -2.1364  -2.1116  -2.1116  -2.0325  -1.9078  -1.8817  -1.8496  -1.8296
    -1.8296  -1.5728  -1.5087  -1.4791  -1.4791  -1.4462  -1.3592  -1.3592
    -1.1911  -1.1563  -1.0802  -0.9355  -0.9355  -0.6833  -0.6632  -0.6185
    -0.6185  -0.5562  -0.4713  -0.4713  -0.4254  -0.4212   0.0302   0.0302
     0.8042   0.8042   1.6575   3.1856   3.1856   3.7491   4.8905   5.2926

          k =-0.0887 0.1195 0.0000 ( 31565 PWs)   bands (ev):

    -4.7426  -4.3181  -4.0538  -3.9995  -3.9877  -3.9676  -3.9470  -3.8277
    -3.8176  -3.7640  -3.7117  -3.6333  -3.5125  -3.4578  -3.3611  -3.3224
    -3.1609  -3.1175  -3.0408  -2.9848  -2.8629  -2.8611  -2.7794  -2.7386
    -2.5823  -2.4869  -2.4814  -2.4562  -2.3714  -2.3555  -2.3405  -2.2928
    -2.1691  -2.1308  -2.0372  -2.0319  -1.9171  -1.9167  -1.8961  -1.8569
    -1.7864  -1.5692  -1.5550  -1.5462  -1.4352  -1.4349  -1.3884  -1.3455
    -1.2261  -1.2168  -1.0297  -1.0136  -0.9321  -0.8073  -0.7813  -0.5972
    -0.5488  -0.5397  -0.5222  -0.4687  -0.4112  -0.3629  -0.3570   0.2275
     0.6868   1.5332   1.6951   2.6904   3.7926   3.8070   4.0969   5.1661

          k =-0.0887 0.1365 0.0000 ( 31564 PWs)   bands (ev):

    -4.6909  -4.4756  -4.0937  -4.0391  -3.9877  -3.9872  -3.8892  -3.8041
    -3.7832  -3.7192  -3.7190  -3.6301  -3.5363  -3.4004  -3.3854  -3.3547
    -3.1363  -3.0577  -3.0132  -2.9818  -2.9264  -2.9201  -2.7359  -2.6633
    -2.4683  -2.4244  -2.4171  -2.3847  -2.3771  -2.2745  -2.2643  -2.2193
    -2.1546  -2.1255  -2.0704  -2.0136  -2.0018  -1.9796  -1.9157  -1.8378
    -1.8260  -1.6137  -1.5802  -1.5557  -1.4806  -1.4375  -1.4163  -1.3604
    -1.2964  -1.2668  -1.1526  -1.0769  -0.9566  -0.9507  -0.8767  -0.8633
    -0.5350  -0.5012  -0.4844  -0.4507  -0.3984  -0.2696  -0.2568  -0.1522
     1.4323   1.8109   2.3017   2.3666   3.1480   3.9781   4.2346   4.5070

          k =-0.0887-0.0512 0.0000 ( 31582 PWs)   bands (ev):

    -4.6019  -4.6019  -4.0910  -4.0910  -3.9887  -3.9887  -3.8411  -3.8411
    -3.7503  -3.7503  -3.6479  -3.6479  -3.4830  -3.4830  -3.3674  -3.3674
    -3.0485  -3.0485  -2.9908  -2.9908  -2.9633  -2.9633  -2.6930  -2.6930
    -2.4228  -2.4228  -2.3891  -2.3891  -2.2482  -2.2482  -2.1402  -2.1402
    -2.1053  -2.1053  -2.0701  -2.0701  -2.0471  -2.0471  -1.9506  -1.9506
    -1.7163  -1.7163  -1.5379  -1.5379  -1.5258  -1.5258  -1.3414  -1.3414
    -1.3375  -1.3375  -1.2455  -1.2455  -0.9399  -0.9399  -0.9342  -0.9342
    -0.4919  -0.4919  -0.4212  -0.4212  -0.3661  -0.3661  -0.2259  -0.2259
     2.0109   2.0109   2.2552   2.2552   3.2757   3.2757   4.2557   4.2557

     the Fermi energy is    -0.2901 ev

!    total energy              =    -822.08100002 Ry
     estimated scf accuracy    <       0.00000161 Ry
     smearing contrib. (-TS)   =      -0.10594932 Ry
     internal energy E=F+TS    =    -821.97505070 Ry

     The total energy is F=E-TS. E is the sum of the following terms:
     one-electron contribution =   -7516.47841983 Ry
     hartree contribution      =    3841.81508276 Ry
     xc contribution           =    -269.15231795 Ry
     ewald contribution        =    3121.84060431 Ry
     electric field correction =       0.00000000 Ry

     convergence has been achieved in  13 iterations

     negative rho (up, down):  1.241E-03 0.000E+00

     Forces acting on atoms (cartesian axes, Ry/au):

     atom    1 type  1   force =     0.00000157   -0.00000301   -0.00158558
     atom    2 type  1   force =    -0.00000238   -0.00000030   -0.00158788
     atom    3 type  1   force =     0.00000203    0.00000020   -0.00158442
     atom    4 type  1   force =    -0.00000155    0.00000204   -0.00158625
     atom    5 type  1   force =     0.00000006    0.00000041    0.00003759
     atom    6 type  1   force =     0.00000024   -0.00000081    0.00003792
     atom    7 type  1   force =    -0.00000042    0.00000015    0.00003842
     atom    8 type  1   force =     0.00000053    0.00000041    0.00003862
     atom    9 type  1   force =     0.00000188   -0.00000210    0.00154780
     atom   10 type  1   force =    -0.00000208   -0.00000087    0.00154542
     atom   11 type  1   force =     0.00000146    0.00000056    0.00155034
     atom   12 type  1   force =    -0.00000135    0.00000331    0.00154803

     Total force =     0.004433     Total SCF correction =     0.004993
     SCF correction compared to forces is large: reduce conv_thr to get better values

     Writing output data file ./Pd750/Pd750_beef.save/

     init_run     :     67.25s CPU     67.78s WALL (       1 calls)
     electrons    :   2020.02s CPU   2254.71s WALL (       1 calls)
     forces       :     37.48s CPU     37.61s WALL (       1 calls)

     Called by init_run:
     wfcinit      :     57.45s CPU     57.70s WALL (       1 calls)
     potinit      :      7.10s CPU      7.14s WALL (       1 calls)
     hinit0       :      1.25s CPU      1.26s WALL (       1 calls)

     Called by electrons:
     c_bands      :   1801.42s CPU   2033.98s WALL (      14 calls)
     sum_band     :    197.54s CPU    198.87s WALL (      14 calls)
     v_of_rho     :     17.81s CPU     18.22s WALL (      14 calls)
     newd         :      9.84s CPU     10.18s WALL (      14 calls)
     mix_rho      :      0.35s CPU      0.36s WALL (      14 calls)
     vdW_kernel   :      5.74s CPU      5.74s WALL (       1 calls)

     Called by c_bands:
     init_us_2    :      2.00s CPU      2.01s WALL (    2220 calls)
     cegterg      :   1773.84s CPU   2003.52s WALL (    1036 calls)

     Called by *egterg:
     cdiaghg      :     40.85s CPU     41.59s WALL (    3601 calls)
     h_psi        :   1024.79s CPU   1226.15s WALL (    3749 calls)
     s_psi        :     77.71s CPU     79.79s WALL (    3749 calls)
     g_psi        :      0.61s CPU      0.62s WALL (    2639 calls)

     Called by h_psi:
     h_psi:calbec :    288.38s CPU    299.97s WALL (    3749 calls)
     vloc_psi     :    658.08s CPU    845.47s WALL (    3749 calls)
     add_vuspsi   :     77.72s CPU     80.10s WALL (    3749 calls)

     General routines
     calbec       :    435.81s CPU    447.77s WALL (    5081 calls)
     fft          :     17.68s CPU     17.95s WALL (     942 calls)
     ffts         :      0.06s CPU      0.06s WALL (      28 calls)
     fftw         :    711.56s CPU    899.50s WALL (  445156 calls)
     interpolate  :      0.16s CPU      0.17s WALL (      14 calls)

     Parallel routines
     fft_scatt_xy :     24.37s CPU     24.67s WALL (  446126 calls)
     fft_scatt_yz :    487.01s CPU    672.66s WALL (  446126 calls)

     PWSCF        :  35m43.61s CPU  39m51.58s WALL


   This run was terminated on:  21:29:55  21Jun2022            

=------------------------------------------------------------------------------=
   JOB DONE.
=------------------------------------------------------------------------------=
