
     Program PWSCF v.6.6 starts on 21Jun2022 at 23: 2:13 

     This program is part of the open-source Quantum ESPRESSO suite
     for quantum simulation of materials; please cite
         "P. Giannozzi et al., J. Phys.:Condens. Matter 21 395502 (2009);
         "P. Giannozzi et al., J. Phys.:Condens. Matter 29 465901 (2017);
          URL http://www.quantum-espresso.org", 
     in publications or presentations arising from this work. More details at
     http://www.quantum-espresso.org/quote

     Parallel version (MPI), running on    37 processors

     MPI processes distributed on     1 nodes
     R & G space division:  proc/nbgrp/npool/nimage =      37
     Fft bands division:     nmany     =       1
     Reading input from Re-750.in
Warning: card &CELL ignored
Warning: card / ignored

     Current dimensions of program PWSCF are:
     Max number of different atomic species (ntypx) = 10
     Max number of k-points (npk) =  40000
     Max angular momentum in pseudopotentials (lmaxx) =  3
     Presently stress not available with electric field and gates

     Message from routine cell_base_init:
     DEPRECATED: use true lattice parameter, not A to a.u. conversion factor

     **************************************************************************
     Initializing libbeef V0.1.2 with the BEEF-vdW functional.
     Citation: Wellendorff et al., PRB 85, 235149 (2012).
     **************************************************************************


     IMPORTANT: XC functional enforced from input :
     Exchange-correlation= BEEF-VDW
                           (   1   4  43  14   2   0   0)
     Any further DFT definition will be discarded
     Please, verify this is what you really want


     Subspace diagonalization in iterative solution of the eigenvalue problem:
     a serial algorithm will be used

     Found symmetry operation: I + ( -0.5000  0.0000  0.0000)
     This is a supercell, fractional translations are disabled

     Parallelization info
     --------------------
     sticks:   dense  smooth     PW     G-vecs:    dense   smooth      PW
     Min         110      44     12                25436     6430     990
     Max         111      45     13                25451     6445    1003
     Sum        4081    1639    475               941313   238185   36951



     bravais-lattice index     =            0
     lattice parameter (alat)  =       1.8897  a.u.
     unit-cell volume          =    4306.9633 (a.u.)^3
     number of atoms/cell      =           12
     number of atomic types    =            1
     number of electrons       =       180.00
     number of Kohn-Sham states=          108
     kinetic-energy cutoff     =      55.1240  Ry
     charge density cutoff     =     551.2396  Ry
     convergence threshold     =      1.0E-05
     mixing beta               =       0.1000
     number of iterations used =           10  plain     mixing
     Exchange-correlation= BEEF-VDW
                           (   1   4  43  14   2   0   0)

     celldm(1)=   1.889726  celldm(2)=   0.000000  celldm(3)=   0.000000
     celldm(4)=   0.000000  celldm(5)=   0.000000  celldm(6)=   0.000000

     crystal axes: (cart. coord. in units of alat)
               a(1) = (   5.486772   0.000000   0.000000 )  
               a(2) = (   2.743386   4.751684   0.000000 )  
               a(3) = (   0.000000   0.000000  24.479931 )  

     reciprocal axes: (cart. coord. in units 2 pi/alat)
               b(1) = (  0.182257 -0.105226  0.000000 )  
               b(2) = (  0.000000  0.210452  0.000000 )  
               b(3) = (  0.000000  0.000000  0.040850 )  


     PseudoPot. # 1 for Re read from file:
     ../pseudo/Re.pbe-spn-rrkjus_psl.1.0.0.UPF
     MD5 check sum: 1282f1ec51ad523723a04c61ae80a9e6
     Pseudo is Ultrasoft + core correction, Zval = 15.0
     Generated using "atomic" code by A. Dal Corso v.6.2.2
     Using radial grid of 1275 points,  6 beta functions with: 
                l(1) =   0
                l(2) =   0
                l(3) =   1
                l(4) =   1
                l(5) =   2
                l(6) =   2
     Q(r) pseudized with 0 coefficients 


     atomic species   valence    mass     pseudopotential
        Re            15.00   186.20700     Re( 1.00)

     No symmetry found



   Cartesian axes

     site n.     atom                  positions (alat units)
         1           Re  tau(   1) = (   1.3716930   0.7919474  10.0000000  )
         2           Re  tau(   2) = (   4.1150791   0.7919474  10.0000000  )
         3           Re  tau(   3) = (   2.7433861   3.1677894  10.0000000  )
         4           Re  tau(   4) = (   5.4867722   3.1677894  10.0000000  )
         5           Re  tau(   5) = (   5.4867722   1.5838947  12.2399654  )
         6           Re  tau(   6) = (   2.7433861   1.5838947  12.2399654  )
         7           Re  tau(   7) = (   6.8584652   3.9597368  12.2399654  )
         8           Re  tau(   8) = (   4.1150791   3.9597368  12.2399654  )
         9           Re  tau(   9) = (   2.7433905   4.7516831  14.4234921  )
        10           Re  tau(  10) = (   2.7433892   0.0000162  14.4234946  )
        11           Re  tau(  11) = (   1.3717054   2.3758440  14.4234876  )
        12           Re  tau(  12) = (   4.1150769   2.3758453  14.4234769  )

     number of k points=    74  Fermi-Dirac smearing, width (Ry)=  0.0100
                       cart. coord. in units 2pi/alat
        k(    1) = (   0.0000000   0.0000000   0.0000000), wk =   0.0138889
        k(    2) = (   0.0000000   0.0175376   0.0000000), wk =   0.0277778
        k(    3) = (   0.0000000   0.0350753   0.0000000), wk =   0.0277778
        k(    4) = (   0.0000000   0.0526129   0.0000000), wk =   0.0277778
        k(    5) = (   0.0000000   0.0701506   0.0000000), wk =   0.0277778
        k(    6) = (   0.0000000   0.0876882   0.0000000), wk =   0.0277778
        k(    7) = (   0.0000000  -0.1052259   0.0000000), wk =   0.0138889
        k(    8) = (   0.0151880  -0.0087688   0.0000000), wk =   0.0277778
        k(    9) = (   0.0151880   0.0087688   0.0000000), wk =   0.0277778
        k(   10) = (   0.0151880   0.0263065   0.0000000), wk =   0.0277778
        k(   11) = (   0.0151880   0.0438441   0.0000000), wk =   0.0277778
        k(   12) = (   0.0151880   0.0613817   0.0000000), wk =   0.0277778
        k(   13) = (   0.0151880   0.0789194   0.0000000), wk =   0.0277778
        k(   14) = (   0.0151880  -0.1139947   0.0000000), wk =   0.0277778
        k(   15) = (   0.0151880  -0.0964570   0.0000000), wk =   0.0277778
        k(   16) = (   0.0151880  -0.0789194   0.0000000), wk =   0.0277778
        k(   17) = (   0.0151880  -0.0613817   0.0000000), wk =   0.0277778
        k(   18) = (   0.0151880  -0.0438441   0.0000000), wk =   0.0277778
        k(   19) = (   0.0151880  -0.0263065   0.0000000), wk =   0.0277778
        k(   20) = (   0.0303761  -0.0175376   0.0000000), wk =   0.0277778
        k(   21) = (   0.0303761   0.0000000   0.0000000), wk =   0.0277778
        k(   22) = (   0.0303761   0.0175376   0.0000000), wk =   0.0277778
        k(   23) = (   0.0303761   0.0350753   0.0000000), wk =   0.0277778
        k(   24) = (   0.0303761   0.0526129   0.0000000), wk =   0.0277778
        k(   25) = (   0.0303761   0.0701506   0.0000000), wk =   0.0277778
        k(   26) = (   0.0303761  -0.1227635   0.0000000), wk =   0.0277778
        k(   27) = (   0.0303761  -0.1052259   0.0000000), wk =   0.0277778
        k(   28) = (   0.0303761  -0.0876882   0.0000000), wk =   0.0277778
        k(   29) = (   0.0303761  -0.0701506   0.0000000), wk =   0.0277778
        k(   30) = (   0.0303761  -0.0526129   0.0000000), wk =   0.0277778
        k(   31) = (   0.0303761  -0.0350753   0.0000000), wk =   0.0277778
        k(   32) = (   0.0455641  -0.0263065   0.0000000), wk =   0.0277778
        k(   33) = (   0.0455641  -0.0087688   0.0000000), wk =   0.0277778
        k(   34) = (   0.0455641   0.0087688   0.0000000), wk =   0.0277778
        k(   35) = (   0.0455641   0.0263065   0.0000000), wk =   0.0277778
        k(   36) = (   0.0455641   0.0438441   0.0000000), wk =   0.0277778
        k(   37) = (   0.0455641   0.0613817   0.0000000), wk =   0.0277778
        k(   38) = (   0.0455641  -0.1315323   0.0000000), wk =   0.0277778
        k(   39) = (   0.0455641  -0.1139947   0.0000000), wk =   0.0277778
        k(   40) = (   0.0455641  -0.0964570   0.0000000), wk =   0.0277778
        k(   41) = (   0.0455641  -0.0789194   0.0000000), wk =   0.0277778
        k(   42) = (   0.0455641  -0.0613817   0.0000000), wk =   0.0277778
        k(   43) = (   0.0455641  -0.0438441   0.0000000), wk =   0.0277778
        k(   44) = (   0.0607522  -0.0350753   0.0000000), wk =   0.0277778
        k(   45) = (   0.0607522  -0.0175376   0.0000000), wk =   0.0277778
        k(   46) = (   0.0607522   0.0000000   0.0000000), wk =   0.0277778
        k(   47) = (   0.0607522   0.0175376   0.0000000), wk =   0.0277778
        k(   48) = (   0.0607522   0.0350753   0.0000000), wk =   0.0277778
        k(   49) = (   0.0607522   0.0526129   0.0000000), wk =   0.0277778
        k(   50) = (   0.0607522  -0.1403011   0.0000000), wk =   0.0277778
        k(   51) = (   0.0607522  -0.1227635   0.0000000), wk =   0.0277778
        k(   52) = (   0.0607522  -0.1052259   0.0000000), wk =   0.0277778
        k(   53) = (   0.0607522  -0.0876882   0.0000000), wk =   0.0277778
        k(   54) = (   0.0607522  -0.0701506   0.0000000), wk =   0.0277778
        k(   55) = (   0.0607522  -0.0526129   0.0000000), wk =   0.0277778
        k(   56) = (   0.0759402  -0.0438441   0.0000000), wk =   0.0277778
        k(   57) = (   0.0759402  -0.0263065   0.0000000), wk =   0.0277778
        k(   58) = (   0.0759402  -0.0087688   0.0000000), wk =   0.0277778
        k(   59) = (   0.0759402   0.0087688   0.0000000), wk =   0.0277778
        k(   60) = (   0.0759402   0.0263065   0.0000000), wk =   0.0277778
        k(   61) = (   0.0759402   0.0438441   0.0000000), wk =   0.0277778
        k(   62) = (   0.0759402  -0.1490700   0.0000000), wk =   0.0277778
        k(   63) = (   0.0759402  -0.1315323   0.0000000), wk =   0.0277778
        k(   64) = (   0.0759402  -0.1139947   0.0000000), wk =   0.0277778
        k(   65) = (   0.0759402  -0.0964570   0.0000000), wk =   0.0277778
        k(   66) = (   0.0759402  -0.0789194   0.0000000), wk =   0.0277778
        k(   67) = (   0.0759402  -0.0613817   0.0000000), wk =   0.0277778
        k(   68) = (  -0.0911283   0.0526129   0.0000000), wk =   0.0138889
        k(   69) = (  -0.0911283   0.0701506   0.0000000), wk =   0.0277778
        k(   70) = (  -0.0911283   0.0876882   0.0000000), wk =   0.0277778
        k(   71) = (  -0.0911283   0.1052259   0.0000000), wk =   0.0277778
        k(   72) = (  -0.0911283   0.1227635   0.0000000), wk =   0.0277778
        k(   73) = (  -0.0911283   0.1403011   0.0000000), wk =   0.0277778
        k(   74) = (  -0.0911283  -0.0526129   0.0000000), wk =   0.0138889

     Dense  grid:   941313 G-vectors     FFT dimensions: (  80,  80, 360)

     Smooth grid:   238185 G-vectors     FFT dimensions: (  50,  50, 225)

     Estimated max dynamical RAM per process >     205.91 MB

     Estimated total dynamical RAM >       7.44 GB

     Initial potential from superposition of free atoms

     starting charge  179.99640, renormalised to  180.00000

     negative rho (up, down):  3.864E-04 0.000E+00


     %%%%%%%%%%%%%%%%%%%%%%%%%%%%%%%%%%%%%%%%%%%%%%%%%%%%%%%%%%%%%%%%%%%%%%%%
     %                                                                      %
     % You are using vdW-DF, which was implemented by the Thonhauser group. %
     % Please cite the following two papers that made this development      %
     % possible and the two reviews that describe the various versions:     %
     %                                                                      %
     %   T. Thonhauser et al., PRL 115, 136402 (2015).                      %
     %   T. Thonhauser et al., PRB 76, 125112 (2007).                       %
     %   K. Berland et al., Rep. Prog. Phys. 78, 066501 (2015).             %
     %   D.C. Langreth et al., J. Phys.: Condens. Matter 21, 084203 (2009). %
     %                                                                      %
     %                                                                      %
     % If you are calculating the stress with vdW-DF, please also cite:     %
     %                                                                      %
     %   R. Sabatini et al., J. Phys.: Condens. Matter 24, 424209 (2012).   %
     %                                                                      %
     %%%%%%%%%%%%%%%%%%%%%%%%%%%%%%%%%%%%%%%%%%%%%%%%%%%%%%%%%%%%%%%%%%%%%%%%



     Adding external electric field

     Computed dipole along edir(3) : 
        Dipole                0.0000 Ry au,          0.0000 Debye
        Dipole field          0.0000 Ry au, 

        Potential amp.       -0.0000 Ry
        Total length         45.1039 bohr

     Starting wfcs are  120 randomized atomic wfcs

     total cpu time spent up to now is       74.3 secs

     Self-consistent Calculation

     iteration #  1     ecut=    55.12 Ry     beta= 0.10
     Davidson diagonalization with overlap
     ethr =  1.00E-02,  avg # of iterations =  2.9

     negative rho (up, down):  2.840E-04 0.000E+00

     Adding external electric field

     Computed dipole along edir(3) : 
        Dipole               -0.1471 Ry au,         -0.3738 Debye
        Dipole field         -0.0004 Ry au, 

        Potential amp.        0.0387 Ry
        Total length         45.1039 bohr


     total cpu time spent up to now is      291.1 secs

     total energy              =   -2151.41605526 Ry
     estimated scf accuracy    <       2.06297390 Ry

     iteration #  2     ecut=    55.12 Ry     beta= 0.10
     Davidson diagonalization with overlap
     ethr =  1.15E-03,  avg # of iterations =  3.1

     negative rho (up, down):  2.547E-04 0.000E+00

     Adding external electric field

     Computed dipole along edir(3) : 
        Dipole                0.3526 Ry au,          0.8962 Debye
        Dipole field          0.0010 Ry au, 

        Potential amp.       -0.0928 Ry
        Total length         45.1039 bohr


     total cpu time spent up to now is      684.5 secs

     total energy              =   -2151.52016866 Ry
     estimated scf accuracy    <       1.53371598 Ry

     iteration #  3     ecut=    55.12 Ry     beta= 0.10
     Davidson diagonalization with overlap
     ethr =  8.52E-04,  avg # of iterations =  1.5

     negative rho (up, down):  2.432E-04 0.000E+00

     Adding external electric field

     Computed dipole along edir(3) : 
        Dipole               -0.0158 Ry au,         -0.0401 Debye
        Dipole field         -0.0000 Ry au, 

        Potential amp.        0.0042 Ry
        Total length         45.1039 bohr


     total cpu time spent up to now is     1018.8 secs

     total energy              =   -2151.50090243 Ry
     estimated scf accuracy    <       6.24246751 Ry

     iteration #  4     ecut=    55.12 Ry     beta= 0.10
     Davidson diagonalization with overlap
     ethr =  8.52E-04,  avg # of iterations =  1.0

     negative rho (up, down):  2.128E-04 0.000E+00

     Adding external electric field

     Computed dipole along edir(3) : 
        Dipole                0.0094 Ry au,          0.0238 Debye
        Dipole field          0.0000 Ry au, 

        Potential amp.       -0.0025 Ry
        Total length         45.1039 bohr


     total cpu time spent up to now is     1166.6 secs

     total energy              =   -2151.54139795 Ry
     estimated scf accuracy    <       0.28873707 Ry

     iteration #  5     ecut=    55.12 Ry     beta= 0.10
     Davidson diagonalization with overlap
     ethr =  1.60E-04,  avg # of iterations =  2.8

     negative rho (up, down):  2.929E-04 0.000E+00

     Adding external electric field

     Computed dipole along edir(3) : 
        Dipole                0.0400 Ry au,          0.1017 Debye
        Dipole field          0.0001 Ry au, 

        Potential amp.       -0.0105 Ry
        Total length         45.1039 bohr


     total cpu time spent up to now is     1348.6 secs

     total energy              =   -2151.54739972 Ry
     estimated scf accuracy    <       0.09700293 Ry

     iteration #  6     ecut=    55.12 Ry     beta= 0.10
     Davidson diagonalization with overlap
     ethr =  5.39E-05,  avg # of iterations =  4.4

     negative rho (up, down):  4.658E-04 0.000E+00

     Adding external electric field

     Computed dipole along edir(3) : 
        Dipole                0.0015 Ry au,          0.0037 Debye
        Dipole field          0.0000 Ry au, 

        Potential amp.       -0.0004 Ry
        Total length         45.1039 bohr


     total cpu time spent up to now is     1538.6 secs

     total energy              =   -2151.54633795 Ry
     estimated scf accuracy    <       0.08303867 Ry

     iteration #  7     ecut=    55.12 Ry     beta= 0.10
     Davidson diagonalization with overlap
     ethr =  4.61E-05,  avg # of iterations =  2.5

     negative rho (up, down):  5.072E-04 0.000E+00

     Adding external electric field

     Computed dipole along edir(3) : 
        Dipole                0.0195 Ry au,          0.0496 Debye
        Dipole field          0.0001 Ry au, 

        Potential amp.       -0.0051 Ry
        Total length         45.1039 bohr


     total cpu time spent up to now is     1722.2 secs

     total energy              =   -2151.55400660 Ry
     estimated scf accuracy    <       0.01229487 Ry

     iteration #  8     ecut=    55.12 Ry     beta= 0.10
     Davidson diagonalization with overlap
     c_bands:  1 eigenvalues not converged
     ethr =  6.83E-06,  avg # of iterations =  6.9

     negative rho (up, down):  5.735E-04 0.000E+00

     Adding external electric field

     Computed dipole along edir(3) : 
        Dipole                0.0194 Ry au,          0.0494 Debye
        Dipole field          0.0001 Ry au, 

        Potential amp.       -0.0051 Ry
        Total length         45.1039 bohr


     total cpu time spent up to now is     1944.9 secs

     total energy              =   -2151.55358278 Ry
     estimated scf accuracy    <       0.00398467 Ry

     iteration #  9     ecut=    55.12 Ry     beta= 0.10
     Davidson diagonalization with overlap
     ethr =  2.21E-06,  avg # of iterations =  5.0

     negative rho (up, down):  5.213E-04 0.000E+00

     Adding external electric field

     Computed dipole along edir(3) : 
        Dipole                0.0188 Ry au,          0.0478 Debye
        Dipole field          0.0001 Ry au, 

        Potential amp.       -0.0049 Ry
        Total length         45.1039 bohr


     total cpu time spent up to now is     2188.0 secs

     total energy              =   -2151.55458493 Ry
     estimated scf accuracy    <       0.00447498 Ry

     iteration # 10     ecut=    55.12 Ry     beta= 0.10
     Davidson diagonalization with overlap
     ethr =  2.21E-06,  avg # of iterations =  1.0

     negative rho (up, down):  4.638E-04 0.000E+00

     Adding external electric field

     Computed dipole along edir(3) : 
        Dipole                0.0165 Ry au,          0.0420 Debye
        Dipole field          0.0000 Ry au, 

        Potential amp.       -0.0044 Ry
        Total length         45.1039 bohr


     total cpu time spent up to now is     2335.8 secs

     total energy              =   -2151.55455933 Ry
     estimated scf accuracy    <       0.00062001 Ry

     iteration # 11     ecut=    55.12 Ry     beta= 0.10
     Davidson diagonalization with overlap
     ethr =  3.44E-07,  avg # of iterations =  3.8

     negative rho (up, down):  4.187E-04 0.000E+00

     Adding external electric field

     Computed dipole along edir(3) : 
        Dipole                0.0190 Ry au,          0.0483 Debye
        Dipole field          0.0001 Ry au, 

        Potential amp.       -0.0050 Ry
        Total length         45.1039 bohr


     total cpu time spent up to now is     2530.1 secs

     total energy              =   -2151.55464994 Ry
     estimated scf accuracy    <       0.00004367 Ry

     iteration # 12     ecut=    55.12 Ry     beta= 0.10
     Davidson diagonalization with overlap
     ethr =  2.43E-08,  avg # of iterations =  5.1

     negative rho (up, down):  3.806E-04 0.000E+00

     Adding external electric field

     Computed dipole along edir(3) : 
        Dipole                0.0178 Ry au,          0.0453 Debye
        Dipole field          0.0001 Ry au, 

        Potential amp.       -0.0047 Ry
        Total length         45.1039 bohr


     total cpu time spent up to now is     2780.4 secs

     total energy              =   -2151.55463272 Ry
     estimated scf accuracy    <       0.00018261 Ry

     iteration # 13     ecut=    55.12 Ry     beta= 0.10
     Davidson diagonalization with overlap
     ethr =  2.43E-08,  avg # of iterations =  3.4

     negative rho (up, down):  3.435E-04 0.000E+00

     Adding external electric field

     Computed dipole along edir(3) : 
        Dipole                0.0183 Ry au,          0.0466 Debye
        Dipole field          0.0001 Ry au, 

        Potential amp.       -0.0048 Ry
        Total length         45.1039 bohr


     total cpu time spent up to now is     2982.3 secs

     total energy              =   -2151.55464172 Ry
     estimated scf accuracy    <       0.00003619 Ry

     iteration # 14     ecut=    55.12 Ry     beta= 0.10
     Davidson diagonalization with overlap
     ethr =  2.01E-08,  avg # of iterations =  1.4

     negative rho (up, down):  3.111E-04 0.000E+00

     Adding external electric field

     Computed dipole along edir(3) : 
        Dipole                0.0185 Ry au,          0.0471 Debye
        Dipole field          0.0001 Ry au, 

        Potential amp.       -0.0049 Ry
        Total length         45.1039 bohr


     total cpu time spent up to now is     3205.2 secs

     total energy              =   -2151.55464042 Ry
     estimated scf accuracy    <       0.00001281 Ry

     iteration # 15     ecut=    55.12 Ry     beta= 0.10
     Davidson diagonalization with overlap
     ethr =  7.12E-09,  avg # of iterations =  3.0

     negative rho (up, down):  7.682E-05 0.000E+00

     Adding external electric field

     Computed dipole along edir(3) : 
        Dipole                0.0195 Ry au,          0.0497 Debye
        Dipole field          0.0001 Ry au, 

        Potential amp.       -0.0051 Ry
        Total length         45.1039 bohr


     total cpu time spent up to now is     3394.1 secs

     End of self-consistent calculation

          k = 0.0000 0.0000 0.0000 ( 29785 PWs)   bands (ev):

   -77.6786 -77.5873 -77.5873 -77.5872 -77.5560 -77.4879 -77.4852 -77.4852
   -77.4852 -77.4183 -77.4183 -77.4182 -39.9731 -39.9730 -39.9730 -39.8667
   -39.7637 -39.7637 -39.7637 -39.6185 -39.6185 -39.6185 -39.3927 -39.2789
   -39.2789 -39.2789 -39.2374 -39.2374 -39.2373 -39.2062 -39.2061 -39.2061
   -39.0345 -39.0345 -39.0345 -38.9588 -38.9588 -38.9406 -38.9403 -38.9403
   -38.9403 -38.8694 -38.8694 -38.8694 -38.7287 -38.7287 -38.6717 -38.6717
    -6.3688  -4.3523  -3.8379  -3.4964  -3.4964  -3.4964  -3.1555  -3.1555
    -3.1555  -2.4844  -2.4844  -2.4844  -2.2259  -2.2259  -2.2259  -0.6835
    -0.6835  -0.6835   0.4453   0.4453   0.4453   0.4944   0.8220   0.9657
     0.9657   1.4133   1.4133   1.4134   1.4357   1.4357   1.5561   1.5561
     1.5561   1.8014   1.8014   2.0962   3.1613   3.1613   3.1613   3.3280
     3.5299   3.5299   3.5299   4.1086   4.1086   4.6487   4.6487   4.6487
     4.6594   4.6594   5.0894   5.0894   5.0895   5.8951   5.8951   5.8951
     6.1467   6.1467   6.7816   6.7819

          k = 0.0000 0.0175 0.0000 ( 29789 PWs)   bands (ev):

   -77.6771 -77.5889 -77.5873 -77.5872 -77.5548 -77.4866 -77.4864 -77.4852
   -77.4852 -77.4195 -77.4183 -77.4182 -39.9645 -39.9645 -39.9586 -39.8617
   -39.7568 -39.7568 -39.7546 -39.6105 -39.6105 -39.6040 -39.3933 -39.2983
   -39.2900 -39.2900 -39.2384 -39.2384 -39.2231 -39.2021 -39.2018 -39.2018
   -39.0393 -39.0392 -39.0300 -38.9738 -38.9631 -38.9451 -38.9451 -38.9431
   -38.9367 -38.8780 -38.8780 -38.8661 -38.7428 -38.7323 -38.6869 -38.6751
    -6.2972  -4.2793  -3.7636  -3.4828  -3.4360  -3.4360  -3.1345  -3.1034
    -3.1034  -2.4605  -2.4447  -2.4447  -2.1897  -2.1501  -2.1501  -0.6745
    -0.6745  -0.6595   0.4169   0.4702   0.4737   0.4737   0.8013   0.9276
     1.0260   1.2272   1.2272   1.4312   1.4341   1.4799   1.4800   1.6415
     1.6415   1.7495   1.8648   2.0438   3.0348   3.0348   3.0563   3.2034
     3.4935   3.4935   3.5352   4.0260   4.0460   4.4001   4.4001   4.4076
     4.6849   4.7649   5.0273   5.1192   5.1192   5.7890   5.7890   5.8648
     6.1543   6.2995   6.4075   6.4076

          k = 0.0000 0.0351 0.0000 ( 29761 PWs)   bands (ev):

   -77.6726 -77.5935 -77.5873 -77.5872 -77.5512 -77.4899 -77.4852 -77.4852
   -77.4832 -77.4229 -77.4183 -77.4182 -39.9398 -39.9398 -39.9164 -39.8470
   -39.7373 -39.7373 -39.7301 -39.5874 -39.5874 -39.5613 -39.3962 -39.3275
   -39.3202 -39.3202 -39.2381 -39.2381 -39.2054 -39.1940 -39.1939 -39.1900
   -39.0544 -39.0543 -39.0167 -39.0149 -38.9758 -38.9581 -38.9581 -38.9542
   -38.9262 -38.9018 -38.9018 -38.8564 -38.7838 -38.7429 -38.7297 -38.6852
    -6.0871  -4.0669  -3.5469  -3.4604  -3.2616  -3.2616  -3.0700  -2.9540
    -2.9540  -2.3903  -2.3236  -2.3236  -2.0824  -1.9294  -1.9294  -0.6547
    -0.6547  -0.5910   0.2096   0.5338   0.5480   0.5480   0.6982   0.8075
     0.9246   0.9246   1.2040   1.2902   1.4230   1.4952   1.6048   1.6550
     1.6594   1.6594   1.8931   2.0538   2.7281   2.7281   2.7370   2.9098
     3.3541   3.3541   3.5463   3.7967   3.8177   3.8178   3.8741   3.9064
     4.7256   4.8490   5.0057   5.1384   5.1384   5.4993   5.4993   5.7336
     5.7464   5.7464   5.9193   6.1758

          k = 0.0000 0.0526 0.0000 ( 29727 PWs)   bands (ev):

   -77.6655 -77.6009 -77.5873 -77.5872 -77.5455 -77.4954 -77.4852 -77.4852
   -77.4777 -77.4285 -77.4183 -77.4182 -39.9020 -39.9020 -39.8497 -39.8235
   -39.7088 -39.7087 -39.7007 -39.5530 -39.5530 -39.4934 -39.4055 -39.3633
   -39.3633 -39.3451 -39.2339 -39.2339 -39.1940 -39.1870 -39.1870 -39.1708
   -39.0807 -39.0807 -39.0744 -38.9968 -38.9960 -38.9796 -38.9795 -38.9795
   -38.9318 -38.9318 -38.9095 -38.8480 -38.8408 -38.7903 -38.7597 -38.7011
    -5.7526  -3.7378  -3.4835  -3.2083  -2.9951  -2.9951  -2.9608  -2.7292
    -2.7292  -2.2801  -2.1209  -2.1209  -1.9078  -1.5848  -1.5848  -0.6380
    -0.6380  -0.4918  -0.0746   0.4026   0.4867   0.4867   0.5786   0.6901
     0.7580   0.7580   1.1148   1.3478   1.4892   1.5504   1.5504   1.5918
     1.6082   1.7207   1.7864   2.2323   2.3440   2.3441   2.3640   2.5905
     3.0105   3.0586   3.0586   3.1715   3.1715   3.5444   3.7445   3.7692
     4.5600   4.7451   4.8810   4.8810   5.0255   5.0422   5.0422   5.3173
     5.3942   5.4194   5.4195   5.8932

          k = 0.0000 0.0702 0.0000 ( 29771 PWs)   bands (ev):

   -77.6561 -77.6105 -77.5874 -77.5873 -77.5381 -77.5027 -77.4852 -77.4852
   -77.4705 -77.4357 -77.4183 -77.4183 -39.8573 -39.8573 -39.7930 -39.7653
   -39.6823 -39.6777 -39.6777 -39.5145 -39.5145 -39.4301 -39.4110 -39.4110
   -39.4055 -39.3341 -39.2248 -39.2248 -39.1851 -39.1822 -39.1821 -39.1458
   -39.1400 -39.1141 -39.1141 -39.0281 -39.0221 -39.0160 -39.0160 -38.9732
   -38.9518 -38.9518 -38.9332 -38.8877 -38.8489 -38.8206 -38.7817 -38.7217
    -5.3193  -3.6200  -3.3404  -2.8242  -2.7905  -2.6825  -2.6825  -2.4691
    -2.4691  -2.1484  -1.8502  -1.8502  -1.6708  -1.1833  -1.1833  -0.5980
    -0.5980  -0.4023  -0.3911   0.0263   0.1281   0.1281   0.5167   0.5762
     0.9154   0.9154   1.1366   1.1721   1.2891   1.2892   1.3843   1.6635
     1.7147   1.7947   1.8287   1.9736   1.9736   2.0053   2.1945   2.3158
     2.3158   2.3682   2.7876   2.9813   2.9813   3.4834   3.6911   3.7137
     4.0119   4.2798   4.2798   4.4561   4.7147   4.7147   4.7462   4.8925
     5.2998   5.3687   5.3687   5.6166

          k = 0.0000 0.0877 0.0000 ( 29782 PWs)   bands (ev):

   -77.6452 -77.6215 -77.5874 -77.5873 -77.5295 -77.5112 -77.4852 -77.4852
   -77.4622 -77.4442 -77.4183 -77.4183 -39.8171 -39.8170 -39.7582 -39.7039
   -39.6538 -39.6531 -39.6531 -39.4877 -39.4877 -39.4820 -39.4462 -39.4462
   -39.3105 -39.2845 -39.2126 -39.2126 -39.1964 -39.1786 -39.1786 -39.1683
   -39.1432 -39.1432 -39.1163 -39.1028 -39.0576 -39.0576 -39.0523 -39.0320
   -38.9601 -38.9600 -38.9480 -38.8911 -38.8622 -38.8073 -38.7969 -38.7457
    -4.8270  -3.9093  -2.9672  -2.7193  -2.3968  -2.3968  -2.3738  -2.2559
    -2.2559  -2.0477  -1.5619  -1.5619  -1.3786  -0.9408  -0.9408  -0.7133
    -0.4274  -0.4274  -0.4018  -0.3071  -0.1471  -0.1471   0.4880   0.5597
     0.9549   0.9575   0.9575   1.1485   1.1485   1.1651   1.2066   1.3111
     1.4595   1.4595   1.4919   1.7684   1.7848   1.7849   1.8464   1.9811
     2.3989   2.4371   2.9812   2.9812   3.2749   3.3125   3.3530   3.7463
     3.7468   3.7468   3.8157   4.1457   4.4136   4.4893   4.4893   4.6214
     4.7637   5.1581   5.3606   5.3607

          k = 0.0000-0.1052 0.0000 ( 29746 PWs)   bands (ev):

   -77.6334 -77.6333 -77.5874 -77.5873 -77.5204 -77.5203 -77.4852 -77.4852
   -77.4532 -77.4531 -77.4183 -77.4183 -39.7997 -39.7996 -39.7243 -39.7243
   -39.6437 -39.6437 -39.5628 -39.5627 -39.4883 -39.4882 -39.4495 -39.4495
   -39.2448 -39.2448 -39.2073 -39.2073 -39.1938 -39.1938 -39.1745 -39.1745
   -39.1553 -39.1553 -39.1209 -39.1209 -39.0845 -39.0844 -39.0780 -39.0780
   -38.9623 -38.9622 -38.9216 -38.9216 -38.8348 -38.8348 -38.7713 -38.7713
    -4.3330  -4.3330  -2.7429  -2.7429  -2.2338  -2.2338  -2.2153  -2.2153
    -2.0935  -2.0935  -1.4027  -1.4026  -1.0476  -1.0476  -0.8908  -0.8907
    -0.5110  -0.5110  -0.4478  -0.4478   0.0260   0.0260   0.5813   0.5813
     0.8739   0.8739   0.9499   0.9499   0.9788   0.9788   1.0736   1.0736
     1.3860   1.3860   1.5224   1.5224   1.5705   1.5705   1.9542   1.9542
     2.8115   2.8115   2.8767   2.8767   3.0951   3.0951   3.4539   3.4539
     3.9063   3.9064   3.9123   3.9124   4.0874   4.0874   4.4104   4.4105
     4.8704   4.8705   5.3601   5.3601

          k = 0.0152-0.0088 0.0000 ( 29789 PWs)   bands (ev):

   -77.6771 -77.5889 -77.5873 -77.5872 -77.5548 -77.4866 -77.4864 -77.4852
   -77.4852 -77.4195 -77.4183 -77.4182 -39.9645 -39.9645 -39.9586 -39.8617
   -39.7568 -39.7568 -39.7546 -39.6105 -39.6105 -39.6040 -39.3933 -39.2983
   -39.2900 -39.2900 -39.2384 -39.2384 -39.2231 -39.2021 -39.2018 -39.2018
   -39.0393 -39.0392 -39.0300 -38.9738 -38.9631 -38.9451 -38.9451 -38.9431
   -38.9367 -38.8780 -38.8780 -38.8661 -38.7428 -38.7323 -38.6869 -38.6751
    -6.2972  -4.2793  -3.7636  -3.4828  -3.4360  -3.4360  -3.1345  -3.1034
    -3.1034  -2.4605  -2.4447  -2.4447  -2.1897  -2.1501  -2.1501  -0.6745
    -0.6745  -0.6595   0.4169   0.4702   0.4737   0.4737   0.8013   0.9276
     1.0260   1.2272   1.2272   1.4312   1.4341   1.4799   1.4800   1.6415
     1.6415   1.7495   1.8648   2.0438   3.0348   3.0348   3.0563   3.2034
     3.4935   3.4935   3.5352   4.0260   4.0460   4.4001   4.4001   4.4076
     4.6849   4.7649   5.0273   5.1192   5.1192   5.7890   5.7890   5.8648
     6.1543   6.2995   6.4073   6.4074

          k = 0.0152 0.0088 0.0000 ( 29789 PWs)   bands (ev):

   -77.6771 -77.5889 -77.5873 -77.5872 -77.5548 -77.4866 -77.4864 -77.4852
   -77.4852 -77.4195 -77.4183 -77.4183 -39.9645 -39.9645 -39.9586 -39.8617
   -39.7568 -39.7568 -39.7546 -39.6105 -39.6105 -39.6040 -39.3933 -39.2983
   -39.2900 -39.2900 -39.2384 -39.2384 -39.2231 -39.2021 -39.2018 -39.2018
   -39.0393 -39.0392 -39.0300 -38.9738 -38.9631 -38.9451 -38.9451 -38.9431
   -38.9367 -38.8780 -38.8780 -38.8661 -38.7428 -38.7323 -38.6869 -38.6751
    -6.2972  -4.2793  -3.7636  -3.4828  -3.4360  -3.4360  -3.1345  -3.1034
    -3.1034  -2.4605  -2.4447  -2.4447  -2.1897  -2.1501  -2.1501  -0.6745
    -0.6745  -0.6595   0.4169   0.4703   0.4737   0.4737   0.8013   0.9276
     1.0260   1.2272   1.2272   1.4312   1.4341   1.4799   1.4800   1.6415
     1.6415   1.7495   1.8648   2.0438   3.0348   3.0348   3.0563   3.2034
     3.4935   3.4935   3.5352   4.0260   4.0459   4.4001   4.4001   4.4076
     4.6849   4.7649   5.0273   5.1192   5.1192   5.7890   5.7890   5.8648
     6.1543   6.2995   6.4073   6.4074

          k = 0.0152 0.0263 0.0000 ( 29767 PWs)   bands (ev):

   -77.6741 -77.5904 -77.5904 -77.5857 -77.5524 -77.4875 -77.4875 -77.4843
   -77.4840 -77.4206 -77.4206 -77.4171 -39.9532 -39.9364 -39.9364 -39.8518
   -39.7455 -39.7397 -39.7397 -39.6009 -39.5822 -39.5822 -39.3950 -39.3169
   -39.3169 -39.3084 -39.2458 -39.2199 -39.2199 -39.1979 -39.1942 -39.1942
   -39.0590 -39.0301 -39.0301 -39.0008 -38.9734 -38.9619 -38.9493 -38.9379
   -38.9379 -38.9057 -38.8712 -38.8712 -38.7701 -38.7401 -38.7150 -38.6823
    -6.1563  -4.1364  -3.6179  -3.4128  -3.4128  -3.2768  -3.0615  -3.0615
    -2.9730  -2.3967  -2.3967  -2.3475  -2.0796  -2.0796  -1.9635  -0.6740
    -0.6299  -0.6299   0.2756   0.5174   0.5175   0.5311   0.7449   0.8387
     0.9396   1.1462   1.1855   1.1855   1.4292   1.5555   1.5863   1.5863
     1.6757   1.6904   1.9490   1.9929   2.8006   2.8401   2.8402   2.9956
     3.3945   3.4769   3.4769   3.8692   3.9724   3.9724   3.9972   4.0235
     4.7252   4.9163   4.9874   4.9874   5.2274   5.5455   5.7146   5.7146
     5.9386   5.9667   5.9667   6.1711

          k = 0.0152 0.0438 0.0000 ( 29762 PWs)   bands (ev):

   -77.6683 -77.5964 -77.5918 -77.5844 -77.5477 -77.4921 -77.4885 -77.4830
   -77.4799 -77.4252 -77.4216 -77.4161 -39.9260 -39.9005 -39.8823 -39.8327
   -39.7217 -39.7156 -39.7118 -39.5769 -39.5479 -39.5274 -39.4010 -39.3537
   -39.3429 -39.3417 -39.2403 -39.2205 -39.2017 -39.1938 -39.1863 -39.1823
   -39.0898 -39.0494 -39.0407 -39.0130 -38.9951 -38.9868 -38.9638 -38.9471
   -38.9413 -38.9240 -38.8906 -38.8581 -38.8223 -38.7683 -38.7520 -38.6962
    -5.8835  -3.8640  -3.4044  -3.3387  -3.2363  -3.0258  -2.9746  -2.8937
    -2.7576  -2.3039  -2.2528  -2.1647  -1.9413  -1.8290  -1.6499  -0.6692
    -0.5993  -0.5478   0.0349   0.5321   0.5572   0.5666   0.5839   0.6679
     0.7140   0.9004   1.0785   1.3770   1.4008   1.5625   1.5804   1.6011
     1.6095   1.6728   1.8673   2.2482   2.4329   2.4631   2.4724   2.6956
     3.2163   3.2350   3.2668   3.3431   3.4517   3.4796   3.6719   3.9352
     4.7297   4.7629   4.8682   5.1376   5.1495   5.1831   5.2135   5.2966
     5.4419   5.5466   5.5713   6.2070

          k = 0.0152 0.0614 0.0000 ( 29762 PWs)   bands (ev):

   -77.6600 -77.6049 -77.5929 -77.5833 -77.5412 -77.4985 -77.4894 -77.4822
   -77.4735 -77.4315 -77.4225 -77.4152 -39.8861 -39.8560 -39.8068 -39.8056
   -39.6898 -39.6879 -39.6869 -39.5439 -39.5069 -39.4501 -39.4175 -39.4084
   -39.3757 -39.3470 -39.2325 -39.2168 -39.1925 -39.1894 -39.1804 -39.1625
   -39.1271 -39.1108 -39.0617 -39.0287 -39.0270 -38.9911 -38.9904 -38.9682
   -38.9652 -38.9144 -38.9044 -38.8971 -38.8395 -38.8257 -38.7735 -38.7155
    -5.4978  -3.4947  -3.4781  -2.9825  -2.9547  -2.8461  -2.7265  -2.6599
    -2.4757  -2.1760  -2.0321  -1.9054  -1.7399  -1.4591  -1.2710  -0.6519
    -0.5797  -0.4531  -0.2577   0.1892   0.2757   0.3159   0.5161   0.5694
     0.7822   0.9085   1.0664   1.2604   1.4005   1.4103   1.4256   1.5931
     1.6763   1.7620   1.9478   2.0114   2.0821   2.1331   2.4277   2.4719
     2.4727   2.6249   2.7725   3.0199   3.1204   3.4528   3.5256   3.9018
     4.2326   4.3031   4.6465   4.7198   4.7715   4.7971   4.9667   5.2012
     5.3504   5.3797   5.4398   5.7449

          k = 0.0152 0.0789 0.0000 ( 29759 PWs)   bands (ev):

   -77.6499 -77.6152 -77.5937 -77.5825 -77.5332 -77.5063 -77.4900 -77.4816
   -77.4658 -77.4393 -77.4231 -77.4147 -39.8413 -39.8119 -39.7728 -39.7215
   -39.6763 -39.6634 -39.6578 -39.5187 -39.4688 -39.4554 -39.4521 -39.4093
   -39.3580 -39.3175 -39.2236 -39.2086 -39.2020 -39.1796 -39.1736 -39.1706
   -39.1563 -39.1335 -39.0873 -39.0808 -39.0752 -39.0313 -38.9960 -38.9880
   -38.9821 -38.9651 -38.9287 -38.8804 -38.8744 -38.8166 -38.7983 -38.7389
    -5.0305  -3.6929  -3.0949  -2.7131  -2.7103  -2.5224  -2.4355  -2.4175
    -2.1801  -2.0429  -1.7496  -1.6111  -1.4814  -1.0587  -1.0388  -0.5620
    -0.5154  -0.4774  -0.4134  -0.1839  -0.0588  -0.0230   0.4282   0.4757
     0.9552   0.9885   1.0309   1.1171   1.1762   1.1823   1.2006   1.2881
     1.5684   1.6963   1.8028   1.8094   1.8782   1.9395   1.9985   2.0854
     2.2600   2.3440   2.9363   3.0147   3.1119   3.3310   3.5024   3.6036
     3.7553   3.9645   4.1343   4.2736   4.5181   4.7275   4.7586   4.7722
     5.0838   5.3190   5.3515   5.4880

          k = 0.0152-0.1140 0.0000 ( 29774 PWs)   bands (ev):

   -77.6385 -77.6267 -77.5941 -77.5821 -77.5243 -77.5152 -77.4903 -77.4813
   -77.4571 -77.4481 -77.4234 -77.4144 -39.8073 -39.7822 -39.7379 -39.7080
   -39.6490 -39.6381 -39.6109 -39.5281 -39.5225 -39.4542 -39.4527 -39.4245
   -39.2771 -39.2433 -39.2216 -39.2211 -39.2100 -39.2027 -39.1713 -39.1649
   -39.1565 -39.1539 -39.1082 -39.1047 -39.0991 -39.0956 -39.0591 -39.0248
   -38.9883 -38.9386 -38.9336 -38.9098 -38.8536 -38.8256 -38.7911 -38.7646
    -4.5292  -4.0591  -2.7799  -2.6576  -2.5202  -2.2562  -2.2108  -2.1495
    -2.0207  -1.9878  -1.4791  -1.3635  -1.1778  -0.9921  -0.9118  -0.8614
    -0.4827  -0.4740  -0.4565  -0.3856  -0.1397   0.0742   0.4760   0.5197
     0.6502   0.8321   0.8658   0.9965   1.0044   1.0217   1.0581   1.1597
     1.3873   1.3878   1.4688   1.6035   1.6777   1.6890   1.9851   2.0627
     2.5039   2.7496   2.9312   3.0623   3.0678   3.1807   3.3813   3.6325
     3.6468   3.6985   3.9088   4.1626   4.3292   4.3338   4.4697   4.6033
     4.8257   5.0452   5.3011   5.3567

          k = 0.0152-0.0965 0.0000 ( 29774 PWs)   bands (ev):

   -77.6385 -77.6267 -77.5941 -77.5821 -77.5243 -77.5152 -77.4903 -77.4813
   -77.4571 -77.4481 -77.4234 -77.4144 -39.8073 -39.7822 -39.7379 -39.7080
   -39.6490 -39.6381 -39.6109 -39.5281 -39.5225 -39.4542 -39.4527 -39.4245
   -39.2771 -39.2433 -39.2216 -39.2211 -39.2100 -39.2027 -39.1713 -39.1649
   -39.1565 -39.1539 -39.1082 -39.1047 -39.0991 -39.0956 -39.0591 -39.0248
   -38.9883 -38.9386 -38.9336 -38.9098 -38.8536 -38.8256 -38.7911 -38.7646
    -4.5292  -4.0591  -2.7799  -2.6576  -2.5202  -2.2562  -2.2108  -2.1495
    -2.0207  -1.9878  -1.4791  -1.3635  -1.1778  -0.9921  -0.9118  -0.8614
    -0.4827  -0.4740  -0.4565  -0.3856  -0.1397   0.0742   0.4760   0.5197
     0.6502   0.8321   0.8658   0.9965   1.0044   1.0218   1.0581   1.1597
     1.3873   1.3878   1.4688   1.6035   1.6777   1.6890   1.9851   2.0627
     2.5039   2.7496   2.9312   3.0623   3.0678   3.1807   3.3813   3.6325
     3.6468   3.6985   3.9088   4.1626   4.3292   4.3338   4.4697   4.6033
     4.8257   5.0452   5.3011   5.3567

          k = 0.0152-0.0789 0.0000 ( 29759 PWs)   bands (ev):

   -77.6499 -77.6152 -77.5937 -77.5825 -77.5332 -77.5063 -77.4900 -77.4816
   -77.4658 -77.4393 -77.4231 -77.4147 -39.8413 -39.8119 -39.7728 -39.7215
   -39.6763 -39.6634 -39.6578 -39.5187 -39.4688 -39.4554 -39.4521 -39.4093
   -39.3580 -39.3175 -39.2236 -39.2086 -39.2020 -39.1796 -39.1736 -39.1706
   -39.1563 -39.1335 -39.0873 -39.0807 -39.0752 -39.0313 -38.9960 -38.9880
   -38.9821 -38.9651 -38.9287 -38.8804 -38.8744 -38.8166 -38.7983 -38.7389
    -5.0305  -3.6929  -3.0949  -2.7131  -2.7103  -2.5224  -2.4355  -2.4175
    -2.1801  -2.0429  -1.7496  -1.6111  -1.4814  -1.0587  -1.0388  -0.5620
    -0.5154  -0.4774  -0.4134  -0.1839  -0.0588  -0.0230   0.4282   0.4757
     0.9552   0.9885   1.0309   1.1171   1.1762   1.1823   1.2006   1.2881
     1.5684   1.6963   1.8028   1.8094   1.8782   1.9395   1.9985   2.0854
     2.2600   2.3440   2.9363   3.0147   3.1119   3.3310   3.5024   3.6036
     3.7553   3.9645   4.1343   4.2736   4.5181   4.7275   4.7586   4.7722
     5.0838   5.3190   5.3515   5.4880

          k = 0.0152-0.0614 0.0000 ( 29762 PWs)   bands (ev):

   -77.6600 -77.6049 -77.5929 -77.5833 -77.5412 -77.4985 -77.4894 -77.4822
   -77.4735 -77.4315 -77.4225 -77.4152 -39.8861 -39.8560 -39.8068 -39.8056
   -39.6898 -39.6879 -39.6869 -39.5439 -39.5069 -39.4501 -39.4175 -39.4084
   -39.3757 -39.3470 -39.2325 -39.2168 -39.1925 -39.1894 -39.1804 -39.1625
   -39.1271 -39.1108 -39.0617 -39.0287 -39.0270 -38.9911 -38.9904 -38.9682
   -38.9652 -38.9144 -38.9044 -38.8971 -38.8395 -38.8257 -38.7735 -38.7155
    -5.4978  -3.4947  -3.4781  -2.9825  -2.9547  -2.8461  -2.7265  -2.6599
    -2.4757  -2.1760  -2.0321  -1.9054  -1.7399  -1.4591  -1.2710  -0.6519
    -0.5797  -0.4531  -0.2577   0.1892   0.2757   0.3159   0.5161   0.5694
     0.7822   0.9085   1.0664   1.2604   1.4005   1.4103   1.4256   1.5931
     1.6763   1.7621   1.9478   2.0114   2.0821   2.1331   2.4277   2.4719
     2.4727   2.6249   2.7725   3.0200   3.1204   3.4528   3.5256   3.9018
     4.2326   4.3031   4.6465   4.7198   4.7715   4.7971   4.9667   5.2012
     5.3504   5.3797   5.4398   5.7449

          k = 0.0152-0.0438 0.0000 ( 29762 PWs)   bands (ev):

   -77.6683 -77.5964 -77.5918 -77.5844 -77.5477 -77.4921 -77.4885 -77.4830
   -77.4799 -77.4252 -77.4216 -77.4161 -39.9260 -39.9005 -39.8823 -39.8327
   -39.7217 -39.7156 -39.7118 -39.5769 -39.5479 -39.5274 -39.4010 -39.3537
   -39.3429 -39.3417 -39.2403 -39.2205 -39.2017 -39.1938 -39.1863 -39.1823
   -39.0898 -39.0494 -39.0407 -39.0130 -38.9951 -38.9868 -38.9638 -38.9471
   -38.9413 -38.9240 -38.8906 -38.8581 -38.8223 -38.7683 -38.7520 -38.6962
    -5.8835  -3.8640  -3.4044  -3.3387  -3.2363  -3.0258  -2.9746  -2.8937
    -2.7576  -2.3039  -2.2528  -2.1648  -1.9413  -1.8290  -1.6499  -0.6692
    -0.5993  -0.5478   0.0349   0.5321   0.5572   0.5666   0.5839   0.6679
     0.7140   0.9004   1.0785   1.3770   1.4008   1.5625   1.5804   1.6010
     1.6095   1.6728   1.8673   2.2482   2.4329   2.4631   2.4724   2.6956
     3.2163   3.2350   3.2668   3.3431   3.4517   3.4796   3.6719   3.9352
     4.7297   4.7629   4.8682   5.1376   5.1495   5.1831   5.2135   5.2966
     5.4419   5.5466   5.5713   6.2071

          k = 0.0152-0.0263 0.0000 ( 29767 PWs)   bands (ev):

   -77.6741 -77.5904 -77.5904 -77.5857 -77.5524 -77.4875 -77.4875 -77.4843
   -77.4840 -77.4206 -77.4206 -77.4171 -39.9532 -39.9364 -39.9363 -39.8518
   -39.7455 -39.7397 -39.7397 -39.6009 -39.5822 -39.5822 -39.3950 -39.3169
   -39.3169 -39.3084 -39.2458 -39.2199 -39.2199 -39.1979 -39.1942 -39.1942
   -39.0590 -39.0301 -39.0301 -39.0008 -38.9734 -38.9619 -38.9493 -38.9379
   -38.9379 -38.9057 -38.8712 -38.8712 -38.7701 -38.7401 -38.7150 -38.6823
    -6.1563  -4.1364  -3.6179  -3.4128  -3.4128  -3.2768  -3.0615  -3.0615
    -2.9730  -2.3967  -2.3967  -2.3475  -2.0796  -2.0796  -1.9635  -0.6740
    -0.6299  -0.6299   0.2756   0.5174   0.5175   0.5311   0.7449   0.8387
     0.9396   1.1462   1.1855   1.1855   1.4292   1.5555   1.5863   1.5863
     1.6757   1.6904   1.9490   1.9929   2.8006   2.8401   2.8402   2.9956
     3.3945   3.4769   3.4769   3.8692   3.9724   3.9724   3.9972   4.0235
     4.7252   4.9163   4.9874   4.9874   5.2274   5.5455   5.7146   5.7146
     5.9386   5.9666   5.9667   6.1711

          k = 0.0304-0.0175 0.0000 ( 29761 PWs)   bands (ev):

   -77.6726 -77.5935 -77.5873 -77.5872 -77.5512 -77.4899 -77.4852 -77.4852
   -77.4832 -77.4229 -77.4183 -77.4182 -39.9398 -39.9398 -39.9164 -39.8470
   -39.7373 -39.7373 -39.7301 -39.5874 -39.5874 -39.5613 -39.3962 -39.3275
   -39.3202 -39.3202 -39.2381 -39.2381 -39.2054 -39.1940 -39.1939 -39.1900
   -39.0544 -39.0543 -39.0167 -39.0149 -38.9758 -38.9581 -38.9581 -38.9542
   -38.9262 -38.9018 -38.9018 -38.8564 -38.7838 -38.7429 -38.7297 -38.6852
    -6.0871  -4.0669  -3.5469  -3.4604  -3.2616  -3.2616  -3.0700  -2.9540
    -2.9540  -2.3903  -2.3236  -2.3236  -2.0824  -1.9294  -1.9294  -0.6547
    -0.6547  -0.5910   0.2096   0.5338   0.5480   0.5480   0.6982   0.8075
     0.9246   0.9246   1.2040   1.2902   1.4230   1.4952   1.6048   1.6550
     1.6594   1.6594   1.8931   2.0538   2.7281   2.7281   2.7370   2.9098
     3.3541   3.3541   3.5463   3.7967   3.8177   3.8178   3.8741   3.9064
     4.7256   4.8490   5.0057   5.1384   5.1384   5.4993   5.4993   5.7336
     5.7464   5.7464   5.9192   6.1758

          k = 0.0304 0.0000 0.0000 ( 29767 PWs)   bands (ev):

   -77.6741 -77.5904 -77.5904 -77.5857 -77.5524 -77.4875 -77.4875 -77.4843
   -77.4840 -77.4206 -77.4206 -77.4171 -39.9532 -39.9364 -39.9363 -39.8518
   -39.7455 -39.7397 -39.7397 -39.6009 -39.5822 -39.5822 -39.3950 -39.3169
   -39.3169 -39.3084 -39.2458 -39.2199 -39.2199 -39.1979 -39.1942 -39.1942
   -39.0590 -39.0301 -39.0301 -39.0008 -38.9734 -38.9619 -38.9493 -38.9379
   -38.9379 -38.9057 -38.8712 -38.8712 -38.7701 -38.7401 -38.7150 -38.6823
    -6.1563  -4.1364  -3.6179  -3.4128  -3.4128  -3.2768  -3.0615  -3.0615
    -2.9730  -2.3967  -2.3967  -2.3475  -2.0796  -2.0796  -1.9635  -0.6740
    -0.6299  -0.6299   0.2756   0.5174   0.5175   0.5311   0.7449   0.8387
     0.9396   1.1462   1.1855   1.1855   1.4292   1.5555   1.5863   1.5863
     1.6757   1.6904   1.9490   1.9929   2.8006   2.8401   2.8402   2.9956
     3.3945   3.4769   3.4769   3.8692   3.9724   3.9724   3.9972   4.0235
     4.7252   4.9163   4.9874   4.9874   5.2274   5.5455   5.7146   5.7146
     5.9386   5.9667   5.9667   6.1711

          k = 0.0304 0.0175 0.0000 ( 29761 PWs)   bands (ev):

   -77.6726 -77.5935 -77.5873 -77.5872 -77.5512 -77.4899 -77.4852 -77.4852
   -77.4832 -77.4229 -77.4183 -77.4182 -39.9398 -39.9398 -39.9164 -39.8470
   -39.7373 -39.7373 -39.7301 -39.5874 -39.5874 -39.5613 -39.3962 -39.3275
   -39.3202 -39.3202 -39.2381 -39.2381 -39.2054 -39.1939 -39.1939 -39.1900
   -39.0544 -39.0543 -39.0167 -39.0149 -38.9758 -38.9581 -38.9581 -38.9542
   -38.9262 -38.9018 -38.9018 -38.8564 -38.7838 -38.7429 -38.7297 -38.6852
    -6.0871  -4.0669  -3.5469  -3.4604  -3.2616  -3.2616  -3.0700  -2.9540
    -2.9540  -2.3903  -2.3236  -2.3236  -2.0824  -1.9294  -1.9294  -0.6547
    -0.6547  -0.5910   0.2096   0.5338   0.5480   0.5480   0.6982   0.8075
     0.9246   0.9246   1.2040   1.2902   1.4230   1.4952   1.6048   1.6550
     1.6594   1.6594   1.8931   2.0538   2.7281   2.7281   2.7370   2.9098
     3.3541   3.3541   3.5463   3.7967   3.8177   3.8178   3.8741   3.9064
     4.7256   4.8490   5.0057   5.1384   5.1384   5.4993   5.4993   5.7336
     5.7464   5.7464   5.9192   6.1759

          k = 0.0304 0.0351 0.0000 ( 29762 PWs)   bands (ev):

   -77.6683 -77.5964 -77.5918 -77.5844 -77.5477 -77.4921 -77.4885 -77.4830
   -77.4799 -77.4252 -77.4216 -77.4161 -39.9260 -39.9005 -39.8823 -39.8327
   -39.7217 -39.7156 -39.7118 -39.5769 -39.5479 -39.5274 -39.4010 -39.3537
   -39.3429 -39.3417 -39.2403 -39.2205 -39.2017 -39.1938 -39.1863 -39.1823
   -39.0898 -39.0494 -39.0407 -39.0130 -38.9951 -38.9868 -38.9638 -38.9471
   -38.9413 -38.9240 -38.8906 -38.8581 -38.8223 -38.7683 -38.7520 -38.6962
    -5.8835  -3.8640  -3.4044  -3.3387  -3.2363  -3.0258  -2.9746  -2.8937
    -2.7576  -2.3039  -2.2528  -2.1647  -1.9413  -1.8290  -1.6499  -0.6692
    -0.5993  -0.5479   0.0349   0.5321   0.5572   0.5666   0.5839   0.6679
     0.7140   0.9004   1.0786   1.3770   1.4008   1.5625   1.5804   1.6010
     1.6095   1.6728   1.8673   2.2482   2.4329   2.4631   2.4724   2.6956
     3.2163   3.2350   3.2668   3.3431   3.4517   3.4796   3.6719   3.9352
     4.7297   4.7629   4.8682   5.1376   5.1495   5.1831   5.2135   5.2966
     5.4419   5.5466   5.5713   6.2069

          k = 0.0304 0.0526 0.0000 ( 29784 PWs)   bands (ev):

   -77.6614 -77.5989 -77.5989 -77.5819 -77.5423 -77.4939 -77.4939 -77.4812
   -77.4746 -77.4270 -77.4270 -77.4142 -39.8960 -39.8384 -39.8384 -39.8099
   -39.6943 -39.6899 -39.6898 -39.5541 -39.4852 -39.4852 -39.4137 -39.4073
   -39.3580 -39.3580 -39.2338 -39.1984 -39.1984 -39.1979 -39.1780 -39.1779
   -39.1306 -39.0969 -39.0337 -39.0303 -39.0194 -39.0193 -38.9794 -38.9743
   -38.9299 -38.9299 -38.8848 -38.8729 -38.8729 -38.8154 -38.7709 -38.7152
    -5.5581  -3.5471  -3.2620  -3.2620  -3.0098  -2.7852  -2.7852  -2.7480
    -2.4772  -2.1381  -2.1381  -1.9226  -1.6667  -1.6667  -1.3021  -0.6698
    -0.5210  -0.5210  -0.2074   0.2676   0.3290   0.4496   0.4496   0.5334
     0.7352   0.9709   0.9709   1.3231   1.3416   1.4632   1.5108   1.5109
     1.6154   1.7409   2.0692   2.0812   2.0812   2.1790   2.4533   2.5402
     2.5402   2.5793   2.9528   3.0557   3.2999   3.2999   3.4599   3.9910
     4.2963   4.2963   4.7772   4.7772   4.8111   4.8850   5.1292   5.2954
     5.3215   5.3902   5.3903   6.2556

          k = 0.0304 0.0702 0.0000 ( 29759 PWs)   bands (ev):

   -77.6523 -77.6082 -77.6008 -77.5800 -77.5351 -77.5009 -77.4953 -77.4797
   -77.4676 -77.4340 -77.4284 -77.4128 -39.8537 -39.7919 -39.7804 -39.7596
   -39.6746 -39.6698 -39.6600 -39.5368 -39.4525 -39.4427 -39.4426 -39.4046
   -39.3759 -39.3473 -39.2382 -39.2106 -39.1946 -39.1857 -39.1714 -39.1599
   -39.1553 -39.1486 -39.0863 -39.0808 -39.0341 -39.0082 -38.9956 -38.9930
   -38.9660 -38.9446 -38.9077 -38.8911 -38.8614 -38.8501 -38.7957 -38.7393
    -5.1336  -3.4099  -3.1585  -3.0723  -2.6438  -2.5948  -2.5377  -2.4698
    -2.1408  -1.9917  -1.8986  -1.6284  -1.4493  -1.2807  -1.1108  -0.5253
    -0.5139  -0.4789  -0.4708  -0.0601   0.0847   0.1284   0.3006   0.3386
     0.8435   1.0540   1.0783   1.1114   1.1369   1.1533   1.1978   1.2818
     1.6768   1.7407   1.7784   1.8964   1.9837   2.0006   2.0149   2.2588
     2.3679   2.3776   2.9480   3.0307   3.1293   3.2583   3.3367   3.6762
     3.7072   4.1007   4.3983   4.4666   4.5648   4.8289   4.9804   5.1237
     5.2724   5.2910   5.4708   5.7389

          k = 0.0304-0.1228 0.0000 ( 29788 PWs)   bands (ev):

   -77.6417 -77.6189 -77.6020 -77.5789 -77.5269 -77.5091 -77.4963 -77.4789
   -77.4595 -77.4421 -77.4294 -77.4119 -39.8085 -39.7537 -39.7468 -39.6947
   -39.6574 -39.6565 -39.6305 -39.5623 -39.4963 -39.4470 -39.4169 -39.3852
   -39.3235 -39.2926 -39.2635 -39.2227 -39.1983 -39.1937 -39.1782 -39.1765
   -39.1590 -39.1451 -39.1185 -39.1129 -39.0746 -39.0492 -39.0322 -39.0088
   -38.9676 -38.9641 -38.9015 -38.9005 -38.8817 -38.8239 -38.8237 -38.7666
    -4.6463  -3.7146  -2.9017  -2.7844  -2.5322  -2.3108  -2.2108  -2.1646
    -1.8766  -1.8576  -1.6000  -1.3455  -1.1873  -1.1499  -0.9495  -0.7296
    -0.5535  -0.4545  -0.4086  -0.3800  -0.1565   0.1041   0.2680   0.2856
     0.6114   0.7838   0.8547   0.8966   0.9300   0.9867   1.0516   1.1413
     1.3495   1.3916   1.6098   1.7983   1.8223   1.8878   2.0519   2.1823
     2.2354   2.7546   2.9781   3.0189   3.0516   3.3129   3.3180   3.3538
     3.6208   3.9017   4.0803   4.3263   4.3531   4.8185   4.8456   4.8484
     5.0332   5.2151   5.2876   5.4774

          k = 0.0304-0.1052 0.0000 ( 29744 PWs)   bands (ev):

   -77.6304 -77.6303 -77.6024 -77.5784 -77.5180 -77.5180 -77.4966 -77.4786
   -77.4508 -77.4508 -77.4297 -77.4116 -39.7851 -39.7382 -39.7140 -39.7139
   -39.6521 -39.6231 -39.5796 -39.5735 -39.5735 -39.4341 -39.4168 -39.3797
   -39.2757 -39.2565 -39.2565 -39.2338 -39.2058 -39.2058 -39.1939 -39.1827
   -39.1528 -39.1528 -39.1521 -39.1203 -39.0767 -39.0766 -39.0546 -39.0135
   -38.9807 -38.9336 -38.9336 -38.9041 -38.8533 -38.8533 -38.7953 -38.7953
    -4.1497  -4.1497  -2.8312  -2.5541  -2.5541  -2.2151  -2.0625  -1.8709
    -1.8709  -1.8327  -1.3863  -1.2062  -1.1431  -0.9902  -0.9259  -0.9259
    -0.6421  -0.6421  -0.5004  -0.2633  -0.0965   0.3210   0.3214   0.3540
     0.3540   0.4310   0.6531   0.6531   0.7865   0.7865   1.1120   1.1447
     1.3813   1.4747   1.5630   1.6289   1.6289   1.7183   2.1588   2.1588
     2.5462   2.5462   3.0544   3.1080   3.1081   3.1697   3.1800   3.5951
     3.6366   3.6366   4.2569   4.2751   4.2751   4.6182   4.6182   4.7955
     5.0074   5.0074   5.1989   5.2905

          k = 0.0304-0.0877 0.0000 ( 29788 PWs)   bands (ev):

   -77.6417 -77.6189 -77.6020 -77.5789 -77.5269 -77.5091 -77.4963 -77.4789
   -77.4595 -77.4421 -77.4294 -77.4119 -39.8085 -39.7537 -39.7468 -39.6947
   -39.6574 -39.6565 -39.6305 -39.5623 -39.4963 -39.4470 -39.4169 -39.3852
   -39.3235 -39.2926 -39.2635 -39.2227 -39.1983 -39.1937 -39.1782 -39.1765
   -39.1590 -39.1451 -39.1185 -39.1129 -39.0746 -39.0492 -39.0322 -39.0088
   -38.9676 -38.9641 -38.9015 -38.9005 -38.8817 -38.8239 -38.8237 -38.7666
    -4.6463  -3.7146  -2.9017  -2.7844  -2.5322  -2.3108  -2.2108  -2.1646
    -1.8766  -1.8576  -1.6000  -1.3455  -1.1873  -1.1499  -0.9495  -0.7296
    -0.5535  -0.4545  -0.4086  -0.3800  -0.1565   0.1041   0.2680   0.2856
     0.6114   0.7838   0.8547   0.8966   0.9300   0.9867   1.0516   1.1413
     1.3495   1.3916   1.6098   1.7983   1.8223   1.8878   2.0519   2.1823
     2.2354   2.7546   2.9781   3.0189   3.0516   3.3129   3.3180   3.3538
     3.6208   3.9017   4.0803   4.3263   4.3531   4.8185   4.8456   4.8484
     5.0332   5.2151   5.2876   5.4774

          k = 0.0304-0.0702 0.0000 ( 29759 PWs)   bands (ev):

   -77.6523 -77.6082 -77.6008 -77.5800 -77.5351 -77.5009 -77.4953 -77.4797
   -77.4676 -77.4340 -77.4284 -77.4128 -39.8537 -39.7919 -39.7804 -39.7596
   -39.6746 -39.6698 -39.6600 -39.5368 -39.4525 -39.4427 -39.4426 -39.4046
   -39.3759 -39.3473 -39.2382 -39.2106 -39.1946 -39.1857 -39.1714 -39.1599
   -39.1553 -39.1486 -39.0863 -39.0808 -39.0341 -39.0082 -38.9956 -38.9930
   -38.9660 -38.9446 -38.9077 -38.8911 -38.8614 -38.8501 -38.7957 -38.7393
    -5.1336  -3.4099  -3.1585  -3.0723  -2.6438  -2.5948  -2.5377  -2.4698
    -2.1408  -1.9917  -1.8986  -1.6284  -1.4493  -1.2807  -1.1108  -0.5253
    -0.5139  -0.4789  -0.4708  -0.0601   0.0847   0.1284   0.3006   0.3386
     0.8435   1.0540   1.0783   1.1114   1.1369   1.1533   1.1978   1.2818
     1.6768   1.7407   1.7784   1.8964   1.9837   2.0006   2.0149   2.2588
     2.3679   2.3776   2.9480   3.0307   3.1293   3.2583   3.3367   3.6762
     3.7072   4.1007   4.3983   4.4666   4.5648   4.8289   4.9804   5.1237
     5.2724   5.2910   5.4708   5.7389

          k = 0.0304-0.0526 0.0000 ( 29784 PWs)   bands (ev):

   -77.6614 -77.5989 -77.5989 -77.5819 -77.5423 -77.4939 -77.4939 -77.4812
   -77.4746 -77.4270 -77.4270 -77.4142 -39.8960 -39.8384 -39.8384 -39.8099
   -39.6943 -39.6899 -39.6898 -39.5541 -39.4852 -39.4852 -39.4137 -39.4073
   -39.3580 -39.3580 -39.2339 -39.1984 -39.1984 -39.1979 -39.1779 -39.1779
   -39.1306 -39.0969 -39.0337 -39.0303 -39.0194 -39.0193 -38.9794 -38.9743
   -38.9299 -38.9299 -38.8848 -38.8729 -38.8729 -38.8154 -38.7709 -38.7152
    -5.5581  -3.5471  -3.2620  -3.2620  -3.0098  -2.7852  -2.7852  -2.7480
    -2.4772  -2.1381  -2.1381  -1.9226  -1.6667  -1.6667  -1.3021  -0.6698
    -0.5210  -0.5210  -0.2074   0.2676   0.3290   0.4496   0.4496   0.5334
     0.7352   0.9709   0.9709   1.3231   1.3416   1.4632   1.5108   1.5109
     1.6154   1.7409   2.0692   2.0812   2.0812   2.1790   2.4533   2.5402
     2.5402   2.5793   2.9528   3.0557   3.2999   3.2999   3.4599   3.9910
     4.2963   4.2963   4.7772   4.7772   4.8111   4.8850   5.1292   5.2954
     5.3215   5.3902   5.3903   6.2554

          k = 0.0304-0.0351 0.0000 ( 29762 PWs)   bands (ev):

   -77.6683 -77.5964 -77.5918 -77.5844 -77.5477 -77.4921 -77.4885 -77.4830
   -77.4799 -77.4252 -77.4216 -77.4161 -39.9260 -39.9005 -39.8823 -39.8327
   -39.7217 -39.7156 -39.7118 -39.5769 -39.5479 -39.5274 -39.4010 -39.3537
   -39.3429 -39.3417 -39.2403 -39.2205 -39.2017 -39.1938 -39.1863 -39.1823
   -39.0898 -39.0494 -39.0407 -39.0130 -38.9951 -38.9868 -38.9638 -38.9471
   -38.9413 -38.9240 -38.8906 -38.8581 -38.8223 -38.7683 -38.7520 -38.6962
    -5.8835  -3.8640  -3.4044  -3.3387  -3.2363  -3.0258  -2.9746  -2.8937
    -2.7576  -2.3039  -2.2528  -2.1648  -1.9413  -1.8290  -1.6499  -0.6692
    -0.5993  -0.5479   0.0349   0.5321   0.5572   0.5666   0.5839   0.6679
     0.7140   0.9004   1.0785   1.3770   1.4008   1.5625   1.5804   1.6010
     1.6095   1.6728   1.8673   2.2482   2.4329   2.4631   2.4724   2.6956
     3.2163   3.2350   3.2668   3.3431   3.4517   3.4796   3.6719   3.9352
     4.7297   4.7629   4.8682   5.1376   5.1495   5.1831   5.2135   5.2966
     5.4419   5.5466   5.5713   6.2069

          k = 0.0456-0.0263 0.0000 ( 29727 PWs)   bands (ev):

   -77.6655 -77.6009 -77.5873 -77.5872 -77.5455 -77.4954 -77.4852 -77.4852
   -77.4777 -77.4285 -77.4183 -77.4182 -39.9020 -39.9020 -39.8497 -39.8235
   -39.7087 -39.7087 -39.7007 -39.5530 -39.5530 -39.4934 -39.4055 -39.3633
   -39.3633 -39.3451 -39.2339 -39.2339 -39.1940 -39.1870 -39.1870 -39.1708
   -39.0807 -39.0807 -39.0744 -38.9968 -38.9960 -38.9796 -38.9795 -38.9795
   -38.9318 -38.9318 -38.9095 -38.8480 -38.8408 -38.7903 -38.7597 -38.7011
    -5.7526  -3.7378  -3.4835  -3.2083  -2.9951  -2.9951  -2.9608  -2.7292
    -2.7292  -2.2801  -2.1209  -2.1209  -1.9078  -1.5848  -1.5848  -0.6380
    -0.6380  -0.4918  -0.0746   0.4026   0.4867   0.4867   0.5786   0.6901
     0.7580   0.7580   1.1148   1.3478   1.4892   1.5504   1.5504   1.5918
     1.6082   1.7207   1.7864   2.2323   2.3440   2.3441   2.3640   2.5905
     3.0105   3.0586   3.0586   3.1715   3.1715   3.5444   3.7445   3.7692
     4.5600   4.7451   4.8810   4.8810   5.0255   5.0422   5.0422   5.3173
     5.3942   5.4194   5.4195   5.8931

          k = 0.0456-0.0088 0.0000 ( 29762 PWs)   bands (ev):

   -77.6683 -77.5964 -77.5918 -77.5844 -77.5477 -77.4921 -77.4885 -77.4830
   -77.4799 -77.4252 -77.4216 -77.4161 -39.9260 -39.9005 -39.8823 -39.8327
   -39.7217 -39.7156 -39.7118 -39.5769 -39.5479 -39.5274 -39.4010 -39.3537
   -39.3429 -39.3417 -39.2403 -39.2205 -39.2017 -39.1938 -39.1863 -39.1823
   -39.0898 -39.0494 -39.0407 -39.0130 -38.9951 -38.9868 -38.9638 -38.9471
   -38.9413 -38.9240 -38.8906 -38.8581 -38.8223 -38.7683 -38.7520 -38.6962
    -5.8835  -3.8640  -3.4044  -3.3387  -3.2363  -3.0258  -2.9746  -2.8937
    -2.7576  -2.3039  -2.2528  -2.1647  -1.9413  -1.8290  -1.6499  -0.6692
    -0.5993  -0.5479   0.0349   0.5321   0.5572   0.5666   0.5839   0.6679
     0.7140   0.9004   1.0786   1.3770   1.4008   1.5625   1.5804   1.6011
     1.6095   1.6728   1.8673   2.2482   2.4329   2.4631   2.4725   2.6956
     3.2163   3.2350   3.2668   3.3431   3.4517   3.4796   3.6719   3.9351
     4.7297   4.7629   4.8682   5.1376   5.1495   5.1831   5.2135   5.2966
     5.4419   5.5466   5.5713   6.2069

          k = 0.0456 0.0088 0.0000 ( 29762 PWs)   bands (ev):

   -77.6683 -77.5964 -77.5918 -77.5844 -77.5477 -77.4921 -77.4885 -77.4830
   -77.4799 -77.4252 -77.4216 -77.4161 -39.9260 -39.9005 -39.8823 -39.8327
   -39.7217 -39.7156 -39.7118 -39.5769 -39.5479 -39.5274 -39.4010 -39.3537
   -39.3429 -39.3417 -39.2403 -39.2205 -39.2017 -39.1938 -39.1863 -39.1823
   -39.0898 -39.0494 -39.0407 -39.0130 -38.9951 -38.9868 -38.9638 -38.9471
   -38.9413 -38.9240 -38.8906 -38.8581 -38.8223 -38.7683 -38.7520 -38.6962
    -5.8835  -3.8640  -3.4044  -3.3387  -3.2363  -3.0258  -2.9746  -2.8937
    -2.7576  -2.3039  -2.2528  -2.1647  -1.9413  -1.8290  -1.6499  -0.6692
    -0.5993  -0.5479   0.0349   0.5321   0.5572   0.5666   0.5839   0.6679
     0.7140   0.9004   1.0786   1.3770   1.4008   1.5625   1.5804   1.6010
     1.6095   1.6728   1.8673   2.2482   2.4329   2.4631   2.4725   2.6956
     3.2163   3.2350   3.2668   3.3431   3.4517   3.4796   3.6719   3.9352
     4.7297   4.7629   4.8682   5.1376   5.1495   5.1831   5.2135   5.2966
     5.4419   5.5466   5.5713   6.2075

          k = 0.0456 0.0263 0.0000 ( 29727 PWs)   bands (ev):

   -77.6655 -77.6009 -77.5873 -77.5872 -77.5455 -77.4954 -77.4852 -77.4852
   -77.4777 -77.4285 -77.4183 -77.4182 -39.9020 -39.9020 -39.8497 -39.8235
   -39.7088 -39.7087 -39.7007 -39.5530 -39.5530 -39.4934 -39.4055 -39.3633
   -39.3633 -39.3451 -39.2339 -39.2339 -39.1940 -39.1870 -39.1870 -39.1708
   -39.0807 -39.0807 -39.0744 -38.9968 -38.9960 -38.9796 -38.9795 -38.9795
   -38.9318 -38.9318 -38.9095 -38.8480 -38.8408 -38.7903 -38.7597 -38.7011
    -5.7526  -3.7378  -3.4835  -3.2083  -2.9951  -2.9951  -2.9608  -2.7292
    -2.7292  -2.2801  -2.1209  -2.1209  -1.9078  -1.5848  -1.5848  -0.6380
    -0.6380  -0.4918  -0.0746   0.4026   0.4867   0.4867   0.5786   0.6901
     0.7580   0.7580   1.1148   1.3478   1.4892   1.5504   1.5504   1.5918
     1.6082   1.7207   1.7864   2.2323   2.3441   2.3441   2.3640   2.5905
     3.0105   3.0586   3.0586   3.1715   3.1715   3.5444   3.7445   3.7692
     4.5600   4.7451   4.8810   4.8810   5.0255   5.0422   5.0422   5.3173
     5.3942   5.4194   5.4195   5.8931

          k = 0.0456 0.0438 0.0000 ( 29762 PWs)   bands (ev):

   -77.6600 -77.6049 -77.5929 -77.5833 -77.5412 -77.4985 -77.4894 -77.4822
   -77.4735 -77.4315 -77.4225 -77.4152 -39.8861 -39.8560 -39.8068 -39.8056
   -39.6898 -39.6879 -39.6869 -39.5439 -39.5069 -39.4501 -39.4175 -39.4084
   -39.3757 -39.3470 -39.2325 -39.2168 -39.1925 -39.1894 -39.1804 -39.1625
   -39.1271 -39.1108 -39.0617 -39.0287 -39.0270 -38.9911 -38.9904 -38.9682
   -38.9652 -38.9144 -38.9044 -38.8971 -38.8395 -38.8257 -38.7735 -38.7155
    -5.4978  -3.4947  -3.4781  -2.9825  -2.9547  -2.8461  -2.7265  -2.6599
    -2.4757  -2.1760  -2.0321  -1.9054  -1.7399  -1.4591  -1.2710  -0.6519
    -0.5797  -0.4531  -0.2577   0.1893   0.2757   0.3159   0.5161   0.5694
     0.7822   0.9085   1.0664   1.2604   1.4005   1.4103   1.4256   1.5931
     1.6763   1.7620   1.9478   2.0114   2.0821   2.1331   2.4277   2.4719
     2.4727   2.6249   2.7725   3.0199   3.1204   3.4528   3.5256   3.9018
     4.2326   4.3031   4.6465   4.7198   4.7715   4.7971   4.9667   5.2012
     5.3504   5.3797   5.4398   5.7449

          k = 0.0456 0.0614 0.0000 ( 29759 PWs)   bands (ev):

   -77.6523 -77.6082 -77.6008 -77.5800 -77.5351 -77.5009 -77.4953 -77.4797
   -77.4676 -77.4340 -77.4284 -77.4128 -39.8537 -39.7919 -39.7804 -39.7596
   -39.6746 -39.6698 -39.6600 -39.5368 -39.4525 -39.4427 -39.4426 -39.4046
   -39.3759 -39.3473 -39.2382 -39.2106 -39.1946 -39.1857 -39.1714 -39.1599
   -39.1553 -39.1486 -39.0863 -39.0808 -39.0341 -39.0082 -38.9956 -38.9930
   -38.9660 -38.9446 -38.9077 -38.8911 -38.8614 -38.8501 -38.7957 -38.7393
    -5.1336  -3.4099  -3.1585  -3.0723  -2.6438  -2.5948  -2.5377  -2.4698
    -2.1408  -1.9917  -1.8986  -1.6284  -1.4493  -1.2807  -1.1108  -0.5253
    -0.5139  -0.4789  -0.4708  -0.0601   0.0847   0.1284   0.3006   0.3386
     0.8435   1.0540   1.0783   1.1114   1.1369   1.1533   1.1978   1.2818
     1.6768   1.7407   1.7784   1.8964   1.9837   2.0006   2.0149   2.2588
     2.3679   2.3776   2.9480   3.0307   3.1293   3.2583   3.3367   3.6762
     3.7072   4.1007   4.3983   4.4666   4.5648   4.8289   4.9804   5.1237
     5.2724   5.2910   5.4708   5.7389

          k = 0.0456-0.1315 0.0000 ( 29784 PWs)   bands (ev):

   -77.6428 -77.6105 -77.6104 -77.5777 -77.5277 -77.5027 -77.5027 -77.4780
   -77.4604 -77.4358 -77.4357 -77.4111 -39.8081 -39.7499 -39.7165 -39.7165
   -39.6666 -39.6666 -39.6251 -39.5777 -39.4874 -39.4414 -39.3730 -39.3730
   -39.3408 -39.3408 -39.2810 -39.2306 -39.1870 -39.1870 -39.1838 -39.1762
   -39.1523 -39.1415 -39.1415 -39.1114 -39.0618 -39.0236 -39.0172 -39.0009
   -39.0009 -38.9189 -38.9189 -38.8956 -38.8636 -38.8636 -38.8248 -38.7689
    -4.6851  -3.3175  -3.3175  -2.7817  -2.4032  -2.4032  -2.2129  -2.1648
    -1.8132  -1.7328  -1.7328  -1.3345  -1.2334  -1.0589  -1.0589  -0.7151
    -0.5935  -0.5935  -0.3429  -0.2915   0.0608   0.0608   0.0846   0.1246
     0.7075   0.7075   0.7525   0.9193   0.9212   0.9800   0.9801   1.1778
     1.3497   1.3497   1.6526   1.9234   1.9243   2.0277   2.0277   2.0879
     2.2112   2.8302   3.0066   3.0244   3.0244   3.2053   3.2935   3.2935
     3.6042   4.0230   4.2990   4.2990   4.4014   4.8796   5.0044   5.1025
     5.1025   5.2188   5.4946   5.7944

          k = 0.0456-0.1140 0.0000 ( 29759 PWs)   bands (ev):

   -77.6322 -77.6212 -77.6117 -77.5765 -77.5194 -77.5109 -77.5036 -77.4771
   -77.4523 -77.4438 -77.4366 -77.4102 -39.7606 -39.7175 -39.6896 -39.6889
   -39.6638 -39.6345 -39.6290 -39.5973 -39.5520 -39.4061 -39.3694 -39.3227
   -39.3151 -39.3118 -39.2715 -39.2610 -39.2427 -39.1934 -39.1898 -39.1822
   -39.1793 -39.1465 -39.1289 -39.1154 -39.1013 -39.0608 -39.0309 -39.0063
   -38.9653 -38.9330 -38.9299 -38.8893 -38.8709 -38.8572 -38.8331 -38.8010
    -4.1915  -3.7109  -3.2515  -2.4697  -2.3452  -2.2283  -1.9672  -1.7516
    -1.6707  -1.6008  -1.4066  -1.4029  -1.0369  -1.0003  -0.9095  -0.8560
    -0.7855  -0.5257  -0.5085  -0.4379  -0.0799   0.0133   0.1294   0.2828
     0.4118   0.4505   0.4685   0.4849   0.5751   0.6919   1.0612   1.1563
     1.4119   1.4857   1.5828   1.5978   1.8420   1.9346   2.1120   2.1191
     2.3616   2.6541   2.8363   3.1559   3.1904   3.2013   3.2073   3.4109
     3.6692   3.9173   4.1667   4.2653   4.8011   4.9205   4.9614   4.9810
     5.0441   5.0893   5.1934   5.4820

          k = 0.0456-0.0965 0.0000 ( 29759 PWs)   bands (ev):

   -77.6322 -77.6212 -77.6117 -77.5765 -77.5194 -77.5109 -77.5036 -77.4771
   -77.4523 -77.4438 -77.4366 -77.4102 -39.7606 -39.7175 -39.6896 -39.6889
   -39.6638 -39.6345 -39.6290 -39.5973 -39.5520 -39.4061 -39.3694 -39.3227
   -39.3151 -39.3118 -39.2715 -39.2610 -39.2427 -39.1934 -39.1898 -39.1822
   -39.1793 -39.1465 -39.1289 -39.1154 -39.1013 -39.0608 -39.0309 -39.0063
   -38.9653 -38.9330 -38.9299 -38.8893 -38.8709 -38.8572 -38.8331 -38.8010
    -4.1915  -3.7109  -3.2515  -2.4697  -2.3452  -2.2283  -1.9672  -1.7516
    -1.6707  -1.6008  -1.4066  -1.4029  -1.0369  -1.0003  -0.9095  -0.8560
    -0.7855  -0.5257  -0.5085  -0.4379  -0.0799   0.0133   0.1294   0.2828
     0.4118   0.4505   0.4685   0.4849   0.5751   0.6919   1.0612   1.1563
     1.4119   1.4857   1.5828   1.5978   1.8420   1.9346   2.1120   2.1191
     2.3616   2.6541   2.8363   3.1559   3.1904   3.2013   3.2073   3.4109
     3.6692   3.9173   4.1667   4.2653   4.8011   4.9205   4.9614   4.9810
     5.0441   5.0893   5.1934   5.4820

          k = 0.0456-0.0789 0.0000 ( 29784 PWs)   bands (ev):

   -77.6428 -77.6105 -77.6104 -77.5777 -77.5277 -77.5027 -77.5027 -77.4780
   -77.4604 -77.4358 -77.4357 -77.4111 -39.8081 -39.7499 -39.7165 -39.7165
   -39.6666 -39.6666 -39.6251 -39.5777 -39.4874 -39.4414 -39.3730 -39.3730
   -39.3408 -39.3408 -39.2810 -39.2306 -39.1870 -39.1870 -39.1838 -39.1762
   -39.1523 -39.1415 -39.1415 -39.1114 -39.0618 -39.0236 -39.0172 -39.0009
   -39.0009 -38.9189 -38.9189 -38.8956 -38.8636 -38.8636 -38.8248 -38.7689
    -4.6851  -3.3175  -3.3175  -2.7817  -2.4032  -2.4032  -2.2129  -2.1648
    -1.8132  -1.7328  -1.7328  -1.3345  -1.2334  -1.0589  -1.0589  -0.7151
    -0.5935  -0.5935  -0.3429  -0.2915   0.0608   0.0608   0.0846   0.1246
     0.7075   0.7075   0.7525   0.9193   0.9212   0.9800   0.9800   1.1778
     1.3497   1.3497   1.6526   1.9234   1.9243   2.0277   2.0277   2.0879
     2.2112   2.8302   3.0066   3.0244   3.0244   3.2053   3.2935   3.2935
     3.6042   4.0230   4.2990   4.2990   4.4014   4.8796   5.0044   5.1025
     5.1025   5.2188   5.4946   5.7944

          k = 0.0456-0.0614 0.0000 ( 29759 PWs)   bands (ev):

   -77.6523 -77.6082 -77.6008 -77.5800 -77.5351 -77.5009 -77.4953 -77.4797
   -77.4676 -77.4340 -77.4284 -77.4128 -39.8537 -39.7919 -39.7804 -39.7596
   -39.6746 -39.6698 -39.6600 -39.5368 -39.4525 -39.4427 -39.4426 -39.4046
   -39.3759 -39.3473 -39.2382 -39.2106 -39.1946 -39.1857 -39.1714 -39.1599
   -39.1553 -39.1486 -39.0863 -39.0808 -39.0341 -39.0082 -38.9956 -38.9930
   -38.9660 -38.9446 -38.9077 -38.8911 -38.8614 -38.8501 -38.7957 -38.7393
    -5.1336  -3.4099  -3.1585  -3.0723  -2.6438  -2.5948  -2.5377  -2.4698
    -2.1408  -1.9917  -1.8986  -1.6284  -1.4493  -1.2807  -1.1108  -0.5253
    -0.5139  -0.4789  -0.4708  -0.0601   0.0847   0.1284   0.3006   0.3386
     0.8435   1.0540   1.0783   1.1114   1.1369   1.1533   1.1978   1.2818
     1.6768   1.7407   1.7784   1.8964   1.9837   2.0006   2.0149   2.2588
     2.3679   2.3776   2.9480   3.0307   3.1293   3.2583   3.3367   3.6762
     3.7072   4.1007   4.3983   4.4666   4.5648   4.8289   4.9804   5.1237
     5.2724   5.2910   5.4708   5.7389

          k = 0.0456-0.0438 0.0000 ( 29762 PWs)   bands (ev):

   -77.6600 -77.6049 -77.5929 -77.5833 -77.5412 -77.4985 -77.4894 -77.4822
   -77.4735 -77.4315 -77.4225 -77.4152 -39.8861 -39.8560 -39.8068 -39.8056
   -39.6898 -39.6879 -39.6869 -39.5439 -39.5069 -39.4501 -39.4175 -39.4084
   -39.3757 -39.3470 -39.2325 -39.2168 -39.1925 -39.1894 -39.1804 -39.1625
   -39.1271 -39.1108 -39.0617 -39.0287 -39.0270 -38.9911 -38.9904 -38.9682
   -38.9652 -38.9144 -38.9044 -38.8971 -38.8395 -38.8257 -38.7735 -38.7155
    -5.4978  -3.4947  -3.4781  -2.9825  -2.9547  -2.8461  -2.7265  -2.6599
    -2.4757  -2.1760  -2.0321  -1.9054  -1.7399  -1.4591  -1.2710  -0.6519
    -0.5797  -0.4531  -0.2577   0.1892   0.2757   0.3159   0.5161   0.5694
     0.7822   0.9085   1.0664   1.2604   1.4005   1.4103   1.4256   1.5931
     1.6763   1.7621   1.9478   2.0114   2.0821   2.1331   2.4277   2.4719
     2.4727   2.6249   2.7725   3.0200   3.1204   3.4528   3.5256   3.9018
     4.2326   4.3031   4.6465   4.7198   4.7715   4.7971   4.9667   5.2012
     5.3504   5.3797   5.4398   5.7449

          k = 0.0608-0.0351 0.0000 ( 29771 PWs)   bands (ev):

   -77.6561 -77.6105 -77.5874 -77.5873 -77.5381 -77.5027 -77.4852 -77.4852
   -77.4705 -77.4357 -77.4183 -77.4183 -39.8573 -39.8573 -39.7930 -39.7653
   -39.6823 -39.6777 -39.6777 -39.5145 -39.5145 -39.4301 -39.4110 -39.4110
   -39.4055 -39.3341 -39.2248 -39.2248 -39.1851 -39.1822 -39.1821 -39.1458
   -39.1400 -39.1141 -39.1141 -39.0281 -39.0221 -39.0160 -39.0160 -38.9732
   -38.9518 -38.9518 -38.9332 -38.8877 -38.8489 -38.8206 -38.7817 -38.7217
    -5.3193  -3.6200  -3.3404  -2.8242  -2.7905  -2.6825  -2.6825  -2.4691
    -2.4691  -2.1484  -1.8502  -1.8502  -1.6708  -1.1833  -1.1833  -0.5980
    -0.5980  -0.4023  -0.3911   0.0263   0.1281   0.1281   0.5168   0.5762
     0.9154   0.9154   1.1366   1.1721   1.2891   1.2892   1.3843   1.6635
     1.7147   1.7947   1.8287   1.9736   1.9736   2.0053   2.1945   2.3158
     2.3158   2.3682   2.7876   2.9813   2.9813   3.4834   3.6911   3.7137
     4.0119   4.2798   4.2798   4.4561   4.7147   4.7147   4.7462   4.8925
     5.2998   5.3687   5.3687   5.6166

          k = 0.0608-0.0175 0.0000 ( 29762 PWs)   bands (ev):

   -77.6600 -77.6049 -77.5929 -77.5833 -77.5412 -77.4985 -77.4894 -77.4822
   -77.4735 -77.4315 -77.4225 -77.4152 -39.8861 -39.8560 -39.8068 -39.8056
   -39.6898 -39.6879 -39.6869 -39.5439 -39.5069 -39.4501 -39.4175 -39.4084
   -39.3757 -39.3470 -39.2325 -39.2168 -39.1925 -39.1894 -39.1804 -39.1625
   -39.1271 -39.1108 -39.0617 -39.0287 -39.0270 -38.9911 -38.9904 -38.9682
   -38.9652 -38.9144 -38.9044 -38.8971 -38.8395 -38.8257 -38.7735 -38.7155
    -5.4978  -3.4947  -3.4781  -2.9825  -2.9547  -2.8461  -2.7265  -2.6599
    -2.4757  -2.1760  -2.0321  -1.9054  -1.7399  -1.4591  -1.2710  -0.6519
    -0.5797  -0.4531  -0.2577   0.1892   0.2757   0.3159   0.5161   0.5694
     0.7822   0.9085   1.0664   1.2604   1.4005   1.4103   1.4256   1.5931
     1.6763   1.7620   1.9478   2.0114   2.0821   2.1331   2.4277   2.4719
     2.4727   2.6249   2.7725   3.0199   3.1204   3.4528   3.5257   3.9018
     4.2326   4.3031   4.6465   4.7198   4.7715   4.7971   4.9667   5.2012
     5.3504   5.3797   5.4398   5.7449

          k = 0.0608 0.0000 0.0000 ( 29784 PWs)   bands (ev):

   -77.6614 -77.5990 -77.5989 -77.5819 -77.5423 -77.4939 -77.4939 -77.4812
   -77.4746 -77.4270 -77.4270 -77.4142 -39.8960 -39.8384 -39.8384 -39.8099
   -39.6943 -39.6899 -39.6898 -39.5541 -39.4852 -39.4852 -39.4137 -39.4073
   -39.3580 -39.3580 -39.2338 -39.1984 -39.1984 -39.1979 -39.1780 -39.1779
   -39.1306 -39.0969 -39.0337 -39.0303 -39.0194 -39.0193 -38.9794 -38.9743
   -38.9299 -38.9299 -38.8848 -38.8729 -38.8729 -38.8154 -38.7709 -38.7151
    -5.5581  -3.5471  -3.2620  -3.2620  -3.0098  -2.7852  -2.7852  -2.7480
    -2.4772  -2.1381  -2.1381  -1.9226  -1.6667  -1.6667  -1.3021  -0.6698
    -0.5210  -0.5210  -0.2074   0.2676   0.3290   0.4496   0.4496   0.5334
     0.7352   0.9709   0.9709   1.3230   1.3416   1.4632   1.5108   1.5109
     1.6154   1.7409   2.0692   2.0812   2.0812   2.1790   2.4533   2.5402
     2.5402   2.5793   2.9528   3.0557   3.2999   3.2999   3.4599   3.9910
     4.2963   4.2963   4.7772   4.7772   4.8111   4.8850   5.1292   5.2954
     5.3215   5.3902   5.3903   6.2554

          k = 0.0608 0.0175 0.0000 ( 29762 PWs)   bands (ev):

   -77.6600 -77.6049 -77.5929 -77.5833 -77.5412 -77.4985 -77.4894 -77.4822
   -77.4735 -77.4315 -77.4225 -77.4152 -39.8861 -39.8560 -39.8068 -39.8056
   -39.6898 -39.6879 -39.6869 -39.5439 -39.5069 -39.4501 -39.4175 -39.4084
   -39.3757 -39.3470 -39.2325 -39.2168 -39.1925 -39.1894 -39.1804 -39.1625
   -39.1271 -39.1108 -39.0617 -39.0287 -39.0270 -38.9911 -38.9904 -38.9682
   -38.9652 -38.9144 -38.9044 -38.8971 -38.8395 -38.8257 -38.7735 -38.7155
    -5.4978  -3.4947  -3.4781  -2.9825  -2.9547  -2.8461  -2.7265  -2.6599
    -2.4757  -2.1760  -2.0321  -1.9054  -1.7399  -1.4591  -1.2710  -0.6519
    -0.5797  -0.4531  -0.2577   0.1893   0.2757   0.3159   0.5161   0.5694
     0.7822   0.9085   1.0664   1.2604   1.4005   1.4103   1.4256   1.5931
     1.6763   1.7620   1.9478   2.0114   2.0821   2.1331   2.4277   2.4719
     2.4727   2.6249   2.7725   3.0199   3.1204   3.4528   3.5257   3.9018
     4.2326   4.3031   4.6465   4.7198   4.7715   4.7971   4.9667   5.2012
     5.3504   5.3797   5.4398   5.7449

          k = 0.0608 0.0351 0.0000 ( 29771 PWs)   bands (ev):

   -77.6561 -77.6105 -77.5874 -77.5873 -77.5381 -77.5027 -77.4852 -77.4852
   -77.4705 -77.4357 -77.4183 -77.4183 -39.8573 -39.8573 -39.7930 -39.7653
   -39.6823 -39.6777 -39.6777 -39.5145 -39.5145 -39.4301 -39.4110 -39.4110
   -39.4055 -39.3341 -39.2248 -39.2248 -39.1851 -39.1822 -39.1821 -39.1458
   -39.1400 -39.1141 -39.1141 -39.0281 -39.0221 -39.0160 -39.0160 -38.9732
   -38.9518 -38.9518 -38.9332 -38.8877 -38.8489 -38.8206 -38.7817 -38.7217
    -5.3193  -3.6200  -3.3404  -2.8242  -2.7905  -2.6825  -2.6825  -2.4691
    -2.4691  -2.1484  -1.8502  -1.8502  -1.6708  -1.1833  -1.1833  -0.5980
    -0.5980  -0.4023  -0.3911   0.0263   0.1281   0.1281   0.5168   0.5762
     0.9154   0.9154   1.1366   1.1721   1.2891   1.2892   1.3843   1.6635
     1.7147   1.7947   1.8287   1.9736   1.9736   2.0053   2.1945   2.3158
     2.3158   2.3682   2.7876   2.9813   2.9813   3.4834   3.6911   3.7137
     4.0119   4.2798   4.2798   4.4561   4.7147   4.7147   4.7462   4.8925
     5.2998   5.3687   5.3687   5.6166

          k = 0.0608 0.0526 0.0000 ( 29759 PWs)   bands (ev):

   -77.6499 -77.6152 -77.5937 -77.5825 -77.5332 -77.5063 -77.4900 -77.4816
   -77.4658 -77.4393 -77.4231 -77.4147 -39.8413 -39.8119 -39.7728 -39.7215
   -39.6763 -39.6634 -39.6578 -39.5187 -39.4688 -39.4554 -39.4521 -39.4093
   -39.3580 -39.3175 -39.2236 -39.2086 -39.2020 -39.1796 -39.1736 -39.1706
   -39.1563 -39.1335 -39.0873 -39.0807 -39.0752 -39.0313 -38.9960 -38.9880
   -38.9821 -38.9651 -38.9287 -38.8804 -38.8744 -38.8166 -38.7983 -38.7389
    -5.0305  -3.6929  -3.0949  -2.7131  -2.7103  -2.5224  -2.4355  -2.4175
    -2.1801  -2.0429  -1.7496  -1.6111  -1.4814  -1.0587  -1.0388  -0.5620
    -0.5154  -0.4774  -0.4134  -0.1839  -0.0588  -0.0230   0.4282   0.4757
     0.9552   0.9885   1.0309   1.1171   1.1762   1.1823   1.2006   1.2881
     1.5684   1.6963   1.8028   1.8094   1.8782   1.9395   1.9985   2.0854
     2.2600   2.3440   2.9363   3.0147   3.1119   3.3310   3.5024   3.6036
     3.7553   3.9645   4.1343   4.2736   4.5181   4.7275   4.7586   4.7722
     5.0838   5.3190   5.3515   5.4880

          k = 0.0608-0.1403 0.0000 ( 29788 PWs)   bands (ev):

   -77.6417 -77.6189 -77.6020 -77.5789 -77.5269 -77.5091 -77.4963 -77.4789
   -77.4595 -77.4421 -77.4294 -77.4119 -39.8085 -39.7537 -39.7468 -39.6947
   -39.6574 -39.6565 -39.6305 -39.5623 -39.4963 -39.4470 -39.4169 -39.3852
   -39.3235 -39.2926 -39.2635 -39.2227 -39.1983 -39.1937 -39.1782 -39.1765
   -39.1590 -39.1451 -39.1185 -39.1129 -39.0746 -39.0492 -39.0322 -39.0088
   -38.9676 -38.9641 -38.9015 -38.9005 -38.8817 -38.8239 -38.8237 -38.7666
    -4.6463  -3.7146  -2.9017  -2.7844  -2.5322  -2.3108  -2.2108  -2.1646
    -1.8766  -1.8576  -1.6000  -1.3455  -1.1873  -1.1499  -0.9495  -0.7296
    -0.5535  -0.4545  -0.4086  -0.3800  -0.1565   0.1041   0.2680   0.2856
     0.6114   0.7838   0.8547   0.8966   0.9300   0.9867   1.0516   1.1413
     1.3495   1.3916   1.6098   1.7983   1.8223   1.8878   2.0519   2.1823
     2.2354   2.7546   2.9781   3.0189   3.0516   3.3129   3.3180   3.3538
     3.6208   3.9017   4.0803   4.3263   4.3531   4.8185   4.8456   4.8484
     5.0332   5.2151   5.2876   5.4774

          k = 0.0608-0.1228 0.0000 ( 29759 PWs)   bands (ev):

   -77.6322 -77.6212 -77.6117 -77.5765 -77.5194 -77.5109 -77.5036 -77.4771
   -77.4523 -77.4438 -77.4366 -77.4102 -39.7606 -39.7175 -39.6896 -39.6889
   -39.6638 -39.6345 -39.6290 -39.5973 -39.5520 -39.4061 -39.3694 -39.3227
   -39.3151 -39.3118 -39.2715 -39.2610 -39.2427 -39.1934 -39.1898 -39.1822
   -39.1793 -39.1465 -39.1289 -39.1154 -39.1013 -39.0608 -39.0309 -39.0063
   -38.9653 -38.9329 -38.9299 -38.8893 -38.8709 -38.8572 -38.8331 -38.8010
    -4.1915  -3.7109  -3.2515  -2.4697  -2.3452  -2.2283  -1.9672  -1.7516
    -1.6707  -1.6008  -1.4066  -1.4029  -1.0369  -1.0003  -0.9095  -0.8560
    -0.7855  -0.5257  -0.5085  -0.4379  -0.0799   0.0133   0.1294   0.2828
     0.4118   0.4505   0.4685   0.4849   0.5751   0.6919   1.0612   1.1563
     1.4119   1.4857   1.5828   1.5978   1.8420   1.9346   2.1120   2.1191
     2.3616   2.6541   2.8363   3.1559   3.1904   3.2013   3.2073   3.4109
     3.6692   3.9173   4.1667   4.2653   4.8011   4.9205   4.9614   4.9810
     5.0441   5.0893   5.1934   5.4820

          k = 0.0608-0.1052 0.0000 ( 29754 PWs)   bands (ev):

   -77.6220 -77.6220 -77.6219 -77.5757 -77.5115 -77.5115 -77.5115 -77.4765
   -77.4445 -77.4445 -77.4444 -77.4095 -39.7044 -39.6967 -39.6890 -39.6890
   -39.6889 -39.6172 -39.6171 -39.6171 -39.5855 -39.3562 -39.3539 -39.3106
   -39.3093 -39.3093 -39.3093 -39.2476 -39.2476 -39.2476 -39.1847 -39.1847
   -39.1847 -39.1778 -39.1113 -39.0937 -39.0937 -39.0937 -39.0408 -38.9652
   -38.9652 -38.9652 -38.8949 -38.8949 -38.8949 -38.8370 -38.8370 -38.8370
    -3.7063  -3.7063  -3.7062  -2.2615  -2.2615  -2.2615  -1.7499  -1.6454
    -1.5815  -1.3580  -1.3579  -1.3579  -1.1263  -1.1263  -1.1263  -0.7697
    -0.7208  -0.4148  -0.4148  -0.4148  -0.1588  -0.1588  -0.1587   0.2179
     0.2179   0.2180   0.4842   0.4842   0.4843   0.6846   1.2035   1.2267
     1.2308   1.2421   1.7711   1.7711   1.7711   2.0127   2.0127   2.0127
     2.5623   2.5623   2.5624   3.1901   3.1901   3.1901   3.3617   3.5070
     3.8440   3.8440   3.8441   4.9707   4.9707   4.9707   5.0522   5.0546
     5.0546   5.0547   5.1341   5.4782

          k = 0.0608-0.0877 0.0000 ( 29759 PWs)   bands (ev):

   -77.6322 -77.6212 -77.6117 -77.5765 -77.5194 -77.5109 -77.5036 -77.4771
   -77.4523 -77.4438 -77.4366 -77.4102 -39.7606 -39.7175 -39.6896 -39.6889
   -39.6638 -39.6345 -39.6290 -39.5973 -39.5520 -39.4061 -39.3694 -39.3227
   -39.3151 -39.3118 -39.2715 -39.2610 -39.2427 -39.1934 -39.1898 -39.1822
   -39.1793 -39.1465 -39.1289 -39.1154 -39.1013 -39.0608 -39.0309 -39.0063
   -38.9653 -38.9330 -38.9299 -38.8893 -38.8709 -38.8572 -38.8331 -38.8010
    -4.1915  -3.7109  -3.2515  -2.4697  -2.3452  -2.2283  -1.9672  -1.7516
    -1.6707  -1.6008  -1.4066  -1.4029  -1.0369  -1.0003  -0.9095  -0.8560
    -0.7855  -0.5257  -0.5085  -0.4379  -0.0799   0.0133   0.1294   0.2828
     0.4118   0.4505   0.4685   0.4849   0.5751   0.6919   1.0612   1.1563
     1.4119   1.4857   1.5828   1.5978   1.8420   1.9346   2.1120   2.1191
     2.3616   2.6541   2.8363   3.1559   3.1904   3.2013   3.2073   3.4109
     3.6692   3.9173   4.1667   4.2653   4.8011   4.9205   4.9614   4.9810
     5.0441   5.0893   5.1934   5.4820

          k = 0.0608-0.0702 0.0000 ( 29788 PWs)   bands (ev):

[...]
   -38.9821 -38.9651 -38.9287 -38.8804 -38.8744 -38.8166 -38.7983 -38.7389
    -5.0305  -3.6929  -3.0949  -2.7131  -2.7103  -2.5224  -2.4355  -2.4175
    -2.1801  -2.0429  -1.7496  -1.6111  -1.4814  -1.0587  -1.0388  -0.5620
    -0.5154  -0.4774  -0.4134  -0.1839  -0.0588  -0.0230   0.4282   0.4757
     0.9552   0.9885   1.0309   1.1171   1.1762   1.1823   1.2006   1.2881
     1.5684   1.6963   1.8028   1.8094   1.8782   1.9395   1.9985   2.0854
     2.2600   2.3440   2.9363   3.0147   3.1119   3.3310   3.5024   3.6036
     3.7553   3.9645   4.1343   4.2736   4.5181   4.7275   4.7586   4.7722
     5.0838   5.3190   5.3515   5.4880

          k = 0.0759 0.0438 0.0000 ( 29782 PWs)   bands (ev):

   -77.6452 -77.6215 -77.5874 -77.5873 -77.5295 -77.5112 -77.4852 -77.4852
   -77.4622 -77.4442 -77.4183 -77.4183 -39.8171 -39.8170 -39.7582 -39.7039
   -39.6538 -39.6531 -39.6531 -39.4877 -39.4877 -39.4820 -39.4462 -39.4462
   -39.3105 -39.2845 -39.2126 -39.2126 -39.1964 -39.1786 -39.1786 -39.1683
   -39.1432 -39.1432 -39.1163 -39.1028 -39.0576 -39.0576 -39.0523 -39.0320
   -38.9601 -38.9600 -38.9480 -38.8911 -38.8622 -38.8073 -38.7969 -38.7457
    -4.8270  -3.9093  -2.9672  -2.7193  -2.3969  -2.3968  -2.3738  -2.2559
    -2.2559  -2.0477  -1.5619  -1.5619  -1.3786  -0.9408  -0.9408  -0.7133
    -0.4274  -0.4274  -0.4018  -0.3071  -0.1471  -0.1471   0.4881   0.5597
     0.9549   0.9575   0.9575   1.1485   1.1485   1.1651   1.2066   1.3111
     1.4595   1.4595   1.4919   1.7684   1.7848   1.7849   1.8464   1.9811
     2.3989   2.4371   2.9812   2.9812   3.2749   3.3125   3.3530   3.7464
     3.7468   3.7468   3.8157   4.1457   4.4136   4.4893   4.4893   4.6214
     4.7637   5.1581   5.3606   5.3607

          k = 0.0759-0.1491 0.0000 ( 29774 PWs)   bands (ev):

   -77.6385 -77.6267 -77.5941 -77.5821 -77.5243 -77.5152 -77.4903 -77.4813
   -77.4571 -77.4481 -77.4234 -77.4144 -39.8073 -39.7822 -39.7379 -39.7080
   -39.6490 -39.6381 -39.6109 -39.5281 -39.5225 -39.4542 -39.4527 -39.4245
   -39.2771 -39.2433 -39.2216 -39.2211 -39.2100 -39.2027 -39.1713 -39.1649
   -39.1565 -39.1539 -39.1082 -39.1047 -39.0991 -39.0956 -39.0591 -39.0248
   -38.9883 -38.9386 -38.9336 -38.9098 -38.8536 -38.8256 -38.7911 -38.7646
    -4.5292  -4.0591  -2.7799  -2.6576  -2.5202  -2.2562  -2.2108  -2.1495
    -2.0207  -1.9879  -1.4791  -1.3635  -1.1778  -0.9921  -0.9118  -0.8614
    -0.4827  -0.4740  -0.4565  -0.3856  -0.1397   0.0742   0.4760   0.5197
     0.6502   0.8321   0.8658   0.9965   1.0044   1.0217   1.0581   1.1597
     1.3873   1.3878   1.4688   1.6035   1.6777   1.6890   1.9851   2.0627
     2.5039   2.7496   2.9312   3.0623   3.0678   3.1807   3.3813   3.6325
     3.6468   3.6985   3.9088   4.1626   4.3292   4.3338   4.4697   4.6033
     4.8257   5.0452   5.3011   5.3567

          k = 0.0759-0.1315 0.0000 ( 29744 PWs)   bands (ev):

   -77.6304 -77.6303 -77.6024 -77.5784 -77.5180 -77.5180 -77.4966 -77.4786
   -77.4508 -77.4508 -77.4297 -77.4116 -39.7851 -39.7382 -39.7140 -39.7139
   -39.6521 -39.6231 -39.5796 -39.5735 -39.5735 -39.4341 -39.4168 -39.3797
   -39.2757 -39.2565 -39.2565 -39.2338 -39.2058 -39.2058 -39.1939 -39.1827
   -39.1528 -39.1528 -39.1521 -39.1203 -39.0767 -39.0766 -39.0546 -39.0135
   -38.9807 -38.9336 -38.9336 -38.9041 -38.8533 -38.8533 -38.7953 -38.7953
    -4.1497  -4.1497  -2.8312  -2.5541  -2.5541  -2.2151  -2.0625  -1.8709
    -1.8709  -1.8327  -1.3863  -1.2062  -1.1431  -0.9902  -0.9259  -0.9259
    -0.6421  -0.6421  -0.5004  -0.2633  -0.0965   0.3210   0.3214   0.3540
     0.3540   0.4310   0.6531   0.6531   0.7865   0.7865   1.1120   1.1447
     1.3813   1.4747   1.5630   1.6289   1.6289   1.7183   2.1588   2.1588
     2.5462   2.5462   3.0544   3.1080   3.1081   3.1697   3.1800   3.5951
     3.6366   3.6366   4.2569   4.2751   4.2751   4.6182   4.6182   4.7955
     5.0074   5.0074   5.1989   5.2905

          k = 0.0759-0.1140 0.0000 ( 29759 PWs)   bands (ev):

   -77.6322 -77.6212 -77.6117 -77.5765 -77.5194 -77.5109 -77.5036 -77.4771
   -77.4523 -77.4438 -77.4366 -77.4102 -39.7606 -39.7175 -39.6896 -39.6889
   -39.6638 -39.6345 -39.6290 -39.5973 -39.5520 -39.4061 -39.3694 -39.3227
   -39.3151 -39.3118 -39.2715 -39.2610 -39.2427 -39.1934 -39.1898 -39.1822
   -39.1793 -39.1465 -39.1289 -39.1154 -39.1013 -39.0608 -39.0309 -39.0063
   -38.9653 -38.9329 -38.9299 -38.8893 -38.8709 -38.8572 -38.8331 -38.8010
    -4.1915  -3.7109  -3.2515  -2.4697  -2.3452  -2.2283  -1.9672  -1.7516
    -1.6707  -1.6008  -1.4066  -1.4029  -1.0369  -1.0003  -0.9095  -0.8560
    -0.7855  -0.5257  -0.5085  -0.4379  -0.0799   0.0133   0.1294   0.2828
     0.4118   0.4505   0.4685   0.4849   0.5751   0.6919   1.0612   1.1563
     1.4119   1.4857   1.5828   1.5978   1.8420   1.9346   2.1120   2.1191
     2.3616   2.6541   2.8363   3.1559   3.1904   3.2013   3.2073   3.4109
     3.6692   3.9173   4.1667   4.2653   4.8011   4.9205   4.9614   4.9810
     5.0441   5.0893   5.1934   5.4820

          k = 0.0759-0.0965 0.0000 ( 29759 PWs)   bands (ev):

   -77.6322 -77.6212 -77.6117 -77.5765 -77.5194 -77.5109 -77.5036 -77.4771
   -77.4523 -77.4438 -77.4366 -77.4102 -39.7606 -39.7175 -39.6896 -39.6889
   -39.6638 -39.6345 -39.6290 -39.5973 -39.5520 -39.4061 -39.3694 -39.3227
   -39.3151 -39.3118 -39.2715 -39.2610 -39.2427 -39.1934 -39.1898 -39.1822
   -39.1793 -39.1465 -39.1289 -39.1154 -39.1013 -39.0608 -39.0309 -39.0063
   -38.9653 -38.9329 -38.9299 -38.8893 -38.8709 -38.8572 -38.8331 -38.8010
    -4.1915  -3.7109  -3.2515  -2.4697  -2.3452  -2.2283  -1.9672  -1.7516
    -1.6707  -1.6008  -1.4066  -1.4029  -1.0369  -1.0003  -0.9095  -0.8560
    -0.7855  -0.5257  -0.5085  -0.4379  -0.0799   0.0133   0.1294   0.2828
     0.4118   0.4505   0.4685   0.4849   0.5751   0.6919   1.0612   1.1563
     1.4119   1.4857   1.5828   1.5978   1.8420   1.9346   2.1120   2.1191
     2.3616   2.6541   2.8363   3.1559   3.1904   3.2013   3.2073   3.4109
     3.6692   3.9173   4.1667   4.2653   4.8011   4.9205   4.9614   4.9810
     5.0441   5.0893   5.1934   5.4820

          k = 0.0759-0.0789 0.0000 ( 29744 PWs)   bands (ev):

   -77.6304 -77.6303 -77.6024 -77.5784 -77.5180 -77.5180 -77.4966 -77.4786
   -77.4508 -77.4508 -77.4297 -77.4116 -39.7851 -39.7382 -39.7139 -39.7139
   -39.6521 -39.6231 -39.5796 -39.5735 -39.5735 -39.4341 -39.4168 -39.3797
   -39.2757 -39.2565 -39.2565 -39.2338 -39.2058 -39.2058 -39.1939 -39.1827
   -39.1528 -39.1528 -39.1521 -39.1203 -39.0767 -39.0766 -39.0546 -39.0135
   -38.9807 -38.9336 -38.9336 -38.9041 -38.8533 -38.8533 -38.7953 -38.7953
    -4.1497  -4.1497  -2.8312  -2.5541  -2.5541  -2.2151  -2.0625  -1.8709
    -1.8709  -1.8327  -1.3863  -1.2062  -1.1431  -0.9902  -0.9259  -0.9259
    -0.6421  -0.6421  -0.5004  -0.2633  -0.0965   0.3210   0.3214   0.3540
     0.3540   0.4310   0.6531   0.6531   0.7865   0.7865   1.1120   1.1447
     1.3813   1.4747   1.5630   1.6289   1.6289   1.7183   2.1588   2.1588
     2.5462   2.5462   3.0544   3.1080   3.1081   3.1697   3.1800   3.5951
     3.6366   3.6366   4.2569   4.2751   4.2751   4.6182   4.6183   4.7955
     5.0074   5.0074   5.1989   5.2905

          k = 0.0759-0.0614 0.0000 ( 29774 PWs)   bands (ev):

   -77.6385 -77.6267 -77.5941 -77.5821 -77.5243 -77.5152 -77.4903 -77.4813
   -77.4571 -77.4481 -77.4234 -77.4144 -39.8073 -39.7822 -39.7379 -39.7080
   -39.6490 -39.6381 -39.6109 -39.5281 -39.5225 -39.4542 -39.4527 -39.4245
   -39.2771 -39.2433 -39.2216 -39.2211 -39.2100 -39.2027 -39.1713 -39.1649
   -39.1565 -39.1539 -39.1082 -39.1047 -39.0991 -39.0956 -39.0591 -39.0248
   -38.9883 -38.9386 -38.9336 -38.9098 -38.8536 -38.8256 -38.7911 -38.7646
    -4.5292  -4.0591  -2.7799  -2.6576  -2.5202  -2.2562  -2.2108  -2.1495
    -2.0207  -1.9878  -1.4791  -1.3635  -1.1778  -0.9921  -0.9118  -0.8614
    -0.4827  -0.4740  -0.4565  -0.3856  -0.1397   0.0742   0.4760   0.5197
     0.6502   0.8321   0.8658   0.9965   1.0044   1.0218   1.0581   1.1597
     1.3873   1.3878   1.4688   1.6035   1.6777   1.6890   1.9851   2.0627
     2.5039   2.7496   2.9312   3.0623   3.0678   3.1807   3.3813   3.6325
     3.6468   3.6985   3.9088   4.1626   4.3292   4.3338   4.4697   4.6033
     4.8257   5.0452   5.3011   5.3567

          k =-0.0911 0.0526 0.0000 ( 29746 PWs)   bands (ev):

   -77.6334 -77.6334 -77.5874 -77.5873 -77.5204 -77.5203 -77.4852 -77.4852
   -77.4532 -77.4531 -77.4183 -77.4183 -39.7997 -39.7996 -39.7243 -39.7243
   -39.6437 -39.6437 -39.5628 -39.5627 -39.4883 -39.4882 -39.4495 -39.4495
   -39.2448 -39.2448 -39.2073 -39.2073 -39.1938 -39.1938 -39.1745 -39.1745
   -39.1553 -39.1553 -39.1209 -39.1209 -39.0845 -39.0844 -39.0780 -39.0780
   -38.9623 -38.9622 -38.9216 -38.9216 -38.8348 -38.8348 -38.7713 -38.7713
    -4.3330  -4.3330  -2.7429  -2.7429  -2.2338  -2.2338  -2.2153  -2.2153
    -2.0935  -2.0935  -1.4026  -1.4026  -1.0476  -1.0476  -0.8907  -0.8907
    -0.5110  -0.5109  -0.4478  -0.4478   0.0260   0.0260   0.5813   0.5813
     0.8739   0.8739   0.9499   0.9499   0.9788   0.9788   1.0736   1.0736
     1.3860   1.3860   1.5224   1.5224   1.5705   1.5705   1.9542   1.9542
     2.8115   2.8115   2.8767   2.8767   3.0951   3.0951   3.4539   3.4539
     3.9063   3.9064   3.9123   3.9124   4.0874   4.0874   4.4104   4.4105
     4.8704   4.8704   5.3601   5.3601

          k =-0.0911 0.0702 0.0000 ( 29774 PWs)   bands (ev):

   -77.6385 -77.6267 -77.5941 -77.5821 -77.5243 -77.5152 -77.4903 -77.4813
   -77.4571 -77.4481 -77.4234 -77.4144 -39.8073 -39.7822 -39.7379 -39.7080
   -39.6490 -39.6381 -39.6109 -39.5281 -39.5225 -39.4542 -39.4527 -39.4245
   -39.2771 -39.2433 -39.2216 -39.2211 -39.2100 -39.2027 -39.1713 -39.1649
   -39.1565 -39.1539 -39.1082 -39.1047 -39.0991 -39.0956 -39.0591 -39.0248
   -38.9883 -38.9386 -38.9336 -38.9098 -38.8536 -38.8256 -38.7911 -38.7646
    -4.5292  -4.0591  -2.7799  -2.6576  -2.5202  -2.2562  -2.2108  -2.1495
    -2.0207  -1.9878  -1.4791  -1.3635  -1.1778  -0.9921  -0.9118  -0.8614
    -0.4827  -0.4740  -0.4565  -0.3856  -0.1397   0.0742   0.4760   0.5197
     0.6502   0.8321   0.8658   0.9965   1.0044   1.0217   1.0581   1.1597
     1.3873   1.3878   1.4688   1.6035   1.6777   1.6890   1.9851   2.0627
     2.5039   2.7496   2.9312   3.0623   3.0678   3.1807   3.3813   3.6325
     3.6468   3.6985   3.9088   4.1626   4.3292   4.3338   4.4697   4.6033
     4.8257   5.0452   5.3011   5.3567

          k =-0.0911 0.0877 0.0000 ( 29788 PWs)   bands (ev):

   -77.6417 -77.6189 -77.6020 -77.5789 -77.5269 -77.5091 -77.4963 -77.4789
   -77.4595 -77.4421 -77.4294 -77.4119 -39.8085 -39.7537 -39.7468 -39.6947
   -39.6574 -39.6565 -39.6305 -39.5623 -39.4963 -39.4470 -39.4169 -39.3852
   -39.3235 -39.2926 -39.2635 -39.2227 -39.1983 -39.1937 -39.1782 -39.1765
   -39.1590 -39.1451 -39.1185 -39.1129 -39.0746 -39.0492 -39.0322 -39.0088
   -38.9676 -38.9641 -38.9015 -38.9005 -38.8817 -38.8239 -38.8237 -38.7666
    -4.6463  -3.7146  -2.9017  -2.7844  -2.5322  -2.3108  -2.2108  -2.1646
    -1.8766  -1.8576  -1.6000  -1.3455  -1.1873  -1.1499  -0.9495  -0.7296
    -0.5535  -0.4545  -0.4086  -0.3800  -0.1565   0.1041   0.2680   0.2856
     0.6114   0.7838   0.8547   0.8966   0.9300   0.9867   1.0516   1.1413
     1.3495   1.3916   1.6098   1.7983   1.8223   1.8878   2.0519   2.1823
     2.2354   2.7546   2.9781   3.0189   3.0516   3.3129   3.3180   3.3538
     3.6208   3.9017   4.0803   4.3263   4.3531   4.8185   4.8456   4.8484
     5.0332   5.2151   5.2876   5.4774

          k =-0.0911 0.1052 0.0000 ( 29784 PWs)   bands (ev):

   -77.6428 -77.6105 -77.6104 -77.5777 -77.5277 -77.5027 -77.5027 -77.4780
   -77.4604 -77.4358 -77.4357 -77.4111 -39.8081 -39.7499 -39.7165 -39.7165
   -39.6666 -39.6666 -39.6251 -39.5777 -39.4874 -39.4414 -39.3730 -39.3730
   -39.3408 -39.3408 -39.2810 -39.2306 -39.1870 -39.1870 -39.1838 -39.1762
   -39.1523 -39.1415 -39.1415 -39.1114 -39.0618 -39.0236 -39.0172 -39.0009
   -39.0009 -38.9189 -38.9189 -38.8956 -38.8636 -38.8636 -38.8248 -38.7689
    -4.6851  -3.3175  -3.3175  -2.7817  -2.4032  -2.4032  -2.2129  -2.1648
    -1.8132  -1.7328  -1.7328  -1.3345  -1.2334  -1.0589  -1.0589  -0.7151
    -0.5935  -0.5934  -0.3429  -0.2915   0.0608   0.0608   0.0846   0.1246
     0.7075   0.7075   0.7525   0.9193   0.9212   0.9800   0.9801   1.1778
     1.3497   1.3497   1.6526   1.9234   1.9243   2.0277   2.0277   2.0879
     2.2112   2.8302   3.0066   3.0244   3.0244   3.2053   3.2935   3.2935
     3.6042   4.0230   4.2990   4.2990   4.4014   4.8796   5.0044   5.1025
     5.1025   5.2188   5.4946   5.7944

          k =-0.0911 0.1228 0.0000 ( 29788 PWs)   bands (ev):

   -77.6417 -77.6189 -77.6020 -77.5789 -77.5269 -77.5091 -77.4963 -77.4789
   -77.4595 -77.4421 -77.4294 -77.4119 -39.8085 -39.7537 -39.7468 -39.6947
   -39.6574 -39.6565 -39.6305 -39.5623 -39.4963 -39.4470 -39.4169 -39.3852
   -39.3235 -39.2926 -39.2635 -39.2227 -39.1983 -39.1937 -39.1782 -39.1765
   -39.1590 -39.1451 -39.1185 -39.1129 -39.0746 -39.0492 -39.0322 -39.0088
   -38.9676 -38.9641 -38.9015 -38.9005 -38.8817 -38.8239 -38.8237 -38.7666
    -4.6463  -3.7146  -2.9017  -2.7844  -2.5322  -2.3108  -2.2108  -2.1646
    -1.8766  -1.8576  -1.6000  -1.3455  -1.1873  -1.1499  -0.9495  -0.7296
    -0.5535  -0.4545  -0.4086  -0.3800  -0.1565   0.1041   0.2680   0.2856
     0.6114   0.7838   0.8547   0.8966   0.9300   0.9867   1.0516   1.1413
     1.3495   1.3916   1.6098   1.7983   1.8223   1.8878   2.0519   2.1823
     2.2354   2.7546   2.9781   3.0189   3.0516   3.3129   3.3180   3.3538
     3.6208   3.9017   4.0803   4.3263   4.3531   4.8185   4.8456   4.8484
     5.0332   5.2151   5.2876   5.4774

          k =-0.0911 0.1403 0.0000 ( 29774 PWs)   bands (ev):

   -77.6385 -77.6267 -77.5941 -77.5821 -77.5243 -77.5152 -77.4903 -77.4813
   -77.4571 -77.4481 -77.4234 -77.4144 -39.8073 -39.7822 -39.7379 -39.7080
   -39.6490 -39.6381 -39.6109 -39.5281 -39.5225 -39.4542 -39.4527 -39.4245
   -39.2771 -39.2433 -39.2216 -39.2211 -39.2100 -39.2027 -39.1713 -39.1649
   -39.1565 -39.1539 -39.1082 -39.1047 -39.0991 -39.0956 -39.0591 -39.0248
   -38.9883 -38.9386 -38.9336 -38.9098 -38.8536 -38.8256 -38.7911 -38.7646
    -4.5292  -4.0591  -2.7799  -2.6576  -2.5202  -2.2562  -2.2108  -2.1495
    -2.0207  -1.9879  -1.4791  -1.3635  -1.1778  -0.9921  -0.9118  -0.8614
    -0.4827  -0.4740  -0.4565  -0.3856  -0.1397   0.0742   0.4760   0.5197
     0.6502   0.8321   0.8658   0.9965   1.0044   1.0217   1.0581   1.1597
     1.3873   1.3878   1.4688   1.6035   1.6777   1.6890   1.9851   2.0627
     2.5039   2.7496   2.9312   3.0623   3.0678   3.1807   3.3813   3.6325
     3.6468   3.6985   3.9088   4.1626   4.3292   4.3338   4.4697   4.6033
     4.8257   5.0452   5.3011   5.3567

          k =-0.0911-0.0526 0.0000 ( 29746 PWs)   bands (ev):

   -77.6334 -77.6334 -77.5874 -77.5873 -77.5204 -77.5203 -77.4852 -77.4852
   -77.4532 -77.4532 -77.4183 -77.4183 -39.7997 -39.7996 -39.7243 -39.7243
   -39.6437 -39.6437 -39.5628 -39.5627 -39.4883 -39.4882 -39.4495 -39.4495
   -39.2448 -39.2448 -39.2073 -39.2073 -39.1938 -39.1938 -39.1745 -39.1745
   -39.1553 -39.1553 -39.1209 -39.1209 -39.0845 -39.0844 -39.0780 -39.0780
   -38.9623 -38.9622 -38.9216 -38.9216 -38.8348 -38.8348 -38.7713 -38.7713
    -4.3330  -4.3330  -2.7429  -2.7429  -2.2338  -2.2338  -2.2153  -2.2153
    -2.0935  -2.0935  -1.4027  -1.4026  -1.0476  -1.0476  -0.8907  -0.8907
    -0.5110  -0.5109  -0.4478  -0.4478   0.0260   0.0260   0.5813   0.5813
     0.8739   0.8739   0.9499   0.9499   0.9788   0.9788   1.0736   1.0736
     1.3859   1.3860   1.5224   1.5224   1.5705   1.5705   1.9542   1.9542
     2.8115   2.8115   2.8767   2.8767   3.0951   3.0951   3.4539   3.4539
     3.9063   3.9064   3.9123   3.9124   4.0874   4.0874   4.4104   4.4105
     4.8704   4.8704   5.3601   5.3601

     the Fermi energy is     2.9184 ev

!    total energy              =   -2151.55463899 Ry
     estimated scf accuracy    <       0.00000105 Ry
     smearing contrib. (-TS)   =      -0.05451435 Ry
     internal energy E=F+TS    =   -2151.50012464 Ry

     The total energy is F=E-TS. E is the sum of the following terms:
     one-electron contribution =  -18559.42708754 Ry
     hartree contribution      =    9263.76196302 Ry
     xc contribution           =    -491.54517786 Ry
     ewald contribution        =    7635.71017662 Ry
     electric field correction =       0.00000111 Ry

     convergence has been achieved in  15 iterations

     negative rho (up, down):  7.682E-05 0.000E+00

     Forces acting on atoms (cartesian axes, Ry/au):

     atom    1 type  1   force =    -0.00000333    0.00001594    0.01432656
     atom    2 type  1   force =     0.00000319    0.00000172    0.01434021
     atom    3 type  1   force =    -0.00001229   -0.00000636    0.01432667
     atom    4 type  1   force =     0.00001199   -0.00001009    0.01432495
     atom    5 type  1   force =    -0.00000025   -0.00000170   -0.01203538
     atom    6 type  1   force =     0.00000080    0.00000183   -0.01203618
     atom    7 type  1   force =     0.00000319    0.00000116   -0.01203227
     atom    8 type  1   force =    -0.00000208    0.00000019   -0.01202827
     atom    9 type  1   force =    -0.00000708    0.00000603   -0.00229592
     atom   10 type  1   force =     0.00000669   -0.00000848   -0.00229350
     atom   11 type  1   force =    -0.00001127    0.00000391   -0.00230819
     atom   12 type  1   force =     0.00001046   -0.00000415   -0.00228868

     Total force =     0.037704     Total SCF correction =     0.004848
     SCF correction compared to forces is large: reduce conv_thr to get better values

     Writing output data file ./Re750/Re750_beef.save/

     init_run     :     70.75s CPU     71.27s WALL (       1 calls)
     electrons    :   3304.86s CPU   3319.99s WALL (       1 calls)
     forces       :     48.75s CPU     49.00s WALL (       1 calls)

     Called by init_run:
     wfcinit      :     61.62s CPU     61.98s WALL (       1 calls)
     potinit      :      7.06s CPU      7.14s WALL (       1 calls)
     hinit0       :      0.93s CPU      0.94s WALL (       1 calls)

     Called by electrons:
     c_bands      :   2799.00s CPU   2809.48s WALL (      15 calls)
     sum_band     :    473.70s CPU    476.63s WALL (      15 calls)
     v_of_rho     :     27.39s CPU     28.28s WALL (      16 calls)
     newd         :     10.33s CPU     11.12s WALL (      16 calls)
     mix_rho      :      0.92s CPU      0.94s WALL (      15 calls)
     vdW_kernel   :      5.70s CPU      5.70s WALL (       1 calls)

     Called by c_bands:
     init_us_2    :      8.68s CPU      8.76s WALL (    2368 calls)
     cegterg      :   2774.10s CPU   2782.75s WALL (    1110 calls)

     Called by *egterg:
     cdiaghg      :    171.32s CPU    171.38s WALL (    4649 calls)
     h_psi        :   1445.40s CPU   1452.79s WALL (    4723 calls)
     s_psi        :    368.11s CPU    368.22s WALL (    4723 calls)
     g_psi        :      1.03s CPU      1.04s WALL (    3539 calls)

     Called by h_psi:
     h_psi:calbec :    401.36s CPU    402.17s WALL (    4723 calls)
     vloc_psi     :    631.65s CPU    638.03s WALL (    4723 calls)
     add_vuspsi   :    407.52s CPU    407.67s WALL (    4723 calls)

     General routines
     calbec       :    620.18s CPU    621.44s WALL (    6129 calls)
     fft          :     18.13s CPU     18.42s WALL (    1067 calls)
     ffts         :      0.32s CPU      0.33s WALL (      31 calls)
     fftw         :    882.95s CPU    890.52s WALL (  687348 calls)
     interpolate  :      0.43s CPU      0.44s WALL (      16 calls)

     Parallel routines
     fft_scatt_xy :     39.87s CPU     40.38s WALL (  688446 calls)
     fft_scatt_yz :    484.90s CPU    486.32s WALL (  688446 calls)

     PWSCF        :      1h17m CPU      1h27m WALL


   This run was terminated on:   0:30: 2  22Jun2022            

=------------------------------------------------------------------------------=
   JOB DONE.
=------------------------------------------------------------------------------=
