
     Program PWSCF v.6.6 starts on 22Jun2022 at  2:45: 0 

     This program is part of the open-source Quantum ESPRESSO suite
     for quantum simulation of materials; please cite
         "P. Giannozzi et al., J. Phys.:Condens. Matter 21 395502 (2009);
         "P. Giannozzi et al., J. Phys.:Condens. Matter 29 465901 (2017);
          URL http://www.quantum-espresso.org", 
     in publications or presentations arising from this work. More details at
     http://www.quantum-espresso.org/quote

     Parallel version (MPI), running on    37 processors

     MPI processes distributed on     1 nodes
     R & G space division:  proc/nbgrp/npool/nimage =      37
     Fft bands division:     nmany     =       1
     Reading input from Ru-750.in
Warning: card &CELL ignored
Warning: card / ignored

     Current dimensions of program PWSCF are:
     Max number of different atomic species (ntypx) = 10
     Max number of k-points (npk) =  40000
     Max angular momentum in pseudopotentials (lmaxx) =  3
     Presently stress not available with electric field and gates

     Message from routine cell_base_init:
     DEPRECATED: use true lattice parameter, not A to a.u. conversion factor

     **************************************************************************
     Initializing libbeef V0.1.2 with the BEEF-vdW functional.
     Citation: Wellendorff et al., PRB 85, 235149 (2012).
     **************************************************************************


     IMPORTANT: XC functional enforced from input :
     Exchange-correlation= BEEF-VDW
                           (   1   4  43  14   2   0   0)
     Any further DFT definition will be discarded
     Please, verify this is what you really want


     Subspace diagonalization in iterative solution of the eigenvalue problem:
     a serial algorithm will be used

     Message from routine find_sym:
     Not a group! Trying with lower acceptance parameter...
     Message from routine find_sym:
     Symmetry operations form a group

     Parallelization info
     --------------------
     sticks:   dense  smooth     PW     G-vecs:    dense   smooth      PW
     Min         108      43     12                24795     6267     970
     Max         110      44     13                24804     6281     983
     Sum        4009    1597    463               917601   232023   36087



     bravais-lattice index     =            0
     lattice parameter (alat)  =       1.8897  a.u.
     unit-cell volume          =    4198.3533 (a.u.)^3
     number of atoms/cell      =           12
     number of atomic types    =            1
     number of electrons       =       192.00
     number of Kohn-Sham states=          115
     kinetic-energy cutoff     =      55.1240  Ry
     charge density cutoff     =     551.2396  Ry
     convergence threshold     =      1.0E-05
     mixing beta               =       0.1000
     number of iterations used =           10  plain     mixing
     Exchange-correlation= BEEF-VDW
                           (   1   4  43  14   2   0   0)

     celldm(1)=   1.889726  celldm(2)=   0.000000  celldm(3)=   0.000000
     celldm(4)=   0.000000  celldm(5)=   0.000000  celldm(6)=   0.000000

     crystal axes: (cart. coord. in units of alat)
               a(1) = (   5.422927   0.000000   0.000000 )  
               a(2) = (   2.711463   4.696392   0.000000 )  
               a(3) = (   0.000000   0.000000  24.427801 )  

     reciprocal axes: (cart. coord. in units 2 pi/alat)
               b(1) = (  0.184402 -0.106465  0.000000 )  
               b(2) = (  0.000000  0.212929  0.000000 )  
               b(3) = (  0.000000  0.000000  0.040937 )  


     PseudoPot. # 1 for Ru read from file:
     ../pseudo/Ru.pbe-spn-rrkjus_psl.1.0.0.UPF
     MD5 check sum: fbaca725316a1a65f98761fd4ac95971
     Pseudo is Ultrasoft + core correction, Zval = 16.0
     Generated using "atomic" code by A. Dal Corso v.6.2.2
     Using radial grid of 1233 points,  6 beta functions with: 
                l(1) =   0
                l(2) =   0
                l(3) =   1
                l(4) =   1
                l(5) =   2
                l(6) =   2
     Q(r) pseudized with 0 coefficients 


     atomic species   valence    mass     pseudopotential
        Ru            16.00   101.07000     Ru( 1.00)

     No symmetry found



   Cartesian axes

     site n.     atom                  positions (alat units)
         1           Ru  tau(   1) = (   1.3557316   0.7827320  10.0000000  )
         2           Ru  tau(   2) = (   4.0671949   0.7827320  10.0000000  )
         3           Ru  tau(   3) = (   2.7114633   3.1309281  10.0000000  )
         4           Ru  tau(   4) = (   5.4229265   3.1309281  10.0000000  )
         5           Ru  tau(   5) = (   5.4229265   1.5654640  12.2139005  )
         6           Ru  tau(   6) = (   2.7114633   1.5654640  12.2139005  )
         7           Ru  tau(   7) = (   6.7786581   3.9136601  12.2139005  )
         8           Ru  tau(   8) = (   4.0671949   3.9136601  12.2139005  )
         9           Ru  tau(   9) = (   5.4229130   0.0001010  14.3116727  )
        10           Ru  tau(  10) = (   2.7114738   0.0000134  14.3117283  )
        11           Ru  tau(  11) = (   6.7786023   2.3481442  14.3115974  )
        12           Ru  tau(  12) = (   4.0672471   2.3481314  14.3115431  )

     number of k points=    74  Fermi-Dirac smearing, width (Ry)=  0.0100
                       cart. coord. in units 2pi/alat
        k(    1) = (   0.0000000   0.0000000   0.0000000), wk =   0.0138889
        k(    2) = (   0.0000000   0.0177441   0.0000000), wk =   0.0277778
        k(    3) = (   0.0000000   0.0354882   0.0000000), wk =   0.0277778
        k(    4) = (   0.0000000   0.0532324   0.0000000), wk =   0.0277778
        k(    5) = (   0.0000000   0.0709765   0.0000000), wk =   0.0277778
        k(    6) = (   0.0000000   0.0887206   0.0000000), wk =   0.0277778
        k(    7) = (   0.0000000  -0.1064647   0.0000000), wk =   0.0138889
        k(    8) = (   0.0153669  -0.0088721   0.0000000), wk =   0.0277778
        k(    9) = (   0.0153669   0.0088721   0.0000000), wk =   0.0277778
        k(   10) = (   0.0153669   0.0266162   0.0000000), wk =   0.0277778
        k(   11) = (   0.0153669   0.0443603   0.0000000), wk =   0.0277778
        k(   12) = (   0.0153669   0.0621044   0.0000000), wk =   0.0277778
        k(   13) = (   0.0153669   0.0798485   0.0000000), wk =   0.0277778
        k(   14) = (   0.0153669  -0.1153368   0.0000000), wk =   0.0277778
        k(   15) = (   0.0153669  -0.0975926   0.0000000), wk =   0.0277778
        k(   16) = (   0.0153669  -0.0798485   0.0000000), wk =   0.0277778
        k(   17) = (   0.0153669  -0.0621044   0.0000000), wk =   0.0277778
        k(   18) = (   0.0153669  -0.0443603   0.0000000), wk =   0.0277778
        k(   19) = (   0.0153669  -0.0266162   0.0000000), wk =   0.0277778
        k(   20) = (   0.0307337  -0.0177441   0.0000000), wk =   0.0277778
        k(   21) = (   0.0307337   0.0000000   0.0000000), wk =   0.0277778
        k(   22) = (   0.0307337   0.0177441   0.0000000), wk =   0.0277778
        k(   23) = (   0.0307337   0.0354882   0.0000000), wk =   0.0277778
        k(   24) = (   0.0307337   0.0532324   0.0000000), wk =   0.0277778
        k(   25) = (   0.0307337   0.0709765   0.0000000), wk =   0.0277778
        k(   26) = (   0.0307337  -0.1242088   0.0000000), wk =   0.0277778
        k(   27) = (   0.0307337  -0.1064647   0.0000000), wk =   0.0277778
        k(   28) = (   0.0307337  -0.0887206   0.0000000), wk =   0.0277778
        k(   29) = (   0.0307337  -0.0709765   0.0000000), wk =   0.0277778
        k(   30) = (   0.0307337  -0.0532324   0.0000000), wk =   0.0277778
        k(   31) = (   0.0307337  -0.0354882   0.0000000), wk =   0.0277778
        k(   32) = (   0.0461006  -0.0266162   0.0000000), wk =   0.0277778
        k(   33) = (   0.0461006  -0.0088721   0.0000000), wk =   0.0277778
        k(   34) = (   0.0461006   0.0088721   0.0000000), wk =   0.0277778
        k(   35) = (   0.0461006   0.0266162   0.0000000), wk =   0.0277778
        k(   36) = (   0.0461006   0.0443603   0.0000000), wk =   0.0277778
        k(   37) = (   0.0461006   0.0621044   0.0000000), wk =   0.0277778
        k(   38) = (   0.0461006  -0.1330809   0.0000000), wk =   0.0277778
        k(   39) = (   0.0461006  -0.1153368   0.0000000), wk =   0.0277778
        k(   40) = (   0.0461006  -0.0975926   0.0000000), wk =   0.0277778
        k(   41) = (   0.0461006  -0.0798485   0.0000000), wk =   0.0277778
        k(   42) = (   0.0461006  -0.0621044   0.0000000), wk =   0.0277778
        k(   43) = (   0.0461006  -0.0443603   0.0000000), wk =   0.0277778
        k(   44) = (   0.0614674  -0.0354882   0.0000000), wk =   0.0277778
        k(   45) = (   0.0614674  -0.0177441   0.0000000), wk =   0.0277778
        k(   46) = (   0.0614674   0.0000000   0.0000000), wk =   0.0277778
        k(   47) = (   0.0614674   0.0177441   0.0000000), wk =   0.0277778
        k(   48) = (   0.0614674   0.0354882   0.0000000), wk =   0.0277778
        k(   49) = (   0.0614674   0.0532324   0.0000000), wk =   0.0277778
        k(   50) = (   0.0614674  -0.1419529   0.0000000), wk =   0.0277778
        k(   51) = (   0.0614674  -0.1242088   0.0000000), wk =   0.0277778
        k(   52) = (   0.0614674  -0.1064647   0.0000000), wk =   0.0277778
        k(   53) = (   0.0614674  -0.0887206   0.0000000), wk =   0.0277778
        k(   54) = (   0.0614674  -0.0709765   0.0000000), wk =   0.0277778
        k(   55) = (   0.0614674  -0.0532323   0.0000000), wk =   0.0277778
        k(   56) = (   0.0768343  -0.0443603   0.0000000), wk =   0.0277778
        k(   57) = (   0.0768343  -0.0266162   0.0000000), wk =   0.0277778
        k(   58) = (   0.0768343  -0.0088721   0.0000000), wk =   0.0277778
        k(   59) = (   0.0768343   0.0088721   0.0000000), wk =   0.0277778
        k(   60) = (   0.0768343   0.0266162   0.0000000), wk =   0.0277778
        k(   61) = (   0.0768343   0.0443603   0.0000000), wk =   0.0277778
        k(   62) = (   0.0768343  -0.1508250   0.0000000), wk =   0.0277778
        k(   63) = (   0.0768343  -0.1330809   0.0000000), wk =   0.0277778
        k(   64) = (   0.0768343  -0.1153368   0.0000000), wk =   0.0277778
        k(   65) = (   0.0768343  -0.0975926   0.0000000), wk =   0.0277778
        k(   66) = (   0.0768343  -0.0798485   0.0000000), wk =   0.0277778
        k(   67) = (   0.0768343  -0.0621044   0.0000000), wk =   0.0277778
        k(   68) = (  -0.0922011   0.0532323   0.0000000), wk =   0.0138889
        k(   69) = (  -0.0922011   0.0709765   0.0000000), wk =   0.0277778
        k(   70) = (  -0.0922011   0.0887206   0.0000000), wk =   0.0277778
        k(   71) = (  -0.0922011   0.1064647   0.0000000), wk =   0.0277778
        k(   72) = (  -0.0922011   0.1242088   0.0000000), wk =   0.0277778
        k(   73) = (  -0.0922011   0.1419529   0.0000000), wk =   0.0277778
        k(   74) = (  -0.0922011  -0.0532324   0.0000000), wk =   0.0138889

     Dense  grid:   917601 G-vectors     FFT dimensions: (  80,  80, 360)

     Smooth grid:   232023 G-vectors     FFT dimensions: (  50,  50, 225)

     Estimated max dynamical RAM per process >     207.23 MB

     Estimated total dynamical RAM >       7.49 GB

     Initial potential from superposition of free atoms

     starting charge  191.99235, renormalised to  192.00000

     negative rho (up, down):  1.933E-03 0.000E+00


     %%%%%%%%%%%%%%%%%%%%%%%%%%%%%%%%%%%%%%%%%%%%%%%%%%%%%%%%%%%%%%%%%%%%%%%%
     %                                                                      %
     % You are using vdW-DF, which was implemented by the Thonhauser group. %
     % Please cite the following two papers that made this development      %
     % possible and the two reviews that describe the various versions:     %
     %                                                                      %
     %   T. Thonhauser et al., PRL 115, 136402 (2015).                      %
     %   T. Thonhauser et al., PRB 76, 125112 (2007).                       %
     %   K. Berland et al., Rep. Prog. Phys. 78, 066501 (2015).             %
     %   D.C. Langreth et al., J. Phys.: Condens. Matter 21, 084203 (2009). %
     %                                                                      %
     %                                                                      %
     % If you are calculating the stress with vdW-DF, please also cite:     %
     %                                                                      %
     %   R. Sabatini et al., J. Phys.: Condens. Matter 24, 424209 (2012).   %
     %                                                                      %
     %%%%%%%%%%%%%%%%%%%%%%%%%%%%%%%%%%%%%%%%%%%%%%%%%%%%%%%%%%%%%%%%%%%%%%%%



     Adding external electric field

     Computed dipole along edir(3) : 
        Dipole               -0.0000 Ry au,         -0.0000 Debye
        Dipole field         -0.0000 Ry au, 

        Potential amp.        0.0000 Ry
        Total length         45.0078 bohr

     Starting wfcs are  120 randomized atomic wfcs

     total cpu time spent up to now is      127.1 secs

     Self-consistent Calculation

     iteration #  1     ecut=    55.12 Ry     beta= 0.10
     Davidson diagonalization with overlap
     ethr =  1.00E-02,  avg # of iterations =  3.0

     negative rho (up, down):  1.850E-03 0.000E+00

     Adding external electric field

     Computed dipole along edir(3) : 
        Dipole               -0.1014 Ry au,         -0.2578 Debye
        Dipole field         -0.0003 Ry au, 

        Potential amp.        0.0273 Ry
        Total length         45.0078 bohr


     total cpu time spent up to now is      354.7 secs

     total energy              =   -2376.44317248 Ry
     estimated scf accuracy    <       2.40351555 Ry

     iteration #  2     ecut=    55.12 Ry     beta= 0.10
     Davidson diagonalization with overlap
     ethr =  1.25E-03,  avg # of iterations =  2.6

     negative rho (up, down):  1.844E-03 0.000E+00

     Adding external electric field

     Computed dipole along edir(3) : 
        Dipole                0.3499 Ry au,          0.8894 Debye
        Dipole field          0.0010 Ry au, 

        Potential amp.       -0.0943 Ry
        Total length         45.0078 bohr


     total cpu time spent up to now is      639.4 secs

     total energy              =   -2376.46138359 Ry
     estimated scf accuracy    <       3.86500463 Ry

     iteration #  3     ecut=    55.12 Ry     beta= 0.10
     Davidson diagonalization with overlap
     ethr =  1.25E-03,  avg # of iterations =  1.1

     negative rho (up, down):  1.849E-03 0.000E+00

     Adding external electric field

     Computed dipole along edir(3) : 
        Dipole               -0.0350 Ry au,         -0.0890 Debye
        Dipole field         -0.0001 Ry au, 

        Potential amp.        0.0094 Ry
        Total length         45.0078 bohr


     total cpu time spent up to now is      798.3 secs

     total energy              =   -2376.41411716 Ry
     estimated scf accuracy    <      14.04576340 Ry

     iteration #  4     ecut=    55.12 Ry     beta= 0.10
     Davidson diagonalization with overlap
     ethr =  1.25E-03,  avg # of iterations =  1.0

     negative rho (up, down):  1.850E-03 0.000E+00

     Adding external electric field

     Computed dipole along edir(3) : 
        Dipole                0.0572 Ry au,          0.1454 Debye
        Dipole field          0.0002 Ry au, 

        Potential amp.       -0.0154 Ry
        Total length         45.0078 bohr


     total cpu time spent up to now is      954.5 secs

     total energy              =   -2376.44594053 Ry
     estimated scf accuracy    <       0.88768618 Ry

     iteration #  5     ecut=    55.12 Ry     beta= 0.10
     Davidson diagonalization with overlap
     ethr =  4.62E-04,  avg # of iterations =  2.6

     negative rho (up, down):  1.840E-03 0.000E+00

     Adding external electric field

     Computed dipole along edir(3) : 
        Dipole                0.0264 Ry au,          0.0670 Debye
        Dipole field          0.0001 Ry au, 

        Potential amp.       -0.0071 Ry
        Total length         45.0078 bohr


     total cpu time spent up to now is     1296.6 secs

     total energy              =   -2376.52125386 Ry
     estimated scf accuracy    <       0.07971340 Ry

     iteration #  6     ecut=    55.12 Ry     beta= 0.10
     Davidson diagonalization with overlap
     ethr =  4.15E-05,  avg # of iterations =  2.4

     negative rho (up, down):  2.242E-03 0.000E+00

     Adding external electric field

     Computed dipole along edir(3) : 
        Dipole                0.0277 Ry au,          0.0704 Debye
        Dipole field          0.0001 Ry au, 

        Potential amp.       -0.0075 Ry
        Total length         45.0078 bohr


     total cpu time spent up to now is     1498.4 secs

     total energy              =   -2376.51853699 Ry
     estimated scf accuracy    <       0.05043771 Ry

     iteration #  7     ecut=    55.12 Ry     beta= 0.10
     Davidson diagonalization with overlap
     ethr =  2.63E-05,  avg # of iterations =  3.8

     negative rho (up, down):  2.024E-03 0.000E+00

     Adding external electric field

     Computed dipole along edir(3) : 
        Dipole                0.0286 Ry au,          0.0727 Debye
        Dipole field          0.0001 Ry au, 

        Potential amp.       -0.0077 Ry
        Total length         45.0078 bohr


     total cpu time spent up to now is     1721.2 secs

     total energy              =   -2376.52487270 Ry
     estimated scf accuracy    <       0.00675178 Ry

     iteration #  8     ecut=    55.12 Ry     beta= 0.10
     Davidson diagonalization with overlap
     ethr =  3.52E-06,  avg # of iterations =  3.8

     negative rho (up, down):  2.003E-03 0.000E+00

     Adding external electric field

     Computed dipole along edir(3) : 
        Dipole                0.0270 Ry au,          0.0686 Debye
        Dipole field          0.0001 Ry au, 

        Potential amp.       -0.0073 Ry
        Total length         45.0078 bohr


     total cpu time spent up to now is     1931.3 secs

     total energy              =   -2376.52487147 Ry
     estimated scf accuracy    <       0.00245218 Ry

     iteration #  9     ecut=    55.12 Ry     beta= 0.10
     Davidson diagonalization with overlap
     ethr =  1.28E-06,  avg # of iterations =  2.8

     negative rho (up, down):  2.018E-03 0.000E+00

     Adding external electric field

     Computed dipole along edir(3) : 
        Dipole                0.0259 Ry au,          0.0659 Debye
        Dipole field          0.0001 Ry au, 

        Potential amp.       -0.0070 Ry
        Total length         45.0078 bohr


     total cpu time spent up to now is     2153.8 secs

     total energy              =   -2376.52546516 Ry
     estimated scf accuracy    <       0.00084520 Ry

     iteration # 10     ecut=    55.12 Ry     beta= 0.10
     Davidson diagonalization with overlap
     ethr =  4.40E-07,  avg # of iterations =  2.0

     negative rho (up, down):  1.997E-03 0.000E+00

     Adding external electric field

     Computed dipole along edir(3) : 
        Dipole                0.0273 Ry au,          0.0695 Debye
        Dipole field          0.0001 Ry au, 

        Potential amp.       -0.0074 Ry
        Total length         45.0078 bohr


     total cpu time spent up to now is     2361.3 secs

     total energy              =   -2376.52556581 Ry
     estimated scf accuracy    <       0.00024616 Ry

     iteration # 11     ecut=    55.12 Ry     beta= 0.10
     Davidson diagonalization with overlap
     ethr =  1.28E-07,  avg # of iterations =  2.2

     negative rho (up, down):  1.958E-03 0.000E+00

     Adding external electric field

     Computed dipole along edir(3) : 
        Dipole                0.0299 Ry au,          0.0759 Debye
        Dipole field          0.0001 Ry au, 

        Potential amp.       -0.0080 Ry
        Total length         45.0078 bohr


     total cpu time spent up to now is     3087.7 secs

     total energy              =   -2376.52554297 Ry
     estimated scf accuracy    <       0.00026844 Ry

     iteration # 12     ecut=    55.12 Ry     beta= 0.10
     Davidson diagonalization with overlap
     ethr =  1.28E-07,  avg # of iterations =  1.7

     negative rho (up, down):  1.919E-03 0.000E+00

     Adding external electric field

     Computed dipole along edir(3) : 
        Dipole                0.0284 Ry au,          0.0723 Debye
        Dipole field          0.0001 Ry au, 

        Potential amp.       -0.0077 Ry
        Total length         45.0078 bohr


     total cpu time spent up to now is     3263.8 secs

     total energy              =   -2376.52553465 Ry
     estimated scf accuracy    <       0.00007827 Ry

     iteration # 13     ecut=    55.12 Ry     beta= 0.10
     Davidson diagonalization with overlap
     ethr =  4.08E-08,  avg # of iterations =  2.0

     negative rho (up, down):  1.886E-03 0.000E+00

     Adding external electric field

     Computed dipole along edir(3) : 
        Dipole                0.0269 Ry au,          0.0683 Debye
        Dipole field          0.0001 Ry au, 

        Potential amp.       -0.0072 Ry
        Total length         45.0078 bohr


     total cpu time spent up to now is     3453.5 secs

     total energy              =   -2376.52553001 Ry
     estimated scf accuracy    <       0.00003394 Ry

     iteration # 14     ecut=    55.12 Ry     beta= 0.10
     Davidson diagonalization with overlap
     ethr =  1.77E-08,  avg # of iterations =  2.3

     negative rho (up, down):  1.741E-03 0.000E+00

     Adding external electric field

     Computed dipole along edir(3) : 
        Dipole                0.0446 Ry au,          0.1133 Debye
        Dipole field          0.0001 Ry au, 

        Potential amp.       -0.0120 Ry
        Total length         45.0078 bohr


     total cpu time spent up to now is     3664.2 secs

     End of self-consistent calculation

          k = 0.0000 0.0000 0.0000 ( 28897 PWs)   bands (ev):

   -71.0214 -70.9128 -70.9127 -70.9126 -70.5292 -70.4347 -70.4347 -70.4346
   -70.4346 -70.3369 -70.3369 -70.3368 -41.3078 -41.3077 -41.3077 -41.1786
   -41.0636 -41.0635 -41.0634 -40.7417 -40.7417 -40.7417 -40.7360 -40.7360
   -40.7359 -40.5927 -40.5927 -40.5927 -40.5563 -40.5563 -40.4201 -40.3437
   -40.3436 -40.3436 -40.2531 -40.2531 -40.2531 -40.2224 -40.2224 -40.2224
   -40.2189 -40.1651 -40.1650 -40.1650 -40.0930 -40.0930 -40.0016 -40.0016
    -4.5159  -3.3898  -3.3898  -3.3898  -3.2580  -2.9676  -2.9676  -2.9675
    -2.9556  -2.7164  -2.7163  -2.7162  -2.2206  -2.2206  -2.2206  -1.0769
    -1.0768  -1.0768  -0.3667  -0.3666  -0.3666  -0.2301  -0.2301  -0.1207
     0.1175   0.1176   0.1176   0.1638   0.1638   0.1888   0.5943   0.5943
     1.0483   1.0483   1.0484   1.9662   1.9662   1.9662   2.0971   2.0972
     2.1039   2.1410   2.1410   2.1410   2.7122   2.7122   3.3524   3.3525
     3.3525   3.4613   3.4613   3.4613   3.4939   3.6441   3.6441   3.8224
     3.8224   3.8224   4.2883   4.2883   4.2883   4.3946   4.3946   4.3946
     4.6787   4.6788   4.6788

          k = 0.0000 0.0177 0.0000 ( 28911 PWs)   bands (ev):

   -71.0196 -70.9146 -70.9127 -70.9127 -70.5276 -70.4363 -70.4347 -70.4346
   -70.4330 -70.3385 -70.3369 -70.3368 -41.3010 -41.3009 -41.2960 -41.1752
   -41.0611 -41.0606 -41.0605 -40.7497 -40.7497 -40.7330 -40.7310 -40.7300
   -40.7300 -40.5900 -40.5900 -40.5892 -40.5741 -40.5594 -40.4131 -40.3419
   -40.3418 -40.3416 -40.2605 -40.2605 -40.2504 -40.2232 -40.2220 -40.2219
   -40.2207 -40.1717 -40.1717 -40.1623 -40.1038 -40.0957 -40.0134 -40.0044
    -4.4536  -3.3597  -3.3381  -3.3381  -3.2028  -2.9384  -2.9301  -2.9300
    -2.8940  -2.6939  -2.6788  -2.6786  -2.1911  -2.1619  -2.1619  -1.0737
    -1.0736  -1.0529  -0.3461  -0.3437  -0.3436  -0.3053  -0.1835  -0.1491
     0.0268   0.0783   0.0784   0.1327   0.1969   0.3271   0.5736   0.6429
     0.9948   1.0154   1.0154   1.8712   1.8816   1.8817   1.9681   2.0696
     2.0739   2.1024   2.1179   2.1179   2.7197   2.8892   3.0184   3.2830
     3.3275   3.3275   3.3946   3.3946   3.4289   3.5863   3.5864   3.6479
     3.7660   4.0274   4.0275   4.2168   4.2168   4.2178   4.2249   4.3134
     4.4173   5.1095   5.1096

          k = 0.0000 0.0355 0.0000 ( 28961 PWs)   bands (ev):

   -71.0142 -70.9201 -70.9127 -70.9127 -70.5229 -70.4410 -70.4347 -70.4346
   -70.4282 -70.3435 -70.3369 -70.3368 -41.2814 -41.2814 -41.2618 -41.1654
   -41.0557 -41.0522 -41.0521 -40.7733 -40.7732 -40.7241 -40.7124 -40.7124
   -40.6999 -40.6209 -40.5814 -40.5813 -40.5763 -40.5685 -40.3981 -40.3376
   -40.3375 -40.3362 -40.2802 -40.2802 -40.2425 -40.2270 -40.2252 -40.2220
   -40.2220 -40.1905 -40.1905 -40.1543 -40.1347 -40.1038 -40.0478 -40.0127
    -4.2717  -3.2728  -3.1889  -3.1889  -3.0446  -2.8540  -2.8204  -2.8203
    -2.7164  -2.6284  -2.5681  -2.5679  -2.1043  -1.9904  -1.9903  -1.0717
    -1.0717  -0.9837  -0.5022  -0.2890  -0.2826  -0.2798  -0.2798  -0.0530
    -0.0474  -0.0208  -0.0207   0.1772   0.2901   0.4136   0.5406   0.7870
     0.8400   0.9020   0.9020   1.5155   1.6858   1.6860   1.8789   1.9691
     2.0052   2.0122   2.0122   2.0765   2.4253   2.7324   2.9059   2.9060
     3.0515   3.2106   3.2106   3.2998   3.3867   3.3924   3.3924   3.6311
     3.6363   3.6363   3.6591   3.8079   4.0042   4.0537   4.0538   4.1137
     4.8859   5.0723   5.6061

          k = 0.0000 0.0532 0.0000 ( 29033 PWs)   bands (ev):

   -71.0056 -70.9288 -70.9127 -70.9127 -70.5154 -70.4486 -70.4347 -70.4346
   -70.4205 -70.3513 -70.3369 -70.3368 -41.2516 -41.2515 -41.2072 -41.1499
   -41.0517 -41.0407 -41.0406 -40.8085 -40.8085 -40.7101 -40.6876 -40.6859
   -40.6859 -40.6511 -40.5830 -40.5663 -40.5662 -40.5489 -40.3821 -40.3336
   -40.3335 -40.3301 -40.3078 -40.3077 -40.2433 -40.2299 -40.2273 -40.2264
   -40.2263 -40.2153 -40.2153 -40.1779 -40.1415 -40.1166 -40.1008 -40.0259
    -3.9872  -3.1422  -2.9652  -2.9652  -2.8087  -2.7274  -2.6413  -2.6412
    -2.5209  -2.4484  -2.3973  -2.3971  -1.9661  -1.7258  -1.7257  -1.0832
    -1.0832  -0.8797  -0.7600  -0.4980  -0.2330  -0.2329  -0.2146  -0.1155
    -0.1010  -0.1010   0.1658   0.2469   0.4100   0.4269   0.5341   0.6122
     0.6887   0.6887   1.0220   1.2079   1.4404   1.4406   1.5799   1.8176
     1.8424   1.8424   1.9473   1.9500   2.2369   2.2370   2.2631   2.5661
     2.7359   2.9305   2.9305   3.0431   3.1182   3.1184   3.1712   3.4370
     3.4543   3.4544   3.6549   3.6765   3.8421   3.9204   3.9758   3.9758
     4.1933   5.5343   5.9989

          k = 0.0000 0.0710 0.0000 ( 29035 PWs)   bands (ev):

   -70.9944 -70.9401 -70.9128 -70.9127 -70.5056 -70.4584 -70.4347 -70.4346
   -70.4104 -70.3615 -70.3369 -70.3368 -41.2165 -41.2164 -41.1367 -41.1303
   -41.0526 -41.0289 -41.0288 -40.8491 -40.8491 -40.7686 -40.6916 -40.6557
   -40.6557 -40.6018 -40.5884 -40.5456 -40.5456 -40.5025 -40.3682 -40.3454
   -40.3453 -40.3258 -40.3258 -40.3257 -40.2861 -40.2517 -40.2516 -40.2278
   -40.2223 -40.2222 -40.2169 -40.2134 -40.1627 -40.1333 -40.1247 -40.0430
    -3.6342  -2.9987  -2.7177  -2.7176  -2.5940  -2.5568  -2.3871  -2.3869
    -2.3612  -2.2054  -2.2052  -2.1407  -1.7867  -1.4538  -1.4537  -1.0494
    -1.0493  -1.0364  -0.7785  -0.7373  -0.4005  -0.4005  -0.1849  -0.1516
     0.0235   0.0236   0.3342   0.3369   0.4006   0.4136   0.4137   0.4186
     0.5272   0.6082   1.0160   1.1755   1.1757   1.2225   1.3399   1.4777
     1.5688   1.5688   1.6938   1.6938   1.8625   1.8684   1.9512   2.3640
     2.5190   2.5191   2.5899   2.7282   2.7378   2.8606   2.8608   3.1120
     3.2594   3.4301   3.4303   3.5429   3.6975   3.8150   3.9702   3.9703
     4.3160   6.2652   6.2652

          k = 0.0000 0.0887 0.0000 ( 29057 PWs)   bands (ev):

   -70.9814 -70.9532 -70.9128 -70.9128 -70.4943 -70.4698 -70.4347 -70.4346
   -70.3986 -70.3733 -70.3369 -70.3369 -41.1852 -41.1852 -41.1087 -41.0786
   -41.0366 -41.0199 -41.0197 -40.8847 -40.8847 -40.8587 -40.6701 -40.6298
   -40.6298 -40.6236 -40.5244 -40.5244 -40.5159 -40.4388 -40.3724 -40.3723
   -40.3679 -40.3464 -40.3304 -40.3304 -40.3248 -40.2739 -40.2739 -40.2686
   -40.2249 -40.2241 -40.2240 -40.2030 -40.1941 -40.1527 -40.1051 -40.0627
    -3.2743  -2.9158  -2.5093  -2.5092  -2.4871  -2.4001  -2.1427  -2.1426
    -2.1411  -2.0109  -2.0109  -1.8905  -1.5841  -1.3736  -1.3735  -1.2771
    -0.9487  -0.8088  -0.8043  -0.8042  -0.6530  -0.6529  -0.2041  -0.0756
     0.2002   0.2002   0.2157   0.2158   0.2481   0.4239   0.4257   0.5099
     0.5298   0.8226   0.8226   0.8700   0.8725   0.9119   1.0509   1.0510
     1.1760   1.3783   1.6360   1.6506   1.6507   1.7269   2.0287   2.0658
     2.1589   2.1590   2.4747   2.5518   2.6737   2.7097   2.7099   2.7250
     2.9395   3.1166   3.4251   3.4252   3.7196   3.7686   3.9838   3.9839
     4.8049   5.8274   6.4136

          k = 0.0000-0.1065 0.0000 ( 29008 PWs)   bands (ev):

   -70.9673 -70.9673 -70.9128 -70.9128 -70.4821 -70.4820 -70.4347 -70.4346
   -70.3860 -70.3860 -70.3369 -70.3369 -41.1719 -41.1718 -41.0883 -41.0882
   -41.0163 -41.0162 -40.9521 -40.9521 -40.8997 -40.8997 -40.6469 -40.6469
   -40.6190 -40.6190 -40.5143 -40.5143 -40.4380 -40.4378 -40.3846 -40.3845
   -40.3724 -40.3724 -40.3345 -40.3345 -40.3192 -40.3192 -40.2810 -40.2810
   -40.2247 -40.2246 -40.2177 -40.2177 -40.1735 -40.1734 -40.0840 -40.0839
    -3.0035  -3.0034  -2.4139  -2.4137  -2.4021  -2.4018  -2.1030  -2.1028
    -1.9153  -1.9151  -1.8366  -1.8365  -1.4038  -1.4036  -1.3852  -1.3849
    -0.9875  -0.9873  -0.8483  -0.8483  -0.5666  -0.5665  -0.1089  -0.1086
     0.1885   0.1887   0.2540   0.2544   0.4381   0.4383   0.4973   0.4977
     0.6254   0.6258   0.6307   0.6309   0.7389   0.7390   0.8023   0.8025
     1.2867   1.2869   1.6000   1.6001   1.6964   1.6964   1.9831   1.9831
     2.1527   2.1532   2.2929   2.2930   2.6584   2.6587   2.7682   2.7682
     2.8024   2.8025   3.4248   3.4249   3.7417   3.7419   3.9907   3.9907
     5.3090   5.3092   6.4608

          k = 0.0154-0.0089 0.0000 ( 28911 PWs)   bands (ev):

   -71.0196 -70.9146 -70.9127 -70.9127 -70.5276 -70.4363 -70.4347 -70.4346
   -70.4330 -70.3385 -70.3369 -70.3368 -41.3010 -41.3009 -41.2960 -41.1752
   -41.0611 -41.0605 -41.0605 -40.7497 -40.7497 -40.7330 -40.7310 -40.7300
   -40.7300 -40.5900 -40.5900 -40.5892 -40.5741 -40.5594 -40.4131 -40.3419
   -40.3419 -40.3415 -40.2605 -40.2605 -40.2504 -40.2232 -40.2220 -40.2219
   -40.2207 -40.1717 -40.1717 -40.1623 -40.1038 -40.0957 -40.0134 -40.0044
    -4.4536  -3.3597  -3.3381  -3.3381  -3.2028  -2.9384  -2.9300  -2.9300
    -2.8940  -2.6939  -2.6787  -2.6787  -2.1911  -2.1619  -2.1619  -1.0737
    -1.0736  -1.0529  -0.3461  -0.3437  -0.3436  -0.3053  -0.1835  -0.1491
     0.0268   0.0783   0.0783   0.1327   0.1969   0.3271   0.5736   0.6429
     0.9948   1.0154   1.0154   1.8712   1.8817   1.8817   1.9681   2.0696
     2.0739   2.1024   2.1179   2.1179   2.7197   2.8892   3.0184   3.2830
     3.3275   3.3275   3.3946   3.3946   3.4289   3.5863   3.5863   3.6479
     3.7660   4.0274   4.0275   4.2168   4.2168   4.2178   4.2249   4.3134
     4.4173   5.1095   5.1096

          k = 0.0154 0.0089 0.0000 ( 28911 PWs)   bands (ev):

   -71.0196 -70.9146 -70.9128 -70.9126 -70.5276 -70.4363 -70.4347 -70.4346
   -70.4330 -70.3385 -70.3369 -70.3368 -41.3010 -41.3009 -41.2960 -41.1752
   -41.0611 -41.0606 -41.0604 -40.7498 -40.7497 -40.7330 -40.7310 -40.7300
   -40.7299 -40.5900 -40.5900 -40.5892 -40.5741 -40.5594 -40.4131 -40.3419
   -40.3419 -40.3415 -40.2605 -40.2605 -40.2504 -40.2232 -40.2220 -40.2219
   -40.2207 -40.1717 -40.1717 -40.1623 -40.1038 -40.0957 -40.0134 -40.0044
    -4.4536  -3.3597  -3.3381  -3.3381  -3.2028  -2.9384  -2.9300  -2.9300
    -2.8940  -2.6939  -2.6787  -2.6787  -2.1911  -2.1619  -2.1619  -1.0737
    -1.0736  -1.0529  -0.3461  -0.3436  -0.3436  -0.3053  -0.1835  -0.1491
     0.0268   0.0783   0.0783   0.1327   0.1969   0.3271   0.5736   0.6429
     0.9948   1.0154   1.0154   1.8712   1.8817   1.8817   1.9681   2.0696
     2.0739   2.1024   2.1179   2.1179   2.7197   2.8892   3.0184   3.2830
     3.3275   3.3275   3.3946   3.3946   3.4289   3.5863   3.5863   3.6479
     3.7660   4.0274   4.0275   4.2168   4.2168   4.2178   4.2249   4.3134
     4.4173   5.1095   5.1096

          k = 0.0154 0.0266 0.0000 ( 28954 PWs)   bands (ev):

   -71.0160 -70.9164 -70.9164 -70.9109 -70.5244 -70.4378 -70.4378 -70.4331
   -70.4298 -70.3402 -70.3402 -70.3352 -41.2923 -41.2782 -41.2782 -41.1686
   -41.0564 -41.0564 -41.0540 -40.7771 -40.7412 -40.7412 -40.7214 -40.7118
   -40.7118 -40.6059 -40.5855 -40.5820 -40.5820 -40.5657 -40.4024 -40.3393
   -40.3381 -40.3381 -40.2830 -40.2553 -40.2553 -40.2247 -40.2232 -40.2231
   -40.2215 -40.1936 -40.1661 -40.1661 -40.1246 -40.1013 -40.0364 -40.0101
    -4.3314  -3.2781  -3.2781  -3.2201  -3.0958  -2.8726  -2.8726  -2.8484
    -2.7742  -2.6359  -2.6359  -2.5876  -2.1032  -2.1032  -2.0199  -1.0906
    -1.0291  -1.0290  -0.4416  -0.3054  -0.3053  -0.2970  -0.2343  -0.0920
    -0.0385  -0.0353   0.1074   0.1074   0.2594   0.3988   0.5452   0.7414
     0.9102   0.9102   0.9560   1.6145   1.6953   1.8575   1.8575   2.0057
     2.0100   2.0100   2.0684   2.1148   2.4851   2.8199   3.0305   3.1304
     3.1304   3.2096   3.2982   3.2982   3.3349   3.3756   3.4757   3.4758
     3.6771   3.6997   3.8757   3.8758   4.0606   4.0607   4.0947   4.7085
     4.7138   4.7139   5.7807

          k = 0.0154 0.0444 0.0000 ( 28983 PWs)   bands (ev):

   -71.0090 -70.9235 -70.9180 -70.9093 -70.5183 -70.4440 -70.4392 -70.4317
   -70.4235 -70.3466 -70.3416 -70.3338 -41.2709 -41.2495 -41.2341 -41.1560
   -41.0514 -41.0480 -41.0428 -40.8161 -40.7627 -40.7282 -40.7023 -40.6852
   -40.6737 -40.6613 -40.5782 -40.5757 -40.5673 -40.5623 -40.3875 -40.3356
   -40.3330 -40.3322 -40.3147 -40.2722 -40.2457 -40.2354 -40.2294 -40.2243
   -40.2232 -40.2186 -40.1814 -40.1618 -40.1552 -40.1122 -40.0796 -40.0213
    -4.0972  -3.1657  -3.0988  -3.0280  -2.8956  -2.7642  -2.7384  -2.6917
    -2.5531  -2.5503  -2.5115  -2.4282  -1.9895  -1.9035  -1.7831  -1.1135
    -1.0167  -0.9452  -0.6657  -0.4122  -0.2409  -0.2386  -0.2297  -0.1523
    -0.1060   0.0203   0.0902   0.1599   0.3492   0.4268   0.5324   0.7167
     0.7486   0.7970   0.9376   1.3252   1.4658   1.6145   1.6775   1.9010
     1.9034   1.9203   1.9364   2.0295   2.1989   2.4839   2.5236   2.6837
     2.8208   3.0056   3.0598   3.1000   3.2414   3.2843   3.3278   3.4084
     3.4749   3.5354   3.6264   3.7996   3.8252   3.9316   3.9648   4.2202
     4.8955   5.0504   5.3073

          k = 0.0154 0.0621 0.0000 ( 29010 PWs)   bands (ev):

   -70.9991 -70.9335 -70.9193 -70.9080 -70.5097 -70.4527 -70.4404 -70.4306
   -70.4146 -70.3556 -70.3428 -70.3326 -41.2396 -41.2143 -41.1719 -41.1384
   -41.0500 -41.0384 -41.0294 -40.8629 -40.7939 -40.7338 -40.7109 -40.6750
   -40.6539 -40.6189 -40.5959 -40.5604 -40.5456 -40.5259 -40.3728 -40.3533
   -40.3322 -40.3290 -40.3268 -40.2958 -40.2643 -40.2641 -40.2355 -40.2254
   -40.2219 -40.2211 -40.2032 -40.2023 -40.1398 -40.1375 -40.1274 -40.0371
    -3.7747  -3.0209  -2.8451  -2.8048  -2.6399  -2.6265  -2.5459  -2.4473
    -2.4281  -2.3383  -2.2597  -2.2314  -1.8288  -1.6156  -1.5255  -1.1053
    -1.0237  -0.9267  -0.8415  -0.6369  -0.3371  -0.2778  -0.1963  -0.1806
    -0.0692   0.0039   0.2232   0.2996   0.3723   0.4310   0.4992   0.5048
     0.5572   0.5919   1.1228   1.2280   1.2320   1.3352   1.3645   1.5898
     1.7331   1.7450   1.8266   1.8831   1.8890   1.9420   2.0575   2.2635
     2.5696   2.6730   2.7792   2.8143   2.9504   2.9519   3.0601   3.3313
     3.3653   3.4561   3.5036   3.5857   3.8782   3.9015   3.9166   4.1262
     4.1845   5.3177   5.9541

          k = 0.0154 0.0798 0.0000 ( 29031 PWs)   bands (ev):

   -70.9870 -70.9457 -70.9203 -70.9071 -70.4992 -70.4633 -70.4412 -70.4297
   -70.4037 -70.3666 -70.3437 -70.3318 -41.2045 -41.1796 -41.1177 -41.0995
   -41.0515 -41.0300 -41.0170 -40.9095 -40.8269 -40.8181 -40.6898 -40.6455
   -40.6241 -40.6175 -40.5521 -40.5412 -40.5211 -40.4712 -40.3901 -40.3621
   -40.3386 -40.3332 -40.3243 -40.3214 -40.3155 -40.2929 -40.2425 -40.2356
   -40.2301 -40.2235 -40.2183 -40.2071 -40.1904 -40.1461 -40.1209 -40.0564
    -3.4087  -2.8926  -2.5925  -2.5801  -2.5025  -2.4149  -2.3062  -2.2431
    -2.1521  -2.1432  -2.0515  -1.9706  -1.6342  -1.4527  -1.3576  -1.1837
    -0.9563  -0.8757  -0.8662  -0.7966  -0.5356  -0.5325  -0.2412  -0.1766
     0.0931   0.1595   0.2341   0.2351   0.2991   0.3239   0.3349   0.4187
     0.6014   0.7570   0.9696   0.9760   1.0404   1.0440   1.1939   1.3035
     1.3515   1.3592   1.5997   1.6330   1.6991   1.7657   2.0003   2.1641
     2.1921   2.4070   2.4164   2.6082   2.7408   2.8117   2.8663   2.9913
     3.1645   3.3600   3.4353   3.4694   3.6367   3.7772   3.9122   3.9163
     4.6332   5.4987   6.0507

          k = 0.0154-0.1153 0.0000 ( 29059 PWs)   bands (ev):

   -70.9734 -70.9594 -70.9208 -70.9066 -70.4874 -70.4751 -70.4416 -70.4293
   -70.3915 -70.3788 -70.3441 -70.3313 -41.1783 -41.1567 -41.0964 -41.0790
   -41.0249 -41.0094 -40.9987 -40.9423 -40.9087 -40.8496 -40.6662 -40.6414
   -40.6244 -40.6048 -40.5247 -40.5029 -40.4776 -40.4161 -40.4040 -40.4008
   -40.3553 -40.3534 -40.3468 -40.3239 -40.3209 -40.3025 -40.3020 -40.2486
   -40.2245 -40.2241 -40.2215 -40.2136 -40.1877 -40.1667 -40.0997 -40.0777
    -3.0773  -2.8855  -2.4327  -2.4005  -2.4002  -2.3379  -2.1570  -2.0466
    -2.0099  -1.9310  -1.8401  -1.8060  -1.4599  -1.4321  -1.3546  -1.3242
    -1.0462  -0.9534  -0.8111  -0.7887  -0.6676  -0.5238  -0.2048  -0.0960
     0.0772   0.2146   0.2208   0.2563   0.2810   0.3199   0.3412   0.4519
     0.5869   0.6639   0.6911   0.7526   0.8273   0.8311   0.8474   0.8912
     1.1383   1.4544   1.4747   1.6732   1.7143   1.7701   1.9281   2.0161
     2.0991   2.1840   2.3390   2.5542   2.6145   2.6378   2.7739   2.8512
     2.8981   3.0345   3.3618   3.4288   3.6757   3.7153   3.9233   3.9260
     5.1167   5.5892   5.6243

          k = 0.0154-0.0976 0.0000 ( 29059 PWs)   bands (ev):

   -70.9734 -70.9594 -70.9208 -70.9066 -70.4874 -70.4751 -70.4416 -70.4293
   -70.3915 -70.3788 -70.3441 -70.3313 -41.1783 -41.1567 -41.0964 -41.0790
   -41.0249 -41.0094 -40.9987 -40.9423 -40.9087 -40.8496 -40.6662 -40.6414
   -40.6244 -40.6048 -40.5247 -40.5029 -40.4776 -40.4161 -40.4040 -40.4008
   -40.3553 -40.3534 -40.3468 -40.3239 -40.3209 -40.3025 -40.3020 -40.2486
   -40.2245 -40.2241 -40.2215 -40.2136 -40.1877 -40.1667 -40.0997 -40.0777
    -3.0773  -2.8855  -2.4327  -2.4005  -2.4002  -2.3379  -2.1570  -2.0466
    -2.0099  -1.9310  -1.8401  -1.8060  -1.4599  -1.4321  -1.3546  -1.3242
    -1.0462  -0.9534  -0.8111  -0.7887  -0.6676  -0.5238  -0.2048  -0.0960
     0.0772   0.2146   0.2208   0.2563   0.2810   0.3199   0.3412   0.4519
     0.5869   0.6639   0.6911   0.7526   0.8273   0.8311   0.8474   0.8912
     1.1383   1.4544   1.4747   1.6732   1.7143   1.7701   1.9281   2.0161
     2.0991   2.1840   2.3390   2.5542   2.6145   2.6378   2.7739   2.8512
     2.8981   3.0345   3.3618   3.4288   3.6757   3.7153   3.9233   3.9260
     5.1167   5.5892   5.6243

          k = 0.0154-0.0798 0.0000 ( 29031 PWs)   bands (ev):

   -70.9870 -70.9457 -70.9203 -70.9071 -70.4992 -70.4633 -70.4412 -70.4297
   -70.4037 -70.3666 -70.3437 -70.3318 -41.2045 -41.1796 -41.1177 -41.0995
   -41.0515 -41.0300 -41.0170 -40.9095 -40.8269 -40.8181 -40.6898 -40.6455
   -40.6241 -40.6175 -40.5521 -40.5412 -40.5211 -40.4712 -40.3901 -40.3621
   -40.3386 -40.3332 -40.3243 -40.3214 -40.3155 -40.2929 -40.2425 -40.2356
   -40.2301 -40.2235 -40.2183 -40.2071 -40.1904 -40.1461 -40.1209 -40.0564
    -3.4088  -2.8926  -2.5925  -2.5801  -2.5025  -2.4149  -2.3062  -2.2431
    -2.1521  -2.1432  -2.0515  -1.9706  -1.6342  -1.4527  -1.3576  -1.1837
    -0.9563  -0.8757  -0.8662  -0.7966  -0.5356  -0.5325  -0.2412  -0.1766
     0.0931   0.1595   0.2341   0.2351   0.2991   0.3238   0.3349   0.4187
     0.6014   0.7570   0.9696   0.9760   1.0404   1.0440   1.1939   1.3035
     1.3515   1.3592   1.5997   1.6330   1.6991   1.7657   2.0003   2.1641
     2.1921   2.4070   2.4164   2.6082   2.7408   2.8117   2.8663   2.9913
     3.1645   3.3600   3.4353   3.4694   3.6367   3.7772   3.9122   3.9163
     4.6332   5.4987   6.0507

          k = 0.0154-0.0621 0.0000 ( 29010 PWs)   bands (ev):

   -70.9991 -70.9335 -70.9193 -70.9080 -70.5097 -70.4527 -70.4404 -70.4306
   -70.4146 -70.3556 -70.3428 -70.3326 -41.2396 -41.2143 -41.1719 -41.1384
   -41.0500 -41.0384 -41.0294 -40.8629 -40.7939 -40.7338 -40.7109 -40.6750
   -40.6539 -40.6189 -40.5959 -40.5604 -40.5456 -40.5259 -40.3728 -40.3533
   -40.3322 -40.3290 -40.3268 -40.2958 -40.2643 -40.2641 -40.2355 -40.2254
   -40.2219 -40.2211 -40.2032 -40.2023 -40.1398 -40.1375 -40.1274 -40.0371
    -3.7747  -3.0209  -2.8451  -2.8048  -2.6399  -2.6265  -2.5459  -2.4473
    -2.4281  -2.3383  -2.2597  -2.2314  -1.8288  -1.6156  -1.5255  -1.1053
    -1.0237  -0.9267  -0.8415  -0.6369  -0.3371  -0.2778  -0.1963  -0.1806
    -0.0692   0.0039   0.2232   0.2996   0.3723   0.4310   0.4992   0.5048
     0.5572   0.5919   1.1228   1.2280   1.2320   1.3352   1.3645   1.5898
     1.7331   1.7450   1.8266   1.8831   1.8890   1.9420   2.0575   2.2635
     2.5696   2.6730   2.7792   2.8143   2.9504   2.9519   3.0601   3.3313
     3.3653   3.4561   3.5036   3.5857   3.8782   3.9015   3.9166   4.1262
     4.1845   5.3177   5.9541

          k = 0.0154-0.0444 0.0000 ( 28983 PWs)   bands (ev):

   -71.0090 -70.9235 -70.9180 -70.9093 -70.5183 -70.4440 -70.4392 -70.4317
   -70.4235 -70.3466 -70.3416 -70.3338 -41.2709 -41.2495 -41.2341 -41.1560
   -41.0514 -41.0480 -41.0428 -40.8161 -40.7627 -40.7282 -40.7023 -40.6852
   -40.6737 -40.6613 -40.5782 -40.5757 -40.5673 -40.5623 -40.3875 -40.3356
   -40.3330 -40.3322 -40.3147 -40.2722 -40.2457 -40.2354 -40.2294 -40.2243
   -40.2232 -40.2186 -40.1814 -40.1618 -40.1552 -40.1122 -40.0796 -40.0213
    -4.0972  -3.1657  -3.0988  -3.0280  -2.8956  -2.7642  -2.7384  -2.6917
    -2.5531  -2.5503  -2.5115  -2.4282  -1.9895  -1.9035  -1.7831  -1.1135
    -1.0167  -0.9452  -0.6657  -0.4122  -0.2409  -0.2386  -0.2297  -0.1523
    -0.1060   0.0203   0.0902   0.1599   0.3492   0.4268   0.5324   0.7167
     0.7486   0.7970   0.9376   1.3252   1.4658   1.6145   1.6775   1.9010
     1.9034   1.9203   1.9364   2.0295   2.1989   2.4839   2.5236   2.6837
     2.8208   3.0056   3.0598   3.1000   3.2414   3.2843   3.3278   3.4084
     3.4749   3.5354   3.6264   3.7996   3.8252   3.9315   3.9648   4.2202
     4.8955   5.0504   5.3074

          k = 0.0154-0.0266 0.0000 ( 28954 PWs)   bands (ev):

   -71.0160 -70.9165 -70.9163 -70.9109 -70.5244 -70.4378 -70.4378 -70.4331
   -70.4298 -70.3402 -70.3401 -70.3352 -41.2923 -41.2782 -41.2781 -41.1686
   -41.0565 -41.0563 -41.0541 -40.7771 -40.7412 -40.7412 -40.7214 -40.7118
   -40.7118 -40.6059 -40.5855 -40.5821 -40.5820 -40.5657 -40.4024 -40.3393
   -40.3381 -40.3381 -40.2830 -40.2553 -40.2553 -40.2247 -40.2232 -40.2231
   -40.2215 -40.1936 -40.1661 -40.1661 -40.1246 -40.1013 -40.0364 -40.0101
    -4.3314  -3.2781  -3.2781  -3.2201  -3.0958  -2.8726  -2.8726  -2.8484
    -2.7742  -2.6359  -2.6358  -2.5876  -2.1032  -2.1032  -2.0199  -1.0906
    -1.0290  -1.0290  -0.4416  -0.3054  -0.3053  -0.2970  -0.2343  -0.0920
    -0.0385  -0.0353   0.1074   0.1074   0.2594   0.3988   0.5452   0.7414
     0.9101   0.9102   0.9560   1.6145   1.6953   1.8575   1.8575   2.0057
     2.0100   2.0100   2.0684   2.1148   2.4851   2.8199   3.0305   3.1303
     3.1304   3.2096   3.2982   3.2982   3.3349   3.3756   3.4757   3.4758
     3.6771   3.6997   3.8757   3.8758   4.0606   4.0606   4.0947   4.7085
     4.7138   4.7139   5.7807

          k = 0.0307-0.0177 0.0000 ( 28961 PWs)   bands (ev):

   -71.0142 -70.9201 -70.9127 -70.9127 -70.5229 -70.4410 -70.4347 -70.4346
   -70.4282 -70.3435 -70.3369 -70.3368 -41.2814 -41.2814 -41.2618 -41.1654
   -41.0557 -41.0522 -41.0521 -40.7733 -40.7733 -40.7241 -40.7124 -40.7124
   -40.6999 -40.6209 -40.5813 -40.5813 -40.5763 -40.5685 -40.3981 -40.3375
   -40.3375 -40.3362 -40.2802 -40.2802 -40.2425 -40.2270 -40.2252 -40.2220
   -40.2220 -40.1905 -40.1905 -40.1543 -40.1347 -40.1038 -40.0478 -40.0127
    -4.2717  -3.2728  -3.1890  -3.1889  -3.0446  -2.8540  -2.8203  -2.8203
    -2.7164  -2.6284  -2.5680  -2.5680  -2.1043  -1.9903  -1.9903  -1.0717
    -1.0717  -0.9837  -0.5022  -0.2890  -0.2826  -0.2799  -0.2798  -0.0530
    -0.0474  -0.0208  -0.0207   0.1772   0.2901   0.4136   0.5406   0.7870
     0.8400   0.9020   0.9020   1.5155   1.6859   1.6859   1.8789   1.9691
     2.0052   2.0122   2.0122   2.0765   2.4253   2.7324   2.9059   2.9060
     3.0515   3.2106   3.2106   3.2998   3.3867   3.3924   3.3924   3.6311
     3.6363   3.6363   3.6591   3.8079   4.0042   4.0537   4.0537   4.1137
     4.8860   5.0723   5.6061

          k = 0.0307 0.0000 0.0000 ( 28954 PWs)   bands (ev):

   -71.0160 -70.9164 -70.9164 -70.9109 -70.5244 -70.4379 -70.4378 -70.4331
   -70.4298 -70.3402 -70.3401 -70.3352 -41.2923 -41.2782 -41.2781 -41.1686
   -41.0565 -41.0564 -41.0541 -40.7771 -40.7412 -40.7412 -40.7214 -40.7118
   -40.7118 -40.6059 -40.5855 -40.5820 -40.5820 -40.5657 -40.4024 -40.3393
   -40.3381 -40.3381 -40.2830 -40.2553 -40.2552 -40.2247 -40.2232 -40.2231
   -40.2215 -40.1936 -40.1661 -40.1661 -40.1246 -40.1013 -40.0364 -40.0101
    -4.3314  -3.2781  -3.2781  -3.2201  -3.0958  -2.8726  -2.8725  -2.8484
    -2.7742  -2.6359  -2.6358  -2.5876  -2.1032  -2.1032  -2.0199  -1.0906
    -1.0291  -1.0290  -0.4416  -0.3054  -0.3053  -0.2970  -0.2343  -0.0920
    -0.0385  -0.0353   0.1074   0.1075   0.2594   0.3988   0.5452   0.7414
     0.9101   0.9102   0.9560   1.6145   1.6953   1.8575   1.8575   2.0057
     2.0100   2.0100   2.0684   2.1148   2.4851   2.8199   3.0305   3.1304
     3.1304   3.2096   3.2982   3.2982   3.3349   3.3756   3.4757   3.4758
     3.6771   3.6997   3.8757   3.8758   4.0606   4.0607   4.0947   4.7085
     4.7138   4.7139   5.7807

          k = 0.0307 0.0177 0.0000 ( 28961 PWs)   bands (ev):

   -71.0142 -70.9201 -70.9128 -70.9126 -70.5229 -70.4410 -70.4347 -70.4346
   -70.4282 -70.3435 -70.3369 -70.3368 -41.2814 -41.2813 -41.2618 -41.1654
   -41.0557 -41.0522 -41.0521 -40.7733 -40.7732 -40.7241 -40.7124 -40.7124
   -40.6999 -40.6209 -40.5814 -40.5813 -40.5763 -40.5685 -40.3981 -40.3375
   -40.3375 -40.3362 -40.2802 -40.2802 -40.2425 -40.2270 -40.2252 -40.2220
   -40.2220 -40.1905 -40.1905 -40.1543 -40.1347 -40.1038 -40.0478 -40.0127
    -4.2717  -3.2728  -3.1890  -3.1889  -3.0446  -2.8540  -2.8204  -2.8203
    -2.7164  -2.6284  -2.5681  -2.5680  -2.1043  -1.9904  -1.9903  -1.0717
    -1.0717  -0.9837  -0.5022  -0.2890  -0.2826  -0.2798  -0.2798  -0.0530
    -0.0474  -0.0208  -0.0207   0.1772   0.2901   0.4136   0.5406   0.7870
     0.8400   0.9020   0.9020   1.5155   1.6859   1.6859   1.8789   1.9691
     2.0052   2.0122   2.0122   2.0765   2.4253   2.7324   2.9059   2.9060
     3.0515   3.2106   3.2106   3.2998   3.3867   3.3923   3.3924   3.6311
     3.6363   3.6363   3.6591   3.8079   4.0042   4.0537   4.0538   4.1137
     4.8859   5.0723   5.6061

          k = 0.0307 0.0355 0.0000 ( 28983 PWs)   bands (ev):

   -71.0090 -70.9235 -70.9180 -70.9093 -70.5183 -70.4440 -70.4392 -70.4317
   -70.4235 -70.3466 -70.3416 -70.3338 -41.2709 -41.2495 -41.2341 -41.1560
   -41.0514 -41.0480 -41.0428 -40.8161 -40.7627 -40.7282 -40.7023 -40.6852
   -40.6737 -40.6613 -40.5782 -40.5757 -40.5673 -40.5623 -40.3875 -40.3356
   -40.3330 -40.3322 -40.3147 -40.2722 -40.2457 -40.2354 -40.2294 -40.2243
   -40.2232 -40.2186 -40.1814 -40.1618 -40.1552 -40.1122 -40.0796 -40.0213
    -4.0972  -3.1657  -3.0988  -3.0280  -2.8956  -2.7642  -2.7384  -2.6917
    -2.5531  -2.5503  -2.5115  -2.4282  -1.9895  -1.9035  -1.7831  -1.1135
    -1.0167  -0.9452  -0.6657  -0.4122  -0.2410  -0.2386  -0.2297  -0.1523
    -0.1060   0.0203   0.0902   0.1599   0.3492   0.4268   0.5324   0.7167
     0.7486   0.7970   0.9376   1.3252   1.4658   1.6145   1.6775   1.9010
     1.9034   1.9203   1.9364   2.0295   2.1989   2.4839   2.5236   2.6837
     2.8208   3.0056   3.0598   3.1000   3.2414   3.2843   3.3278   3.4084
     3.4749   3.5354   3.6264   3.7996   3.8252   3.9316   3.9648   4.2202
     4.8955   5.0504   5.3073

          k = 0.0307 0.0532 0.0000 ( 29002 PWs)   bands (ev):

   -71.0007 -70.9264 -70.9264 -70.9064 -70.5111 -70.4465 -70.4465 -70.4292
   -70.4160 -70.3492 -70.3492 -70.3312 -41.2475 -41.1989 -41.1988 -41.1412
   -41.0454 -41.0454 -41.0298 -40.8676 -40.7466 -40.7466 -40.7208 -40.6815
   -40.6411 -40.6411 -40.5950 -40.5654 -40.5397 -40.5397 -40.3745 -40.3559
   -40.3344 -40.3274 -40.3274 -40.2688 -40.2606 -40.2605 -40.2570 -40.2232
   -40.2231 -40.2216 -40.1966 -40.1668 -40.1668 -40.1282 -40.1253 -40.0359
    -3.8223  -2.9615  -2.9614  -2.8345  -2.6667  -2.6123  -2.6122  -2.4688
    -2.4219  -2.4219  -2.3017  -2.2396  -1.7651  -1.7650  -1.5510  -1.1236
    -0.9342  -0.9342  -0.8886  -0.5919  -0.3207  -0.2218  -0.2218  -0.2075
    -0.1009   0.0879   0.0879   0.2641   0.3489   0.4144   0.5392   0.5392
     0.5800   0.6108   1.1653   1.2334   1.2336   1.4075   1.4075   1.6316
     1.7640   1.8269   1.8269   1.9460   1.9929   1.9929   2.0028   2.2044
     2.6210   2.6210   2.8705   2.9134   3.0328   3.0329   3.2005   3.3157
     3.4135   3.4135   3.4565   3.7559   3.7560   3.8527   4.1752   4.4447
     4.4447   4.9870   4.9870

          k = 0.0307 0.0710 0.0000 ( 29031 PWs)   bands (ev):

   -70.9899 -70.9374 -70.9287 -70.9041 -70.5017 -70.4560 -70.4485 -70.4272
   -70.4063 -70.3590 -70.3512 -70.3291 -41.2143 -41.1618 -41.1335 -41.1224
   -41.0472 -41.0393 -41.0159 -40.9225 -40.7942 -40.7726 -40.7255 -40.6528
   -40.6176 -40.6079 -40.5833 -40.5509 -40.5122 -40.4960 -40.3989 -40.3623
   -40.3429 -40.3238 -40.3234 -40.3033 -40.3032 -40.2804 -40.2477 -40.2309
   -40.2242 -40.2228 -40.2186 -40.1840 -40.1791 -40.1478 -40.1445 -40.0552
    -3.4765  -2.8082  -2.6836  -2.6373  -2.4718  -2.4227  -2.4039  -2.2904
    -2.2516  -2.1594  -2.0494  -2.0283  -1.5853  -1.5113  -1.4642  -1.1311
    -0.9528  -0.9163  -0.8666  -0.7809  -0.4628  -0.4072  -0.3105  -0.3082
     0.0159   0.1428   0.1566   0.1918   0.2889   0.3028   0.3747   0.4070
     0.5979   0.6868   1.0019   1.1054   1.1445   1.2221   1.2845   1.3332
     1.3426   1.4785   1.5720   1.6521   1.7725   1.8078   1.9519   2.1476
     2.1798   2.3299   2.5642   2.7724   2.8080   2.9557   3.0659   3.2314
     3.2689   3.3807   3.4734   3.5560   3.7394   3.7900   3.9159   4.2172
     4.5834   4.6331   5.0867

          k = 0.0307-0.1242 0.0000 ( 29038 PWs)   bands (ev):

   -70.9773 -70.9501 -70.9301 -70.9027 -70.4907 -70.4671 -70.4497 -70.4260
   -70.3949 -70.3705 -70.3525 -70.3279 -41.1789 -41.1320 -41.1018 -41.0756
   -41.0373 -41.0345 -41.0055 -40.9715 -40.8766 -40.7967 -40.7001 -40.6440
   -40.6237 -40.5817 -40.5347 -40.5160 -40.4876 -40.4377 -40.4362 -40.3732
   -40.3697 -40.3499 -40.3231 -40.3228 -40.3133 -40.2983 -40.2823 -40.2365
   -40.2273 -40.2237 -40.2104 -40.2059 -40.1985 -40.1654 -40.1256 -40.0777
    -3.1148  -2.7236  -2.4512  -2.4094  -2.3497  -2.2489  -2.2224  -2.0950
    -2.0480  -1.9658  -1.8252  -1.8136  -1.5719  -1.3801  -1.3248  -1.3167
    -0.9689  -0.9614  -0.8408  -0.7363  -0.6612  -0.5009  -0.3570  -0.2630
     0.0099   0.0360   0.1515   0.1551   0.1953   0.2829   0.3309   0.3901
     0.5456   0.7073   0.7210   0.7605   0.8947   0.9516   0.9933   1.0023
     1.0894   1.4438   1.5778   1.6549   1.7166   1.8896   1.9043   1.9499
     2.1078   2.2498   2.4585   2.5615   2.6299   2.9423   2.9799   2.9881
     3.2371   3.2628   3.3686   3.4785   3.5216   3.7174   3.7459   3.7690
     4.7539   5.0344   5.1486

          k = 0.0307-0.1065 0.0000 ( 29048 PWs)   bands (ev):

   -70.9637 -70.9637 -70.9306 -70.9023 -70.4789 -70.4788 -70.4501 -70.4256
   -70.3828 -70.3827 -70.3529 -70.3274 -41.1609 -41.1202 -41.0825 -41.0824
   -41.0326 -41.0031 -40.9925 -40.9622 -40.9622 -40.8069 -40.6722 -40.6722
   -40.6099 -40.5713 -40.5261 -40.4771 -40.4531 -40.4437 -40.4435 -40.3846
   -40.3750 -40.3749 -40.3241 -40.3210 -40.3210 -40.3143 -40.3054 -40.2296
   -40.2255 -40.2255 -40.2241 -40.2036 -40.1868 -40.1868 -40.1017 -40.1017
    -2.8290  -2.8289  -2.3515  -2.2864  -2.2352  -2.2349  -2.1923  -1.9822
    -1.8778  -1.8776  -1.8619  -1.6643  -1.5346  -1.4499  -1.2477  -1.2476
    -1.1499  -1.1498  -0.8751  -0.7519  -0.5894  -0.3172  -0.2403  -0.2400
    -0.0864   0.0852   0.0855   0.1268   0.1814   0.1815   0.2340   0.2949
     0.5937   0.6138   0.6148   0.6149   0.6837   0.7558   0.9295   0.9298
     1.2662   1.2662   1.6911   1.6913   1.6981   1.7348   1.8370   2.0639
     2.1811   2.1813   2.5528   2.5549   2.5553   2.8953   2.9038   2.9040
     3.0909   3.0909   3.2643   3.3649   3.5904   3.5906   3.7514   3.7645
     4.7955   5.1689   5.5227

          k = 0.0307-0.0887 0.0000 ( 29038 PWs)   bands (ev):

   -70.9773 -70.9501 -70.9301 -70.9027 -70.4907 -70.4671 -70.4497 -70.4260
   -70.3949 -70.3705 -70.3525 -70.3279 -41.1789 -41.1320 -41.1018 -41.0756
   -41.0373 -41.0345 -41.0055 -40.9715 -40.8766 -40.7967 -40.7001 -40.6440
   -40.6237 -40.5817 -40.5347 -40.5160 -40.4876 -40.4377 -40.4362 -40.3732
   -40.3697 -40.3499 -40.3231 -40.3228 -40.3133 -40.2983 -40.2823 -40.2365
   -40.2273 -40.2237 -40.2104 -40.2059 -40.1985 -40.1654 -40.1256 -40.0777
    -3.1148  -2.7236  -2.4512  -2.4094  -2.3497  -2.2489  -2.2224  -2.0950
    -2.0480  -1.9658  -1.8252  -1.8136  -1.5719  -1.3801  -1.3248  -1.3167
    -0.9689  -0.9614  -0.8408  -0.7363  -0.6612  -0.5009  -0.3570  -0.2630
     0.0099   0.0360   0.1515   0.1551   0.1954   0.2829   0.3309   0.3901
     0.5456   0.7073   0.7210   0.7605   0.8947   0.9516   0.9933   1.0023
     1.0894   1.4438   1.5778   1.6549   1.7166   1.8896   1.9043   1.9499
     2.1078   2.2498   2.4585   2.5615   2.6299   2.9423   2.9799   2.9881
     3.2371   3.2628   3.3686   3.4785   3.5216   3.7174   3.7459   3.7690
     4.7539   5.0344   5.1486

          k = 0.0307-0.0710 0.0000 ( 29031 PWs)   bands (ev):

   -70.9899 -70.9374 -70.9287 -70.9041 -70.5017 -70.4560 -70.4485 -70.4272
   -70.4063 -70.3590 -70.3512 -70.3291 -41.2143 -41.1618 -41.1335 -41.1224
   -41.0472 -41.0393 -41.0159 -40.9225 -40.7942 -40.7726 -40.7255 -40.6528
   -40.6176 -40.6079 -40.5833 -40.5509 -40.5122 -40.4960 -40.3989 -40.3623
   -40.3429 -40.3238 -40.3234 -40.3033 -40.3032 -40.2804 -40.2477 -40.2309
   -40.2242 -40.2228 -40.2186 -40.1840 -40.1791 -40.1478 -40.1445 -40.0552
    -3.4765  -2.8082  -2.6836  -2.6373  -2.4718  -2.4227  -2.4039  -2.2904
    -2.2516  -2.1594  -2.0494  -2.0283  -1.5853  -1.5113  -1.4642  -1.1311
    -0.9528  -0.9163  -0.8666  -0.7809  -0.4628  -0.4072  -0.3105  -0.3082
     0.0159   0.1428   0.1566   0.1918   0.2889   0.3028   0.3747   0.4070
     0.5979   0.6868   1.0019   1.1054   1.1445   1.2222   1.2845   1.3332
     1.3426   1.4785   1.5720   1.6521   1.7725   1.8078   1.9519   2.1476
     2.1798   2.3299   2.5642   2.7724   2.8080   2.9557   3.0659   3.2314
     3.2689   3.3807   3.4734   3.5560   3.7394   3.7900   3.9159   4.2172
     4.5834   4.6331   5.0867

          k = 0.0307-0.0532 0.0000 ( 29002 PWs)   bands (ev):

   -71.0007 -70.9265 -70.9263 -70.9064 -70.5111 -70.4465 -70.4465 -70.4292
   -70.4160 -70.3492 -70.3492 -70.3312 -41.2475 -41.1989 -41.1988 -41.1412
   -41.0455 -41.0453 -41.0298 -40.8676 -40.7466 -40.7466 -40.7208 -40.6815
   -40.6411 -40.6411 -40.5950 -40.5654 -40.5398 -40.5397 -40.3745 -40.3559
   -40.3344 -40.3274 -40.3274 -40.2688 -40.2605 -40.2605 -40.2570 -40.2232
   -40.2231 -40.2216 -40.1966 -40.1668 -40.1668 -40.1282 -40.1253 -40.0359
    -3.8223  -2.9615  -2.9614  -2.8345  -2.6667  -2.6123  -2.6122  -2.4688
    -2.4219  -2.4219  -2.3017  -2.2396  -1.7651  -1.7650  -1.5510  -1.1236
    -0.9342  -0.9342  -0.8886  -0.5919  -0.3207  -0.2218  -0.2218  -0.2075
    -0.1009   0.0879   0.0879   0.2641   0.3489   0.4144   0.5392   0.5392
     0.5800   0.6108   1.1653   1.2334   1.2336   1.4075   1.4075   1.6316
     1.7640   1.8269   1.8269   1.9460   1.9929   1.9929   2.0028   2.2044
     2.6210   2.6210   2.8705   2.9134   3.0328   3.0329   3.2005   3.3157
     3.4135   3.4135   3.4565   3.7560   3.7560   3.8527   4.1752   4.4447
     4.4447   4.9870   4.9870

          k = 0.0307-0.0355 0.0000 ( 28983 PWs)   bands (ev):

   -71.0090 -70.9235 -70.9180 -70.9093 -70.5183 -70.4440 -70.4392 -70.4317
   -70.4235 -70.3466 -70.3416 -70.3338 -41.2709 -41.2495 -41.2341 -41.1560
   -41.0514 -41.0480 -41.0428 -40.8161 -40.7627 -40.7282 -40.7023 -40.6852
   -40.6737 -40.6613 -40.5782 -40.5757 -40.5673 -40.5623 -40.3875 -40.3356
   -40.3330 -40.3322 -40.3147 -40.2722 -40.2457 -40.2354 -40.2294 -40.2243
   -40.2232 -40.2186 -40.1814 -40.1618 -40.1552 -40.1122 -40.0796 -40.0213
    -4.0972  -3.1657  -3.0988  -3.0280  -2.8956  -2.7642  -2.7384  -2.6917
    -2.5531  -2.5503  -2.5115  -2.4282  -1.9896  -1.9035  -1.7831  -1.1135
    -1.0167  -0.9452  -0.6657  -0.4122  -0.2409  -0.2386  -0.2297  -0.1523
    -0.1060   0.0203   0.0902   0.1599   0.3492   0.4268   0.5324   0.7167
     0.7486   0.7970   0.9376   1.3252   1.4658   1.6145   1.6775   1.9010
     1.9034   1.9203   1.9364   2.0295   2.1989   2.4839   2.5236   2.6837
     2.8208   3.0056   3.0598   3.1000   3.2414   3.2843   3.3278   3.4084
     3.4749   3.5354   3.6264   3.7996   3.8252   3.9316   3.9648   4.2202
     4.8955   5.0504   5.3073

          k = 0.0461-0.0266 0.0000 ( 29033 PWs)   bands (ev):

   -71.0056 -70.9288 -70.9127 -70.9127 -70.5154 -70.4486 -70.4347 -70.4347
   -70.4205 -70.3513 -70.3369 -70.3369 -41.2516 -41.2515 -41.2072 -41.1499
   -41.0517 -41.0407 -41.0406 -40.8085 -40.8085 -40.7101 -40.6876 -40.6860
   -40.6859 -40.6511 -40.5830 -40.5662 -40.5662 -40.5489 -40.3821 -40.3335
   -40.3335 -40.3301 -40.3078 -40.3077 -40.2433 -40.2299 -40.2273 -40.2263
   -40.2263 -40.2153 -40.2153 -40.1779 -40.1415 -40.1166 -40.1008 -40.0259
    -3.9872  -3.1422  -2.9653  -2.9652  -2.8087  -2.7274  -2.6412  -2.6412
    -2.5209  -2.4484  -2.3973  -2.3972  -1.9661  -1.7257  -1.7257  -1.0832
    -1.0831  -0.8797  -0.7600  -0.4980  -0.2330  -0.2330  -0.2146  -0.1155
    -0.1010  -0.1009   0.1659   0.2469   0.4100   0.4269   0.5341   0.6122
     0.6887   0.6887   1.0220   1.2079   1.4405   1.4405   1.5799   1.8176
     1.8424   1.8424   1.9473   1.9500   2.2369   2.2370   2.2631   2.5661
     2.7359   2.9305   2.9305   3.0431   3.1183   3.1183   3.1712   3.4370
     3.4544   3.4544   3.6549   3.6765   3.8421   3.9204   3.9758   3.9758
     4.1933   5.5343   5.9989

          k = 0.0461-0.0089 0.0000 ( 28983 PWs)   bands (ev):

   -71.0090 -70.9235 -70.9180 -70.9093 -70.5183 -70.4440 -70.4392 -70.4317
   -70.4235 -70.3466 -70.3416 -70.3338 -41.2709 -41.2495 -41.2341 -41.1560
   -41.0514 -41.0480 -41.0428 -40.8161 -40.7627 -40.7282 -40.7023 -40.6852
   -40.6737 -40.6613 -40.5782 -40.5757 -40.5673 -40.5623 -40.3875 -40.3356
   -40.3330 -40.3322 -40.3147 -40.2722 -40.2457 -40.2354 -40.2294 -40.2243
   -40.2232 -40.2186 -40.1814 -40.1618 -40.1552 -40.1122 -40.0796 -40.0213
    -4.0972  -3.1657  -3.0988  -3.0280  -2.8956  -2.7642  -2.7384  -2.6917
    -2.5531  -2.5503  -2.5115  -2.4282  -1.9896  -1.9035  -1.7831  -1.1135
    -1.0167  -0.9452  -0.6657  -0.4122  -0.2409  -0.2386  -0.2297  -0.1523
    -0.1060   0.0203   0.0902   0.1599   0.3492   0.4268   0.5324   0.7167
     0.7486   0.7970   0.9376   1.3252   1.4658   1.6145   1.6775   1.9010
     1.9034   1.9203   1.9364   2.0295   2.1989   2.4839   2.5236   2.6837
     2.8208   3.0056   3.0598   3.1000   3.2414   3.2843   3.3278   3.4084
     3.4749   3.5354   3.6264   3.7996   3.8252   3.9316   3.9648   4.2202
     4.8955   5.0504   5.3073

          k = 0.0461 0.0089 0.0000 ( 28983 PWs)   bands (ev):

   -71.0090 -70.9235 -70.9180 -70.9093 -70.5183 -70.4440 -70.4392 -70.4317
   -70.4235 -70.3466 -70.3416 -70.3338 -41.2709 -41.2495 -41.2341 -41.1560
   -41.0514 -41.0480 -41.0428 -40.8161 -40.7627 -40.7282 -40.7023 -40.6852
   -40.6737 -40.6613 -40.5782 -40.5757 -40.5673 -40.5623 -40.3875 -40.3356
   -40.3330 -40.3322 -40.3147 -40.2722 -40.2457 -40.2354 -40.2294 -40.2243
   -40.2232 -40.2186 -40.1814 -40.1618 -40.1552 -40.1122 -40.0796 -40.0213
    -4.0972  -3.1657  -3.0988  -3.0280  -2.8956  -2.7642  -2.7384  -2.6917
    -2.5531  -2.5503  -2.5115  -2.4282  -1.9895  -1.9035  -1.7831  -1.1135
    -1.0167  -0.9452  -0.6657  -0.4122  -0.2410  -0.2386  -0.2297  -0.1523
    -0.1060   0.0203   0.0902   0.1599   0.3492   0.4268   0.5324   0.7167
     0.7486   0.7970   0.9376   1.3252   1.4658   1.6145   1.6775   1.9010
     1.9034   1.9203   1.9364   2.0295   2.1989   2.4839   2.5236   2.6837
     2.8208   3.0056   3.0598   3.1000   3.2414   3.2843   3.3278   3.4084
     3.4749   3.5354   3.6264   3.7996   3.8252   3.9316   3.9648   4.2202
     4.8955   5.0504   5.8331

          k = 0.0461 0.0266 0.0000 ( 29033 PWs)   bands (ev):

   -71.0056 -70.9288 -70.9128 -70.9126 -70.5154 -70.4486 -70.4347 -70.4347
   -70.4205 -70.3513 -70.3369 -70.3368 -41.2516 -41.2515 -41.2072 -41.1499
   -41.0517 -41.0407 -41.0406 -40.8086 -40.8085 -40.7101 -40.6876 -40.6860
   -40.6859 -40.6511 -40.5830 -40.5663 -40.5662 -40.5489 -40.3821 -40.3335
   -40.3335 -40.3301 -40.3078 -40.3078 -40.2433 -40.2299 -40.2273 -40.2263
   -40.2263 -40.2153 -40.2153 -40.1779 -40.1415 -40.1166 -40.1008 -40.0259
    -3.9872  -3.1422  -2.9652  -2.9652  -2.8087  -2.7274  -2.6413  -2.6412
    -2.5209  -2.4484  -2.3973  -2.3972  -1.9661  -1.7257  -1.7257  -1.0832
    -1.0832  -0.8797  -0.7600  -0.4980  -0.2330  -0.2330  -0.2146  -0.1155
    -0.1010  -0.1010   0.1659   0.2469   0.4100   0.4269   0.5341   0.6122
     0.6887   0.6887   1.0220   1.2079   1.4405   1.4405   1.5799   1.8176
     1.8424   1.8424   1.9473   1.9500   2.2369   2.2370   2.2631   2.5661
     2.7359   2.9305   2.9305   3.0431   3.1183   3.1183   3.1712   3.4370
     3.4544   3.4544   3.6549   3.6765   3.8421   3.9204   3.9758   3.9758
     4.1933   5.5343   5.9989

          k = 0.0461 0.0444 0.0000 ( 29010 PWs)   bands (ev):

   -70.9991 -70.9335 -70.9193 -70.9080 -70.5097 -70.4527 -70.4404 -70.4306
   -70.4146 -70.3556 -70.3428 -70.3326 -41.2396 -41.2143 -41.1719 -41.1384
   -41.0500 -41.0384 -41.0294 -40.8629 -40.7939 -40.7338 -40.7109 -40.6750
   -40.6539 -40.6189 -40.5959 -40.5604 -40.5456 -40.5259 -40.3728 -40.3533
   -40.3322 -40.3290 -40.3268 -40.2958 -40.2643 -40.2641 -40.2355 -40.2254
   -40.2219 -40.2211 -40.2032 -40.2023 -40.1398 -40.1375 -40.1274 -40.0371
    -3.7747  -3.0209  -2.8451  -2.8048  -2.6399  -2.6265  -2.5459  -2.4473
    -2.4281  -2.3383  -2.2597  -2.2314  -1.8288  -1.6156  -1.5255  -1.1053
    -1.0237  -0.9267  -0.8415  -0.6369  -0.3371  -0.2778  -0.1963  -0.1806
    -0.0692   0.0039   0.2232   0.2996   0.3723   0.4310   0.4992   0.5048
     0.5572   0.5919   1.1228   1.2280   1.2320   1.3352   1.3645   1.5898
     1.7331   1.7450   1.8266   1.8831   1.8890   1.9420   2.0575   2.2635
     2.5696   2.6730   2.7792   2.8143   2.9504   2.9519   3.0601   3.3313
     3.3653   3.4561   3.5036   3.5857   3.8782   3.9016   3.9166   4.1262
     4.1845   5.3177   5.9541

          k = 0.0461 0.0621 0.0000 ( 29031 PWs)   bands (ev):

   -70.9899 -70.9374 -70.9287 -70.9041 -70.5017 -70.4560 -70.4485 -70.4272
   -70.4063 -70.3590 -70.3512 -70.3291 -41.2143 -41.1618 -41.1335 -41.1224
   -41.0472 -41.0393 -41.0159 -40.9225 -40.7942 -40.7726 -40.7255 -40.6528
   -40.6176 -40.6079 -40.5833 -40.5509 -40.5122 -40.4960 -40.3989 -40.3623
   -40.3429 -40.3238 -40.3234 -40.3033 -40.3032 -40.2804 -40.2477 -40.2309
   -40.2242 -40.2228 -40.2186 -40.1840 -40.1791 -40.1478 -40.1445 -40.0552
    -3.4765  -2.8082  -2.6836  -2.6373  -2.4718  -2.4227  -2.4039  -2.2904
    -2.2516  -2.1594  -2.0494  -2.0283  -1.5853  -1.5113  -1.4642  -1.1311
    -0.9528  -0.9163  -0.8666  -0.7809  -0.4628  -0.4072  -0.3105  -0.3082
     0.0159   0.1428   0.1566   0.1918   0.2889   0.3028   0.3747   0.4070
     0.5979   0.6868   1.0019   1.1054   1.1445   1.2221   1.2845   1.3332
     1.3426   1.4785   1.5720   1.6521   1.7725   1.8078   1.9519   2.1476
     2.1798   2.3299   2.5642   2.7724   2.8080   2.9557   3.0659   3.2314
     3.2689   3.3807   3.4734   3.5560   3.7394   3.7900   3.9159   4.2172
     4.5834   4.6331   5.0867

          k = 0.0461-0.1331 0.0000 ( 29030 PWs)   bands (ev):

   -70.9786 -70.9401 -70.9401 -70.9014 -70.4918 -70.4584 -70.4584 -70.4248
   -70.3961 -70.3615 -70.3615 -70.3267 -41.1783 -41.1037 -41.1000 -41.1000
   -41.0432 -41.0432 -41.0048 -40.9814 -40.8644 -40.7453 -40.7453 -40.6463
   -40.6223 -40.5513 -40.5513 -40.5393 -40.4661 -40.4661 -40.4431 -40.3757
   -40.3632 -40.3481 -40.3210 -40.3210 -40.3167 -40.2746 -40.2627 -40.2626
   -40.2234 -40.2188 -40.2188 -40.2087 -40.1658 -40.1600 -40.1600 -40.0787
    -3.1259  -2.5372  -2.5371  -2.4591  -2.2998  -2.2997  -2.1411  -2.1184
    -2.1183  -1.9014  -1.8605  -1.8367  -1.6330  -1.3427  -1.3095  -1.3094
    -0.9629  -0.9629  -0.8348  -0.7051  -0.5191  -0.5190  -0.4875  -0.4403
    -0.0675   0.0898   0.0899   0.1095   0.1209   0.3098   0.3485   0.3486
     0.6200   0.6201   0.7271   0.7668   0.8837   1.0284   1.0284   1.0631
     1.0807   1.5050   1.6494   1.6543   1.6543   1.8978   1.9052   1.9053
     2.0840   2.3205   2.5423   2.6028   2.6028   3.0763   3.0851   3.1814
     3.2318   3.2319   3.4094   3.5458   3.5458   3.6681   4.0015   4.0016
     4.2834   4.2835   5.0151

          k = 0.0461-0.1153 0.0000 ( 29036 PWs)   bands (ev):

   -70.9659 -70.9528 -70.9415 -70.9000 -70.4808 -70.4694 -70.4596 -70.4236
   -70.3847 -70.3729 -70.3628 -70.3254 -41.1409 -41.0846 -41.0812 -41.0705
   -41.0385 -41.0347 -41.0129 -40.9937 -40.9397 -40.7600 -40.7133 -40.6793
   -40.5934 -40.5320 -40.5314 -40.4880 -40.4743 -40.4464 -40.4227 -40.4108
   -40.4050 -40.3598 -40.3218 -40.3201 -40.3189 -40.3169 -40.2738 -40.2444
   -40.2273 -40.2237 -40.2200 -40.2068 -40.1880 -40.1690 -40.1332 -40.1054
    -2.7856  -2.5572  -2.3251  -2.2958  -2.1720  -2.1413  -2.0113  -1.9409
    -1.8998  -1.8953  -1.8250  -1.7651  -1.4769  -1.4644  -1.4595  -1.3461
    -0.9687  -0.9020  -0.8492  -0.7135  -0.6002  -0.4364  -0.3712  -0.2492
    -0.1833  -0.1695  -0.0630  -0.0268   0.0645   0.0960   0.2141   0.3161
     0.5424   0.5439   0.5501   0.6936   0.7259   0.8118   0.9031   0.9255
     1.1438   1.3861   1.5448   1.7531   1.7936   1.8783   1.8817   2.0041
     2.0975   2.3029   2.4720   2.5743   2.9051   3.0058   3.0330   3.1672
     3.2011   3.2358   3.3082   3.4455   3.4799   3.5366   3.6008   3.6646
     4.0601   4.3144   5.4859

          k = 0.0461-0.0976 0.0000 ( 29036 PWs)   bands (ev):

   -70.9659 -70.9528 -70.9415 -70.9000 -70.4808 -70.4694 -70.4596 -70.4236
   -70.3847 -70.3729 -70.3628 -70.3254 -41.1409 -41.0846 -41.0812 -41.0705
   -41.0385 -41.0347 -41.0129 -40.9937 -40.9397 -40.7600 -40.7133 -40.6793
   -40.5934 -40.5320 -40.5314 -40.4880 -40.4743 -40.4464 -40.4227 -40.4108
   -40.4050 -40.3598 -40.3218 -40.3201 -40.3189 -40.3169 -40.2738 -40.2444
   -40.2273 -40.2237 -40.2200 -40.2068 -40.1880 -40.1690 -40.1332 -40.1054
    -2.7856  -2.5572  -2.3251  -2.2958  -2.1720  -2.1413  -2.0113  -1.9409
    -1.8998  -1.8953  -1.8250  -1.7651  -1.4769  -1.4644  -1.4595  -1.3461
    -0.9687  -0.9020  -0.8492  -0.7135  -0.6002  -0.4364  -0.3712  -0.2492
    -0.1833  -0.1695  -0.0630  -0.0268   0.0645   0.0960   0.2141   0.3161
     0.5424   0.5439   0.5501   0.6936   0.7259   0.8118   0.9031   0.9255
     1.1438   1.3861   1.5448   1.7531   1.7936   1.8783   1.8817   2.0041
     2.0975   2.3029   2.4720   2.5743   2.9051   3.0058   3.0330   3.1672
     3.2011   3.2358   3.3082   3.4455   3.4799   3.5366   3.6008   3.6646
     4.0601   4.3144   5.4859

          k = 0.0461-0.0798 0.0000 ( 29030 PWs)   bands (ev):

   -70.9786 -70.9402 -70.9400 -70.9014 -70.4918 -70.4584 -70.4584 -70.4248
   -70.3961 -70.3615 -70.3615 -70.3267 -41.1783 -41.1037 -41.1000 -41.1000
   -41.0433 -41.0431 -41.0048 -40.9814 -40.8644 -40.7453 -40.7453 -40.6463
   -40.6223 -40.5513 -40.5513 -40.5393 -40.4661 -40.4661 -40.4431 -40.3757
   -40.3632 -40.3481 -40.3210 -40.3210 -40.3167 -40.2746 -40.2626 -40.2626
   -40.2234 -40.2188 -40.2188 -40.2087 -40.1658 -40.1600 -40.1600 -40.0787
    -3.1259  -2.5372  -2.5371  -2.4591  -2.2998  -2.2997  -2.1411  -2.1184
    -2.1183  -1.9014  -1.8605  -1.8367  -1.6330  -1.3427  -1.3095  -1.3094
    -0.9629  -0.9628  -0.8348  -0.7051  -0.5191  -0.5190  -0.4875  -0.4403
    -0.0675   0.0899   0.0899   0.1095   0.1209   0.3098   0.3485   0.3486
     0.6200   0.6201   0.7271   0.7668   0.8837   1.0284   1.0284   1.0631
     1.0807   1.5050   1.6494   1.6543   1.6543   1.8978   1.9052   1.9053
     2.0840   2.3205   2.5423   2.6028   2.6029   3.0763   3.0851   3.1814
     3.2318   3.2319   3.4094   3.5458   3.5458   3.6681   4.0016   4.0016
     4.2834   4.2835   5.0151

          k = 0.0461-0.0621 0.0000 ( 29031 PWs)   bands (ev):

   -70.9899 -70.9374 -70.9287 -70.9041 -70.5017 -70.4560 -70.4485 -70.4272
   -70.4063 -70.3590 -70.3512 -70.3291 -41.2143 -41.1618 -41.1335 -41.1224
   -41.0472 -41.0393 -41.0159 -40.9225 -40.7942 -40.7726 -40.7255 -40.6528
   -40.6176 -40.6079 -40.5833 -40.5509 -40.5122 -40.4960 -40.3989 -40.3623
   -40.3429 -40.3238 -40.3234 -40.3033 -40.3032 -40.2804 -40.2477 -40.2309
   -40.2242 -40.2228 -40.2186 -40.1840 -40.1791 -40.1478 -40.1445 -40.0552
    -3.4765  -2.8082  -2.6836  -2.6373  -2.4718  -2.4227  -2.4039  -2.2904
    -2.2516  -2.1594  -2.0494  -2.0283  -1.5853  -1.5113  -1.4642  -1.1311
    -0.9528  -0.9163  -0.8666  -0.7809  -0.4628  -0.4072  -0.3105  -0.3082
     0.0159   0.1428   0.1566   0.1918   0.2889   0.3028   0.3747   0.4070
     0.5979   0.6868   1.0019   1.1054   1.1445   1.2222   1.2845   1.3332
     1.3426   1.4785   1.5720   1.6521   1.7725   1.8078   1.9519   2.1476
     2.1798   2.3299   2.5642   2.7724   2.8080   2.9557   3.0659   3.2314
     3.2689   3.3807   3.4734   3.5560   3.7394   3.7900   3.9159   4.2172
     4.5834   4.6331   5.0867

          k = 0.0461-0.0444 0.0000 ( 29010 PWs)   bands (ev):

   -70.9991 -70.9335 -70.9193 -70.9080 -70.5097 -70.4527 -70.4404 -70.4306
   -70.4146 -70.3556 -70.3428 -70.3326 -41.2396 -41.2143 -41.1719 -41.1384
   -41.0500 -41.0384 -41.0294 -40.8629 -40.7939 -40.7338 -40.7109 -40.6750
   -40.6539 -40.6189 -40.5959 -40.5604 -40.5456 -40.5259 -40.3728 -40.3533
   -40.3322 -40.3290 -40.3268 -40.2958 -40.2643 -40.2641 -40.2355 -40.2254
   -40.2219 -40.2211 -40.2032 -40.2023 -40.1398 -40.1375 -40.1274 -40.0371
    -3.7747  -3.0209  -2.8451  -2.8048  -2.6399  -2.6265  -2.5459  -2.4473
    -2.4281  -2.3383  -2.2597  -2.2314  -1.8288  -1.6156  -1.5255  -1.1053
    -1.0237  -0.9267  -0.8415  -0.6369  -0.3371  -0.2778  -0.1963  -0.1806
    -0.0692   0.0039   0.2232   0.2996   0.3723   0.4310   0.4992   0.5048
     0.5572   0.5919   1.1228   1.2280   1.2320   1.3352   1.3645   1.5898
     1.7331   1.7450   1.8266   1.8831   1.8890   1.9420   2.0575   2.2635
     2.5696   2.6730   2.7792   2.8143   2.9504   2.9519   3.0601   3.3313
     3.3653   3.4561   3.5036   3.5857   3.8782   3.9015   3.9166   4.1262
     4.1845   5.3177   5.9541

          k = 0.0615-0.0355 0.0000 ( 29035 PWs)   bands (ev):

   -70.9944 -70.9401 -70.9128 -70.9127 -70.5056 -70.4584 -70.4347 -70.4347
   -70.4104 -70.3615 -70.3369 -70.3369 -41.2165 -41.2164 -41.1367 -41.1303
   -41.0526 -41.0288 -41.0288 -40.8491 -40.8491 -40.7686 -40.6916 -40.6557
   -40.6557 -40.6018 -40.5884 -40.5456 -40.5456 -40.5025 -40.3682 -40.3454
   -40.3453 -40.3258 -40.3258 -40.3257 -40.2861 -40.2517 -40.2517 -40.2278
   -40.2223 -40.2223 -40.2169 -40.2134 -40.1627 -40.1333 -40.1247 -40.0430
    -3.6342  -2.9987  -2.7177  -2.7176  -2.5940  -2.5568  -2.3870  -2.3870
    -2.3612  -2.2053  -2.2052  -2.1407  -1.7867  -1.4537  -1.4537  -1.0494
    -1.0493  -1.0364  -0.7785  -0.7373  -0.4006  -0.4005  -0.1849  -0.1516
     0.0235   0.0236   0.3342   0.3369   0.4006   0.4136   0.4137   0.4186
     0.5272   0.6082   1.0160   1.1756   1.1756   1.2225   1.3399   1.4777
     1.5688   1.5689   1.6938   1.6938   1.8625   1.8684   1.9512   2.3640
     2.5190   2.5190   2.5899   2.7282   2.7378   2.8607   2.8607   3.1120
     3.2594   3.4302   3.4302   3.5429   3.6975   3.8150   3.9702   3.9703
     4.3160   6.2652   6.2652

          k = 0.0615-0.0177 0.0000 ( 29010 PWs)   bands (ev):

   -70.9991 -70.9335 -70.9193 -70.9080 -70.5097 -70.4527 -70.4404 -70.4306
   -70.4146 -70.3556 -70.3428 -70.3326 -41.2396 -41.2143 -41.1719 -41.1384
   -41.0500 -41.0384 -41.0294 -40.8629 -40.7939 -40.7338 -40.7109 -40.6750
   -40.6539 -40.6189 -40.5959 -40.5604 -40.5456 -40.5259 -40.3728 -40.3533
   -40.3322 -40.3290 -40.3268 -40.2958 -40.2643 -40.2641 -40.2355 -40.2254
   -40.2219 -40.2211 -40.2032 -40.2023 -40.1398 -40.1375 -40.1274 -40.0371
    -3.7747  -3.0209  -2.8451  -2.8048  -2.6399  -2.6265  -2.5459  -2.4473
    -2.4281  -2.3383  -2.2597  -2.2314  -1.8288  -1.6156  -1.5255  -1.1053
    -1.0237  -0.9267  -0.8415  -0.6369  -0.3371  -0.2778  -0.1963  -0.1806
    -0.0692   0.0039   0.2232   0.2996   0.3723   0.4310   0.4992   0.5048
     0.5572   0.5919   1.1228   1.2280   1.2320   1.3352   1.3645   1.5898
     1.7331   1.7450   1.8266   1.8831   1.8890   1.9420   2.0575   2.2635
     2.5696   2.6730   2.7792   2.8143   2.9503   2.9519   3.0601   3.3313
     3.3653   3.4561   3.5036   3.5857   3.8782   3.9016   3.9166   4.1262
     4.1845   5.3177   5.9541

          k = 0.0615 0.0000 0.0000 ( 29002 PWs)   bands (ev):

   -71.0007 -70.9264 -70.9264 -70.9064 -70.5111 -70.4466 -70.4465 -70.4292
   -70.4160 -70.3492 -70.3492 -70.3312 -41.2475 -41.1989 -41.1988 -41.1412
   -41.0454 -41.0453 -41.0298 -40.8676 -40.7466 -40.7466 -40.7208 -40.6815
   -40.6411 -40.6411 -40.5950 -40.5654 -40.5397 -40.5397 -40.3745 -40.3559
   -40.3344 -40.3274 -40.3274 -40.2688 -40.2606 -40.2605 -40.2570 -40.2232
   -40.2231 -40.2216 -40.1966 -40.1668 -40.1668 -40.1282 -40.1253 -40.0359
    -3.8223  -2.9615  -2.9614  -2.8345  -2.6667  -2.6123  -2.6122  -2.4688
    -2.4219  -2.4219  -2.3017  -2.2396  -1.7651  -1.7650  -1.5510  -1.1236
    -0.9342  -0.9341  -0.8886  -0.5919  -0.3207  -0.2219  -0.2217  -0.2075
    -0.1009   0.0879   0.0879   0.2641   0.3489   0.4144   0.5392   0.5392
     0.5800   0.6108   1.1653   1.2334   1.2336   1.4074   1.4075   1.6316
     1.7640   1.8269   1.8269   1.9460   1.9929   1.9930   2.0028   2.2044
     2.6210   2.6211   2.8705   2.9134   3.0328   3.0329   3.2005   3.3157
     3.4135   3.4136   3.4565   3.7559   3.7560   3.8527   4.1752   4.4447
     4.4447   4.9869   4.9870

          k = 0.0615 0.0177 0.0000 ( 29010 PWs)   bands (ev):

   -70.9991 -70.9335 -70.9193 -70.9080 -70.5097 -70.4527 -70.4404 -70.4306
   -70.4146 -70.3556 -70.3428 -70.3326 -41.2396 -41.2143 -41.1719 -41.1384
   -41.0500 -41.0384 -41.0294 -40.8629 -40.7939 -40.7338 -40.7109 -40.6750
   -40.6539 -40.6189 -40.5959 -40.5604 -40.5456 -40.5259 -40.3728 -40.3533
   -40.3322 -40.3290 -40.3268 -40.2958 -40.2643 -40.2641 -40.2355 -40.2254
   -40.2219 -40.2211 -40.2032 -40.2023 -40.1398 -40.1375 -40.1274 -40.0371
    -3.7747  -3.0209  -2.8451  -2.8048  -2.6399  -2.6265  -2.5459  -2.4473
    -2.4281  -2.3383  -2.2597  -2.2314  -1.8288  -1.6156  -1.5255  -1.1053
    -1.0237  -0.9267  -0.8415  -0.6369  -0.3371  -0.2778  -0.1963  -0.1806
    -0.0692   0.0039   0.2232   0.2996   0.3723   0.4310   0.4992   0.5048
     0.5572   0.5919   1.1228   1.2280   1.2320   1.3352   1.3645   1.5898
     1.7331   1.7450   1.8266   1.8831   1.8890   1.9420   2.0575   2.2635
     2.5696   2.6730   2.7792   2.8143   2.9503   2.9519   3.0601   3.3313
     3.3653   3.4561   3.5036   3.5857   3.8782   3.9016   3.9166   4.1262
     4.1845   5.3177   5.9541

          k = 0.0615 0.0355 0.0000 ( 29035 PWs)   bands (ev):

   -70.9944 -70.9401 -70.9128 -70.9127 -70.5056 -70.4584 -70.4347 -70.4347
   -70.4104 -70.3615 -70.3369 -70.3369 -41.2165 -41.2164 -41.1367 -41.1303
   -41.0526 -41.0289 -41.0287 -40.8492 -40.8491 -40.7686 -40.6916 -40.6557
   -40.6557 -40.6018 -40.5884 -40.5456 -40.5456 -40.5025 -40.3682 -40.3454
   -40.3453 -40.3258 -40.3258 -40.3257 -40.2861 -40.2517 -40.2516 -40.2278
   -40.2223 -40.2223 -40.2169 -40.2134 -40.1627 -40.1333 -40.1247 -40.0430
    -3.6342  -2.9987  -2.7177  -2.7176  -2.5940  -2.5568  -2.3870  -2.3869
    -2.3612  -2.2053  -2.2052  -2.1407  -1.7867  -1.4538  -1.4537  -1.0493
    -1.0493  -1.0364  -0.7785  -0.7373  -0.4005  -0.4005  -0.1849  -0.1516
     0.0236   0.0236   0.3342   0.3369   0.4006   0.4136   0.4137   0.4186
     0.5272   0.6082   1.0160   1.1756   1.1757   1.2225   1.3399   1.4777
     1.5688   1.5689   1.6938   1.6938   1.8625   1.8684   1.9512   2.3640
     2.5190   2.5191   2.5899   2.7282   2.7378   2.8607   2.8607   3.1120
     3.2594   3.4302   3.4302   3.5429   3.6975   3.8150   3.9702   3.9703
     4.3160   6.2652   6.2652

          k = 0.0615 0.0532 0.0000 ( 29031 PWs)   bands (ev):

   -70.9870 -70.9457 -70.9203 -70.9071 -70.4992 -70.4633 -70.4412 -70.4297
   -70.4037 -70.3666 -70.3437 -70.3318 -41.2045 -41.1796 -41.1177 -41.0995
   -41.0515 -41.0300 -41.0170 -40.9095 -40.8269 -40.8181 -40.6898 -40.6455
   -40.6241 -40.6175 -40.5521 -40.5412 -40.5211 -40.4712 -40.3901 -40.3621
   -40.3386 -40.3332 -40.3243 -40.3214 -40.3155 -40.2929 -40.2425 -40.2356
   -40.2301 -40.2235 -40.2183 -40.2071 -40.1904 -40.1461 -40.1209 -40.0564
    -3.4088  -2.8926  -2.5925  -2.5801  -2.5025  -2.4149  -2.3062  -2.2431
    -2.1521  -2.1432  -2.0515  -1.9706  -1.6342  -1.4527  -1.3576  -1.1837
    -0.9563  -0.8757  -0.8662  -0.7966  -0.5356  -0.5325  -0.2412  -0.1766
     0.0931   0.1595   0.2341   0.2351   0.2991   0.3239   0.3349   0.4187
     0.6014   0.7570   0.9696   0.9760   1.0404   1.0440   1.1939   1.3035
     1.3515   1.3592   1.5997   1.6330   1.6991   1.7657   2.0003   2.1641
     2.1921   2.4070   2.4164   2.6082   2.7408   2.8117   2.8663   2.9913
     3.1645   3.3600   3.4353   3.4694   3.6367   3.7772   3.9122   3.9163
     4.6332   5.4987   6.0507

          k = 0.0615-0.1420 0.0000 ( 29038 PWs)   bands (ev):

   -70.9773 -70.9501 -70.9301 -70.9027 -70.4907 -70.4671 -70.4497 -70.4260
   -70.3949 -70.3705 -70.3525 -70.3279 -41.1789 -41.1320 -41.1018 -41.0756
   -41.0373 -41.0345 -41.0055 -40.9715 -40.8766 -40.7967 -40.7001 -40.6440
   -40.6237 -40.5817 -40.5347 -40.5160 -40.4876 -40.4377 -40.4362 -40.3732
   -40.3697 -40.3499 -40.3231 -40.3228 -40.3133 -40.2983 -40.2823 -40.2365
   -40.2273 -40.2237 -40.2104 -40.2059 -40.1985 -40.1654 -40.1256 -40.0777
    -3.1148  -2.7236  -2.4512  -2.4094  -2.3497  -2.2489  -2.2224  -2.0950
    -2.0480  -1.9658  -1.8252  -1.8136  -1.5719  -1.3801  -1.3248  -1.3167
    -0.9689  -0.9614  -0.8408  -0.7363  -0.6612  -0.5009  -0.3570  -0.2630
     0.0099   0.0360   0.1515   0.1551   0.1953   0.2829   0.3309   0.3901
     0.5456   0.7073   0.7210   0.7605   0.8947   0.9516   0.9933   1.0023
     1.0894   1.4438   1.5778   1.6549   1.7166   1.8896   1.9043   1.9499
     2.1078   2.2498   2.4585   2.5615   2.6300   2.9423   2.9799   2.9881
     3.2371   3.2628   3.3686   3.4785   3.5216   3.7174   3.7459   3.7690
     4.7539   5.0344   5.1486

          k = 0.0615-0.1242 0.0000 ( 29036 PWs)   bands (ev):

   -70.9659 -70.9528 -70.9415 -70.9000 -70.4808 -70.4694 -70.4596 -70.4236
   -70.3847 -70.3729 -70.3628 -70.3254 -41.1409 -41.0846 -41.0812 -41.0705
   -41.0385 -41.0347 -41.0129 -40.9937 -40.9397 -40.7600 -40.7133 -40.6793
   -40.5934 -40.5320 -40.5314 -40.4880 -40.4743 -40.4464 -40.4227 -40.4108
   -40.4050 -40.3598 -40.3218 -40.3201 -40.3189 -40.3169 -40.2738 -40.2444
   -40.2273 -40.2237 -40.2200 -40.2068 -40.1880 -40.1690 -40.1332 -40.1054
    -2.7856  -2.5572  -2.3251  -2.2958  -2.1720  -2.1413  -2.0113  -1.9409
[...]
   -40.6297 -40.6236 -40.5244 -40.5244 -40.5159 -40.4388 -40.3724 -40.3723
   -40.3679 -40.3464 -40.3304 -40.3304 -40.3248 -40.2739 -40.2739 -40.2686
   -40.2249 -40.2241 -40.2240 -40.2030 -40.1941 -40.1527 -40.1051 -40.0627
    -3.2743  -2.9158  -2.5093  -2.5092  -2.4871  -2.4001  -2.1427  -2.1426
    -2.1411  -2.0109  -2.0109  -1.8905  -1.5841  -1.3736  -1.3735  -1.2771
    -0.9487  -0.8088  -0.8043  -0.8042  -0.6530  -0.6529  -0.2041  -0.0756
     0.2002   0.2002   0.2157   0.2158   0.2481   0.4239   0.4257   0.5099
     0.5298   0.8226   0.8226   0.8700   0.8725   0.9119   1.0509   1.0509
     1.1760   1.3783   1.6360   1.6506   1.6507   1.7269   2.0287   2.0658
     2.1589   2.1589   2.4747   2.5518   2.6737   2.7098   2.7099   2.7250
     2.9395   3.1166   3.4252   3.4252   3.7195   3.7686   3.9838   3.9839
     4.8049   5.8274   6.4136

          k = 0.0768-0.1508 0.0000 ( 29059 PWs)   bands (ev):

   -70.9734 -70.9594 -70.9208 -70.9066 -70.4874 -70.4751 -70.4416 -70.4293
   -70.3915 -70.3788 -70.3441 -70.3313 -41.1783 -41.1567 -41.0964 -41.0790
   -41.0249 -41.0094 -40.9987 -40.9423 -40.9087 -40.8496 -40.6662 -40.6414
   -40.6244 -40.6048 -40.5247 -40.5029 -40.4776 -40.4161 -40.4040 -40.4008
   -40.3553 -40.3534 -40.3468 -40.3239 -40.3209 -40.3025 -40.3020 -40.2486
   -40.2245 -40.2241 -40.2215 -40.2136 -40.1877 -40.1667 -40.0997 -40.0777
    -3.0773  -2.8855  -2.4327  -2.4005  -2.4002  -2.3379  -2.1570  -2.0466
    -2.0099  -1.9310  -1.8401  -1.8060  -1.4599  -1.4321  -1.3546  -1.3242
    -1.0462  -0.9534  -0.8111  -0.7887  -0.6676  -0.5238  -0.2048  -0.0960
     0.0772   0.2146   0.2208   0.2563   0.2810   0.3199   0.3412   0.4519
     0.5869   0.6639   0.6911   0.7526   0.8273   0.8311   0.8474   0.8912
     1.1383   1.4544   1.4747   1.6732   1.7143   1.7701   1.9281   2.0161
     2.0991   2.1840   2.3390   2.5542   2.6145   2.6378   2.7739   2.8512
     2.8981   3.0345   3.3618   3.4288   3.6757   3.7153   3.9233   3.9260
     5.1167   5.5892   5.6243

          k = 0.0768-0.1331 0.0000 ( 29048 PWs)   bands (ev):

   -70.9638 -70.9636 -70.9306 -70.9023 -70.4789 -70.4789 -70.4501 -70.4256
   -70.3828 -70.3827 -70.3529 -70.3274 -41.1609 -41.1202 -41.0825 -41.0824
   -41.0326 -41.0031 -40.9925 -40.9622 -40.9621 -40.8069 -40.6723 -40.6721
   -40.6099 -40.5713 -40.5261 -40.4771 -40.4531 -40.4437 -40.4436 -40.3846
   -40.3750 -40.3749 -40.3241 -40.3210 -40.3210 -40.3143 -40.3054 -40.2296
   -40.2255 -40.2255 -40.2241 -40.2036 -40.1868 -40.1868 -40.1017 -40.1017
    -2.8290  -2.8289  -2.3515  -2.2864  -2.2351  -2.2349  -2.1923  -1.9822
    -1.8778  -1.8776  -1.8619  -1.6643  -1.5346  -1.4499  -1.2477  -1.2476
    -1.1499  -1.1498  -0.8751  -0.7519  -0.5894  -0.3172  -0.2402  -0.2401
    -0.0864   0.0853   0.0854   0.1268   0.1814   0.1814   0.2340   0.2949
     0.5937   0.6138   0.6148   0.6148   0.6837   0.7558   0.9296   0.9298
     1.2662   1.2662   1.6911   1.6912   1.6981   1.7348   1.8370   2.0639
     2.1811   2.1812   2.5528   2.5550   2.5552   2.8953   2.9038   2.9040
     3.0909   3.0909   3.2643   3.3649   3.5905   3.5905   3.7514   3.7645
     4.7955   5.1689   5.5227

          k = 0.0768-0.1153 0.0000 ( 29036 PWs)   bands (ev):

   -70.9659 -70.9528 -70.9415 -70.9000 -70.4808 -70.4694 -70.4596 -70.4236
   -70.3847 -70.3729 -70.3628 -70.3254 -41.1409 -41.0846 -41.0812 -41.0705
   -41.0385 -41.0347 -41.0129 -40.9937 -40.9397 -40.7600 -40.7133 -40.6793
   -40.5934 -40.5320 -40.5314 -40.4880 -40.4743 -40.4464 -40.4227 -40.4108
   -40.4050 -40.3598 -40.3218 -40.3201 -40.3189 -40.3169 -40.2738 -40.2444
   -40.2273 -40.2237 -40.2200 -40.2068 -40.1880 -40.1690 -40.1332 -40.1054
    -2.7856  -2.5572  -2.3251  -2.2958  -2.1720  -2.1413  -2.0113  -1.9409
    -1.8998  -1.8953  -1.8250  -1.7651  -1.4769  -1.4644  -1.4595  -1.3461
    -0.9687  -0.9020  -0.8492  -0.7135  -0.6002  -0.4364  -0.3712  -0.2492
    -0.1834  -0.1695  -0.0630  -0.0268   0.0645   0.0960   0.2141   0.3161
     0.5424   0.5439   0.5501   0.6936   0.7259   0.8118   0.9031   0.9255
     1.1438   1.3861   1.5448   1.7531   1.7936   1.8783   1.8817   2.0041
     2.0975   2.3029   2.4720   2.5743   2.9051   3.0058   3.0330   3.1672
     3.2011   3.2358   3.3082   3.4455   3.4799   3.5366   3.6008   3.6646
     4.0601   4.3144   5.4859

          k = 0.0768-0.0976 0.0000 ( 29036 PWs)   bands (ev):

   -70.9659 -70.9528 -70.9415 -70.9000 -70.4808 -70.4694 -70.4596 -70.4236
   -70.3847 -70.3729 -70.3628 -70.3254 -41.1409 -41.0846 -41.0812 -41.0705
   -41.0385 -41.0347 -41.0129 -40.9937 -40.9397 -40.7600 -40.7133 -40.6793
   -40.5934 -40.5320 -40.5314 -40.4880 -40.4743 -40.4464 -40.4227 -40.4108
   -40.4050 -40.3598 -40.3218 -40.3201 -40.3189 -40.3169 -40.2738 -40.2444
   -40.2273 -40.2237 -40.2200 -40.2068 -40.1880 -40.1690 -40.1332 -40.1054
    -2.7856  -2.5572  -2.3251  -2.2958  -2.1720  -2.1413  -2.0113  -1.9409
    -1.8998  -1.8953  -1.8250  -1.7651  -1.4769  -1.4644  -1.4595  -1.3461
    -0.9687  -0.9020  -0.8492  -0.7135  -0.6002  -0.4364  -0.3712  -0.2492
    -0.1834  -0.1695  -0.0630  -0.0268   0.0645   0.0960   0.2141   0.3161
     0.5424   0.5439   0.5501   0.6936   0.7259   0.8118   0.9031   0.9255
     1.1438   1.3861   1.5448   1.7531   1.7936   1.8783   1.8817   2.0041
     2.0975   2.3029   2.4720   2.5743   2.9051   3.0058   3.0330   3.1672
     3.2011   3.2358   3.3082   3.4455   3.4799   3.5366   3.6008   3.6646
     4.0601   4.3144   5.4859

          k = 0.0768-0.0798 0.0000 ( 29048 PWs)   bands (ev):

   -70.9637 -70.9637 -70.9306 -70.9023 -70.4789 -70.4789 -70.4501 -70.4256
   -70.3827 -70.3827 -70.3529 -70.3274 -41.1609 -41.1202 -41.0825 -41.0824
   -41.0326 -41.0031 -40.9925 -40.9622 -40.9622 -40.8069 -40.6722 -40.6722
   -40.6099 -40.5713 -40.5261 -40.4771 -40.4531 -40.4437 -40.4435 -40.3846
   -40.3750 -40.3749 -40.3241 -40.3210 -40.3210 -40.3143 -40.3054 -40.2296
   -40.2255 -40.2255 -40.2241 -40.2036 -40.1868 -40.1868 -40.1017 -40.1017
    -2.8290  -2.8290  -2.3515  -2.2864  -2.2351  -2.2350  -2.1923  -1.9822
    -1.8777  -1.8777  -1.8619  -1.6643  -1.5346  -1.4499  -1.2477  -1.2476
    -1.1499  -1.1498  -0.8751  -0.7519  -0.5894  -0.3172  -0.2402  -0.2401
    -0.0863   0.0852   0.0854   0.1268   0.1814   0.1814   0.2340   0.2949
     0.5937   0.6138   0.6148   0.6149   0.6837   0.7558   0.9296   0.9297
     1.2662   1.2662   1.6911   1.6912   1.6981   1.7348   1.8370   2.0639
     2.1811   2.1813   2.5528   2.5550   2.5552   2.8953   2.9038   2.9040
     3.0909   3.0909   3.2643   3.3649   3.5905   3.5905   3.7514   3.7645
     4.7955   5.1689   5.5227

          k = 0.0768-0.0621 0.0000 ( 29059 PWs)   bands (ev):

   -70.9734 -70.9594 -70.9208 -70.9066 -70.4874 -70.4751 -70.4416 -70.4293
   -70.3915 -70.3788 -70.3441 -70.3313 -41.1783 -41.1567 -41.0964 -41.0790
   -41.0249 -41.0094 -40.9987 -40.9423 -40.9087 -40.8496 -40.6662 -40.6414
   -40.6244 -40.6048 -40.5247 -40.5029 -40.4776 -40.4161 -40.4040 -40.4008
   -40.3553 -40.3534 -40.3468 -40.3239 -40.3209 -40.3025 -40.3020 -40.2486
   -40.2245 -40.2241 -40.2215 -40.2136 -40.1877 -40.1667 -40.0997 -40.0777
    -3.0773  -2.8855  -2.4327  -2.4005  -2.4002  -2.3379  -2.1570  -2.0466
    -2.0099  -1.9310  -1.8401  -1.8060  -1.4599  -1.4321  -1.3546  -1.3242
    -1.0462  -0.9534  -0.8111  -0.7887  -0.6676  -0.5238  -0.2048  -0.0960
     0.0772   0.2146   0.2208   0.2563   0.2810   0.3199   0.3412   0.4519
     0.5869   0.6639   0.6911   0.7526   0.8273   0.8311   0.8474   0.8912
     1.1383   1.4544   1.4747   1.6732   1.7143   1.7701   1.9281   2.0161
     2.0991   2.1840   2.3390   2.5542   2.6145   2.6378   2.7739   2.8512
     2.8981   3.0345   3.3618   3.4288   3.6757   3.7153   3.9233   3.9260
     5.1167   5.5892   5.6243

          k =-0.0922 0.0532 0.0000 ( 29008 PWs)   bands (ev):

   -70.9673 -70.9673 -70.9128 -70.9128 -70.4821 -70.4820 -70.4347 -70.4347
   -70.3860 -70.3860 -70.3369 -70.3369 -41.1719 -41.1718 -41.0883 -41.0882
   -41.0163 -41.0162 -40.9521 -40.9521 -40.8997 -40.8997 -40.6469 -40.6469
   -40.6190 -40.6190 -40.5143 -40.5143 -40.4380 -40.4378 -40.3845 -40.3845
   -40.3724 -40.3724 -40.3345 -40.3345 -40.3192 -40.3192 -40.2810 -40.2810
   -40.2247 -40.2246 -40.2177 -40.2177 -40.1734 -40.1734 -40.0840 -40.0839
    -3.0035  -3.0034  -2.4139  -2.4137  -2.4020  -2.4019  -2.1029  -2.1028
    -1.9153  -1.9152  -1.8366  -1.8366  -1.4037  -1.4037  -1.3851  -1.3850
    -0.9874  -0.9874  -0.8483  -0.8483  -0.5666  -0.5665  -0.1088  -0.1087
     0.1886   0.1886   0.2542   0.2542   0.4382   0.4382   0.4974   0.4976
     0.6255   0.6257   0.6307   0.6309   0.7390   0.7390   0.8024   0.8024
     1.2868   1.2869   1.6000   1.6001   1.6964   1.6964   1.9831   1.9831
     2.1527   2.1531   2.2929   2.2930   2.6585   2.6586   2.7682   2.7682
     2.8024   2.8025   3.4248   3.4248   3.7418   3.7418   3.9907   3.9907
     5.3090   5.3091   6.4608

          k =-0.0922 0.0710 0.0000 ( 29059 PWs)   bands (ev):

   -70.9734 -70.9594 -70.9208 -70.9066 -70.4874 -70.4751 -70.4416 -70.4293
   -70.3915 -70.3788 -70.3441 -70.3313 -41.1783 -41.1567 -41.0964 -41.0790
   -41.0249 -41.0094 -40.9987 -40.9423 -40.9087 -40.8496 -40.6662 -40.6414
   -40.6244 -40.6048 -40.5247 -40.5029 -40.4776 -40.4161 -40.4040 -40.4008
   -40.3553 -40.3534 -40.3468 -40.3239 -40.3209 -40.3025 -40.3020 -40.2486
   -40.2245 -40.2241 -40.2215 -40.2136 -40.1877 -40.1667 -40.0997 -40.0777
    -3.0773  -2.8855  -2.4327  -2.4005  -2.4002  -2.3379  -2.1570  -2.0466
    -2.0099  -1.9310  -1.8401  -1.8060  -1.4599  -1.4321  -1.3546  -1.3242
    -1.0462  -0.9534  -0.8111  -0.7887  -0.6676  -0.5238  -0.2048  -0.0960
     0.0772   0.2146   0.2208   0.2563   0.2810   0.3199   0.3412   0.4519
     0.5869   0.6639   0.6911   0.7526   0.8273   0.8311   0.8474   0.8912
     1.1383   1.4544   1.4747   1.6732   1.7143   1.7701   1.9281   2.0161
     2.0991   2.1840   2.3390   2.5542   2.6145   2.6378   2.7739   2.8512
     2.8981   3.0345   3.3618   3.4288   3.6757   3.7153   3.9233   3.9260
     5.1167   5.5892   5.6243

          k =-0.0922 0.0887 0.0000 ( 29038 PWs)   bands (ev):

   -70.9773 -70.9501 -70.9301 -70.9027 -70.4907 -70.4671 -70.4497 -70.4260
   -70.3949 -70.3705 -70.3525 -70.3279 -41.1789 -41.1320 -41.1018 -41.0756
   -41.0373 -41.0345 -41.0055 -40.9715 -40.8766 -40.7967 -40.7001 -40.6440
   -40.6237 -40.5817 -40.5347 -40.5160 -40.4876 -40.4377 -40.4362 -40.3732
   -40.3697 -40.3499 -40.3231 -40.3228 -40.3133 -40.2983 -40.2823 -40.2365
   -40.2273 -40.2237 -40.2104 -40.2059 -40.1985 -40.1654 -40.1256 -40.0777
    -3.1148  -2.7236  -2.4512  -2.4094  -2.3497  -2.2489  -2.2224  -2.0950
    -2.0480  -1.9658  -1.8252  -1.8136  -1.5719  -1.3801  -1.3248  -1.3167
    -0.9689  -0.9614  -0.8408  -0.7363  -0.6612  -0.5009  -0.3570  -0.2630
     0.0099   0.0360   0.1515   0.1551   0.1953   0.2829   0.3309   0.3901
     0.5456   0.7073   0.7210   0.7605   0.8947   0.9516   0.9933   1.0023
     1.0894   1.4438   1.5778   1.6549   1.7166   1.8896   1.9043   1.9499
     2.1078   2.2498   2.4585   2.5615   2.6299   2.9423   2.9799   2.9881
     3.2371   3.2628   3.3686   3.4785   3.5216   3.7174   3.7459   3.7690
     4.7539   5.0344   5.1486

          k =-0.0922 0.1065 0.0000 ( 29030 PWs)   bands (ev):

   -70.9786 -70.9401 -70.9401 -70.9014 -70.4918 -70.4584 -70.4583 -70.4248
   -70.3961 -70.3615 -70.3615 -70.3267 -41.1783 -41.1037 -41.1000 -41.1000
   -41.0432 -41.0431 -41.0048 -40.9814 -40.8644 -40.7453 -40.7453 -40.6463
   -40.6223 -40.5513 -40.5513 -40.5393 -40.4661 -40.4661 -40.4431 -40.3757
   -40.3632 -40.3481 -40.3210 -40.3210 -40.3167 -40.2746 -40.2627 -40.2626
   -40.2234 -40.2188 -40.2188 -40.2087 -40.1658 -40.1600 -40.1600 -40.0787
    -3.1259  -2.5372  -2.5371  -2.4591  -2.2998  -2.2997  -2.1411  -2.1184
    -2.1183  -1.9014  -1.8605  -1.8367  -1.6330  -1.3427  -1.3096  -1.3094
    -0.9629  -0.9628  -0.8348  -0.7051  -0.5191  -0.5190  -0.4875  -0.4403
    -0.0675   0.0898   0.0900   0.1095   0.1209   0.3098   0.3484   0.3486
     0.6200   0.6201   0.7271   0.7668   0.8837   1.0283   1.0284   1.0631
     1.0807   1.5050   1.6494   1.6543   1.6543   1.8978   1.9052   1.9053
     2.0840   2.3205   2.5423   2.6027   2.6029   3.0763   3.0851   3.1814
     3.2318   3.2319   3.4094   3.5458   3.5458   3.6681   4.0015   4.0017
     4.2834   4.2835   5.0151

          k =-0.0922 0.1242 0.0000 ( 29038 PWs)   bands (ev):

   -70.9773 -70.9501 -70.9301 -70.9027 -70.4907 -70.4671 -70.4497 -70.4260
   -70.3949 -70.3705 -70.3525 -70.3279 -41.1789 -41.1320 -41.1018 -41.0756
   -41.0373 -41.0345 -41.0055 -40.9715 -40.8766 -40.7967 -40.7001 -40.6440
   -40.6237 -40.5817 -40.5347 -40.5160 -40.4876 -40.4377 -40.4362 -40.3732
   -40.3697 -40.3499 -40.3231 -40.3228 -40.3133 -40.2983 -40.2823 -40.2365
   -40.2273 -40.2237 -40.2104 -40.2059 -40.1985 -40.1654 -40.1256 -40.0777
    -3.1148  -2.7236  -2.4512  -2.4094  -2.3497  -2.2489  -2.2224  -2.0950
    -2.0480  -1.9658  -1.8252  -1.8136  -1.5719  -1.3801  -1.3248  -1.3167
    -0.9689  -0.9614  -0.8408  -0.7363  -0.6612  -0.5009  -0.3570  -0.2630
     0.0099   0.0360   0.1515   0.1551   0.1953   0.2829   0.3309   0.3901
     0.5456   0.7073   0.7210   0.7605   0.8947   0.9516   0.9933   1.0023
     1.0894   1.4438   1.5778   1.6549   1.7166   1.8896   1.9043   1.9499
     2.1078   2.2498   2.4585   2.5615   2.6300   2.9423   2.9799   2.9881
     3.2371   3.2628   3.3686   3.4785   3.5216   3.7174   3.7459   3.7690
     4.7539   5.0344   5.1486

          k =-0.0922 0.1420 0.0000 ( 29059 PWs)   bands (ev):

   -70.9734 -70.9594 -70.9208 -70.9066 -70.4874 -70.4751 -70.4416 -70.4293
   -70.3915 -70.3788 -70.3441 -70.3313 -41.1783 -41.1567 -41.0964 -41.0790
   -41.0249 -41.0094 -40.9987 -40.9423 -40.9087 -40.8496 -40.6662 -40.6414
   -40.6244 -40.6048 -40.5247 -40.5029 -40.4776 -40.4161 -40.4040 -40.4008
   -40.3553 -40.3534 -40.3468 -40.3239 -40.3209 -40.3025 -40.3020 -40.2486
   -40.2245 -40.2241 -40.2215 -40.2136 -40.1877 -40.1667 -40.0997 -40.0777
    -3.0773  -2.8855  -2.4327  -2.4005  -2.4002  -2.3379  -2.1570  -2.0466
    -2.0099  -1.9310  -1.8401  -1.8060  -1.4599  -1.4321  -1.3546  -1.3242
    -1.0462  -0.9534  -0.8111  -0.7887  -0.6676  -0.5238  -0.2048  -0.0960
     0.0772   0.2146   0.2208   0.2563   0.2810   0.3199   0.3412   0.4519
     0.5869   0.6639   0.6911   0.7526   0.8273   0.8311   0.8474   0.8912
     1.1383   1.4544   1.4747   1.6732   1.7143   1.7701   1.9281   2.0161
     2.0991   2.1840   2.3390   2.5542   2.6145   2.6378   2.7739   2.8512
     2.8981   3.0345   3.3618   3.4288   3.6757   3.7153   3.9233   3.9260
     5.1167   5.5892   5.6243

          k =-0.0922-0.0532 0.0000 ( 29008 PWs)   bands (ev):

   -70.9674 -70.9672 -70.9129 -70.9127 -70.4821 -70.4820 -70.4347 -70.4347
   -70.3860 -70.3860 -70.3369 -70.3369 -41.1719 -41.1718 -41.0883 -41.0881
   -41.0164 -41.0162 -40.9521 -40.9520 -40.8998 -40.8996 -40.6470 -40.6468
   -40.6190 -40.6190 -40.5143 -40.5143 -40.4379 -40.4378 -40.3845 -40.3845
   -40.3724 -40.3724 -40.3345 -40.3345 -40.3192 -40.3192 -40.2810 -40.2810
   -40.2247 -40.2246 -40.2178 -40.2177 -40.1734 -40.1734 -40.0840 -40.0839
    -3.0035  -3.0034  -2.4139  -2.4137  -2.4020  -2.4018  -2.1029  -2.1028
    -1.9153  -1.9152  -1.8366  -1.8365  -1.4037  -1.4037  -1.3851  -1.3850
    -0.9874  -0.9874  -0.8483  -0.8483  -0.5666  -0.5665  -0.1088  -0.1087
     0.1886   0.1886   0.2541   0.2543   0.4381   0.4382   0.4974   0.4976
     0.6255   0.6257   0.6308   0.6308   0.7390   0.7390   0.8024   0.8024
     1.2867   1.2869   1.6000   1.6001   1.6964   1.6964   1.9831   1.9831
     2.1528   2.1530   2.2929   2.2930   2.6585   2.6586   2.7682   2.7682
     2.8024   2.8025   3.4248   3.4248   3.7417   3.7418   3.9906   3.9907
     5.3090   5.3091   6.4608

     the Fermi energy is     2.3251 ev

!    total energy              =   -2376.52552569 Ry
     estimated scf accuracy    <       0.00000675 Ry
     smearing contrib. (-TS)   =      -0.06686768 Ry
     internal energy E=F+TS    =   -2376.45865801 Ry

     The total energy is F=E-TS. E is the sum of the following terms:
     one-electron contribution =  -22152.20421886 Ry
     hartree contribution      =   11076.77602458 Ry
     xc contribution           =    -359.95772178 Ry
     ewald contribution        =    9058.92725211 Ry
     electric field correction =       0.00000594 Ry

     convergence has been achieved in  14 iterations

     negative rho (up, down):  1.741E-03 0.000E+00

     Forces acting on atoms (cartesian axes, Ry/au):

     atom    1 type  1   force =    -0.00000732   -0.00001469    0.02229941
     atom    2 type  1   force =     0.00000762   -0.00000047    0.02233090
     atom    3 type  1   force =     0.00001176    0.00001147    0.02232038
     atom    4 type  1   force =    -0.00001192    0.00000260    0.02230949
     atom    5 type  1   force =     0.00001520    0.00000368   -0.02671634
     atom    6 type  1   force =    -0.00001597   -0.00000753   -0.02670385
     atom    7 type  1   force =    -0.00000809   -0.00000727   -0.02669804
     atom    8 type  1   force =     0.00000824    0.00001090   -0.02671708
     atom    9 type  1   force =     0.00001515   -0.00002895    0.00436630
     atom   10 type  1   force =    -0.00001523   -0.00001479    0.00435770
     atom   11 type  1   force =     0.00000774    0.00001418    0.00442504
     atom   12 type  1   force =    -0.00000716    0.00003088    0.00442610

     Total force =     0.070161     Total SCF correction =     0.026566
     SCF correction compared to forces is large: reduce conv_thr to get better values

     Writing output data file ./Ru750/Ru750_beef.save/

     init_run     :    110.63s CPU    111.25s WALL (       1 calls)
     electrons    :   3524.06s CPU   3537.22s WALL (       1 calls)
     forces       :     48.85s CPU     49.06s WALL (       1 calls)

     Called by init_run:
     wfcinit      :     88.04s CPU     88.35s WALL (       1 calls)
     potinit      :     18.89s CPU     18.94s WALL (       1 calls)
     hinit0       :      1.86s CPU      1.86s WALL (       1 calls)

     Called by electrons:
     c_bands      :   3223.95s CPU   3233.33s WALL (      14 calls)
     sum_band     :    270.51s CPU    272.86s WALL (      14 calls)
     v_of_rho     :     37.53s CPU     38.26s WALL (      15 calls)
     newd         :      9.69s CPU     10.36s WALL (      15 calls)
     mix_rho      :      0.40s CPU      0.42s WALL (      14 calls)
     vdW_kernel   :      9.34s CPU      9.34s WALL (       1 calls)

     Called by c_bands:
     init_us_2    :      7.91s CPU      7.97s WALL (    2220 calls)
     cegterg      :   3194.03s CPU   3201.81s WALL (    1036 calls)

     Called by *egterg:
     cdiaghg      :    148.75s CPU    148.79s WALL (    3496 calls)
     h_psi        :   1891.70s CPU   1898.08s WALL (    3570 calls)
     s_psi        :    335.83s CPU    335.88s WALL (    3570 calls)
     g_psi        :      0.89s CPU      0.89s WALL (    2460 calls)

     Called by h_psi:
     h_psi:calbec :    382.67s CPU    383.52s WALL (    3570 calls)
     vloc_psi     :   1135.10s CPU   1140.43s WALL (    3570 calls)
     add_vuspsi   :    369.68s CPU    369.82s WALL (    3570 calls)

     General routines
     calbec       :    584.89s CPU    586.25s WALL (    4902 calls)
     fft          :     25.09s CPU     25.32s WALL (    1004 calls)
     ffts         :      0.33s CPU      0.33s WALL (      29 calls)
     fftw         :   1201.59s CPU   1207.70s WALL (  671576 calls)
     interpolate  :      0.68s CPU      0.68s WALL (      15 calls)

     Parallel routines
     fft_scatt_xy :     39.18s CPU     39.64s WALL (  672609 calls)
     fft_scatt_yz :    822.00s CPU    823.28s WALL (  672609 calls)

     PWSCF        :      1h32m CPU      1h49m WALL


   This run was terminated on:   4:34:40  22Jun2022            

=------------------------------------------------------------------------------=
   JOB DONE.
=------------------------------------------------------------------------------=
