
     Program PWSCF v.6.6 starts on 22Jun2022 at 16:29:14 

     This program is part of the open-source Quantum ESPRESSO suite
     for quantum simulation of materials; please cite
         "P. Giannozzi et al., J. Phys.:Condens. Matter 21 395502 (2009);
         "P. Giannozzi et al., J. Phys.:Condens. Matter 29 465901 (2017);
          URL http://www.quantum-espresso.org", 
     in publications or presentations arising from this work. More details at
     http://www.quantum-espresso.org/quote

     Parallel version (MPI), running on    37 processors

     MPI processes distributed on     1 nodes
     R & G space division:  proc/nbgrp/npool/nimage =      37
     Fft bands division:     nmany     =       1
     Reading input from W-750.in
Warning: card &CELL ignored
Warning: card / ignored

     Current dimensions of program PWSCF are:
     Max number of different atomic species (ntypx) = 10
     Max number of k-points (npk) =  40000
     Max angular momentum in pseudopotentials (lmaxx) =  3
     Presently stress not available with electric field and gates

     Message from routine cell_base_init:
     DEPRECATED: use true lattice parameter, not A to a.u. conversion factor
     Message from routine emend_upf/check:
     BEWARE !!! Possible out of bounds while fixing pseudo
     Message from routine emend_upf/check:
     BEWARE !!! Possible out of bounds while fixing pseudo
     Message from routine read_upf:
     Pseudo file W.pbe-spn-rrkjus_psl.0.2.3.UPF has been fixed on the fly.
     To avoid this message in the future, permanently fix 
     your pseudo files following these instructions: 
     https://gitlab.com/QEF/q-e/blob/master/upftools/how_to_fix_upf.md

     **************************************************************************
     Initializing libbeef V0.1.2 with the BEEF-vdW functional.
     Citation: Wellendorff et al., PRB 85, 235149 (2012).
     **************************************************************************


     IMPORTANT: XC functional enforced from input :
     Exchange-correlation= BEEF-VDW
                           (   1   4  43  14   2   0   0)
     Any further DFT definition will be discarded
     Please, verify this is what you really want


     Subspace diagonalization in iterative solution of the eigenvalue problem:
     a serial algorithm will be used

     Found symmetry operation: I + (  0.0000  0.5000  0.0000)
     This is a supercell, fractional translations are disabled
     Message from routine find_sym:
     Not a group! Trying with lower acceptance parameter...
     Message from routine find_sym:
     Symmetry operations form a group

     Parallelization info
     --------------------
     sticks:   dense  smooth     PW     G-vecs:    dense   smooth      PW
     Min         119      48     13                27779     7030    1069
     Max         120      49     14                27804     7046    1094
     Sum        4429    1777    511              1028329   260441   40097



     bravais-lattice index     =            0
     lattice parameter (alat)  =       1.8897  a.u.
     unit-cell volume          =    4704.3526 (a.u.)^3
     number of atoms/cell      =           12
     number of atomic types    =            1
     number of electrons       =       168.00
     number of Kohn-Sham states=          101
     kinetic-energy cutoff     =      55.1240  Ry
     charge density cutoff     =     551.2396  Ry
     convergence threshold     =      1.0E-05
     mixing beta               =       0.1000
     number of iterations used =           10  plain     mixing
     Exchange-correlation= BEEF-VDW
                           (   1   4  43  14   2   0   0)

     celldm(1)=   1.889726  celldm(2)=   0.000000  celldm(3)=   0.000000
     celldm(4)=   0.000000  celldm(5)=   0.000000  celldm(6)=   0.000000

     crystal axes: (cart. coord. in units of alat)
               a(1) = (   5.712816   0.000000   0.000000 )  
               a(2) = (   2.856408   4.947444   0.000000 )  
               a(3) = (   0.000000   0.000000  24.664495 )  

     reciprocal axes: (cart. coord. in units 2 pi/alat)
               b(1) = (  0.175045 -0.101062  0.000000 )  
               b(2) = (  0.000000  0.202125  0.000000 )  
               b(3) = (  0.000000  0.000000  0.040544 )  


     PseudoPot. # 1 for W  read from file:
     ../pseudo/W.pbe-spn-rrkjus_psl.0.2.3.UPF
     MD5 check sum: 25b665cf2bbae626ad8d9f1bc024df95
     Pseudo is Ultrasoft + core correction, Zval = 14.0
     Generated using "atomic" code by A. Dal Corso v.5.0.2 svn rev. 10551
     Using radial grid of 1273 points,  6 beta functions with: 
                l(1) =   0
                l(2) =   0
                l(3) =   1
                l(4) =   1
                l(5) =   2
                l(6) =   2
     Q(r) pseudized with 0 coefficients 


     atomic species   valence    mass     pseudopotential
        W             14.00   183.84000     W ( 1.00)

     No symmetry found



   Cartesian axes

     site n.     atom                  positions (alat units)
         1           W   tau(   1) = (   1.4282043   0.8245742  10.0000000  )
         2           W   tau(   2) = (   4.2846123   0.8245742  10.0000000  )
         3           W   tau(   3) = (   2.8564083   3.2982962  10.0000000  )
         4           W   tau(   4) = (   5.7128163   3.2982962  10.0000000  )
         5           W   tau(   5) = (   5.7128157   1.6491478  12.3322475  )
         6           W   tau(   6) = (   2.8564077   1.6491478  12.3322475  )
         7           W   tau(   7) = (   7.1410197   4.1228698  12.3322475  )
         8           W   tau(   8) = (   4.2846117   4.1228698  12.3322475  )
         9           W   tau(   9) = (   0.0000440  -0.0000059  14.6722298  )
        10           W   tau(  10) = (   2.8563660   0.0000025  14.6722520  )
        11           W   tau(  11) = (   1.4282149   2.4737111  14.6722569  )
        12           W   tau(  12) = (   4.2846057   2.4737398  14.6722298  )

     number of k points=    74  Fermi-Dirac smearing, width (Ry)=  0.0100
                       cart. coord. in units 2pi/alat
        k(    1) = (   0.0000000   0.0000000   0.0000000), wk =   0.0138889
        k(    2) = (   0.0000000   0.0168437   0.0000000), wk =   0.0277778
        k(    3) = (   0.0000000   0.0336874   0.0000000), wk =   0.0277778
        k(    4) = (   0.0000000   0.0505311   0.0000000), wk =   0.0277778
        k(    5) = (   0.0000000   0.0673749   0.0000000), wk =   0.0277778
        k(    6) = (   0.0000000   0.0842186   0.0000000), wk =   0.0277778
        k(    7) = (   0.0000000  -0.1010623   0.0000000), wk =   0.0138889
        k(    8) = (   0.0145871  -0.0084219   0.0000000), wk =   0.0277778
        k(    9) = (   0.0145871   0.0084219   0.0000000), wk =   0.0277778
        k(   10) = (   0.0145871   0.0252656   0.0000000), wk =   0.0277778
        k(   11) = (   0.0145871   0.0421093   0.0000000), wk =   0.0277778
        k(   12) = (   0.0145871   0.0589530   0.0000000), wk =   0.0277778
        k(   13) = (   0.0145871   0.0757967   0.0000000), wk =   0.0277778
        k(   14) = (   0.0145871  -0.1094841   0.0000000), wk =   0.0277778
        k(   15) = (   0.0145871  -0.0926404   0.0000000), wk =   0.0277778
        k(   16) = (   0.0145871  -0.0757967   0.0000000), wk =   0.0277778
        k(   17) = (   0.0145871  -0.0589530   0.0000000), wk =   0.0277778
        k(   18) = (   0.0145871  -0.0421093   0.0000000), wk =   0.0277778
        k(   19) = (   0.0145871  -0.0252656   0.0000000), wk =   0.0277778
        k(   20) = (   0.0291742  -0.0168437   0.0000000), wk =   0.0277778
        k(   21) = (   0.0291742   0.0000000   0.0000000), wk =   0.0277778
        k(   22) = (   0.0291742   0.0168437   0.0000000), wk =   0.0277778
        k(   23) = (   0.0291742   0.0336874   0.0000000), wk =   0.0277778
        k(   24) = (   0.0291742   0.0505311   0.0000000), wk =   0.0277778
        k(   25) = (   0.0291742   0.0673749   0.0000000), wk =   0.0277778
        k(   26) = (   0.0291742  -0.1179060   0.0000000), wk =   0.0277778
        k(   27) = (   0.0291742  -0.1010623   0.0000000), wk =   0.0277778
        k(   28) = (   0.0291742  -0.0842186   0.0000000), wk =   0.0277778
        k(   29) = (   0.0291742  -0.0673749   0.0000000), wk =   0.0277778
        k(   30) = (   0.0291742  -0.0505311   0.0000000), wk =   0.0277778
        k(   31) = (   0.0291742  -0.0336874   0.0000000), wk =   0.0277778
        k(   32) = (   0.0437613  -0.0252656   0.0000000), wk =   0.0277778
        k(   33) = (   0.0437613  -0.0084219   0.0000000), wk =   0.0277778
        k(   34) = (   0.0437613   0.0084219   0.0000000), wk =   0.0277778
        k(   35) = (   0.0437613   0.0252656   0.0000000), wk =   0.0277778
        k(   36) = (   0.0437613   0.0421093   0.0000000), wk =   0.0277778
        k(   37) = (   0.0437613   0.0589530   0.0000000), wk =   0.0277778
        k(   38) = (   0.0437613  -0.1263279   0.0000000), wk =   0.0277778
        k(   39) = (   0.0437613  -0.1094841   0.0000000), wk =   0.0277778
        k(   40) = (   0.0437613  -0.0926404   0.0000000), wk =   0.0277778
        k(   41) = (   0.0437613  -0.0757967   0.0000000), wk =   0.0277778
        k(   42) = (   0.0437613  -0.0589530   0.0000000), wk =   0.0277778
        k(   43) = (   0.0437613  -0.0421093   0.0000000), wk =   0.0277778
        k(   44) = (   0.0583483  -0.0336874   0.0000000), wk =   0.0277778
        k(   45) = (   0.0583483  -0.0168437   0.0000000), wk =   0.0277778
        k(   46) = (   0.0583483   0.0000000   0.0000000), wk =   0.0277778
        k(   47) = (   0.0583483   0.0168437   0.0000000), wk =   0.0277778
        k(   48) = (   0.0583483   0.0336874   0.0000000), wk =   0.0277778
        k(   49) = (   0.0583483   0.0505311   0.0000000), wk =   0.0277778
        k(   50) = (   0.0583483  -0.1347497   0.0000000), wk =   0.0277778
        k(   51) = (   0.0583483  -0.1179060   0.0000000), wk =   0.0277778
        k(   52) = (   0.0583483  -0.1010623   0.0000000), wk =   0.0277778
        k(   53) = (   0.0583483  -0.0842186   0.0000000), wk =   0.0277778
        k(   54) = (   0.0583483  -0.0673749   0.0000000), wk =   0.0277778
        k(   55) = (   0.0583483  -0.0505311   0.0000000), wk =   0.0277778
        k(   56) = (   0.0729354  -0.0421093   0.0000000), wk =   0.0277778
        k(   57) = (   0.0729354  -0.0252656   0.0000000), wk =   0.0277778
        k(   58) = (   0.0729354  -0.0084219   0.0000000), wk =   0.0277778
        k(   59) = (   0.0729354   0.0084219   0.0000000), wk =   0.0277778
        k(   60) = (   0.0729354   0.0252656   0.0000000), wk =   0.0277778
        k(   61) = (   0.0729354   0.0421093   0.0000000), wk =   0.0277778
        k(   62) = (   0.0729354  -0.1431716   0.0000000), wk =   0.0277778
        k(   63) = (   0.0729354  -0.1263279   0.0000000), wk =   0.0277778
        k(   64) = (   0.0729354  -0.1094841   0.0000000), wk =   0.0277778
        k(   65) = (   0.0729354  -0.0926404   0.0000000), wk =   0.0277778
        k(   66) = (   0.0729354  -0.0757967   0.0000000), wk =   0.0277778
        k(   67) = (   0.0729354  -0.0589530   0.0000000), wk =   0.0277778
        k(   68) = (  -0.0875225   0.0505311   0.0000000), wk =   0.0138889
        k(   69) = (  -0.0875225   0.0673749   0.0000000), wk =   0.0277778
        k(   70) = (  -0.0875225   0.0842186   0.0000000), wk =   0.0277778
        k(   71) = (  -0.0875225   0.1010623   0.0000000), wk =   0.0277778
        k(   72) = (  -0.0875225   0.1179060   0.0000000), wk =   0.0277778
        k(   73) = (  -0.0875225   0.1347497   0.0000000), wk =   0.0277778
        k(   74) = (  -0.0875225  -0.0505311   0.0000000), wk =   0.0138889

     Dense  grid:  1028329 G-vectors     FFT dimensions: (  81,  81, 360)

     Smooth grid:   260441 G-vectors     FFT dimensions: (  54,  54, 225)

     Estimated max dynamical RAM per process >     217.45 MB

     Estimated total dynamical RAM >       7.86 GB

     Initial potential from superposition of free atoms

     starting charge  167.99332, renormalised to  168.00000

     negative rho (up, down):  1.142E-03 0.000E+00


     %%%%%%%%%%%%%%%%%%%%%%%%%%%%%%%%%%%%%%%%%%%%%%%%%%%%%%%%%%%%%%%%%%%%%%%%
     %                                                                      %
     % You are using vdW-DF, which was implemented by the Thonhauser group. %
     % Please cite the following two papers that made this development      %
     % possible and the two reviews that describe the various versions:     %
     %                                                                      %
     %   T. Thonhauser et al., PRL 115, 136402 (2015).                      %
     %   T. Thonhauser et al., PRB 76, 125112 (2007).                       %
     %   K. Berland et al., Rep. Prog. Phys. 78, 066501 (2015).             %
     %   D.C. Langreth et al., J. Phys.: Condens. Matter 21, 084203 (2009). %
     %                                                                      %
     %                                                                      %
     % If you are calculating the stress with vdW-DF, please also cite:     %
     %                                                                      %
     %   R. Sabatini et al., J. Phys.: Condens. Matter 24, 424209 (2012).   %
     %                                                                      %
     %%%%%%%%%%%%%%%%%%%%%%%%%%%%%%%%%%%%%%%%%%%%%%%%%%%%%%%%%%%%%%%%%%%%%%%%



     Adding external electric field

     Computed dipole along edir(3) : 
        Dipole               -0.0000 Ry au,         -0.0000 Debye
        Dipole field         -0.0000 Ry au, 

        Potential amp.        0.0000 Ry
        Total length         45.4439 bohr

     Starting wfcs are  156 randomized atomic wfcs

     total cpu time spent up to now is      130.8 secs

     Self-consistent Calculation

     iteration #  1     ecut=    55.12 Ry     beta= 0.10
     Davidson diagonalization with overlap
     ethr =  1.00E-02,  avg # of iterations =  2.0

     negative rho (up, down):  1.131E-03 0.000E+00

     Adding external electric field

     Computed dipole along edir(3) : 
        Dipole                0.0340 Ry au,          0.0865 Debye
        Dipole field          0.0001 Ry au, 

        Potential amp.       -0.0083 Ry
        Total length         45.4439 bohr


     total cpu time spent up to now is      367.7 secs

     total energy              =   -1909.44644996 Ry
     estimated scf accuracy    <       3.83359889 Ry

     iteration #  2     ecut=    55.12 Ry     beta= 0.10
     Davidson diagonalization with overlap
     ethr =  2.28E-03,  avg # of iterations =  2.0

     negative rho (up, down):  1.181E-03 0.000E+00

     Adding external electric field

     Computed dipole along edir(3) : 
        Dipole               -0.1086 Ry au,         -0.2760 Debye
        Dipole field         -0.0003 Ry au, 

        Potential amp.        0.0264 Ry
        Total length         45.4439 bohr


     total cpu time spent up to now is      578.2 secs

     total energy              =   -1909.75450238 Ry
     estimated scf accuracy    <       1.76601311 Ry

     iteration #  3     ecut=    55.12 Ry     beta= 0.10
     Davidson diagonalization with overlap
     ethr =  1.05E-03,  avg # of iterations =  1.4

     negative rho (up, down):  1.391E-03 0.000E+00

     Adding external electric field

     Computed dipole along edir(3) : 
        Dipole                0.1246 Ry au,          0.3166 Debye
        Dipole field          0.0003 Ry au, 

        Potential amp.       -0.0302 Ry
        Total length         45.4439 bohr


     total cpu time spent up to now is      767.0 secs

     total energy              =   -1909.79911556 Ry
     estimated scf accuracy    <       1.09001369 Ry

     iteration #  4     ecut=    55.12 Ry     beta= 0.10
     Davidson diagonalization with overlap
     ethr =  6.49E-04,  avg # of iterations =  1.0

     negative rho (up, down):  1.363E-03 0.000E+00

     Adding external electric field

     Computed dipole along edir(3) : 
        Dipole               -0.0190 Ry au,         -0.0482 Debye
        Dipole field         -0.0001 Ry au, 

        Potential amp.        0.0046 Ry
        Total length         45.4439 bohr


     total cpu time spent up to now is      943.3 secs

     total energy              =   -1909.71828224 Ry
     estimated scf accuracy    <       1.30312512 Ry

     iteration #  5     ecut=    55.12 Ry     beta= 0.10
     Davidson diagonalization with overlap
     ethr =  6.49E-04,  avg # of iterations =  1.5

     negative rho (up, down):  1.476E-03 0.000E+00

     Adding external electric field

     Computed dipole along edir(3) : 
        Dipole                0.0225 Ry au,          0.0572 Debye
        Dipole field          0.0001 Ry au, 

        Potential amp.       -0.0055 Ry
        Total length         45.4439 bohr


     total cpu time spent up to now is     1133.5 secs

     total energy              =   -1909.76099381 Ry
     estimated scf accuracy    <       0.11905036 Ry

     iteration #  6     ecut=    55.12 Ry     beta= 0.10
     Davidson diagonalization with overlap
     c_bands:  1 eigenvalues not converged
     c_bands:  1 eigenvalues not converged
     c_bands:  1 eigenvalues not converged
     c_bands:  1 eigenvalues not converged
     ethr =  7.09E-05,  avg # of iterations =  7.6

     negative rho (up, down):  2.614E-03 0.000E+00

     Adding external electric field

     Computed dipole along edir(3) : 
        Dipole                0.0134 Ry au,          0.0339 Debye
        Dipole field          0.0000 Ry au, 

        Potential amp.       -0.0032 Ry
        Total length         45.4439 bohr


     total cpu time spent up to now is     1384.1 secs

     total energy              =   -1909.76672918 Ry
     estimated scf accuracy    <       0.16304830 Ry

     iteration #  7     ecut=    55.12 Ry     beta= 0.10
     Davidson diagonalization with overlap
     ethr =  7.09E-05,  avg # of iterations =  2.2

     negative rho (up, down):  3.038E-03 0.000E+00

     Adding external electric field

     Computed dipole along edir(3) : 
        Dipole                0.0046 Ry au,          0.0118 Debye
        Dipole field          0.0000 Ry au, 

        Potential amp.       -0.0011 Ry
        Total length         45.4439 bohr


     total cpu time spent up to now is     1597.4 secs

     total energy              =   -1909.77493687 Ry
     estimated scf accuracy    <       0.02261241 Ry

     iteration #  8     ecut=    55.12 Ry     beta= 0.10
     Davidson diagonalization with overlap
     ethr =  1.35E-05,  avg # of iterations =  5.1

     negative rho (up, down):  2.804E-03 0.000E+00

     Adding external electric field

     Computed dipole along edir(3) : 
        Dipole               -0.0026 Ry au,         -0.0067 Debye
        Dipole field         -0.0000 Ry au, 

        Potential amp.        0.0006 Ry
        Total length         45.4439 bohr


     total cpu time spent up to now is     1832.1 secs

     total energy              =   -1909.77662492 Ry
     estimated scf accuracy    <       0.00506130 Ry

     iteration #  9     ecut=    55.12 Ry     beta= 0.10
     Davidson diagonalization with overlap
     c_bands:  1 eigenvalues not converged
     c_bands:  1 eigenvalues not converged
     ethr =  3.01E-06,  avg # of iterations =  9.2

     negative rho (up, down):  3.631E-03 0.000E+00

     Adding external electric field

     Computed dipole along edir(3) : 
        Dipole               -0.0109 Ry au,         -0.0276 Debye
        Dipole field         -0.0000 Ry au, 

        Potential amp.        0.0026 Ry
        Total length         45.4439 bohr


     total cpu time spent up to now is     2139.2 secs

     total energy              =   -1909.77665726 Ry
     estimated scf accuracy    <       0.00635095 Ry

     iteration # 10     ecut=    55.12 Ry     beta= 0.10
     Davidson diagonalization with overlap
     c_bands:  1 eigenvalues not converged
     ethr =  3.01E-06,  avg # of iterations =  3.9

     negative rho (up, down):  3.666E-03 0.000E+00

     Adding external electric field

     Computed dipole along edir(3) : 
        Dipole               -0.0012 Ry au,         -0.0032 Debye
        Dipole field         -0.0000 Ry au, 

        Potential amp.        0.0003 Ry
        Total length         45.4439 bohr


     total cpu time spent up to now is     2383.4 secs

     total energy              =   -1909.77739759 Ry
     estimated scf accuracy    <       0.00682673 Ry

     iteration # 11     ecut=    55.12 Ry     beta= 0.10
     Davidson diagonalization with overlap
     c_bands:  1 eigenvalues not converged
     ethr =  3.01E-06,  avg # of iterations =  2.2

     negative rho (up, down):  3.368E-03 0.000E+00

     Adding external electric field

     Computed dipole along edir(3) : 
        Dipole               -0.0013 Ry au,         -0.0034 Debye
        Dipole field         -0.0000 Ry au, 

        Potential amp.        0.0003 Ry
        Total length         45.4439 bohr


     total cpu time spent up to now is     2594.3 secs

     total energy              =   -1909.77807495 Ry
     estimated scf accuracy    <       0.00022006 Ry

     iteration # 12     ecut=    55.12 Ry     beta= 0.10
     Davidson diagonalization with overlap
     ethr =  1.31E-07,  avg # of iterations =  5.2

     negative rho (up, down):  3.214E-03 0.000E+00

     Adding external electric field

     Computed dipole along edir(3) : 
        Dipole               -0.0013 Ry au,         -0.0032 Debye
        Dipole field         -0.0000 Ry au, 

        Potential amp.        0.0003 Ry
        Total length         45.4439 bohr


     total cpu time spent up to now is     2817.2 secs

     total energy              =   -1909.77806217 Ry
     estimated scf accuracy    <       0.00015242 Ry

     iteration # 13     ecut=    55.12 Ry     beta= 0.10
     Davidson diagonalization with overlap
     ethr =  9.07E-08,  avg # of iterations =  2.0

     negative rho (up, down):  3.241E-03 0.000E+00

     Adding external electric field

     Computed dipole along edir(3) : 
        Dipole               -0.0032 Ry au,         -0.0081 Debye
        Dipole field         -0.0000 Ry au, 

        Potential amp.        0.0008 Ry
        Total length         45.4439 bohr


     total cpu time spent up to now is     3018.3 secs

     total energy              =   -1909.77804539 Ry
     estimated scf accuracy    <       0.00010604 Ry

     iteration # 14     ecut=    55.12 Ry     beta= 0.10
     Davidson diagonalization with overlap
     ethr =  6.31E-08,  avg # of iterations =  2.7

     negative rho (up, down):  3.078E-03 0.000E+00

     Adding external electric field

     Computed dipole along edir(3) : 
        Dipole               -0.0029 Ry au,         -0.0074 Debye
        Dipole field         -0.0000 Ry au, 

        Potential amp.        0.0007 Ry
        Total length         45.4439 bohr


     total cpu time spent up to now is     3246.2 secs

     total energy              =   -1909.77805329 Ry
     estimated scf accuracy    <       0.00002041 Ry

     iteration # 15     ecut=    55.12 Ry     beta= 0.10
     Davidson diagonalization with overlap
     c_bands:  1 eigenvalues not converged
     c_bands:  1 eigenvalues not converged
     c_bands:  1 eigenvalues not converged
     ethr =  1.21E-08,  avg # of iterations =  6.2

     negative rho (up, down):  2.868E-03 0.000E+00

     Adding external electric field

     Computed dipole along edir(3) : 
        Dipole               -0.0027 Ry au,         -0.0068 Debye
        Dipole field         -0.0000 Ry au, 

        Potential amp.        0.0006 Ry
        Total length         45.4439 bohr


     total cpu time spent up to now is     3468.0 secs

     total energy              =   -1909.77804567 Ry
     estimated scf accuracy    <       0.00001247 Ry

     iteration # 16     ecut=    55.12 Ry     beta= 0.10
     Davidson diagonalization with overlap
     ethr =  7.42E-09,  avg # of iterations =  2.1

     negative rho (up, down):  1.881E-03 0.000E+00

     Adding external electric field

     Computed dipole along edir(3) : 
        Dipole               -0.0038 Ry au,         -0.0098 Debye
        Dipole field         -0.0000 Ry au, 

        Potential amp.        0.0009 Ry
        Total length         45.4439 bohr


     total cpu time spent up to now is     3670.6 secs

     End of self-consistent calculation

          k = 0.0000 0.0000 0.0000 ( 32457 PWs)   bands (ev):

   -71.9127 -71.8361 -71.8323 -71.8323 -71.8323 -71.8184 -71.7726 -71.7726
   -71.7726 -71.7639 -71.7639 -71.7639 -36.4536 -36.4536 -36.4536 -36.3826
   -36.3155 -36.3155 -36.3155 -36.2191 -36.2191 -36.2190 -36.0188 -35.9001
   -35.9001 -35.9001 -35.8833 -35.8833 -35.8833 -35.7734 -35.7734 -35.7734
   -35.6931 -35.6931 -35.6931 -35.6216 -35.5964 -35.5964 -35.5964 -35.5531
   -35.5531 -35.5531 -35.5508 -35.5508 -35.4012 -35.4012 -35.3822 -35.3822
    -5.8327  -4.0410  -3.2114  -2.6518  -2.6518  -2.6518  -2.4154  -2.4154
    -2.4154  -1.6133  -1.6133  -1.6133  -1.6094  -1.6094  -1.6094  -0.1359
    -0.1359  -0.1359   0.9499   1.0295   1.0295   1.0296   1.3461   1.7888
     1.7888   1.8810   1.8810   1.8810   1.9262   2.1613   2.1613   2.2123
     2.2123   2.2123   2.4149   2.4149   2.8685   3.1558   3.1558   3.1558
     4.0508   4.0508   4.0508   4.2274   4.2274   4.2274   4.6851   4.6851
     5.1646   5.1646   5.1692   5.1692   5.1692

          k = 0.0000 0.0168 0.0000 ( 32502 PWs)   bands (ev):

   -71.9114 -71.8350 -71.8337 -71.8323 -71.8323 -71.8174 -71.7736 -71.7726
   -71.7726 -71.7648 -71.7639 -71.7639 -36.4460 -36.4460 -36.4409 -36.3782
   -36.3090 -36.3090 -36.3063 -36.2116 -36.2116 -36.2057 -36.0186 -35.9220
   -35.9103 -35.9103 -35.8758 -35.8758 -35.8669 -35.7777 -35.7777 -35.7697
   -35.6972 -35.6971 -35.6891 -35.6246 -35.6005 -35.6005 -35.5931 -35.5638
   -35.5616 -35.5616 -35.5547 -35.5502 -35.4135 -35.4046 -35.3967 -35.3851
    -5.7670  -3.9742  -3.1414  -2.6592  -2.6017  -2.6017  -2.3977  -2.3658
    -2.3657  -1.6272  -1.5849  -1.5849  -1.5381  -1.5303  -1.5303  -0.1244
    -0.1244  -0.1159   0.9112   1.0507   1.0556   1.0556   1.3446   1.7117
     1.7562   1.7562   1.8070   1.8459   1.8933   2.1355   2.2046   2.2312
     2.2312   2.2325   2.3758   2.4747   2.8100   3.0700   3.0706   3.0706
     3.9702   3.9702   4.0295   4.0576   4.0766   4.0766   4.5945   4.6215
     5.1235   5.1882   5.2237   5.2248   5.2248

          k = 0.0000 0.0337 0.0000 ( 32476 PWs)   bands (ev):

   -71.9075 -71.8379 -71.8323 -71.8323 -71.8318 -71.8147 -71.7766 -71.7726
   -71.7726 -71.7676 -71.7639 -71.7639 -36.4242 -36.4242 -36.4036 -36.3652
   -36.2903 -36.2903 -36.2808 -36.1903 -36.1902 -36.1666 -36.0184 -35.9509
   -35.9305 -35.9305 -35.8645 -35.8645 -35.8515 -35.7891 -35.7891 -35.7589
   -35.7103 -35.7103 -35.6779 -35.6356 -35.6111 -35.6111 -35.6003 -35.5856
   -35.5856 -35.5835 -35.5662 -35.5416 -35.4495 -35.4377 -35.4144 -35.3936
    -5.5738  -3.7792  -2.9364  -2.7021  -2.4571  -2.4571  -2.3423  -2.2232
    -2.2232  -1.5910  -1.4707  -1.4707  -1.4055  -1.3265  -1.3265  -0.0957
    -0.0957  -0.0577   0.7936   1.0964   1.1218   1.1218   1.2998   1.4896
     1.4905   1.4905   1.6423   1.8440   2.0149   2.0652   2.2012   2.2012
     2.2729   2.2916   2.3282   2.6530   2.6664   2.7944   2.8323   2.8323
     3.5345   3.6518   3.6518   3.8076   3.8076   4.0741   4.4084   4.4789
     4.9749   5.2225   5.3050   5.3050   5.3483

          k = 0.0000 0.0505 0.0000 ( 32490 PWs)   bands (ev):

   -71.9013 -71.8445 -71.8323 -71.8323 -71.8266 -71.8104 -71.7815 -71.7726
   -71.7726 -71.7720 -71.7639 -71.7639 -36.3907 -36.3907 -36.3452 -36.3445
   -36.2628 -36.2628 -36.2481 -36.1580 -36.1580 -36.1040 -36.0205 -35.9713
   -35.9581 -35.9581 -35.8523 -35.8523 -35.8415 -35.8031 -35.8031 -35.7417
   -35.7337 -35.7337 -35.6712 -35.6615 -35.6428 -35.6300 -35.6300 -35.6150
   -35.6150 -35.5844 -35.5682 -35.5280 -35.5123 -35.4911 -35.4301 -35.4071
    -5.2645  -3.4732  -2.8253  -2.6136  -2.2588  -2.2377  -2.2377  -2.0089
    -2.0089  -1.5147  -1.2776  -1.2776  -1.2136  -1.0081  -1.0081  -0.0624
    -0.0624   0.0320   0.5979   1.0574   1.0574   1.0887   1.0889   1.2423
     1.3333   1.3333   1.5508   1.8270   1.9165   2.0477   2.0477   2.1708
     2.2883   2.3392   2.3854   2.5086   2.5177   2.5177   2.5370   2.9038
     2.9458   3.0996   3.0996   3.5879   3.5879   4.0848   4.2144   4.3314
     4.7300   5.0472   5.1700   5.1703   5.2338

          k = 0.0000 0.0674 0.0000 ( 32538 PWs)   bands (ev):

   -71.8931 -71.8530 -71.8323 -71.8323 -71.8200 -71.8048 -71.7880 -71.7776
   -71.7726 -71.7726 -71.7639 -71.7639 -36.3512 -36.3511 -36.3175 -36.2729
   -36.2325 -36.2325 -36.2236 -36.1205 -36.1205 -36.0302 -36.0221 -35.9921
   -35.9921 -35.9676 -35.8380 -35.8380 -35.8326 -35.8147 -35.8147 -35.7646
   -35.7646 -35.7387 -35.7192 -35.6840 -35.6723 -35.6723 -35.6426 -35.6259
   -35.6259 -35.6080 -35.5981 -35.5482 -35.5402 -35.5103 -35.4506 -35.4248
    -4.8591  -3.0903  -3.0676  -2.2090  -2.1873  -1.9819  -1.9819  -1.7631
    -1.7631  -1.4241  -1.0200  -1.0200  -0.9650  -0.6201  -0.6201  -0.0152
    -0.0152   0.1330   0.3348   0.7258   0.7258   0.7298   0.9981   1.0839
     1.4646   1.4646   1.6393   1.6751   1.7156   1.7156   1.7239   1.8296
     2.1548   2.2116   2.2116   2.2535   2.5053   2.5178   2.5178   2.5502
     2.6290   2.7153   3.3461   3.4311   3.4311   4.0526   4.0678   4.2530
     4.2650   4.5397   4.6544   4.6546   4.9971

          k = 0.0000 0.0842 0.0000 ( 32556 PWs)   bands (ev):

   -71.8836 -71.8628 -71.8324 -71.8323 -71.8122 -71.7982 -71.7956 -71.7842
   -71.7726 -71.7726 -71.7639 -71.7639 -36.3155 -36.3155 -36.2867 -36.2360
   -36.2082 -36.2082 -36.1818 -36.0859 -36.0859 -36.0566 -36.0264 -36.0264
   -35.9316 -35.9253 -35.8249 -35.8249 -35.8170 -35.8170 -35.8158 -35.8097
   -35.7926 -35.7925 -35.7454 -35.7169 -35.7168 -35.6938 -35.6927 -35.6352
   -35.6304 -35.6304 -35.6226 -35.5762 -35.5248 -35.4897 -35.4742 -35.4454
    -4.3884  -3.4361  -2.6914  -2.1993  -1.7930  -1.7554  -1.7554  -1.5553
    -1.5553  -1.3786  -0.7550  -0.7550  -0.6654  -0.3171  -0.3171   0.0193
     0.1332   0.1332   0.2022   0.4171   0.4532   0.4532   0.9502   0.9980
     1.3262   1.3262   1.4510   1.4737   1.5271   1.6559   1.6559   1.6931
     1.7109   1.7109   1.8149   2.1165   2.1749   2.1749   2.6345   2.7666
     2.7733   3.1096   3.4367   3.4367   3.6669   3.8431   3.8979   4.0198
     4.1725   4.1725   4.2776   4.3249   4.9110

          k = 0.0000-0.1011 0.0000 ( 32558 PWs)   bands (ev):

   -71.8733 -71.8733 -71.8324 -71.8323 -71.8039 -71.8038 -71.7912 -71.7912
   -71.7726 -71.7726 -71.7639 -71.7639 -36.3000 -36.3000 -36.2564 -36.2564
   -36.1989 -36.1989 -36.1093 -36.1093 -36.0660 -36.0660 -36.0469 -36.0469
   -35.8735 -35.8735 -35.8278 -35.8278 -35.8252 -35.8252 -35.8118 -35.8118
   -35.7982 -35.7982 -35.7746 -35.7746 -35.7411 -35.7411 -35.6641 -35.6641
   -35.6318 -35.6318 -35.6015 -35.6015 -35.4996 -35.4996 -35.4675 -35.4675
    -3.8956  -3.8956  -2.3670  -2.3670  -1.6571  -1.6571  -1.4840  -1.4840
    -1.4738  -1.4738  -0.6257  -0.6257  -0.3276  -0.3276  -0.2235  -0.2235
     0.1475   0.1475   0.2507   0.2507   0.5321   0.5321   0.9758   0.9758
     1.1710   1.1710   1.3077   1.3077   1.3871   1.3871   1.4056   1.4056
     1.8613   1.8613   1.9666   1.9666   1.9889   1.9889   2.7407   2.7407
     3.1609   3.1609   3.5451   3.5451   3.5549   3.5549   3.8992   3.8992
     4.0953   4.0953   4.4152   4.4162   4.5725

          k = 0.0146-0.0084 0.0000 ( 32502 PWs)   bands (ev):

   -71.9114 -71.8350 -71.8337 -71.8323 -71.8323 -71.8174 -71.7736 -71.7726
   -71.7726 -71.7648 -71.7639 -71.7639 -36.4460 -36.4460 -36.4409 -36.3782
   -36.3090 -36.3090 -36.3063 -36.2116 -36.2116 -36.2057 -36.0186 -35.9220
   -35.9103 -35.9103 -35.8758 -35.8758 -35.8669 -35.7777 -35.7777 -35.7697
   -35.6972 -35.6972 -35.6891 -35.6246 -35.6005 -35.6005 -35.5931 -35.5638
   -35.5616 -35.5616 -35.5547 -35.5502 -35.4135 -35.4046 -35.3967 -35.3851
    -5.7670  -3.9742  -3.1414  -2.6592  -2.6017  -2.6017  -2.3977  -2.3658
    -2.3657  -1.6272  -1.5849  -1.5849  -1.5381  -1.5303  -1.5303  -0.1244
    -0.1244  -0.1159   0.9112   1.0507   1.0556   1.0557   1.3446   1.7117
     1.7562   1.7562   1.8070   1.8459   1.8933   2.1355   2.2046   2.2311
     2.2312   2.2324   2.3758   2.4747   2.8100   3.0700   3.0705   3.0706
     3.9702   3.9702   4.0295   4.0576   4.0766   4.0766   4.5945   4.6215
     5.1235   5.1882   5.2237   5.2248   5.2248

          k = 0.0146 0.0084 0.0000 ( 32502 PWs)   bands (ev):

   -71.9114 -71.8350 -71.8337 -71.8323 -71.8323 -71.8174 -71.7736 -71.7726
   -71.7726 -71.7648 -71.7639 -71.7639 -36.4461 -36.4460 -36.4409 -36.3782
   -36.3090 -36.3090 -36.3062 -36.2116 -36.2116 -36.2057 -36.0186 -35.9220
   -35.9103 -35.9103 -35.8758 -35.8758 -35.8669 -35.7777 -35.7777 -35.7697
   -35.6972 -35.6971 -35.6891 -35.6246 -35.6005 -35.6005 -35.5931 -35.5638
   -35.5616 -35.5616 -35.5547 -35.5502 -35.4135 -35.4046 -35.3967 -35.3851
    -5.7670  -3.9742  -3.1414  -2.6592  -2.6017  -2.6017  -2.3977  -2.3658
    -2.3657  -1.6272  -1.5849  -1.5849  -1.5381  -1.5303  -1.5303  -0.1244
    -0.1244  -0.1159   0.9112   1.0507   1.0556   1.0557   1.3446   1.7117
     1.7562   1.7562   1.8070   1.8459   1.8933   2.1355   2.2047   2.2312
     2.2312   2.2324   2.3758   2.4747   2.8100   3.0700   3.0705   3.0706
     3.9702   3.9702   4.0295   4.0576   4.0766   4.0766   4.5946   4.6215
     5.1235   5.1882   5.2237   5.2248   5.2248

          k = 0.0146 0.0253 0.0000 ( 32521 PWs)   bands (ev):

   -71.9088 -71.8351 -71.8351 -71.8329 -71.8309 -71.8156 -71.7746 -71.7746
   -71.7716 -71.7658 -71.7657 -71.7630 -36.4361 -36.4212 -36.4212 -36.3695
   -36.2986 -36.2914 -36.2914 -36.2026 -36.1857 -36.1857 -36.0183 -35.9380
   -35.9380 -35.9147 -35.8763 -35.8578 -35.8578 -35.7918 -35.7708 -35.7708
   -35.7146 -35.6892 -35.6892 -35.6313 -35.6143 -35.5940 -35.5940 -35.5891
   -35.5888 -35.5626 -35.5556 -35.5556 -35.4360 -35.4275 -35.4088 -35.3919
    -5.6375  -3.8432  -3.0037  -2.6217  -2.6217  -2.4509  -2.3300  -2.3299
    -2.2389  -1.5689  -1.5689  -1.4861  -1.4331  -1.4330  -1.3671  -0.1112
    -0.0872  -0.0871   0.8336   1.0896   1.0897   1.1097   1.3212   1.5283
     1.5605   1.6471   1.6471   1.8469   1.9638   2.0917   2.2068   2.2516
     2.2517   2.2596   2.3305   2.5952   2.7084   2.8960   2.8961   2.9093
     3.7077   3.7078   3.8016   3.8483   3.9850   3.9850   4.4375   4.5494
     5.1195   5.1196   5.2069   5.3135   5.3719

          k = 0.0146 0.0421 0.0000 ( 32513 PWs)   bands (ev):

   -71.9037 -71.8405 -71.8363 -71.8297 -71.8287 -71.8121 -71.7785 -71.7755
   -71.7708 -71.7693 -71.7666 -71.7621 -36.4119 -36.3895 -36.3736 -36.3526
   -36.2764 -36.2675 -36.2615 -36.1799 -36.1540 -36.1353 -36.0192 -35.9640
   -35.9566 -35.9412 -35.8658 -35.8484 -35.8451 -35.8069 -35.7799 -35.7569
   -35.7430 -35.6979 -35.6747 -35.6503 -35.6335 -35.6326 -35.6260 -35.6016
   -35.5813 -35.5775 -35.5754 -35.5440 -35.4858 -35.4718 -35.4226 -35.4042
    -5.3859  -3.5918  -2.7384  -2.6996  -2.5002  -2.2577  -2.2220  -2.1710
    -2.0326  -1.5081  -1.4186  -1.3182  -1.2741  -1.2135  -1.0747  -0.0856
    -0.0498  -0.0160   0.6803   1.1011   1.1029   1.1740   1.2044   1.2487
     1.2947   1.4430   1.5327   1.8257   1.9924   2.0965   2.1592   2.1795
     2.1928   2.2860   2.4694   2.5520   2.5680   2.6008   2.6376   2.8353
     3.1392   3.1950   3.4217   3.6103   3.7903   3.9891   4.2223   4.4527
     4.9070   5.0955   5.2234   5.2659   5.2690

          k = 0.0146 0.0590 0.0000 ( 32511 PWs)   bands (ev):

   -71.8966 -71.8481 -71.8374 -71.8287 -71.8227 -71.8071 -71.7842 -71.7762
   -71.7744 -71.7700 -71.7672 -71.7614 -36.3767 -36.3503 -36.3288 -36.3079
   -36.2460 -36.2397 -36.2317 -36.1473 -36.1156 -36.0638 -36.0248 -35.9810
   -35.9783 -35.9747 -35.8533 -35.8375 -35.8364 -35.8192 -35.7921 -35.7800
   -35.7364 -35.7159 -35.7054 -35.6812 -35.6713 -35.6562 -35.6404 -35.6194
   -35.5980 -35.5979 -35.5635 -35.5620 -35.5277 -35.5193 -35.4420 -35.4207
    -5.0273  -3.2439  -2.8811  -2.3696  -2.3214  -2.1727  -1.9476  -1.9466
    -1.7731  -1.4166  -1.1951  -1.0777  -1.0574  -0.8802  -0.7080  -0.0512
    -0.0164   0.0767   0.4588   0.8728   0.8788   0.8861   1.0098   1.0927
     1.3307   1.4751   1.5772   1.7481   1.8018   1.8448   1.8945   1.9742
     2.1328   2.3323   2.3413   2.4238   2.4829   2.5203   2.5332   2.6288
     2.6713   2.8789   3.1886   3.4369   3.5841   3.9771   4.0284   4.3779
     4.4827   4.6274   4.7539   5.0437   5.0980

          k = 0.0146 0.0758 0.0000 ( 32539 PWs)   bands (ev):

   -71.8877 -71.8572 -71.8381 -71.8280 -71.8155 -71.8010 -71.7912 -71.7805
   -71.7767 -71.7695 -71.7677 -71.7609 -36.3369 -36.3113 -36.2997 -36.2399
   -36.2151 -36.2147 -36.2118 -36.1118 -36.0778 -36.0422 -36.0247 -36.0023
   -35.9760 -35.9544 -35.8426 -35.8287 -35.8273 -35.8259 -35.8140 -35.7984
   -35.7758 -35.7378 -35.7324 -35.7212 -35.7105 -35.6550 -35.6547 -35.6485
   -35.6360 -35.6213 -35.6062 -35.5611 -35.5415 -35.5077 -35.4653 -35.4405
    -4.5863  -3.1913  -2.8447  -2.1333  -2.1322  -1.9454  -1.7137  -1.6709
    -1.5130  -1.3327  -0.9190  -0.8059  -0.7874  -0.4873  -0.4081   0.0402
     0.0701   0.1559   0.1833   0.5272   0.5664   0.5694   0.9196   0.9607
     1.3478   1.4703   1.5262   1.5352   1.5828   1.6139   1.6651   1.7352
     1.7833   1.8659   2.0566   2.1640   2.3210   2.3643   2.5891   2.5967
     2.7761   2.9630   3.3839   3.4737   3.6431   3.8328   3.9236   3.9535
     4.1539   4.3986   4.4606   4.5402   4.8083

          k = 0.0146-0.1095 0.0000 ( 32530 PWs)   bands (ev):

   -71.8778 -71.8674 -71.8385 -71.8276 -71.8075 -71.7992 -71.7942 -71.7872
   -71.7770 -71.7693 -71.7679 -71.7607 -36.3066 -36.2851 -36.2686 -36.2416
   -36.1998 -36.1959 -36.1457 -36.0836 -36.0816 -36.0589 -36.0507 -36.0225
   -35.9051 -35.8781 -35.8501 -35.8432 -35.8346 -35.8248 -35.8155 -35.8026
   -35.7940 -35.7881 -35.7730 -35.7502 -35.7460 -35.6871 -35.6811 -35.6525
   -35.6505 -35.6149 -35.6087 -35.5915 -35.5168 -35.4908 -35.4856 -35.4626
    -4.0989  -3.6143  -2.4700  -2.2161  -2.0067  -1.5595  -1.5541  -1.4502
    -1.3730  -1.3444  -0.6707  -0.6014  -0.4729  -0.2960  -0.2547  -0.1358
     0.1303   0.1842   0.2158   0.2710   0.4130   0.5789   0.9115   0.9214
     0.9779   1.1627   1.3373   1.3390   1.3951   1.3989   1.4248   1.6446
     1.6518   1.9071   1.9247   1.9732   2.0852   2.1591   2.7243   2.8045
     2.8961   3.3254   3.3936   3.5142   3.5175   3.7445   3.8193   3.9478
     4.0752   4.1641   4.2038   4.5687   4.7777

          k = 0.0146-0.0926 0.0000 ( 32530 PWs)   bands (ev):

   -71.8778 -71.8674 -71.8385 -71.8276 -71.8075 -71.7992 -71.7942 -71.7872
   -71.7770 -71.7693 -71.7679 -71.7607 -36.3066 -36.2851 -36.2686 -36.2416
   -36.1998 -36.1959 -36.1457 -36.0836 -36.0816 -36.0589 -36.0507 -36.0225
   -35.9051 -35.8781 -35.8501 -35.8432 -35.8346 -35.8248 -35.8155 -35.8026
   -35.7940 -35.7881 -35.7730 -35.7502 -35.7460 -35.6871 -35.6811 -35.6525
   -35.6505 -35.6149 -35.6087 -35.5915 -35.5168 -35.4908 -35.4856 -35.4626
    -4.0989  -3.6143  -2.4700  -2.2161  -2.0067  -1.5595  -1.5541  -1.4502
    -1.3730  -1.3444  -0.6707  -0.6014  -0.4729  -0.2960  -0.2547  -0.1358
     0.1303   0.1842   0.2158   0.2710   0.4130   0.5789   0.9115   0.9214
     0.9779   1.1627   1.3373   1.3390   1.3951   1.3989   1.4248   1.6446
     1.6518   1.9071   1.9247   1.9732   2.0852   2.1591   2.7243   2.8045
     2.8961   3.3254   3.3935   3.5142   3.5174   3.7445   3.8192   3.9478
     4.0751   4.1640   4.2038   4.5688   4.7777

          k = 0.0146-0.0758 0.0000 ( 32539 PWs)   bands (ev):

   -71.8877 -71.8572 -71.8381 -71.8280 -71.8155 -71.8010 -71.7912 -71.7805
   -71.7767 -71.7695 -71.7677 -71.7609 -36.3369 -36.3113 -36.2997 -36.2399
   -36.2151 -36.2147 -36.2118 -36.1118 -36.0779 -36.0422 -36.0247 -36.0023
   -35.9760 -35.9544 -35.8426 -35.8287 -35.8273 -35.8259 -35.8140 -35.7984
   -35.7758 -35.7378 -35.7324 -35.7212 -35.7105 -35.6550 -35.6547 -35.6485
   -35.6360 -35.6213 -35.6062 -35.5611 -35.5415 -35.5078 -35.4653 -35.4405
    -4.5863  -3.1913  -2.8447  -2.1333  -2.1322  -1.9454  -1.7137  -1.6709
    -1.5130  -1.3327  -0.9190  -0.8059  -0.7874  -0.4873  -0.4081   0.0402
     0.0701   0.1559   0.1833   0.5272   0.5664   0.5694   0.9196   0.9607
     1.3478   1.4703   1.5262   1.5352   1.5828   1.6139   1.6651   1.7352
     1.7833   1.8659   2.0566   2.1640   2.3210   2.3643   2.5891   2.5967
     2.7761   2.9630   3.3839   3.4737   3.6431   3.8328   3.9236   3.9535
     4.1539   4.3985   4.4606   4.5402   4.8083

          k = 0.0146-0.0590 0.0000 ( 32511 PWs)   bands (ev):

   -71.8966 -71.8481 -71.8374 -71.8287 -71.8227 -71.8071 -71.7842 -71.7762
   -71.7744 -71.7700 -71.7672 -71.7614 -36.3767 -36.3503 -36.3288 -36.3079
   -36.2460 -36.2397 -36.2317 -36.1473 -36.1156 -36.0638 -36.0248 -35.9810
   -35.9783 -35.9747 -35.8533 -35.8375 -35.8364 -35.8192 -35.7921 -35.7800
   -35.7364 -35.7159 -35.7054 -35.6812 -35.6713 -35.6562 -35.6404 -35.6194
   -35.5979 -35.5979 -35.5635 -35.5620 -35.5277 -35.5193 -35.4420 -35.4207
    -5.0273  -3.2439  -2.8811  -2.3696  -2.3214  -2.1727  -1.9476  -1.9466
    -1.7731  -1.4166  -1.1951  -1.0777  -1.0574  -0.8802  -0.7080  -0.0512
    -0.0164   0.0767   0.4588   0.8728   0.8788   0.8861   1.0098   1.0927
     1.3307   1.4751   1.5772   1.7481   1.8018   1.8448   1.8945   1.9742
     2.1328   2.3323   2.3413   2.4238   2.4829   2.5203   2.5332   2.6288
     2.6713   2.8789   3.1886   3.4369   3.5841   3.9772   4.0284   4.3779
     4.4827   4.6274   4.7540   5.0437   5.0980

          k = 0.0146-0.0421 0.0000 ( 32513 PWs)   bands (ev):

   -71.9037 -71.8405 -71.8363 -71.8297 -71.8287 -71.8121 -71.7785 -71.7755
   -71.7708 -71.7693 -71.7666 -71.7621 -36.4119 -36.3895 -36.3736 -36.3526
   -36.2764 -36.2675 -36.2615 -36.1799 -36.1540 -36.1353 -36.0192 -35.9640
   -35.9566 -35.9412 -35.8658 -35.8484 -35.8451 -35.8069 -35.7799 -35.7569
   -35.7430 -35.6979 -35.6747 -35.6503 -35.6335 -35.6326 -35.6260 -35.6016
   -35.5813 -35.5775 -35.5754 -35.5440 -35.4858 -35.4718 -35.4226 -35.4042
    -5.3859  -3.5918  -2.7384  -2.6996  -2.5002  -2.2577  -2.2220  -2.1710
    -2.0326  -1.5081  -1.4186  -1.3182  -1.2741  -1.2135  -1.0747  -0.0856
    -0.0498  -0.0160   0.6803   1.1011   1.1029   1.1740   1.2044   1.2487
     1.2947   1.4430   1.5327   1.8257   1.9924   2.0965   2.1592   2.1795
     2.1928   2.2860   2.4694   2.5520   2.5680   2.6008   2.6376   2.8353
     3.1392   3.1950   3.4217   3.6103   3.7903   3.9891   4.2223   4.4528
     4.9071   5.0955   5.2235   5.2659   5.2690

          k = 0.0146-0.0253 0.0000 ( 32521 PWs)   bands (ev):

   -71.9088 -71.8351 -71.8351 -71.8329 -71.8309 -71.8156 -71.7746 -71.7746
   -71.7716 -71.7658 -71.7658 -71.7630 -36.4361 -36.4212 -36.4212 -36.3695
   -36.2986 -36.2914 -36.2914 -36.2026 -36.1857 -36.1857 -36.0183 -35.9380
   -35.9380 -35.9147 -35.8763 -35.8578 -35.8578 -35.7918 -35.7708 -35.7708
   -35.7146 -35.6892 -35.6892 -35.6313 -35.6143 -35.5940 -35.5940 -35.5891
   -35.5888 -35.5626 -35.5556 -35.5556 -35.4360 -35.4275 -35.4088 -35.3919
    -5.6375  -3.8432  -3.0037  -2.6217  -2.6217  -2.4509  -2.3300  -2.3299
    -2.2389  -1.5689  -1.5689  -1.4861  -1.4331  -1.4331  -1.3671  -0.1112
    -0.0871  -0.0871   0.8336   1.0896   1.0897   1.1097   1.3212   1.5283
     1.5605   1.6471   1.6471   1.8469   1.9638   2.0917   2.2068   2.2516
     2.2517   2.2596   2.3305   2.5952   2.7084   2.8960   2.8961   2.9093
     3.7077   3.7077   3.8016   3.8483   3.9850   3.9850   4.4375   4.5494
     5.1195   5.1195   5.2069   5.3135   5.3719

          k = 0.0292-0.0168 0.0000 ( 32476 PWs)   bands (ev):

   -71.9075 -71.8379 -71.8323 -71.8323 -71.8318 -71.8147 -71.7766 -71.7726
   -71.7726 -71.7676 -71.7639 -71.7639 -36.4242 -36.4242 -36.4036 -36.3652
   -36.2903 -36.2903 -36.2808 -36.1903 -36.1902 -36.1666 -36.0184 -35.9509
   -35.9305 -35.9305 -35.8645 -35.8645 -35.8515 -35.7891 -35.7891 -35.7589
   -35.7103 -35.7103 -35.6779 -35.6356 -35.6111 -35.6111 -35.6003 -35.5856
   -35.5856 -35.5835 -35.5662 -35.5416 -35.4495 -35.4377 -35.4144 -35.3936
    -5.5738  -3.7792  -2.9364  -2.7021  -2.4571  -2.4571  -2.3423  -2.2232
    -2.2232  -1.5910  -1.4707  -1.4707  -1.4055  -1.3265  -1.3265  -0.0957
    -0.0957  -0.0577   0.7936   1.0964   1.1217   1.1218   1.2998   1.4896
     1.4905   1.4905   1.6423   1.8440   2.0149   2.0652   2.2011   2.2012
     2.2729   2.2916   2.3282   2.6530   2.6664   2.7944   2.8323   2.8324
     3.5345   3.6518   3.6518   3.8076   3.8076   4.0741   4.4084   4.4793
     4.9749   5.2227   5.3050   5.3050   5.3483

          k = 0.0292 0.0000 0.0000 ( 32521 PWs)   bands (ev):

   -71.9088 -71.8351 -71.8351 -71.8329 -71.8309 -71.8156 -71.7746 -71.7746
   -71.7716 -71.7658 -71.7657 -71.7630 -36.4361 -36.4212 -36.4212 -36.3695
   -36.2986 -36.2914 -36.2914 -36.2026 -36.1857 -36.1857 -36.0183 -35.9380
   -35.9380 -35.9147 -35.8763 -35.8578 -35.8578 -35.7918 -35.7708 -35.7708
   -35.7146 -35.6892 -35.6892 -35.6313 -35.6143 -35.5940 -35.5940 -35.5891
   -35.5888 -35.5626 -35.5556 -35.5556 -35.4360 -35.4275 -35.4088 -35.3919
    -5.6375  -3.8432  -3.0037  -2.6217  -2.6217  -2.4509  -2.3299  -2.3299
    -2.2389  -1.5689  -1.5689  -1.4861  -1.4331  -1.4331  -1.3671  -0.1112
    -0.0871  -0.0871   0.8336   1.0897   1.0897   1.1097   1.3212   1.5283
     1.5605   1.6471   1.6471   1.8469   1.9638   2.0917   2.2068   2.2516
     2.2516   2.2596   2.3305   2.5952   2.7084   2.8960   2.8960   2.9093
     3.7077   3.7077   3.8016   3.8483   3.9850   3.9850   4.4375   4.5494
     5.1195   5.1196   5.2069   5.3135   5.3719

          k = 0.0292 0.0168 0.0000 ( 32476 PWs)   bands (ev):

   -71.9075 -71.8379 -71.8323 -71.8323 -71.8318 -71.8147 -71.7766 -71.7726
   -71.7726 -71.7676 -71.7639 -71.7639 -36.4242 -36.4242 -36.4036 -36.3652
   -36.2903 -36.2903 -36.2808 -36.1903 -36.1903 -36.1666 -36.0184 -35.9509
   -35.9305 -35.9305 -35.8645 -35.8645 -35.8515 -35.7891 -35.7891 -35.7589
   -35.7103 -35.7103 -35.6779 -35.6356 -35.6111 -35.6111 -35.6003 -35.5856
   -35.5856 -35.5835 -35.5662 -35.5416 -35.4495 -35.4377 -35.4144 -35.3936
    -5.5738  -3.7792  -2.9364  -2.7021  -2.4571  -2.4571  -2.3423  -2.2232
    -2.2232  -1.5910  -1.4707  -1.4707  -1.4055  -1.3265  -1.3265  -0.0957
    -0.0957  -0.0577   0.7936   1.0964   1.1217   1.1218   1.2998   1.4896
     1.4905   1.4905   1.6423   1.8440   2.0149   2.0652   2.2012   2.2012
     2.2729   2.2916   2.3282   2.6530   2.6664   2.7944   2.8323   2.8324
     3.5345   3.6518   3.6518   3.8075   3.8076   4.0741   4.4084   4.4789
     4.9749   5.2225   5.3050   5.3050   5.3483

          k = 0.0292 0.0337 0.0000 ( 32513 PWs)   bands (ev):

   -71.9037 -71.8405 -71.8363 -71.8297 -71.8287 -71.8121 -71.7785 -71.7755
   -71.7708 -71.7693 -71.7666 -71.7621 -36.4119 -36.3895 -36.3736 -36.3526
   -36.2764 -36.2675 -36.2615 -36.1799 -36.1540 -36.1353 -36.0192 -35.9640
   -35.9566 -35.9412 -35.8658 -35.8484 -35.8451 -35.8069 -35.7799 -35.7569
   -35.7430 -35.6979 -35.6747 -35.6503 -35.6335 -35.6326 -35.6260 -35.6016
   -35.5813 -35.5775 -35.5754 -35.5440 -35.4858 -35.4718 -35.4226 -35.4042
    -5.3859  -3.5918  -2.7384  -2.6996  -2.5002  -2.2577  -2.2220  -2.1710
    -2.0326  -1.5081  -1.4186  -1.3182  -1.2741  -1.2135  -1.0747  -0.0856
    -0.0498  -0.0160   0.6803   1.1011   1.1029   1.1740   1.2044   1.2487
     1.2947   1.4430   1.5327   1.8257   1.9924   2.0965   2.1592   2.1795
     2.1928   2.2860   2.4694   2.5520   2.5680   2.6008   2.6376   2.8353
     3.1392   3.1950   3.4217   3.6103   3.7903   3.9891   4.2223   4.4527
     4.9070   5.0956   5.2234   5.2659   5.2693

          k = 0.0292 0.0505 0.0000 ( 32517 PWs)   bands (ev):

   -71.8977 -71.8427 -71.8427 -71.8274 -71.8237 -71.8079 -71.7802 -71.7802
   -71.7708 -71.7708 -71.7692 -71.7606 -36.3854 -36.3351 -36.3351 -36.3326
   -36.2508 -36.2383 -36.2383 -36.1564 -36.0961 -36.0961 -36.0234 -35.9765
   -35.9763 -35.9763 -35.8593 -35.8375 -35.8375 -35.8209 -35.7846 -35.7625
   -35.7625 -35.6846 -35.6837 -35.6796 -35.6796 -35.6772 -35.6459 -35.5942
   -35.5865 -35.5865 -35.5596 -35.5596 -35.5497 -35.5094 -35.4382 -35.4222
    -5.0841  -3.2960  -2.6294  -2.6294  -2.4234  -2.0882  -2.0882  -1.9488
    -1.7689  -1.3286  -1.3285  -1.0960  -1.0390  -1.0389  -0.7388  -0.0626
     0.0203   0.0203   0.5078   0.9316   0.9706   0.9707   0.9871   1.0359
     1.2818   1.5207   1.5208   1.7559   1.8478   1.9377   1.9522   1.9522
     2.0962   2.3797   2.4024   2.4025   2.4713   2.4798   2.6350   2.6350
     2.6792   3.0360   3.1427   3.4524   3.7870   3.7870   3.9979   4.4634
     4.5797   4.5797   4.9449   4.9450   5.2657

          k = 0.0292 0.0674 0.0000 ( 32507 PWs)   bands (ev):

   -71.8898 -71.8510 -71.8444 -71.8257 -71.8172 -71.8025 -71.7864 -71.7814
   -71.7763 -71.7719 -71.7680 -71.7594 -36.3481 -36.3064 -36.2945 -36.2674
   -36.2181 -36.2172 -36.2168 -36.1263 -36.0554 -36.0359 -36.0224 -36.0202
   -35.9880 -35.9740 -35.8622 -35.8349 -35.8301 -35.8299 -35.8169 -35.7684
   -35.7459 -35.7374 -35.7366 -35.7219 -35.6916 -35.6595 -35.6579 -35.6320
   -35.6139 -35.6021 -35.5767 -35.5665 -35.5477 -35.5394 -35.4612 -35.4434
    -4.6866  -2.9225  -2.8827  -2.5221  -2.0199  -2.0160  -1.8691  -1.6735
    -1.4605  -1.2185  -1.0745  -0.8262  -0.8100  -0.6986  -0.4712   0.0345
     0.0364   0.0874   0.2904   0.6343   0.6671   0.7131   0.8352   0.8460
     1.3568   1.4232   1.5039   1.5524   1.6148   1.6753   1.6950   1.7541
     1.8604   1.9057   2.1293   2.1977   2.4563   2.5028   2.5548   2.5724
     2.7653   2.9565   3.3792   3.5551   3.5990   3.7505   3.8324   4.0023
     4.0699   4.5320   4.6920   4.7915   4.8260

          k = 0.0292-0.1179 0.0000 ( 32506 PWs)   bands (ev):

   -71.8806 -71.8605 -71.8455 -71.8246 -71.8097 -71.7961 -71.7937 -71.7826
   -71.7822 -71.7726 -71.7672 -71.7587 -36.3080 -36.2766 -36.2612 -36.2274
   -36.2023 -36.1890 -36.1850 -36.1100 -36.0651 -36.0512 -36.0224 -35.9985
   -35.9403 -35.9300 -35.8891 -35.8557 -35.8266 -35.8198 -35.8158 -35.8130
   -35.7782 -35.7738 -35.7672 -35.7228 -35.7050 -35.7031 -35.6684 -35.6396
   -35.6346 -35.6293 -35.5831 -35.5820 -35.5427 -35.5162 -35.4881 -35.4668
    -4.2213  -3.2626  -2.5272  -2.4236  -2.0283  -1.6699  -1.5877  -1.4176
    -1.2100  -1.1475  -0.7743  -0.5827  -0.5347  -0.4280  -0.3309   0.0453
     0.0623   0.0889   0.1648   0.2905   0.4770   0.6196   0.7414   0.7826
     0.9669   1.1937   1.2145   1.3182   1.3710   1.3850   1.4517   1.5925
     1.8913   1.8917   1.8919   2.0649   2.2157   2.4036   2.6160   2.7013
     2.8807   3.3543   3.4092   3.4674   3.5120   3.7173   3.7450   3.7506
     4.1201   4.3119   4.4017   4.6631   4.7138

          k = 0.0292-0.1011 0.0000 ( 32474 PWs)   bands (ev):

   -71.8706 -71.8706 -71.8459 -71.8243 -71.8017 -71.8017 -71.7894 -71.7894
   -71.7825 -71.7729 -71.7670 -71.7584 -36.2872 -36.2477 -36.2472 -36.2472
   -36.1975 -36.1797 -36.1171 -36.1171 -36.1145 -36.0502 -36.0083 -36.0042
   -35.9015 -35.8803 -35.8803 -35.8708 -35.8390 -35.8390 -35.8265 -35.8079
   -35.7958 -35.7941 -35.7941 -35.7646 -35.7058 -35.6716 -35.6711 -35.6711
   -35.6446 -35.6101 -35.6101 -35.5846 -35.5160 -35.5160 -35.4915 -35.4915
    -3.7287  -3.7287  -2.3832  -2.1998  -2.1998  -1.5862  -1.2628  -1.2503
    -1.2503  -1.1610  -0.5676  -0.4586  -0.4353  -0.2776  -0.2329  -0.2329
     0.0881   0.0881   0.0921   0.2954   0.3753   0.7403   0.7601   0.7601
     0.7697   0.7933   1.1791   1.1791   1.2028   1.2028   1.5424   1.5660
     1.6770   1.8165   2.0710   2.0822   2.0822   2.2660   2.8224   2.8224
     2.9731   2.9731   3.5244   3.5707   3.6207   3.6207   3.6274   4.0128
     4.0128   4.0164   4.5799   4.7166   4.7169

          k = 0.0292-0.0842 0.0000 ( 32506 PWs)   bands (ev):

   -71.8806 -71.8605 -71.8455 -71.8246 -71.8097 -71.7961 -71.7937 -71.7826
   -71.7822 -71.7726 -71.7672 -71.7587 -36.3080 -36.2766 -36.2612 -36.2274
   -36.2023 -36.1890 -36.1850 -36.1100 -36.0651 -36.0512 -36.0224 -35.9985
   -35.9403 -35.9300 -35.8891 -35.8557 -35.8266 -35.8198 -35.8158 -35.8130
   -35.7782 -35.7738 -35.7672 -35.7228 -35.7050 -35.7031 -35.6684 -35.6396
   -35.6346 -35.6293 -35.5831 -35.5820 -35.5427 -35.5162 -35.4881 -35.4668
    -4.2213  -3.2626  -2.5272  -2.4236  -2.0283  -1.6699  -1.5877  -1.4176
    -1.2100  -1.1475  -0.7743  -0.5827  -0.5347  -0.4280  -0.3309   0.0453
     0.0623   0.0889   0.1648   0.2905   0.4770   0.6196   0.7414   0.7826
     0.9669   1.1937   1.2145   1.3182   1.3710   1.3850   1.4517   1.5925
     1.8913   1.8917   1.8919   2.0649   2.2157   2.4036   2.6160   2.7013
     2.8807   3.3544   3.4092   3.4674   3.5120   3.7173   3.7450   3.7506
     4.1201   4.3119   4.4017   4.6631   4.7138

          k = 0.0292-0.0674 0.0000 ( 32507 PWs)   bands (ev):

   -71.8898 -71.8510 -71.8444 -71.8257 -71.8172 -71.8025 -71.7864 -71.7814
   -71.7763 -71.7719 -71.7680 -71.7594 -36.3481 -36.3064 -36.2945 -36.2674
   -36.2181 -36.2172 -36.2168 -36.1263 -36.0554 -36.0359 -36.0224 -36.0202
   -35.9880 -35.9740 -35.8622 -35.8349 -35.8301 -35.8299 -35.8169 -35.7684
   -35.7459 -35.7374 -35.7366 -35.7219 -35.6916 -35.6595 -35.6579 -35.6320
   -35.6139 -35.6021 -35.5767 -35.5665 -35.5477 -35.5394 -35.4612 -35.4434
    -4.6866  -2.9225  -2.8827  -2.5221  -2.0199  -2.0160  -1.8691  -1.6735
    -1.4605  -1.2185  -1.0745  -0.8262  -0.8100  -0.6986  -0.4712   0.0345
     0.0364   0.0874   0.2904   0.6343   0.6671   0.7131   0.8352   0.8460
     1.3568   1.4232   1.5039   1.5524   1.6148   1.6753   1.6950   1.7541
     1.8604   1.9057   2.1293   2.1977   2.4563   2.5028   2.5548   2.5724
     2.7653   2.9565   3.3792   3.5551   3.5990   3.7505   3.8324   4.0023
     4.0699   4.5321   4.6920   4.7915   4.8260

          k = 0.0292-0.0505 0.0000 ( 32517 PWs)   bands (ev):

   -71.8977 -71.8427 -71.8427 -71.8274 -71.8237 -71.8079 -71.7802 -71.7802
   -71.7708 -71.7708 -71.7692 -71.7606 -36.3854 -36.3351 -36.3351 -36.3326
   -36.2508 -36.2383 -36.2383 -36.1564 -36.0961 -36.0961 -36.0234 -35.9765
   -35.9763 -35.9763 -35.8593 -35.8375 -35.8375 -35.8209 -35.7847 -35.7625
   -35.7625 -35.6846 -35.6837 -35.6796 -35.6796 -35.6772 -35.6459 -35.5942
   -35.5865 -35.5865 -35.5596 -35.5596 -35.5497 -35.5094 -35.4382 -35.4221
    -5.0841  -3.2960  -2.6294  -2.6294  -2.4234  -2.0882  -2.0882  -1.9488
    -1.7689  -1.3286  -1.3285  -1.0960  -1.0390  -1.0389  -0.7388  -0.0626
     0.0203   0.0203   0.5078   0.9316   0.9706   0.9707   0.9871   1.0359
     1.2818   1.5207   1.5208   1.7559   1.8478   1.9377   1.9522   1.9522
     2.0962   2.3797   2.4024   2.4025   2.4713   2.4798   2.6350   2.6350
     2.6792   3.0361   3.1427   3.4524   3.7870   3.7870   3.9979   4.4633
     4.5797   4.5797   4.9449   4.9449   5.2657

          k = 0.0292-0.0337 0.0000 ( 32513 PWs)   bands (ev):

   -71.9037 -71.8405 -71.8363 -71.8297 -71.8287 -71.8121 -71.7785 -71.7755
   -71.7708 -71.7693 -71.7666 -71.7621 -36.4119 -36.3895 -36.3736 -36.3526
   -36.2764 -36.2675 -36.2615 -36.1799 -36.1540 -36.1353 -36.0192 -35.9640
   -35.9566 -35.9412 -35.8658 -35.8484 -35.8451 -35.8069 -35.7799 -35.7569
   -35.7430 -35.6979 -35.6747 -35.6503 -35.6335 -35.6326 -35.6260 -35.6016
   -35.5813 -35.5775 -35.5754 -35.5440 -35.4858 -35.4718 -35.4226 -35.4042
    -5.3859  -3.5918  -2.7384  -2.6996  -2.5002  -2.2577  -2.2220  -2.1710
    -2.0326  -1.5081  -1.4186  -1.3182  -1.2741  -1.2135  -1.0747  -0.0856
    -0.0498  -0.0160   0.6803   1.1011   1.1029   1.1740   1.2044   1.2487
     1.2947   1.4430   1.5327   1.8257   1.9924   2.0965   2.1592   2.1795
     2.1928   2.2860   2.4694   2.5520   2.5680   2.6008   2.6376   2.8353
     3.1392   3.1950   3.4217   3.6103   3.7903   3.9891   4.2223   4.4527
     4.9070   5.0955   5.2234   5.2659   5.2691

          k = 0.0438-0.0253 0.0000 ( 32490 PWs)   bands (ev):

   -71.9013 -71.8445 -71.8323 -71.8323 -71.8266 -71.8104 -71.7815 -71.7726
   -71.7726 -71.7720 -71.7639 -71.7639 -36.3907 -36.3907 -36.3452 -36.3445
   -36.2628 -36.2628 -36.2481 -36.1580 -36.1580 -36.1040 -36.0205 -35.9713
   -35.9581 -35.9581 -35.8523 -35.8523 -35.8415 -35.8031 -35.8031 -35.7417
   -35.7337 -35.7337 -35.6712 -35.6615 -35.6428 -35.6300 -35.6300 -35.6150
   -35.6150 -35.5844 -35.5682 -35.5280 -35.5123 -35.4911 -35.4301 -35.4071
    -5.2645  -3.4732  -2.8253  -2.6136  -2.2588  -2.2377  -2.2377  -2.0089
    -2.0088  -1.5147  -1.2776  -1.2776  -1.2136  -1.0081  -1.0081  -0.0624
    -0.0624   0.0320   0.5979   1.0574   1.0574   1.0887   1.0889   1.2423
     1.3333   1.3333   1.5508   1.8270   1.9165   2.0476   2.0477   2.1708
     2.2883   2.3392   2.3854   2.5086   2.5177   2.5178   2.5370   2.9038
     2.9458   3.0996   3.0997   3.5879   3.5879   4.0848   4.2144   4.3314
     4.7300   5.0472   5.1695   5.1706   5.2338

          k = 0.0438-0.0084 0.0000 ( 32513 PWs)   bands (ev):

   -71.9037 -71.8405 -71.8363 -71.8297 -71.8287 -71.8121 -71.7785 -71.7755
   -71.7708 -71.7693 -71.7666 -71.7621 -36.4119 -36.3895 -36.3736 -36.3526
   -36.2764 -36.2675 -36.2615 -36.1799 -36.1540 -36.1353 -36.0192 -35.9640
   -35.9566 -35.9412 -35.8658 -35.8484 -35.8451 -35.8069 -35.7799 -35.7569
   -35.7430 -35.6979 -35.6747 -35.6503 -35.6335 -35.6326 -35.6260 -35.6016
   -35.5813 -35.5775 -35.5754 -35.5440 -35.4858 -35.4718 -35.4226 -35.4042
    -5.3859  -3.5918  -2.7384  -2.6996  -2.5002  -2.2577  -2.2220  -2.1710
    -2.0326  -1.5081  -1.4186  -1.3182  -1.2741  -1.2135  -1.0747  -0.0856
    -0.0498  -0.0160   0.6803   1.1011   1.1029   1.1740   1.2044   1.2487
     1.2947   1.4430   1.5327   1.8257   1.9924   2.0965   2.1592   2.1795
     2.1928   2.2860   2.4694   2.5520   2.5680   2.6008   2.6376   2.8353
     3.1392   3.1950   3.4217   3.6103   3.7903   3.9891   4.2223   4.4529
     4.9070   5.0955   5.2235   5.2659   5.2691

          k = 0.0438 0.0084 0.0000 ( 32513 PWs)   bands (ev):

   -71.9037 -71.8405 -71.8363 -71.8297 -71.8287 -71.8121 -71.7785 -71.7755
   -71.7708 -71.7693 -71.7666 -71.7621 -36.4119 -36.3895 -36.3736 -36.3526
   -36.2764 -36.2675 -36.2615 -36.1799 -36.1540 -36.1353 -36.0192 -35.9640
   -35.9566 -35.9412 -35.8658 -35.8484 -35.8451 -35.8069 -35.7799 -35.7569
   -35.7430 -35.6979 -35.6747 -35.6503 -35.6335 -35.6326 -35.6260 -35.6016
   -35.5813 -35.5775 -35.5754 -35.5440 -35.4858 -35.4718 -35.4226 -35.4042
    -5.3859  -3.5918  -2.7384  -2.6996  -2.5002  -2.2577  -2.2220  -2.1710
    -2.0326  -1.5081  -1.4186  -1.3182  -1.2741  -1.2135  -1.0747  -0.0856
    -0.0498  -0.0160   0.6803   1.1011   1.1029   1.1740   1.2044   1.2487
     1.2947   1.4430   1.5327   1.8257   1.9924   2.0965   2.1592   2.1795
     2.1928   2.2860   2.4694   2.5520   2.5680   2.6008   2.6376   2.8353
     3.1392   3.1950   3.4217   3.6103   3.7903   3.9891   4.2223   4.4527
     4.9070   5.0956   5.2235   5.2659   5.2695

          k = 0.0438 0.0253 0.0000 ( 32490 PWs)   bands (ev):

   -71.9013 -71.8445 -71.8323 -71.8323 -71.8266 -71.8104 -71.7815 -71.7726
   -71.7726 -71.7720 -71.7639 -71.7639 -36.3907 -36.3907 -36.3452 -36.3445
   -36.2628 -36.2628 -36.2481 -36.1580 -36.1580 -36.1040 -36.0205 -35.9713
   -35.9581 -35.9581 -35.8523 -35.8523 -35.8415 -35.8031 -35.8031 -35.7417
   -35.7337 -35.7337 -35.6712 -35.6615 -35.6428 -35.6300 -35.6300 -35.6150
   -35.6150 -35.5844 -35.5682 -35.5280 -35.5123 -35.4911 -35.4301 -35.4071
    -5.2645  -3.4732  -2.8253  -2.6136  -2.2588  -2.2377  -2.2377  -2.0089
    -2.0089  -1.5147  -1.2776  -1.2776  -1.2136  -1.0081  -1.0081  -0.0624
    -0.0624   0.0320   0.5979   1.0574   1.0574   1.0887   1.0889   1.2423
     1.3333   1.3333   1.5508   1.8270   1.9164   2.0476   2.0477   2.1708
     2.2883   2.3392   2.3854   2.5086   2.5177   2.5178   2.5370   2.9038
     2.9458   3.0996   3.0997   3.5879   3.5879   4.0848   4.2144   4.3314
     4.7300   5.0472   5.1700   5.1701   5.2338

          k = 0.0438 0.0421 0.0000 ( 32511 PWs)   bands (ev):

   -71.8966 -71.8481 -71.8374 -71.8287 -71.8227 -71.8071 -71.7842 -71.7762
   -71.7744 -71.7700 -71.7672 -71.7614 -36.3767 -36.3503 -36.3288 -36.3079
   -36.2460 -36.2397 -36.2317 -36.1473 -36.1156 -36.0638 -36.0248 -35.9810
   -35.9783 -35.9747 -35.8533 -35.8375 -35.8364 -35.8192 -35.7921 -35.7800
   -35.7364 -35.7159 -35.7054 -35.6812 -35.6713 -35.6562 -35.6404 -35.6194
   -35.5979 -35.5979 -35.5635 -35.5620 -35.5277 -35.5193 -35.4421 -35.4207
    -5.0273  -3.2439  -2.8811  -2.3696  -2.3214  -2.1727  -1.9476  -1.9466
    -1.7731  -1.4166  -1.1951  -1.0777  -1.0574  -0.8802  -0.7080  -0.0512
    -0.0164   0.0767   0.4588   0.8728   0.8788   0.8861   1.0098   1.0927
     1.3307   1.4751   1.5772   1.7481   1.8018   1.8448   1.8945   1.9742
     2.1328   2.3323   2.3413   2.4238   2.4829   2.5203   2.5332   2.6288
     2.6713   2.8789   3.1886   3.4369   3.5841   3.9772   4.0284   4.3779
     4.4827   4.6274   4.7539   5.0437   5.0980

          k = 0.0438 0.0590 0.0000 ( 32507 PWs)   bands (ev):

   -71.8898 -71.8510 -71.8444 -71.8257 -71.8172 -71.8025 -71.7864 -71.7814
   -71.7763 -71.7719 -71.7680 -71.7594 -36.3481 -36.3064 -36.2945 -36.2674
   -36.2181 -36.2172 -36.2168 -36.1263 -36.0554 -36.0359 -36.0224 -36.0202
   -35.9880 -35.9740 -35.8622 -35.8349 -35.8301 -35.8299 -35.8169 -35.7684
   -35.7459 -35.7374 -35.7366 -35.7219 -35.6916 -35.6595 -35.6579 -35.6320
   -35.6139 -35.6021 -35.5767 -35.5665 -35.5477 -35.5394 -35.4612 -35.4434
    -4.6866  -2.9225  -2.8827  -2.5221  -2.0199  -2.0160  -1.8691  -1.6735
    -1.4605  -1.2185  -1.0745  -0.8262  -0.8100  -0.6986  -0.4712   0.0345
     0.0364   0.0874   0.2904   0.6343   0.6671   0.7131   0.8352   0.8460
     1.3568   1.4232   1.5039   1.5524   1.6148   1.6753   1.6950   1.7541
     1.8604   1.9057   2.1293   2.1977   2.4563   2.5028   2.5548   2.5724
     2.7653   2.9565   3.3792   3.5551   3.5990   3.7505   3.8324   4.0023
     4.0699   4.5321   4.6920   4.7915   4.8260

          k = 0.0438-0.1263 0.0000 ( 32485 PWs)   bands (ev):

   -71.8815 -71.8530 -71.8530 -71.8236 -71.8105 -71.7968 -71.7880 -71.7879
   -71.7776 -71.7776 -71.7665 -71.7580 -36.3079 -36.2794 -36.2313 -36.2312
   -36.2072 -36.2072 -36.1839 -36.1229 -36.0598 -36.0451 -35.9823 -35.9823
   -35.9703 -35.9703 -35.9059 -35.8651 -35.8263 -35.8263 -35.8151 -35.7897
   -35.7834 -35.7771 -35.7352 -35.7352 -35.7121 -35.6748 -35.6636 -35.6636
   -35.6361 -35.5789 -35.5789 -35.5764 -35.5524 -35.5524 -35.4880 -35.4705
    -4.2621  -2.8565  -2.8564  -2.5453  -1.8333  -1.8332  -1.5931  -1.4113
    -1.1415  -0.9392  -0.9392  -0.5653  -0.5053  -0.4704  -0.4703   0.0126
     0.0126   0.1033   0.1804   0.3765   0.5855   0.6284   0.6284   0.6465
     1.0724   1.0725   1.2918   1.2919   1.3058   1.3706   1.3849   1.6535
     1.8833   1.8833   1.9221   2.1659   2.3767   2.4004   2.5973   2.5973
     2.9015   3.3901   3.4523   3.4865   3.4865   3.6435   3.6794   3.6794
     4.0999   4.4258   4.6125   4.6126   4.8025

          k = 0.0438-0.1095 0.0000 ( 32488 PWs)   bands (ev):

   -71.8722 -71.8625 -71.8541 -71.8225 -71.8030 -71.7953 -71.7905 -71.7888
   -71.7840 -71.7783 -71.7658 -71.7572 -36.2662 -36.2505 -36.2253 -36.2091
   -36.2025 -36.1668 -36.1598 -36.1487 -36.1017 -36.0227 -35.9720 -35.9545
   -35.9393 -35.9262 -35.9088 -35.8967 -35.8605 -35.8263 -35.8217 -35.8188
   -35.8056 -35.7932 -35.7902 -35.7313 -35.6988 -35.6839 -35.6663 -35.6645
   -35.6344 -35.6053 -35.5961 -35.5575 -35.5509 -35.5260 -35.5195 -35.4984
    -3.7841  -3.2964  -2.8325  -2.1794  -1.9224  -1.7029  -1.1634  -1.1578
    -0.9745  -0.8974  -0.6340  -0.6043  -0.3491  -0.2759  -0.2121  -0.1080
    -0.0846   0.0160   0.0691   0.1006   0.4176   0.4797   0.5727   0.7740
     0.8312   0.9268   0.9697   1.0063   1.0744   1.1388   1.4812   1.6069
     1.7325   1.7851   2.0941   2.0981   2.2756   2.4999   2.6226   2.7052
     2.9370   3.1112   3.2950   3.5863   3.5864   3.6131   3.6486   3.8899
     4.0803   4.3230   4.5290   4.6959   5.1297

          k = 0.0438-0.0926 0.0000 ( 32488 PWs)   bands (ev):

   -71.8722 -71.8625 -71.8541 -71.8225 -71.8030 -71.7953 -71.7905 -71.7888
   -71.7840 -71.7783 -71.7658 -71.7572 -36.2662 -36.2505 -36.2253 -36.2091
   -36.2025 -36.1668 -36.1598 -36.1487 -36.1017 -36.0227 -35.9720 -35.9545
   -35.9393 -35.9262 -35.9088 -35.8967 -35.8605 -35.8263 -35.8217 -35.8188
   -35.8056 -35.7932 -35.7902 -35.7313 -35.6988 -35.6839 -35.6663 -35.6645
   -35.6344 -35.6053 -35.5961 -35.5575 -35.5509 -35.5260 -35.5195 -35.4984
    -3.7841  -3.2964  -2.8325  -2.1794  -1.9224  -1.7029  -1.1634  -1.1578
    -0.9745  -0.8974  -0.6340  -0.6043  -0.3491  -0.2759  -0.2121  -0.1080
    -0.0846   0.0160   0.0691   0.1006   0.4176   0.4797   0.5727   0.7740
     0.8312   0.9268   0.9697   1.0063   1.0744   1.1388   1.4812   1.6069
     1.7325   1.7851   2.0941   2.0981   2.2756   2.4999   2.6226   2.7052
     2.9370   3.1112   3.2950   3.5863   3.5864   3.6131   3.6486   3.8899
     4.0803   4.3230   4.5291   4.6959   5.1296

          k = 0.0438-0.0758 0.0000 ( 32485 PWs)   bands (ev):

   -71.8815 -71.8530 -71.8530 -71.8236 -71.8105 -71.7968 -71.7880 -71.7880
   -71.7776 -71.7776 -71.7665 -71.7580 -36.3079 -36.2794 -36.2313 -36.2312
   -36.2072 -36.2072 -36.1839 -36.1229 -36.0598 -36.0451 -35.9823 -35.9823
   -35.9703 -35.9703 -35.9059 -35.8651 -35.8263 -35.8263 -35.8151 -35.7897
   -35.7834 -35.7771 -35.7352 -35.7352 -35.7121 -35.6748 -35.6636 -35.6636
   -35.6361 -35.5789 -35.5789 -35.5764 -35.5524 -35.5524 -35.4880 -35.4705
    -4.2621  -2.8565  -2.8565  -2.5453  -1.8333  -1.8333  -1.5931  -1.4113
    -1.1415  -0.9393  -0.9392  -0.5653  -0.5053  -0.4704  -0.4703   0.0126
     0.0126   0.1033   0.1804   0.3765   0.5855   0.6284   0.6284   0.6465
     1.0724   1.0725   1.2918   1.2919   1.3058   1.3706   1.3848   1.6535
     1.8833   1.8833   1.9221   2.1659   2.3767   2.4004   2.5973   2.5973
     2.9015   3.3901   3.4523   3.4865   3.4865   3.6435   3.6794   3.6795
     4.0999   4.4257   4.6125   4.6126   4.8025

          k = 0.0438-0.0590 0.0000 ( 32507 PWs)   bands (ev):

   -71.8898 -71.8510 -71.8444 -71.8257 -71.8172 -71.8025 -71.7864 -71.7814
   -71.7763 -71.7719 -71.7680 -71.7594 -36.3481 -36.3064 -36.2945 -36.2674
   -36.2181 -36.2172 -36.2168 -36.1263 -36.0554 -36.0359 -36.0224 -36.0202
   -35.9880 -35.9740 -35.8622 -35.8349 -35.8301 -35.8299 -35.8169 -35.7684
   -35.7459 -35.7374 -35.7366 -35.7219 -35.6916 -35.6595 -35.6579 -35.6320
   -35.6139 -35.6021 -35.5767 -35.5665 -35.5477 -35.5394 -35.4612 -35.4434
    -4.6866  -2.9225  -2.8827  -2.5221  -2.0199  -2.0160  -1.8691  -1.6735
    -1.4605  -1.2185  -1.0745  -0.8262  -0.8100  -0.6986  -0.4712   0.0345
     0.0364   0.0874   0.2904   0.6343   0.6671   0.7131   0.8352   0.8460
     1.3568   1.4232   1.5039   1.5524   1.6148   1.6753   1.6950   1.7541
     1.8604   1.9057   2.1293   2.1977   2.4563   2.5028   2.5548   2.5724
     2.7653   2.9565   3.3792   3.5551   3.5990   3.7506   3.8324   4.0023
     4.0699   4.5320   4.6920   4.7914   4.8260

          k = 0.0438-0.0421 0.0000 ( 32511 PWs)   bands (ev):

   -71.8966 -71.8481 -71.8374 -71.8287 -71.8227 -71.8071 -71.7842 -71.7762
   -71.7744 -71.7700 -71.7672 -71.7614 -36.3767 -36.3503 -36.3288 -36.3079
   -36.2460 -36.2397 -36.2317 -36.1473 -36.1156 -36.0638 -36.0248 -35.9810
   -35.9783 -35.9747 -35.8533 -35.8375 -35.8364 -35.8192 -35.7921 -35.7800
   -35.7364 -35.7159 -35.7054 -35.6812 -35.6713 -35.6562 -35.6404 -35.6194
   -35.5979 -35.5979 -35.5635 -35.5620 -35.5277 -35.5193 -35.4420 -35.4207
    -5.0273  -3.2439  -2.8811  -2.3696  -2.3214  -2.1727  -1.9476  -1.9466
    -1.7731  -1.4166  -1.1951  -1.0777  -1.0574  -0.8802  -0.7080  -0.0512
    -0.0164   0.0767   0.4588   0.8728   0.8788   0.8861   1.0098   1.0927
     1.3307   1.4751   1.5772   1.7481   1.8018   1.8448   1.8945   1.9742
     2.1328   2.3323   2.3413   2.4238   2.4829   2.5203   2.5332   2.6288
     2.6713   2.8789   3.1886   3.4369   3.5841   3.9772   4.0284   4.3779
     4.4827   4.6274   4.7540   5.0436   5.0980

          k = 0.0583-0.0337 0.0000 ( 32538 PWs)   bands (ev):

   -71.8931 -71.8530 -71.8323 -71.8323 -71.8200 -71.8048 -71.7880 -71.7776
   -71.7726 -71.7726 -71.7639 -71.7639 -36.3512 -36.3511 -36.3175 -36.2729
   -36.2325 -36.2325 -36.2236 -36.1205 -36.1205 -36.0302 -36.0221 -35.9921
   -35.9921 -35.9676 -35.8380 -35.8380 -35.8326 -35.8147 -35.8147 -35.7646
   -35.7646 -35.7387 -35.7192 -35.6840 -35.6723 -35.6723 -35.6426 -35.6259
   -35.6259 -35.6080 -35.5981 -35.5482 -35.5402 -35.5103 -35.4506 -35.4248
    -4.8591  -3.0903  -3.0676  -2.2090  -2.1873  -1.9819  -1.9819  -1.7631
    -1.7631  -1.4241  -1.0200  -1.0200  -0.9650  -0.6201  -0.6201  -0.0152
    -0.0152   0.1330   0.3348   0.7258   0.7258   0.7298   0.9981   1.0839
     1.4645   1.4646   1.6393   1.6751   1.7156   1.7156   1.7239   1.8296
     2.1548   2.2116   2.2116   2.2535   2.5053   2.5178   2.5178   2.5502
     2.6290   2.7153   3.3461   3.4311   3.4311   4.0526   4.0678   4.2530
     4.2650   4.5397   4.6544   4.6546   4.9971

          k = 0.0583-0.0168 0.0000 ( 32511 PWs)   bands (ev):

   -71.8966 -71.8481 -71.8374 -71.8287 -71.8227 -71.8071 -71.7842 -71.7762
   -71.7744 -71.7700 -71.7672 -71.7614 -36.3767 -36.3503 -36.3288 -36.3079
   -36.2460 -36.2397 -36.2317 -36.1473 -36.1156 -36.0638 -36.0248 -35.9810
   -35.9783 -35.9747 -35.8533 -35.8375 -35.8364 -35.8192 -35.7921 -35.7800
   -35.7364 -35.7159 -35.7054 -35.6812 -35.6713 -35.6562 -35.6404 -35.6194
   -35.5980 -35.5979 -35.5635 -35.5620 -35.5277 -35.5193 -35.4420 -35.4207
    -5.0273  -3.2439  -2.8811  -2.3696  -2.3214  -2.1727  -1.9476  -1.9466
    -1.7731  -1.4166  -1.1951  -1.0777  -1.0574  -0.8802  -0.7080  -0.0512
    -0.0164   0.0767   0.4588   0.8728   0.8788   0.8861   1.0098   1.0927
     1.3307   1.4751   1.5772   1.7481   1.8018   1.8448   1.8945   1.9742
     2.1328   2.3323   2.3413   2.4238   2.4829   2.5203   2.5332   2.6288
     2.6713   2.8789   3.1886   3.4369   3.5841   3.9772   4.0284   4.3779
     4.4827   4.6274   4.7540   5.0436   5.0979

          k = 0.0583 0.0000 0.0000 ( 32517 PWs)   bands (ev):

   -71.8977 -71.8427 -71.8427 -71.8274 -71.8237 -71.8079 -71.7802 -71.7802
   -71.7708 -71.7708 -71.7692 -71.7606 -36.3854 -36.3351 -36.3351 -36.3326
   -36.2508 -36.2383 -36.2383 -36.1564 -36.0961 -36.0961 -36.0234 -35.9765
   -35.9763 -35.9763 -35.8593 -35.8375 -35.8375 -35.8209 -35.7846 -35.7625
   -35.7625 -35.6846 -35.6837 -35.6796 -35.6796 -35.6772 -35.6459 -35.5942
   -35.5865 -35.5865 -35.5596 -35.5596 -35.5497 -35.5094 -35.4382 -35.4222
    -5.0841  -3.2960  -2.6294  -2.6294  -2.4234  -2.0882  -2.0882  -1.9488
    -1.7689  -1.3286  -1.3285  -1.0960  -1.0390  -1.0390  -0.7388  -0.0626
     0.0203   0.0203   0.5078   0.9316   0.9706   0.9706   0.9871   1.0359
     1.2818   1.5208   1.5208   1.7559   1.8478   1.9377   1.9522   1.9522
     2.0962   2.3797   2.4024   2.4025   2.4713   2.4798   2.6350   2.6350
     2.6792   3.0360   3.1427   3.4524   3.7870   3.7870   3.9978   4.4633
     4.5797   4.5797   4.9449   4.9449   5.2656

          k = 0.0583 0.0168 0.0000 ( 32511 PWs)   bands (ev):

   -71.8966 -71.8481 -71.8374 -71.8287 -71.8227 -71.8071 -71.7842 -71.7762
   -71.7744 -71.7700 -71.7672 -71.7614 -36.3767 -36.3503 -36.3288 -36.3079
   -36.2460 -36.2397 -36.2317 -36.1473 -36.1156 -36.0638 -36.0248 -35.9810
   -35.9783 -35.9747 -35.8533 -35.8375 -35.8364 -35.8192 -35.7921 -35.7800
   -35.7364 -35.7159 -35.7054 -35.6812 -35.6713 -35.6562 -35.6404 -35.6194
   -35.5979 -35.5979 -35.5635 -35.5620 -35.5277 -35.5193 -35.4421 -35.4207
    -5.0273  -3.2439  -2.8811  -2.3696  -2.3214  -2.1727  -1.9476  -1.9466
    -1.7731  -1.4166  -1.1951  -1.0777  -1.0574  -0.8802  -0.7080  -0.0512
    -0.0164   0.0767   0.4588   0.8728   0.8788   0.8861   1.0098   1.0927
     1.3307   1.4751   1.5772   1.7481   1.8018   1.8448   1.8945   1.9742
     2.1328   2.3323   2.3413   2.4238   2.4829   2.5203   2.5332   2.6288
     2.6713   2.8789   3.1886   3.4369   3.5841   3.9771   4.0284   4.3779
     4.4827   4.6274   4.7539   5.0437   5.0980

          k = 0.0583 0.0337 0.0000 ( 32538 PWs)   bands (ev):

   -71.8931 -71.8530 -71.8323 -71.8323 -71.8200 -71.8048 -71.7880 -71.7776
   -71.7726 -71.7726 -71.7639 -71.7639 -36.3512 -36.3511 -36.3175 -36.2729
   -36.2325 -36.2325 -36.2236 -36.1205 -36.1205 -36.0302 -36.0221 -35.9921
   -35.9921 -35.9676 -35.8380 -35.8380 -35.8326 -35.8147 -35.8147 -35.7646
   -35.7646 -35.7387 -35.7192 -35.6840 -35.6723 -35.6723 -35.6426 -35.6259
   -35.6259 -35.6080 -35.5981 -35.5482 -35.5402 -35.5103 -35.4506 -35.4248
    -4.8591  -3.0903  -3.0676  -2.2090  -2.1873  -1.9819  -1.9819  -1.7631
    -1.7631  -1.4241  -1.0200  -1.0200  -0.9650  -0.6201  -0.6201  -0.0152
    -0.0152   0.1330   0.3348   0.7258   0.7258   0.7298   0.9981   1.0839
     1.4646   1.4646   1.6393   1.6751   1.7155   1.7156   1.7239   1.8296
     2.1548   2.2115   2.2116   2.2535   2.5053   2.5178   2.5178   2.5502
     2.6290   2.7153   3.3461   3.4311   3.4311   4.0526   4.0678   4.2530
     4.2650   4.5397   4.6544   4.6544   4.9971

          k = 0.0583 0.0505 0.0000 ( 32539 PWs)   bands (ev):

   -71.8877 -71.8572 -71.8381 -71.8280 -71.8155 -71.8010 -71.7912 -71.7805
   -71.7767 -71.7695 -71.7677 -71.7609 -36.3369 -36.3113 -36.2997 -36.2399
   -36.2151 -36.2147 -36.2118 -36.1118 -36.0779 -36.0422 -36.0247 -36.0023
   -35.9760 -35.9544 -35.8426 -35.8287 -35.8273 -35.8259 -35.8140 -35.7984
   -35.7758 -35.7378 -35.7324 -35.7212 -35.7105 -35.6550 -35.6547 -35.6485
   -35.6360 -35.6213 -35.6062 -35.5611 -35.5415 -35.5078 -35.4653 -35.4405
    -4.5863  -3.1913  -2.8447  -2.1333  -2.1322  -1.9454  -1.7137  -1.6709
    -1.5130  -1.3327  -0.9190  -0.8059  -0.7874  -0.4873  -0.4081   0.0402
     0.0701   0.1559   0.1833   0.5272   0.5664   0.5694   0.9196   0.9608
     1.3478   1.4703   1.5262   1.5352   1.5828   1.6139   1.6651   1.7352
     1.7833   1.8659   2.0566   2.1640   2.3210   2.3644   2.5891   2.5967
     2.7761   2.9630   3.3839   3.4737   3.6431   3.8328   3.9236   3.9535
     4.1539   4.3984   4.4606   4.5403   4.8083

          k = 0.0583-0.1347 0.0000 ( 32506 PWs)   bands (ev):

   -71.8806 -71.8605 -71.8455 -71.8246 -71.8097 -71.7961 -71.7937 -71.7826
   -71.7822 -71.7726 -71.7672 -71.7587 -36.3080 -36.2766 -36.2612 -36.2274
   -36.2023 -36.1890 -36.1850 -36.1100 -36.0651 -36.0512 -36.0224 -35.9985
   -35.9403 -35.9300 -35.8891 -35.8557 -35.8266 -35.8198 -35.8158 -35.8130
   -35.7782 -35.7738 -35.7672 -35.7228 -35.7050 -35.7031 -35.6684 -35.6396
   -35.6346 -35.6293 -35.5831 -35.5820 -35.5427 -35.5162 -35.4881 -35.4668
    -4.2213  -3.2626  -2.5272  -2.4236  -2.0283  -1.6699  -1.5877  -1.4176
    -1.2100  -1.1475  -0.7743  -0.5827  -0.5347  -0.4280  -0.3309   0.0453
     0.0623   0.0889   0.1648   0.2905   0.4770   0.6196   0.7414   0.7826
     0.9669   1.1937   1.2145   1.3182   1.3710   1.3850   1.4517   1.5925
     1.8913   1.8917   1.8919   2.0649   2.2157   2.4036   2.6160   2.7013
     2.8807   3.3543   3.4092   3.4674   3.5120   3.7173   3.7450   3.7506
     4.1201   4.3120   4.4017   4.6631   4.7138

          k = 0.0583-0.1179 0.0000 ( 32488 PWs)   bands (ev):

   -71.8722 -71.8625 -71.8541 -71.8225 -71.8030 -71.7953 -71.7905 -71.7888
   -71.7840 -71.7783 -71.7658 -71.7572 -36.2662 -36.2505 -36.2253 -36.2091
   -36.2025 -36.1668 -36.1598 -36.1487 -36.1017 -36.0227 -35.9720 -35.9545
   -35.9393 -35.9262 -35.9088 -35.8967 -35.8605 -35.8263 -35.8217 -35.8188
   -35.8056 -35.7932 -35.7902 -35.7313 -35.6988 -35.6839 -35.6663 -35.6645
   -35.6344 -35.6053 -35.5961 -35.5575 -35.5509 -35.5260 -35.5195 -35.4984
    -3.7841  -3.2964  -2.8325  -2.1794  -1.9224  -1.7029  -1.1634  -1.1578
    -0.9745  -0.8974  -0.6340  -0.6043  -0.3491  -0.2759  -0.2121  -0.1080
    -0.0846   0.0160   0.0691   0.1006   0.4176   0.4797   0.5727   0.7740
     0.8312   0.9268   0.9697   1.0063   1.0744   1.1388   1.4812   1.6069
     1.7325   1.7851   2.0941   2.0981   2.2756   2.4999   2.6226   2.7052
     2.9370   3.1112   3.2950   3.5863   3.5864   3.6131   3.6486   3.8899
     4.0802   4.3230   4.5291   4.6959   5.1297

          k = 0.0583-0.1011 0.0000 ( 32517 PWs)   bands (ev):

   -71.8632 -71.8632 -71.8632 -71.8218 -71.7959 -71.7959 -71.7958 -71.7844
   -71.7844 -71.7844 -71.7653 -71.7567 -36.2251 -36.2251 -36.2250 -36.2151
   -36.2143 -36.1501 -36.1501 -36.1501 -36.1422 -35.9781 -35.9644 -35.9586
   -35.9204 -35.9204 -35.9204 -35.8837 -35.8837 -35.8837 -35.8201 -35.8201
   -35.8201 -35.8020 -35.7943 -35.6958 -35.6958 -35.6958 -35.6902 -35.6331
   -35.6331 -35.6330 -35.5576 -35.5576 -35.5576 -35.5292 -35.5292 -35.5292
    -3.3059  -3.3059  -3.3059  -1.8763  -1.8763  -1.8763  -0.9028  -0.8890
    -0.8869  -0.7189  -0.7188  -0.7188  -0.2856  -0.2856  -0.2856  -0.1261
    -0.1185   0.1171   0.1172   0.1172   0.2618   0.2619   0.2619   0.8484
     0.8485   0.8486   0.9321   0.9322   0.9323   1.1381   1.5864   1.5882
     1.5906   1.6280   2.2432   2.2432   2.2433   2.5909   2.5909   2.5909
     3.0472   3.0472   3.0472   3.5769   3.5769   3.5769   3.8538   3.8711
     4.2831   4.2832   4.2832   5.1810   5.1810

          k = 0.0583-0.0842 0.0000 ( 32488 PWs)   bands (ev):

   -71.8722 -71.8625 -71.8541 -71.8225 -71.8030 -71.7953 -71.7905 -71.7888
   -71.7840 -71.7783 -71.7658 -71.7572 -36.2662 -36.2505 -36.2253 -36.2091
   -36.2025 -36.1668 -36.1598 -36.1487 -36.1017 -36.0227 -35.9720 -35.9545
   -35.9393 -35.9262 -35.9088 -35.8967 -35.8605 -35.8263 -35.8217 -35.8188
   -35.8056 -35.7932 -35.7902 -35.7313 -35.6988 -35.6839 -35.6663 -35.6645
   -35.6344 -35.6053 -35.5961 -35.5575 -35.5509 -35.5260 -35.5195 -35.4984
    -3.7841  -3.2964  -2.8325  -2.1794  -1.9224  -1.7029  -1.1634  -1.1578
    -0.9745  -0.8974  -0.6340  -0.6043  -0.3491  -0.2759  -0.2121  -0.1080
    -0.0846   0.0160   0.0691   0.1006   0.4176   0.4797   0.5727   0.7740
     0.8312   0.9268   0.9697   1.0063   1.0744   1.1388   1.4812   1.6069
     1.7325   1.7851   2.0941   2.0981   2.2756   2.4999   2.6226   2.7052
     2.9370   3.1112   3.2950   3.5863   3.5864   3.6131   3.6486   3.8899
     4.0802   4.3230   4.5291   4.6959   5.1297

          k = 0.0583-0.0674 0.0000 ( 32506 PWs)   bands (ev):

   -71.8806 -71.8605 -71.8455 -71.8246 -71.8097 -71.7961 -71.7937 -71.7826
   -71.7822 -71.7726 -71.7672 -71.7587 -36.3080 -36.2766 -36.2612 -36.2274
   -36.2023 -36.1890 -36.1850 -36.1100 -36.0651 -36.0512 -36.0224 -35.9985
   -35.9403 -35.9300 -35.8891 -35.8557 -35.8266 -35.8198 -35.8158 -35.8130
   -35.7782 -35.7738 -35.7672 -35.7228 -35.7050 -35.7031 -35.6684 -35.6396
   -35.6346 -35.6293 -35.5831 -35.5820 -35.5427 -35.5162 -35.4881 -35.4668
    -4.2213  -3.2626  -2.5272  -2.4236  -2.0283  -1.6699  -1.5877  -1.4176
    -1.2100  -1.1475  -0.7743  -0.5827  -0.5347  -0.4280  -0.3309   0.0453
     0.0623   0.0889   0.1648   0.2905   0.4770   0.6196   0.7414   0.7826
     0.9669   1.1937   1.2145   1.3182   1.3710   1.3850   1.4517   1.5925
     1.8913   1.8917   1.8919   2.0649   2.2157   2.4036   2.6160   2.7013
     2.8807   3.3544   3.4092   3.4674   3.5120   3.7173   3.7450   3.7506
     4.1201   4.3119   4.4017   4.6631   4.7138

          k = 0.0583-0.0505 0.0000 ( 32539 PWs)   bands (ev):

   -71.8877 -71.8572 -71.8381 -71.8280 -71.8155 -71.8010 -71.7912 -71.7805
   -71.7767 -71.7695 -71.7677 -71.7609 -36.3369 -36.3113 -36.2997 -36.2399
   -36.2151 -36.2147 -36.2118 -36.1118 -36.0779 -36.0422 -36.0247 -36.0023
   -35.9760 -35.9544 -35.8426 -35.8287 -35.8273 -35.8259 -35.8140 -35.7984
   -35.7758 -35.7378 -35.7324 -35.7212 -35.7105 -35.6550 -35.6547 -35.6485
   -35.6360 -35.6213 -35.6062 -35.5611 -35.5415 -35.5077 -35.4653 -35.4405
    -4.5863  -3.1913  -2.8447  -2.1333  -2.1322  -1.9454  -1.7137  -1.6709
    -1.5130  -1.3327  -0.9190  -0.8059  -0.7874  -0.4873  -0.4081   0.0402
     0.0701   0.1559   0.1833   0.5272   0.5664   0.5694   0.9196   0.9607
     1.3478   1.4703   1.5262   1.5352   1.5828   1.6139   1.6651   1.7352
[...]
    -4.6866  -2.9225  -2.8827  -2.5221  -2.0199  -2.0160  -1.8691  -1.6735
    -1.4605  -1.2185  -1.0745  -0.8262  -0.8100  -0.6986  -0.4712   0.0345
     0.0364   0.0874   0.2904   0.6343   0.6671   0.7131   0.8352   0.8460
     1.3568   1.4232   1.5039   1.5524   1.6148   1.6753   1.6950   1.7541
     1.8604   1.9057   2.1293   2.1977   2.4563   2.5028   2.5548   2.5724
     2.7653   2.9565   3.3792   3.5551   3.5990   3.7505   3.8324   4.0023
     4.0699   4.5320   4.6920   4.7915   4.8260

          k = 0.0729 0.0253 0.0000 ( 32539 PWs)   bands (ev):

   -71.8877 -71.8572 -71.8381 -71.8280 -71.8155 -71.8010 -71.7912 -71.7805
   -71.7767 -71.7695 -71.7677 -71.7609 -36.3369 -36.3113 -36.2997 -36.2399
   -36.2151 -36.2147 -36.2118 -36.1118 -36.0779 -36.0422 -36.0247 -36.0023
   -35.9760 -35.9544 -35.8426 -35.8287 -35.8273 -35.8259 -35.8140 -35.7984
   -35.7758 -35.7378 -35.7324 -35.7212 -35.7105 -35.6550 -35.6547 -35.6485
   -35.6360 -35.6213 -35.6062 -35.5611 -35.5415 -35.5078 -35.4653 -35.4405
    -4.5863  -3.1913  -2.8447  -2.1333  -2.1322  -1.9454  -1.7137  -1.6709
    -1.5130  -1.3327  -0.9190  -0.8059  -0.7874  -0.4873  -0.4081   0.0402
     0.0701   0.1559   0.1833   0.5272   0.5664   0.5694   0.9196   0.9608
     1.3478   1.4703   1.5262   1.5352   1.5828   1.6139   1.6651   1.7352
     1.7833   1.8659   2.0566   2.1640   2.3210   2.3644   2.5891   2.5967
     2.7761   2.9630   3.3839   3.4737   3.6431   3.8328   3.9236   3.9535
     4.1539   4.3986   4.4605   4.5403   4.8083

          k = 0.0729 0.0421 0.0000 ( 32556 PWs)   bands (ev):

   -71.8836 -71.8628 -71.8324 -71.8323 -71.8122 -71.7982 -71.7956 -71.7842
   -71.7726 -71.7726 -71.7639 -71.7639 -36.3155 -36.3155 -36.2867 -36.2360
   -36.2082 -36.2082 -36.1818 -36.0859 -36.0859 -36.0566 -36.0264 -36.0264
   -35.9316 -35.9253 -35.8249 -35.8249 -35.8170 -35.8170 -35.8158 -35.8097
   -35.7926 -35.7925 -35.7454 -35.7168 -35.7168 -35.6938 -35.6927 -35.6352
   -35.6304 -35.6304 -35.6226 -35.5762 -35.5248 -35.4897 -35.4742 -35.4454
    -4.3884  -3.4361  -2.6914  -2.1993  -1.7930  -1.7554  -1.7554  -1.5553
    -1.5553  -1.3786  -0.7550  -0.7550  -0.6654  -0.3171  -0.3171   0.0193
     0.1332   0.1332   0.2022   0.4171   0.4531   0.4532   0.9502   0.9980
     1.3262   1.3262   1.4510   1.4737   1.5271   1.6559   1.6559   1.6931
     1.7109   1.7110   1.8149   2.1165   2.1749   2.1750   2.6345   2.7666
     2.7733   3.1096   3.4367   3.4367   3.6669   3.8431   3.8979   4.0198
     4.1724   4.1725   4.2776   4.3249   4.7783

          k = 0.0729-0.1432 0.0000 ( 32530 PWs)   bands (ev):

   -71.8778 -71.8674 -71.8385 -71.8276 -71.8075 -71.7992 -71.7942 -71.7872
   -71.7770 -71.7693 -71.7679 -71.7607 -36.3066 -36.2852 -36.2686 -36.2416
   -36.1998 -36.1959 -36.1457 -36.0836 -36.0816 -36.0589 -36.0507 -36.0225
   -35.9051 -35.8781 -35.8501 -35.8432 -35.8346 -35.8248 -35.8155 -35.8026
   -35.7940 -35.7881 -35.7730 -35.7502 -35.7460 -35.6871 -35.6811 -35.6525
   -35.6505 -35.6149 -35.6087 -35.5915 -35.5168 -35.4908 -35.4856 -35.4626
    -4.0989  -3.6143  -2.4700  -2.2161  -2.0067  -1.5595  -1.5541  -1.4502
    -1.3730  -1.3444  -0.6707  -0.6014  -0.4729  -0.2960  -0.2547  -0.1358
     0.1303   0.1842   0.2158   0.2710   0.4130   0.5789   0.9115   0.9214
     0.9779   1.1627   1.3373   1.3390   1.3951   1.3989   1.4248   1.6446
     1.6518   1.9071   1.9247   1.9732   2.0852   2.1591   2.7243   2.8045
     2.8961   3.3254   3.3936   3.5142   3.5175   3.7445   3.8193   3.9478
     4.0751   4.1640   4.2038   4.5687   4.7779

          k = 0.0729-0.1263 0.0000 ( 32474 PWs)   bands (ev):

   -71.8706 -71.8706 -71.8459 -71.8243 -71.8017 -71.8017 -71.7894 -71.7894
   -71.7825 -71.7729 -71.7670 -71.7584 -36.2872 -36.2477 -36.2472 -36.2472
   -36.1975 -36.1797 -36.1171 -36.1171 -36.1145 -36.0502 -36.0083 -36.0042
   -35.9015 -35.8803 -35.8803 -35.8708 -35.8390 -35.8390 -35.8265 -35.8079
   -35.7958 -35.7941 -35.7941 -35.7646 -35.7058 -35.6716 -35.6711 -35.6711
   -35.6446 -35.6101 -35.6101 -35.5846 -35.5160 -35.5160 -35.4915 -35.4915
    -3.7287  -3.7287  -2.3832  -2.1998  -2.1998  -1.5862  -1.2628  -1.2503
    -1.2503  -1.1610  -0.5676  -0.4586  -0.4353  -0.2776  -0.2330  -0.2329
     0.0881   0.0881   0.0921   0.2954   0.3753   0.7403   0.7600   0.7601
     0.7697   0.7933   1.1790   1.1792   1.2028   1.2028   1.5424   1.5660
     1.6770   1.8165   2.0710   2.0822   2.0822   2.2660   2.8223   2.8224
     2.9731   2.9731   3.5244   3.5707   3.6207   3.6207   3.6274   4.0127
     4.0128   4.0166   4.5799   4.7163   4.7163

          k = 0.0729-0.1095 0.0000 ( 32488 PWs)   bands (ev):

   -71.8722 -71.8625 -71.8541 -71.8225 -71.8030 -71.7953 -71.7905 -71.7888
   -71.7840 -71.7783 -71.7658 -71.7572 -36.2662 -36.2505 -36.2253 -36.2091
   -36.2025 -36.1668 -36.1598 -36.1487 -36.1017 -36.0227 -35.9720 -35.9545
   -35.9393 -35.9262 -35.9088 -35.8967 -35.8605 -35.8263 -35.8217 -35.8188
   -35.8056 -35.7932 -35.7902 -35.7313 -35.6988 -35.6839 -35.6663 -35.6645
   -35.6344 -35.6053 -35.5961 -35.5575 -35.5509 -35.5260 -35.5195 -35.4984
    -3.7841  -3.2964  -2.8325  -2.1794  -1.9224  -1.7029  -1.1634  -1.1578
    -0.9745  -0.8974  -0.6340  -0.6043  -0.3491  -0.2759  -0.2121  -0.1080
    -0.0846   0.0160   0.0691   0.1006   0.4176   0.4797   0.5727   0.7740
     0.8312   0.9268   0.9697   1.0063   1.0744   1.1388   1.4812   1.6069
     1.7325   1.7851   2.0941   2.0981   2.2756   2.4999   2.6226   2.7052
     2.9370   3.1112   3.2950   3.5863   3.5864   3.6131   3.6486   3.8899
     4.0803   4.3230   4.5291   4.6959   5.1297

          k = 0.0729-0.0926 0.0000 ( 32488 PWs)   bands (ev):

   -71.8722 -71.8625 -71.8541 -71.8225 -71.8030 -71.7953 -71.7905 -71.7888
   -71.7840 -71.7783 -71.7658 -71.7572 -36.2662 -36.2505 -36.2253 -36.2091
   -36.2025 -36.1668 -36.1598 -36.1487 -36.1017 -36.0227 -35.9720 -35.9545
   -35.9393 -35.9262 -35.9088 -35.8967 -35.8605 -35.8263 -35.8217 -35.8188
   -35.8056 -35.7932 -35.7902 -35.7313 -35.6988 -35.6839 -35.6663 -35.6645
   -35.6344 -35.6053 -35.5961 -35.5575 -35.5509 -35.5260 -35.5195 -35.4984
    -3.7841  -3.2964  -2.8325  -2.1794  -1.9224  -1.7029  -1.1634  -1.1578
    -0.9745  -0.8974  -0.6340  -0.6043  -0.3491  -0.2759  -0.2121  -0.1080
    -0.0846   0.0160   0.0691   0.1006   0.4176   0.4797   0.5727   0.7740
     0.8312   0.9268   0.9697   1.0063   1.0744   1.1388   1.4812   1.6069
     1.7325   1.7851   2.0941   2.0981   2.2756   2.4999   2.6226   2.7052
     2.9370   3.1112   3.2950   3.5863   3.5864   3.6131   3.6486   3.8899
     4.0801   4.3230   4.5289   4.6959   5.1297

          k = 0.0729-0.0758 0.0000 ( 32474 PWs)   bands (ev):

   -71.8706 -71.8706 -71.8459 -71.8243 -71.8017 -71.8017 -71.7894 -71.7894
   -71.7825 -71.7729 -71.7670 -71.7584 -36.2872 -36.2477 -36.2472 -36.2472
   -36.1975 -36.1797 -36.1171 -36.1171 -36.1145 -36.0502 -36.0083 -36.0042
   -35.9015 -35.8803 -35.8803 -35.8708 -35.8390 -35.8390 -35.8265 -35.8079
   -35.7958 -35.7941 -35.7941 -35.7646 -35.7058 -35.6716 -35.6711 -35.6711
   -35.6446 -35.6101 -35.6101 -35.5846 -35.5160 -35.5160 -35.4915 -35.4915
    -3.7287  -3.7287  -2.3832  -2.1998  -2.1998  -1.5862  -1.2628  -1.2503
    -1.2503  -1.1610  -0.5676  -0.4586  -0.4353  -0.2776  -0.2330  -0.2329
     0.0881   0.0881   0.0921   0.2954   0.3753   0.7403   0.7600   0.7601
     0.7697   0.7933   1.1790   1.1792   1.2027   1.2028   1.5424   1.5660
     1.6770   1.8165   2.0710   2.0822   2.0822   2.2660   2.8223   2.8224
     2.9731   2.9731   3.5244   3.5707   3.6207   3.6208   3.6274   4.0127
     4.0128   4.0166   4.5799   4.7161   4.7164

          k = 0.0729-0.0590 0.0000 ( 32530 PWs)   bands (ev):

   -71.8778 -71.8674 -71.8385 -71.8276 -71.8075 -71.7992 -71.7942 -71.7872
   -71.7770 -71.7693 -71.7679 -71.7607 -36.3066 -36.2852 -36.2686 -36.2416
   -36.1998 -36.1959 -36.1457 -36.0836 -36.0816 -36.0589 -36.0507 -36.0225
   -35.9051 -35.8781 -35.8501 -35.8432 -35.8346 -35.8248 -35.8155 -35.8026
   -35.7940 -35.7881 -35.7730 -35.7502 -35.7460 -35.6871 -35.6811 -35.6525
   -35.6505 -35.6149 -35.6087 -35.5915 -35.5168 -35.4908 -35.4856 -35.4626
    -4.0989  -3.6143  -2.4700  -2.2161  -2.0067  -1.5595  -1.5541  -1.4502
    -1.3730  -1.3444  -0.6707  -0.6014  -0.4729  -0.2960  -0.2547  -0.1358
     0.1303   0.1842   0.2158   0.2710   0.4130   0.5789   0.9115   0.9214
     0.9779   1.1627   1.3373   1.3390   1.3951   1.3989   1.4248   1.6446
     1.6518   1.9071   1.9247   1.9732   2.0852   2.1591   2.7243   2.8045
     2.8961   3.3254   3.3936   3.5142   3.5175   3.7445   3.8193   3.9478
     4.0752   4.1640   4.2038   4.5687   4.7779

          k =-0.0875 0.0505 0.0000 ( 32558 PWs)   bands (ev):

   -71.8733 -71.8733 -71.8324 -71.8324 -71.8039 -71.8038 -71.7912 -71.7912
   -71.7726 -71.7726 -71.7639 -71.7639 -36.3000 -36.3000 -36.2564 -36.2564
   -36.1989 -36.1989 -36.1093 -36.1093 -36.0660 -36.0660 -36.0469 -36.0469
   -35.8735 -35.8735 -35.8278 -35.8277 -35.8252 -35.8252 -35.8118 -35.8118
   -35.7982 -35.7982 -35.7746 -35.7746 -35.7411 -35.7411 -35.6641 -35.6641
   -35.6318 -35.6318 -35.6015 -35.6015 -35.4996 -35.4995 -35.4675 -35.4675
    -3.8956  -3.8956  -2.3670  -2.3670  -1.6571  -1.6571  -1.4840  -1.4840
    -1.4738  -1.4738  -0.6257  -0.6257  -0.3276  -0.3276  -0.2235  -0.2235
     0.1475   0.1475   0.2507   0.2507   0.5320   0.5321   0.9758   0.9758
     1.1710   1.1710   1.3076   1.3077   1.3871   1.3872   1.4055   1.4057
     1.8612   1.8613   1.9666   1.9666   1.9889   1.9889   2.7407   2.7407
     3.1609   3.1609   3.5450   3.5451   3.5549   3.5549   3.8992   3.8992
     4.0953   4.0954   4.4153   4.4161   4.5726

          k =-0.0875 0.0674 0.0000 ( 32530 PWs)   bands (ev):

   -71.8778 -71.8674 -71.8385 -71.8276 -71.8075 -71.7992 -71.7942 -71.7872
   -71.7770 -71.7693 -71.7679 -71.7607 -36.3066 -36.2852 -36.2686 -36.2416
   -36.1998 -36.1959 -36.1457 -36.0836 -36.0816 -36.0589 -36.0507 -36.0225
   -35.9051 -35.8781 -35.8501 -35.8432 -35.8346 -35.8248 -35.8155 -35.8026
   -35.7940 -35.7881 -35.7730 -35.7502 -35.7460 -35.6871 -35.6811 -35.6525
   -35.6505 -35.6149 -35.6087 -35.5915 -35.5168 -35.4908 -35.4856 -35.4626
    -4.0989  -3.6143  -2.4700  -2.2161  -2.0067  -1.5595  -1.5541  -1.4502
    -1.3730  -1.3444  -0.6707  -0.6014  -0.4729  -0.2960  -0.2547  -0.1358
     0.1303   0.1842   0.2158   0.2710   0.4130   0.5789   0.9115   0.9214
     0.9779   1.1627   1.3373   1.3390   1.3951   1.3989   1.4248   1.6446
     1.6518   1.9071   1.9247   1.9732   2.0852   2.1591   2.7243   2.8045
     2.8961   3.3254   3.3935   3.5142   3.5174   3.7445   3.8192   3.9478
     4.0751   4.1640   4.2038   4.5688   4.6302

          k =-0.0875 0.0842 0.0000 ( 32506 PWs)   bands (ev):

   -71.8806 -71.8605 -71.8455 -71.8246 -71.8097 -71.7961 -71.7937 -71.7826
   -71.7822 -71.7726 -71.7672 -71.7587 -36.3080 -36.2766 -36.2612 -36.2274
   -36.2023 -36.1890 -36.1850 -36.1100 -36.0651 -36.0512 -36.0224 -35.9985
   -35.9403 -35.9300 -35.8891 -35.8557 -35.8266 -35.8198 -35.8158 -35.8130
   -35.7782 -35.7738 -35.7672 -35.7228 -35.7050 -35.7031 -35.6684 -35.6396
   -35.6346 -35.6293 -35.5831 -35.5820 -35.5427 -35.5162 -35.4881 -35.4668
    -4.2213  -3.2626  -2.5272  -2.4236  -2.0283  -1.6699  -1.5877  -1.4176
    -1.2100  -1.1475  -0.7743  -0.5827  -0.5347  -0.4280  -0.3309   0.0453
     0.0623   0.0889   0.1648   0.2905   0.4770   0.6196   0.7414   0.7826
     0.9669   1.1937   1.2145   1.3182   1.3710   1.3850   1.4517   1.5925
     1.8913   1.8917   1.8919   2.0649   2.2157   2.4036   2.6160   2.7013
     2.8807   3.3544   3.4092   3.4674   3.5120   3.7173   3.7450   3.7506
     4.1201   4.3119   4.4017   4.6631   4.7139

          k =-0.0875 0.1011 0.0000 ( 32485 PWs)   bands (ev):

   -71.8815 -71.8530 -71.8530 -71.8236 -71.8105 -71.7968 -71.7880 -71.7879
   -71.7776 -71.7776 -71.7665 -71.7580 -36.3079 -36.2794 -36.2313 -36.2312
   -36.2072 -36.2072 -36.1839 -36.1229 -36.0598 -36.0451 -35.9823 -35.9823
   -35.9703 -35.9703 -35.9059 -35.8651 -35.8263 -35.8263 -35.8151 -35.7897
   -35.7834 -35.7771 -35.7352 -35.7352 -35.7121 -35.6748 -35.6636 -35.6636
   -35.6361 -35.5789 -35.5789 -35.5764 -35.5524 -35.5524 -35.4880 -35.4705
    -4.2621  -2.8565  -2.8565  -2.5453  -1.8333  -1.8333  -1.5931  -1.4113
    -1.1415  -0.9392  -0.9392  -0.5653  -0.5053  -0.4704  -0.4704   0.0126
     0.0126   0.1033   0.1804   0.3765   0.5855   0.6284   0.6284   0.6465
     1.0724   1.0725   1.2918   1.2919   1.3058   1.3706   1.3849   1.6535
     1.8833   1.8833   1.9221   2.1659   2.3767   2.4004   2.5973   2.5973
     2.9015   3.3901   3.4523   3.4865   3.4865   3.6435   3.6794   3.6794
     4.0999   4.4258   4.6125   4.6126   4.8026

          k =-0.0875 0.1179 0.0000 ( 32506 PWs)   bands (ev):

   -71.8806 -71.8605 -71.8455 -71.8246 -71.8097 -71.7961 -71.7937 -71.7826
   -71.7822 -71.7726 -71.7672 -71.7587 -36.3080 -36.2766 -36.2612 -36.2274
   -36.2023 -36.1890 -36.1850 -36.1100 -36.0651 -36.0512 -36.0224 -35.9985
   -35.9403 -35.9300 -35.8891 -35.8557 -35.8266 -35.8198 -35.8158 -35.8130
   -35.7782 -35.7738 -35.7672 -35.7228 -35.7050 -35.7031 -35.6684 -35.6396
   -35.6346 -35.6293 -35.5831 -35.5820 -35.5427 -35.5162 -35.4881 -35.4668
    -4.2213  -3.2626  -2.5272  -2.4236  -2.0283  -1.6699  -1.5877  -1.4176
    -1.2100  -1.1475  -0.7743  -0.5827  -0.5347  -0.4280  -0.3309   0.0453
     0.0623   0.0889   0.1648   0.2905   0.4770   0.6196   0.7414   0.7826
     0.9669   1.1937   1.2145   1.3182   1.3710   1.3850   1.4517   1.5925
     1.8913   1.8917   1.8919   2.0649   2.2157   2.4036   2.6160   2.7013
     2.8807   3.3544   3.4092   3.4674   3.5120   3.7173   3.7450   3.7506
     4.1201   4.3119   4.4017   4.6631   4.7138

          k =-0.0875 0.1347 0.0000 ( 32530 PWs)   bands (ev):

   -71.8778 -71.8674 -71.8385 -71.8276 -71.8075 -71.7992 -71.7942 -71.7872
   -71.7770 -71.7693 -71.7679 -71.7607 -36.3066 -36.2852 -36.2686 -36.2416
   -36.1998 -36.1959 -36.1457 -36.0836 -36.0816 -36.0589 -36.0507 -36.0225
   -35.9051 -35.8781 -35.8501 -35.8432 -35.8346 -35.8248 -35.8155 -35.8026
   -35.7940 -35.7881 -35.7730 -35.7502 -35.7460 -35.6871 -35.6811 -35.6525
   -35.6505 -35.6149 -35.6087 -35.5915 -35.5168 -35.4908 -35.4856 -35.4626
    -4.0989  -3.6143  -2.4700  -2.2161  -2.0067  -1.5595  -1.5541  -1.4502
    -1.3730  -1.3444  -0.6707  -0.6014  -0.4729  -0.2960  -0.2547  -0.1358
     0.1303   0.1842   0.2158   0.2710   0.4130   0.5789   0.9115   0.9214
     0.9779   1.1627   1.3373   1.3390   1.3951   1.3989   1.4248   1.6446
     1.6518   1.9071   1.9247   1.9732   2.0852   2.1591   2.7243   2.8045
     2.8961   3.3254   3.3935   3.5142   3.5175   3.7445   3.8192   3.9478
     4.0751   4.1640   4.2038   4.5688   4.6302

          k =-0.0875-0.0505 0.0000 ( 32558 PWs)   bands (ev):

   -71.8733 -71.8732 -71.8324 -71.8323 -71.8038 -71.8038 -71.7912 -71.7912
   -71.7726 -71.7726 -71.7639 -71.7639 -36.3000 -36.3000 -36.2564 -36.2564
   -36.1989 -36.1989 -36.1093 -36.1093 -36.0660 -36.0660 -36.0469 -36.0469
   -35.8735 -35.8735 -35.8278 -35.8277 -35.8252 -35.8252 -35.8118 -35.8118
   -35.7982 -35.7982 -35.7746 -35.7746 -35.7411 -35.7411 -35.6641 -35.6641
   -35.6318 -35.6318 -35.6015 -35.6015 -35.4996 -35.4996 -35.4675 -35.4675
    -3.8956  -3.8956  -2.3670  -2.3670  -1.6571  -1.6571  -1.4840  -1.4840
    -1.4738  -1.4738  -0.6257  -0.6257  -0.3276  -0.3276  -0.2235  -0.2235
     0.1475   0.1475   0.2507   0.2507   0.5321   0.5321   0.9758   0.9758
     1.1710   1.1711   1.3077   1.3077   1.3871   1.3872   1.4055   1.4056
     1.8613   1.8613   1.9666   1.9666   1.9889   1.9889   2.7407   2.7407
     3.1609   3.1609   3.5451   3.5451   3.5549   3.5549   3.8992   3.8992
     4.0953   4.0954   4.4153   4.4162   4.5728

     the Fermi energy is     2.3665 ev

!    total energy              =   -1909.77800825 Ry
     estimated scf accuracy    <       0.00000533 Ry
     smearing contrib. (-TS)   =      -0.07893556 Ry
     internal energy E=F+TS    =   -1909.69907269 Ry

     The total energy is F=E-TS. E is the sum of the following terms:
     one-electron contribution =  -14581.18749093 Ry
     hartree contribution      =    7273.57757876 Ry
     xc contribution           =    -495.16709047 Ry
     ewald contribution        =    5893.07792991 Ry
     electric field correction =       0.00000004 Ry

     convergence has been achieved in  16 iterations

     negative rho (up, down):  1.881E-03 0.000E+00

     Forces acting on atoms (cartesian axes, Ry/au):

     atom    1 type  1   force =    -0.00000300   -0.00000442   -0.00260977
     atom    2 type  1   force =     0.00000037   -0.00000225   -0.00261036
     atom    3 type  1   force =     0.00000258    0.00000832   -0.00261707
     atom    4 type  1   force =    -0.00000267    0.00000549   -0.00259482
     atom    5 type  1   force =    -0.00000010    0.00000653    0.00286530
     atom    6 type  1   force =    -0.00000000   -0.00000233    0.00287813
     atom    7 type  1   force =    -0.00001157   -0.00000261    0.00288294
     atom    8 type  1   force =     0.00000760   -0.00000391    0.00286311
     atom    9 type  1   force =    -0.00001361    0.00000309   -0.00027452
     atom   10 type  1   force =     0.00001910    0.00000106   -0.00026405
     atom   11 type  1   force =     0.00000577    0.00000789   -0.00026667
     atom   12 type  1   force =    -0.00000448   -0.00001685   -0.00025221

     Total force =     0.007778     Total SCF correction =     0.019397
     SCF correction compared to forces is large: reduce conv_thr to get better values

     Writing output data file ./W750/W750_beef.save/

     init_run     :    129.01s CPU    129.64s WALL (       1 calls)
     electrons    :   3517.51s CPU   3539.98s WALL (       1 calls)
     forces       :     62.17s CPU     62.39s WALL (       1 calls)

     Called by init_run:
     wfcinit      :    118.21s CPU    118.67s WALL (       1 calls)
     potinit      :      7.82s CPU      7.90s WALL (       1 calls)
     hinit0       :      1.62s CPU      1.63s WALL (       1 calls)

     Called by electrons:
     c_bands      :   3093.64s CPU   3110.43s WALL (      16 calls)
     sum_band     :    389.58s CPU    393.00s WALL (      16 calls)
     v_of_rho     :     28.02s CPU     29.13s WALL (      17 calls)
     newd         :     13.24s CPU     14.32s WALL (      17 calls)
     mix_rho      :      0.64s CPU      0.67s WALL (      16 calls)
     vdW_kernel   :      5.96s CPU      5.97s WALL (       1 calls)

     Called by c_bands:
     init_us_2    :     10.57s CPU     10.67s WALL (    2516 calls)
     cegterg      :   3063.40s CPU   3077.18s WALL (    1184 calls)

     Called by *egterg:
     cdiaghg      :    155.53s CPU    155.74s WALL (    5358 calls)
     h_psi        :   1615.25s CPU   1625.22s WALL (    5432 calls)
     s_psi        :    456.32s CPU    457.37s WALL (    5432 calls)
     g_psi        :      1.10s CPU      1.11s WALL (    4174 calls)

     Called by h_psi:
     h_psi:calbec :    552.07s CPU    553.76s WALL (    5432 calls)
     vloc_psi     :    580.29s CPU    587.37s WALL (    5432 calls)
     add_vuspsi   :    477.12s CPU    478.30s WALL (    5432 calls)

     General routines
     calbec       :    843.82s CPU    846.21s WALL (    6912 calls)
     fft          :     18.95s CPU     19.38s WALL (    1130 calls)
     ffts         :      0.12s CPU      0.12s WALL (      33 calls)
     fftw         :    678.36s CPU    686.56s WALL (  682240 calls)
     interpolate  :      0.24s CPU      0.25s WALL (      17 calls)

     Parallel routines
     fft_scatt_xy :     43.83s CPU     44.38s WALL (  683403 calls)
     fft_scatt_yz :    234.18s CPU    237.27s WALL (  683403 calls)

     PWSCF        :      1h 1m CPU      1h 2m WALL


   This run was terminated on:  17:31:50  22Jun2022            

=------------------------------------------------------------------------------=
   JOB DONE.
=------------------------------------------------------------------------------=
