  python dir          : /u/if/mamunm/src/espresso
  espresso dir        : /nfs/slac/g/suncatfs/sw/espv18/espresso-dynpy-beef/bin
  pseudo dir          : /afs/slac.stanford.edu/u/if/mamunm/psp/gbrv1.5pbe
  ase-espresso py git : GITVERSION



     Program PWSCF v.5.1rc2 (svn rev. 11289) starts on 27Dec2018 at 20:23:49 

     This program is part of the open-source Quantum ESPRESSO suite
     for quantum simulation of materials; please cite
         "P. Giannozzi et al., J. Phys.:Condens. Matter 21 395502 (2009);
          URL http://www.quantum-espresso.org", 
     in publications or presentations arising from this work. More details at
     http://www.quantum-espresso.org/quote

     Parallel version (MPI), running on    64 processors
     R & G space division:  proc/nbgrp/npool/nimage =      64
     Reading input from pw.inp
     Message from routine read_cards :
     DEPRECATED: no units specified in CELL_PARAMETERS card

     Current dimensions of program PWSCF are:
     Max number of different atomic species (ntypx) = 10
     Max number of k-points (npk) =  40000
     Max angular momentum in pseudopotentials (lmaxx) =  3
     Presently stress not available with electric field


     **************************************************************************
     Initializing libbeef V0.1.1 with the BEEF-vdW functional.
     Citation: Wellendorff et al., PRB 85, 235149 (2012).
     **************************************************************************


     IMPORTANT: XC functional enforced from input :
     Exchange-correlation      = BEEF-VDW ( 1  4 27 13 2)
     Any further DFT definition will be discarded
     Please, verify this is what you really want


     Subspace diagonalization in iterative solution of the eigenvalue problem:
     a serial algorithm will be used

 
     Parallelization info
     --------------------
     sticks:   dense  smooth     PW     G-vecs:    dense   smooth      PW
     Min          45      18      5                 8739     2204     357
     Max          46      19      6                 8778     2245     376
     Sum        2941    1177    361               560973   142007   23391
 


     bravais-lattice index     =            0
     lattice parameter (alat)  =       1.8897  a.u.
     unit-cell volume          =    4719.6709 (a.u.)^3
     number of atoms/cell      =           12
     number of atomic types    =            2
     number of electrons       =       171.00
     number of Kohn-Sham states=          115
     kinetic-energy cutoff     =      36.7493  Ry
     charge density cutoff     =     367.4932  Ry
     convergence threshold     =      1.0E-06
     mixing beta               =       0.1000
     number of iterations used =           10  plain     mixing
     Exchange-correlation      = BEEF-VDW ( 1  4 27 13 2)
     nstep                     =           50


     celldm(1)=   1.889726  celldm(2)=   0.000000  celldm(3)=   0.000000
     celldm(4)=   0.000000  celldm(5)=   0.000000  celldm(6)=   0.000000

     crystal axes: (cart. coord. in units of alat)
               a(1) = (   5.721305   0.000000   0.000000 )  
               a(2) = (  -2.860653   4.954796   0.000000 )  
               a(3) = (   0.000000   0.000000  24.671426 )  

     reciprocal axes: (cart. coord. in units 2 pi/alat)
               b(1) = (  0.174785  0.100912  0.000000 )  
               b(2) = (  0.000000  0.201825  0.000000 )  
               b(3) = (  0.000000  0.000000  0.040533 )  


     PseudoPot. # 1 for Re read from file:
     /afs/slac.stanford.edu/u/if/mamunm/psp/gbrv1.5pbe/Re.UPF
     MD5 check sum: 85f993410f3e006da9d71c142b4ad953
     Pseudo is Ultrasoft + core correction, Zval = 15.0
     Generated by new atomic code, or converted to UPF format
     Using radial grid of  981 points,  8 beta functions with: 
                l(1) =   0
                l(2) =   0
                l(3) =   1
                l(4) =   1
                l(5) =   2
                l(6) =   2
                l(7) =   3
                l(8) =   3
     Q(r) pseudized with  8 coefficients,  rinner =    1.150   1.150   1.150
                                                       1.150   1.150   1.150
                                                       1.150

     PseudoPot. # 2 for Zr read from file:
     /afs/slac.stanford.edu/u/if/mamunm/psp/gbrv1.5pbe/Zr.UPF
     MD5 check sum: 5db81b1e868ab7776c4564c113de050b
     Pseudo is Ultrasoft + core correction, Zval = 12.0
     Generated by new atomic code, or converted to UPF format
     Using radial grid of  887 points,  6 beta functions with: 
                l(1) =   0
                l(2) =   0
                l(3) =   1
                l(4) =   1
                l(5) =   2
                l(6) =   2
     Q(r) pseudized with  6 coefficients,  rinner =    1.200   1.200   1.200
                                                       1.200   1.200

     vdW kernel table read from file vdW_kernel_table
     MD5 check sum: 095c7af220d748ca6e76c0b4c6cfb241

     atomic species   valence    mass     pseudopotential
        Re1           15.00   186.20700     Re( 1.00)
        Zr1           12.00    91.22400     Zr( 1.00)

     No symmetry found



   Cartesian axes

     site n.     atom                  positions (alat units)
         1           Re1 tau(   1) = (   0.0000000   0.0000000  10.0000000  )
         2           Re1 tau(   2) = (  -1.4303263   2.4773978  10.0000000  )
         3           Re1 tau(   3) = (   1.4303263   2.4773978  10.0000000  )
         4           Zr1 tau(   4) = (   2.8606526   0.0000000  10.0000000  )
         5           Re1 tau(   5) = (   2.8606526   1.6515985  12.3357131  )
         6           Re1 tau(   6) = (   1.4303263   4.1289964  12.3357131  )
         7           Re1 tau(   7) = (  -1.4303263   4.1289964  12.3357131  )
         8           Zr1 tau(   8) = (   0.0000000   1.6515985  12.3357131  )
         9           Re1 tau(   9) = (  -0.0000000   3.3031971  14.6714261  )
        10           Re1 tau(  10) = (   1.4303263   0.8257993  14.6714261  )
        11           Re1 tau(  11) = (   4.2909789   0.8257993  14.6714261  )
        12           Zr1 tau(  12) = (   2.8606526   3.3031971  14.6714261  )

     number of k points=    20  Fermi-Dirac smearing, width (Ry)=  0.0110
                       cart. coord. in units 2pi/alat
        k(    1) = (   0.0000000   0.0000000   0.0000000), wk =   0.0555556
        k(    2) = (   0.0000000   0.0336374   0.0000000), wk =   0.1111111
        k(    3) = (   0.0000000   0.0672749   0.0000000), wk =   0.1111111
        k(    4) = (   0.0000000  -0.1009123   0.0000000), wk =   0.0555556
        k(    5) = (   0.0291309   0.0168187   0.0000000), wk =   0.1111111
        k(    6) = (   0.0291309   0.0504562   0.0000000), wk =   0.1111111
        k(    7) = (   0.0291309   0.0840936   0.0000000), wk =   0.1111111
        k(    8) = (   0.0291309  -0.0840936   0.0000000), wk =   0.1111111
        k(    9) = (   0.0291309  -0.0504562   0.0000000), wk =   0.1111111
        k(   10) = (   0.0291309  -0.0168187   0.0000000), wk =   0.1111111
        k(   11) = (   0.0582618   0.0336374   0.0000000), wk =   0.1111111
        k(   12) = (   0.0582618   0.0672749   0.0000000), wk =   0.1111111
        k(   13) = (   0.0582618   0.1009123   0.0000000), wk =   0.1111111
        k(   14) = (   0.0582618  -0.0672749   0.0000000), wk =   0.1111111
        k(   15) = (   0.0582618  -0.0336374   0.0000000), wk =   0.1111111
        k(   16) = (   0.0582618   0.0000000   0.0000000), wk =   0.1111111
        k(   17) = (  -0.0873926  -0.0504562   0.0000000), wk =   0.0555556
        k(   18) = (  -0.0873926  -0.0168187   0.0000000), wk =   0.1111111
        k(   19) = (  -0.0873926   0.0168187   0.0000000), wk =   0.1111111
        k(   20) = (  -0.0873926  -0.1513685   0.0000000), wk =   0.0555556

     Dense  grid:   560973 G-vectors     FFT dimensions: (  72,  72, 288)

     Smooth grid:   142007 G-vectors     FFT dimensions: (  45,  45, 180)

     Largest allocated arrays     est. size (Mb)     dimensions
        Kohn-Sham Wavefunctions         0.52 Mb     (     295,  115)
        NL pseudopotentials             1.54 Mb     (     295,  342)
        Each V/rho on FFT grid          0.40 Mb     (   25920)
        Each G-vector array             0.07 Mb     (    8778)
        G-vector shells                 0.03 Mb     (    4412)
     Largest temporary arrays     est. size (Mb)     dimensions
        Auxiliary wavefunctions         2.07 Mb     (     295,  460)
        Each subspace H/S matrix        3.23 Mb     (     460,  460)
        Each <psi_i|beta_j> matrix      0.60 Mb     (     342,  115)
        Arrays for rho mixing           3.96 Mb     (   25920,   10)

     Initial potential from superposition of free atoms
     Check: negative starting charge=   -1.327062

     starting charge  166.49315, renormalised to  171.00000

     negative rho (up, down):  1.363E+00 0.000E+00


     ************************************************************************
     *
     * You are using vdW-DF for exchange-correlation in this calculation.
     * Please cite the following three references that made this development
     * possible:
     *
     *   M. Dion, H. Rydberg, E. Schroder, D. C. Langreth, and
     *   B. I. Lundqvist, Phys. Rev. Lett. 92, 246401 (2004).
     *
     *   T. Thonhauser, V. R. Cooper, S. Li, A. Puzder, P. Hyldgaard, and
     *   D. C. Langreth, Phys. Rev. B 76, 125112 (2007).
     *
     *   G. Roman-Perez and J. M. Soler, Phys. Rev. Lett. 103, 096102 (2009).
     *
     *
     * If you are using vdW-DF2, please also cite:
     *
     *   K. Lee, E. D. Murray, L. Kong, B. I. Lundqvist, and
     *   D. C. Langreth, Phys. Rev. B 82, 081101(R) (2010).
     *
     *
     * If you are calculating the stress with vdW-DF, please also cite:
     *
     *   R. Sabatini, E. Kucukbenli, B. Kolb, T. Thonhauser, and
     *   S. de Gironcoli, J. Phys.: Condens. Matter 24, 424209 (2012).
     *
     ************************************************************************

     Carrying out vdW-DF run using the following parameters:

     Nqs =      20    Nr_points =    1024   r_max =   100.000
     q_mesh =
               0.00001000     0.04494208     0.09755937     0.15916263
               0.23128650     0.31572767     0.41458969     0.53033537
               0.66584808     0.82450364     1.01025438     1.22772762
               1.48234092     1.78043706     2.12944203     2.53805004
               3.01644009     3.57652955     4.23227104     5.00000000

     Gradients computed in reciprocal space

     ************************************************************************


 
     Adding external electric field

     Computed dipole along edir(3) : 
        Dipole                0.0000 Ry au,          0.0000 Debye
        Dipole field          0.0000 Ry au
 
        Potential amp.       -0.0000 Ry
        Total length         45.4567 bohr
 
     Starting wfc are  156 randomized atomic wfcs

     total cpu time spent up to now is       23.3 secs

     per-process dynamical memory:    41.8 Mb

     Self-consistent Calculation

     iteration #  1     ecut=    36.75 Ry     beta=0.10
     Davidson diagonalization with overlap
     ethr =  1.00E-02,  avg # of iterations =  2.0

     negative rho (up, down):  1.365E+00 0.000E+00
 
     Adding external electric field

     Computed dipole along edir(3) : 
        Dipole               -0.0000 Ry au,         -0.0000 Debye
        Dipole field         -0.0000 Ry au
 
        Potential amp.        0.0000 Ry
        Total length         45.4567 bohr
 

     total cpu time spent up to now is       72.5 secs

     total energy              =   -2028.54377599 Ry
     Harris-Foulkes estimate   =   -2028.96127614 Ry
     estimated scf accuracy    <       2.66980040 Ry

     iteration #  2     ecut=    36.75 Ry     beta=0.10
     Davidson diagonalization with overlap
     ethr =  1.56E-03,  avg # of iterations =  1.1

     negative rho (up, down):  1.367E+00 0.000E+00
 
     Adding external electric field

     Computed dipole along edir(3) : 
        Dipole               -0.0003 Ry au,         -0.0006 Debye
        Dipole field         -0.0000 Ry au
 
        Potential amp.        0.0001 Ry
        Total length         45.4567 bohr
 

     total cpu time spent up to now is      103.9 secs

     total energy              =   -2028.61250103 Ry
     Harris-Foulkes estimate   =   -2028.79116065 Ry
     estimated scf accuracy    <       1.87737624 Ry

     iteration #  3     ecut=    36.75 Ry     beta=0.10
     Davidson diagonalization with overlap
     ethr =  1.10E-03,  avg # of iterations =  1.0

     negative rho (up, down):  1.375E+00 0.000E+00
 
     Adding external electric field

     Computed dipole along edir(3) : 
        Dipole                0.0043 Ry au,          0.0108 Debye
        Dipole field          0.0000 Ry au
 
        Potential amp.       -0.0010 Ry
        Total length         45.4567 bohr
 

     total cpu time spent up to now is      136.9 secs

     total energy              =   -2028.39160669 Ry
     Harris-Foulkes estimate   =   -2028.67327613 Ry
     estimated scf accuracy    <       0.74659194 Ry

     iteration #  4     ecut=    36.75 Ry     beta=0.10
     Davidson diagonalization with overlap
     ethr =  4.37E-04,  avg # of iterations =  2.6

     negative rho (up, down):  1.375E+00 0.000E+00
 
     Adding external electric field

     Computed dipole along edir(3) : 
        Dipole               -0.0639 Ry au,         -0.1624 Debye
        Dipole field         -0.0002 Ry au
 
        Potential amp.        0.0155 Ry
        Total length         45.4567 bohr
 

     total cpu time spent up to now is      175.4 secs

     total energy              =   -2028.42151332 Ry
     Harris-Foulkes estimate   =   -2028.46289852 Ry
     estimated scf accuracy    <       0.15906242 Ry

     iteration #  5     ecut=    36.75 Ry     beta=0.10
     Davidson diagonalization with overlap
     ethr =  9.30E-05,  avg # of iterations =  5.2

     negative rho (up, down):  1.375E+00 0.000E+00
 
     Adding external electric field

     Computed dipole along edir(3) : 
        Dipole                0.0337 Ry au,          0.0857 Debye
        Dipole field          0.0001 Ry au
 
        Potential amp.       -0.0082 Ry
        Total length         45.4567 bohr
 

     total cpu time spent up to now is      216.6 secs

     total energy              =   -2028.42286602 Ry
     Harris-Foulkes estimate   =   -2028.43677182 Ry
     estimated scf accuracy    <       0.34130765 Ry

     iteration #  6     ecut=    36.75 Ry     beta=0.10
     Davidson diagonalization with overlap
     ethr =  9.30E-05,  avg # of iterations =  1.0

     negative rho (up, down):  1.376E+00 0.000E+00
 
     Adding external electric field

     Computed dipole along edir(3) : 
        Dipole                0.0001 Ry au,          0.0003 Debye
        Dipole field          0.0000 Ry au
 
        Potential amp.       -0.0000 Ry
        Total length         45.4567 bohr
 

     total cpu time spent up to now is      258.4 secs

     total energy              =   -2028.41585743 Ry
     Harris-Foulkes estimate   =   -2028.43191985 Ry
     estimated scf accuracy    <       0.12619920 Ry

     iteration #  7     ecut=    36.75 Ry     beta=0.10
     Davidson diagonalization with overlap
     ethr =  7.38E-05,  avg # of iterations =  2.0

     negative rho (up, down):  1.373E+00 0.000E+00
 
     Adding external electric field

     Computed dipole along edir(3) : 
        Dipole               -0.0004 Ry au,         -0.0011 Debye
        Dipole field         -0.0000 Ry au
 
        Potential amp.        0.0001 Ry
        Total length         45.4567 bohr
 

     total cpu time spent up to now is      301.2 secs

     total energy              =   -2028.42250891 Ry
     Harris-Foulkes estimate   =   -2028.42718865 Ry
     estimated scf accuracy    <       0.01810412 Ry

     iteration #  8     ecut=    36.75 Ry     beta=0.10
     Davidson diagonalization with overlap
     ethr =  1.06E-05,  avg # of iterations =  7.7

     negative rho (up, down):  1.371E+00 0.000E+00
 
     Adding external electric field

     Computed dipole along edir(3) : 
        Dipole               -0.0002 Ry au,         -0.0005 Debye
        Dipole field         -0.0000 Ry au
 
        Potential amp.        0.0000 Ry
        Total length         45.4567 bohr
 

     total cpu time spent up to now is      359.1 secs

     total energy              =   -2028.42470173 Ry
     Harris-Foulkes estimate   =   -2028.42565220 Ry
     estimated scf accuracy    <       0.01246123 Ry

     iteration #  9     ecut=    36.75 Ry     beta=0.10
     Davidson diagonalization with overlap
     ethr =  7.29E-06,  avg # of iterations =  1.2

     negative rho (up, down):  1.370E+00 0.000E+00
 
     Adding external electric field

     Computed dipole along edir(3) : 
        Dipole                0.0001 Ry au,          0.0001 Debye
        Dipole field          0.0000 Ry au
 
        Potential amp.       -0.0000 Ry
        Total length         45.4567 bohr
 

     total cpu time spent up to now is      399.9 secs

     total energy              =   -2028.42573338 Ry
     Harris-Foulkes estimate   =   -2028.42592832 Ry
     estimated scf accuracy    <       0.00452016 Ry

     iteration # 10     ecut=    36.75 Ry     beta=0.10
     Davidson diagonalization with overlap
     ethr =  2.64E-06,  avg # of iterations =  4.9

     negative rho (up, down):  1.369E+00 0.000E+00
 
     Adding external electric field

     Computed dipole along edir(3) : 
        Dipole                0.0001 Ry au,          0.0002 Debye
        Dipole field          0.0000 Ry au
 
        Potential amp.       -0.0000 Ry
        Total length         45.4567 bohr
 

     total cpu time spent up to now is      450.1 secs

     total energy              =   -2028.42560536 Ry
     Harris-Foulkes estimate   =   -2028.42606484 Ry
     estimated scf accuracy    <       0.00166184 Ry

     iteration # 11     ecut=    36.75 Ry     beta=0.10
     Davidson diagonalization with overlap
     ethr =  9.72E-07,  avg # of iterations =  2.2

     negative rho (up, down):  1.368E+00 0.000E+00
 
     Adding external electric field

     Computed dipole along edir(3) : 
        Dipole                0.0001 Ry au,          0.0003 Debye
        Dipole field          0.0000 Ry au
 
        Potential amp.       -0.0000 Ry
        Total length         45.4567 bohr
 

     total cpu time spent up to now is      494.9 secs

     total energy              =   -2028.42574345 Ry
     Harris-Foulkes estimate   =   -2028.42576344 Ry
     estimated scf accuracy    <       0.00040997 Ry

     iteration # 12     ecut=    36.75 Ry     beta=0.10
     Davidson diagonalization with overlap
     ethr =  2.40E-07,  avg # of iterations =  2.0

     negative rho (up, down):  1.368E+00 0.000E+00
 
     Adding external electric field

     Computed dipole along edir(3) : 
        Dipole               -0.0000 Ry au,         -0.0001 Debye
        Dipole field         -0.0000 Ry au
 
        Potential amp.        0.0000 Ry
        Total length         45.4567 bohr
 

     total cpu time spent up to now is      537.2 secs

     total energy              =   -2028.42574110 Ry
     Harris-Foulkes estimate   =   -2028.42578609 Ry
     estimated scf accuracy    <       0.00018876 Ry

     iteration # 13     ecut=    36.75 Ry     beta=0.10
     Davidson diagonalization with overlap
     ethr =  1.10E-07,  avg # of iterations =  2.1

     negative rho (up, down):  1.368E+00 0.000E+00
 
     Adding external electric field

     Computed dipole along edir(3) : 
        Dipole               -0.0000 Ry au,         -0.0001 Debye
        Dipole field         -0.0000 Ry au
 
        Potential amp.        0.0000 Ry
        Total length         45.4567 bohr
 

     total cpu time spent up to now is      585.7 secs

     total energy              =   -2028.42575492 Ry
     Harris-Foulkes estimate   =   -2028.42576536 Ry
     estimated scf accuracy    <       0.00003985 Ry

     iteration # 14     ecut=    36.75 Ry     beta=0.10
     Davidson diagonalization with overlap
     ethr =  2.33E-08,  avg # of iterations =  2.2

     negative rho (up, down):  1.368E+00 0.000E+00
 
     Adding external electric field

     Computed dipole along edir(3) : 
        Dipole                0.0000 Ry au,          0.0001 Debye
        Dipole field          0.0000 Ry au
 
        Potential amp.       -0.0000 Ry
        Total length         45.4567 bohr
 

     total cpu time spent up to now is      629.4 secs

     total energy              =   -2028.42574878 Ry
     Harris-Foulkes estimate   =   -2028.42575936 Ry
     estimated scf accuracy    <       0.00000849 Ry

     iteration # 15     ecut=    36.75 Ry     beta=0.10
     Davidson diagonalization with overlap
     ethr =  4.96E-09,  avg # of iterations =  2.1

     negative rho (up, down):  1.368E+00 0.000E+00
 
     Adding external electric field

     Computed dipole along edir(3) : 
        Dipole                0.0000 Ry au,          0.0000 Debye
        Dipole field          0.0000 Ry au
 
        Potential amp.       -0.0000 Ry
        Total length         45.4567 bohr
 

     total cpu time spent up to now is      672.8 secs

     total energy              =   -2028.41265095 Ry
     Harris-Foulkes estimate   =   -2028.42575001 Ry
     estimated scf accuracy    <       0.00000157 Ry

     iteration # 16     ecut=    36.75 Ry     beta=0.10
     Davidson diagonalization with overlap
     ethr =  9.16E-10,  avg # of iterations =  2.1

     negative rho (up, down):  1.368E+00 0.000E+00
 
     Adding external electric field

     Computed dipole along edir(3) : 
        Dipole                0.0000 Ry au,          0.0000 Debye
        Dipole field          0.0000 Ry au
 
        Potential amp.       -0.0000 Ry
        Total length         45.4567 bohr
 

     total cpu time spent up to now is      723.9 secs

     total energy              =   -2028.41265026 Ry
     Harris-Foulkes estimate   =   -2028.41265138 Ry
     estimated scf accuracy    <       0.00000112 Ry

     iteration # 17     ecut=    36.75 Ry     beta=0.10
     Davidson diagonalization with overlap
     ethr =  6.53E-10,  avg # of iterations =  1.8

     negative rho (up, down):  1.368E+00 0.000E+00

     negative rho (up, down):  1.368E+00 0.000E+00

     negative rho (up, down):  1.368E+00 0.000E+00

     negative rho (up, down):  1.368E+00 0.000E+00

     negative rho (up, down):  1.368E+00 0.000E+00

     negative rho (up, down):  1.368E+00 0.000E+00

     negative rho (up, down):  1.368E+00 0.000E+00

     negative rho (up, down):  1.368E+00 0.000E+00

     negative rho (up, down):  1.368E+00 0.000E+00

     negative rho (up, down):  1.368E+00 0.000E+00

     negative rho (up, down):  1.368E+00 0.000E+00

     negative rho (up, down):  1.368E+00 0.000E+00

     negative rho (up, down):  1.368E+00 0.000E+00

     negative rho (up, down):  1.368E+00 0.000E+00

     negative rho (up, down):  1.368E+00 0.000E+00

     negative rho (up, down):  1.368E+00 0.000E+00

     negative rho (up, down):  1.368E+00 0.000E+00

     negative rho (up, down):  1.368E+00 0.000E+00

     negative rho (up, down):  1.368E+00 0.000E+00

     negative rho (up, down):  1.368E+00 0.000E+00

     negative rho (up, down):  1.368E+00 0.000E+00

     negative rho (up, down):  1.368E+00 0.000E+00

     negative rho (up, down):  1.368E+00 0.000E+00

     negative rho (up, down):  1.368E+00 0.000E+00

     negative rho (up, down):  1.368E+00 0.000E+00

     negative rho (up, down):  1.368E+00 0.000E+00

     negative rho (up, down):  1.368E+00 0.000E+00

     negative rho (up, down):  1.368E+00 0.000E+00

     negative rho (up, down):  1.368E+00 0.000E+00

     negative rho (up, down):  1.368E+00 0.000E+00

     negative rho (up, down):  1.368E+00 0.000E+00

     negative rho (up, down):  1.368E+00 0.000E+00

     negative rho (up, down):  1.368E+00 0.000E+00

     negative rho (up, down):  1.368E+00 0.000E+00

     negative rho (up, down):  1.368E+00 0.000E+00
 
     Adding external electric field

     Computed dipole along edir(3) : 
        Dipole               -0.0002 Ry au,         -0.0005 Debye
        Dipole field         -0.0000 Ry au
 
        Potential amp.        0.0000 Ry
        Total length         45.4567 bohr
 

     total cpu time spent up to now is      810.7 secs

     End of self-consistent calculation

          k = 0.0000 0.0000 0.0000 ( 17825 PWs)   bands (ev):

   -77.8429 -77.8084 -77.8084 -77.7046 -77.7028 -77.6717 -77.6717 -77.6713
   -77.6713 -46.1949 -46.1923 -45.7030 -39.8848 -39.7236 -39.7236 -39.6951
   -39.6703 -39.6305 -39.5985 -39.5985 -39.4800 -39.4438 -39.4438 -39.4211
   -39.4211 -39.3990 -39.3926 -39.3926 -39.3105 -39.3036 -39.3036 -39.2603
   -39.2603 -39.1527 -39.1353 -39.1136 -39.1136 -39.1094 -39.1094 -24.3222
   -24.2918 -24.1669 -24.1669 -24.1591 -24.1591 -23.8000 -23.7799 -23.7799
    -5.2230  -3.6046  -3.0533  -2.5544  -2.5544  -2.3370  -2.3370  -2.2641
    -1.6839  -1.5810  -1.5810  -1.5799  -1.5724  -1.5724  -1.2756  -0.3031
    -0.0600  -0.0600   0.6824   0.6824   0.8159   0.9027   1.2273   1.4772
     1.6308   1.6308   1.6815   1.6815   1.9117   1.9117   1.9851   2.1804
     2.1804   2.3237   2.3237   2.6612   3.1578   3.1932   3.2018   3.2018
     3.4799   3.6275   3.6275   4.0295   4.0295   4.3547   4.5122   4.5122
     4.6792   4.6792   5.0550   5.6328   5.6328   5.9377   5.9690   6.2206
     6.3257   6.4066   6.4066   6.6406   6.6893   6.7708   6.7710   6.9434
     6.9435   7.2384   7.3171

          k = 0.0000 0.0336 0.0000 ( 17770 PWs)   bands (ev):

   -77.8409 -77.8105 -77.8084 -77.7026 -77.7010 -77.6737 -77.6732 -77.6717
   -77.6713 -46.1955 -46.1933 -45.7040 -39.8607 -39.7183 -39.7056 -39.6740
   -39.6461 -39.6154 -39.5981 -39.5902 -39.4742 -39.4462 -39.4378 -39.4266
   -39.4222 -39.3950 -39.3897 -39.3823 -39.3112 -39.3091 -39.3024 -39.2833
   -39.2679 -39.1635 -39.1510 -39.1441 -39.1409 -39.1190 -39.1143 -24.3208
   -24.2938 -24.1780 -24.1709 -24.1707 -24.1630 -23.8001 -23.7918 -23.7840
    -4.9733  -3.3585  -2.8118  -2.5019  -2.3521  -2.2140  -2.1305  -2.1021
    -1.5574  -1.5162  -1.4447  -1.4415  -1.3553  -1.2885  -1.0676  -0.2610
    -0.0163  -0.0010   0.6695   0.7247   0.8015   0.9840   1.1322   1.2174
     1.4345   1.4583   1.6974   1.7377   1.8391   1.8594   2.0354   2.0438
     2.1078   2.3155   2.4022   2.4053   2.7793   2.8116   2.8543   3.1141
     3.1402   3.5101   3.5650   3.6527   3.8748   3.8861   3.9962   4.1311
     4.5376   4.5432   4.8409   5.0823   5.5520   5.7257   5.8051   5.8349
     5.9566   6.1028   6.3309   6.4589   6.5895   6.7925   6.8327   6.8688
     7.0974   7.2216   7.2560

          k = 0.0000 0.0673 0.0000 ( 17780 PWs)   bands (ev):

   -77.8356 -77.8158 -77.8084 -77.6975 -77.6963 -77.6787 -77.6780 -77.6717
   -77.6713 -46.1968 -46.1953 -45.7060 -39.8082 -39.7044 -39.6583 -39.6305
   -39.6200 -39.5786 -39.5774 -39.5557 -39.4861 -39.4584 -39.4348 -39.4154
   -39.4103 -39.3839 -39.3688 -39.3594 -39.3592 -39.3192 -39.2974 -39.2966
   -39.2831 -39.2234 -39.2158 -39.2067 -39.1951 -39.1228 -39.1188 -24.3172
   -24.2991 -24.1993 -24.1945 -24.1789 -24.1707 -23.8156 -23.8002 -23.7920
    -4.2974  -2.8821  -2.5220  -2.0843  -1.9591  -1.8542  -1.6873  -1.6332
    -1.3629  -1.1074  -1.0416  -0.9940  -0.9587  -0.5477  -0.5131  -0.1626
    -0.0041   0.1189   0.4142   0.5508   0.5667   0.7854   0.9148   1.0885
     1.1036   1.2667   1.4636   1.5342   1.5828   1.6264   1.7607   1.7928
     2.0080   2.0368   2.1229   2.1981   2.3774   2.4070   2.4263   2.6233
     2.6444   2.7967   3.0127   3.1371   3.4198   3.4391   3.5313   3.7480
     4.1435   4.2576   4.4390   4.5911   4.6005   5.3396   5.4575   5.6256
     5.6763   5.8392   5.9584   6.0200   6.0964   6.3045   6.7191   6.7505
     6.8928   7.2518   7.4076

          k = 0.0000-0.1009 0.0000 ( 17748 PWs)   bands (ev):

   -77.8314 -77.8200 -77.8084 -77.6932 -77.6927 -77.6827 -77.6818 -77.6717
   -77.6713 -46.1973 -46.1964 -45.7070 -39.7808 -39.6902 -39.6438 -39.6132
   -39.5872 -39.5683 -39.5439 -39.5258 -39.5105 -39.4789 -39.4430 -39.4031
   -39.3679 -39.3665 -39.3653 -39.3646 -39.3573 -39.3275 -39.3027 -39.2953
   -39.2867 -39.2773 -39.2646 -39.2567 -39.2226 -39.1228 -39.1205 -24.3141
   -24.3032 -24.2086 -24.2074 -24.1829 -24.1745 -23.8273 -23.8002 -23.7960
    -3.5642  -3.2638  -2.0665  -1.9169  -1.5231  -1.4994  -1.4443  -1.2882
    -1.2655  -0.8899  -0.7333  -0.5552  -0.5066  -0.2832  -0.2259  -0.0518
    -0.0328   0.1529   0.2720   0.3481   0.5243   0.6133   0.7543   0.9301
     1.0035   1.1023   1.1496   1.1570   1.1880   1.2400   1.4266   1.5171
     1.5827   1.6411   1.9077   1.9183   2.2366   2.3518   2.5649   2.5764
     2.5881   2.7451   2.8332   3.0759   3.2743   3.2934   3.5212   3.5216
     3.9154   4.0382   4.2260   4.3653   4.4464   5.0826   5.0944   5.3263
     5.4529   5.5946   5.6714   5.6934   6.0444   6.3555   6.4610   6.7239
     6.8900   7.4616   7.5835

          k = 0.0291 0.0168 0.0000 ( 17770 PWs)   bands (ev):

   -77.8409 -77.8105 -77.8084 -77.7026 -77.7010 -77.6737 -77.6732 -77.6717
   -77.6713 -46.1955 -46.1933 -45.7040 -39.8607 -39.7183 -39.7056 -39.6740
   -39.6461 -39.6154 -39.5981 -39.5902 -39.4742 -39.4462 -39.4378 -39.4266
   -39.4222 -39.3950 -39.3897 -39.3823 -39.3112 -39.3091 -39.3024 -39.2833
   -39.2679 -39.1635 -39.1510 -39.1441 -39.1409 -39.1190 -39.1143 -24.3208
   -24.2938 -24.1780 -24.1709 -24.1707 -24.1630 -23.8001 -23.7918 -23.7840
    -4.9733  -3.3585  -2.8118  -2.5019  -2.3521  -2.2140  -2.1305  -2.1021
    -1.5574  -1.5162  -1.4447  -1.4415  -1.3553  -1.2885  -1.0676  -0.2610
    -0.0163  -0.0010   0.6695   0.7247   0.8015   0.9840   1.1322   1.2174
     1.4345   1.4583   1.6974   1.7377   1.8391   1.8594   2.0354   2.0438
     2.1078   2.3155   2.4022   2.4053   2.7793   2.8116   2.8543   3.1141
     3.1402   3.5101   3.5650   3.6527   3.8747   3.8861   3.9962   4.1311
     4.5376   4.5432   4.8409   5.0823   5.5520   5.7257   5.8051   5.8349
     5.9566   6.1028   6.3309   6.4589   6.5893   6.7921   6.8327   6.8688
     7.0970   7.2215   7.2427

          k = 0.0291 0.0505 0.0000 ( 17763 PWs)   bands (ev):

   -77.8372 -77.8142 -77.8084 -77.6990 -77.6976 -77.6770 -77.6768 -77.6716
   -77.6714 -46.1965 -46.1948 -45.7055 -39.8201 -39.7089 -39.6769 -39.6353
   -39.6236 -39.5923 -39.5859 -39.5644 -39.4791 -39.4638 -39.4299 -39.4274
   -39.4088 -39.3862 -39.3746 -39.3703 -39.3414 -39.3143 -39.2996 -39.2943
   -39.2837 -39.2125 -39.2075 -39.1615 -39.1573 -39.1356 -39.1329 -24.3182
   -24.2976 -24.1920 -24.1875 -24.1775 -24.1712 -23.8077 -23.8001 -23.7920
    -4.5066  -2.9362  -2.4263  -2.4116  -2.0718  -1.9497  -1.8482  -1.7561
    -1.3341  -1.2683  -1.2231  -1.0874  -1.0166  -0.9183  -0.6172  -0.2039
     0.0256   0.0796   0.4773   0.6174   0.7613   0.8847   1.0028   1.0614
     1.0892   1.3759   1.4202   1.6141   1.6473   1.8269   1.8370   1.9251
     1.9429   2.1499   2.2410   2.2976   2.3736   2.5068   2.6047   2.6880
     2.9058   2.9085   3.1583   3.1929   3.2715   3.5970   3.7726   3.9090
     4.2999   4.3559   4.5172   4.6258   4.8210   5.4736   5.4960   5.6763
     5.7829   5.8386   6.1466   6.3729   6.4518   6.6704   6.7255   6.8490
     6.9509   6.9659   7.1408

          k = 0.0291 0.0841 0.0000 ( 17734 PWs)   bands (ev):

   -77.8314 -77.8200 -77.8085 -77.6934 -77.6926 -77.6825 -77.6820 -77.6716
   -77.6714 -46.1972 -46.1964 -45.7070 -39.7700 -39.6966 -39.6390 -39.6320
   -39.5942 -39.5583 -39.5320 -39.5279 -39.5163 -39.4620 -39.4283 -39.4154
   -39.4124 -39.3848 -39.3767 -39.3562 -39.3470 -39.3260 -39.3088 -39.2930
   -39.2863 -39.2751 -39.2453 -39.2146 -39.1997 -39.1450 -39.1434 -24.3139
   -24.3033 -24.2043 -24.2021 -24.1869 -24.1803 -23.8220 -23.8013 -23.8002
    -3.7185  -2.8825  -2.1415  -2.0028  -1.7103  -1.5038  -1.3297  -1.2987
    -1.0761  -0.8661  -0.7643  -0.6140  -0.5194  -0.4383  -0.3108  -0.1058
     0.1013   0.1832   0.2240   0.2696   0.4733   0.5970   0.6950   0.7985
     0.8663   0.9618   1.1161   1.2170   1.2406   1.3534   1.4293   1.6058
     1.6732   1.7457   1.8927   2.0479   2.1568   2.3390   2.4033   2.5728
     2.6370   2.7312   2.9284   3.1577   3.2536   3.3863   3.4992   3.7561
     3.8698   3.9660   4.2694   4.5461   4.5783   5.1892   5.3536   5.4656
     5.5198   5.6784   5.7435   5.8567   6.0857   6.2460   6.5673   6.7038
     6.8604   6.9099   7.0057

          k = 0.0291-0.0841 0.0000 ( 17734 PWs)   bands (ev):

   -77.8314 -77.8200 -77.8085 -77.6934 -77.6926 -77.6825 -77.6820 -77.6716
   -77.6714 -46.1972 -46.1964 -45.7070 -39.7700 -39.6966 -39.6390 -39.6320
   -39.5942 -39.5583 -39.5320 -39.5279 -39.5163 -39.4621 -39.4283 -39.4154
   -39.4123 -39.3848 -39.3768 -39.3562 -39.3470 -39.3260 -39.3088 -39.2930
   -39.2863 -39.2751 -39.2453 -39.2145 -39.1997 -39.1450 -39.1434 -24.3139
   -24.3033 -24.2043 -24.2021 -24.1869 -24.1803 -23.8220 -23.8013 -23.8002
    -3.7185  -2.8825  -2.1415  -2.0028  -1.7103  -1.5038  -1.3297  -1.2987
    -1.0761  -0.8661  -0.7643  -0.6140  -0.5194  -0.4383  -0.3108  -0.1058
     0.1013   0.1832   0.2240   0.2696   0.4733   0.5970   0.6950   0.7985
     0.8663   0.9618   1.1161   1.2170   1.2406   1.3534   1.4293   1.6058
     1.6732   1.7457   1.8927   2.0479   2.1568   2.3390   2.4033   2.5728
     2.6370   2.7312   2.9284   3.1577   3.2536   3.3863   3.4992   3.7561
     3.8698   3.9660   4.2694   4.5461   4.5783   5.1892   5.3536   5.4656
     5.5198   5.6784   5.7435   5.8567   6.0857   6.2460   6.5673   6.7038
     6.8604   6.9099   7.0057

          k = 0.0291-0.0505 0.0000 ( 17763 PWs)   bands (ev):

   -77.8372 -77.8142 -77.8084 -77.6990 -77.6976 -77.6770 -77.6768 -77.6716
   -77.6714 -46.1965 -46.1948 -45.7055 -39.8201 -39.7089 -39.6769 -39.6353
   -39.6236 -39.5923 -39.5859 -39.5644 -39.4791 -39.4638 -39.4299 -39.4274
   -39.4088 -39.3862 -39.3746 -39.3703 -39.3414 -39.3143 -39.2996 -39.2943
   -39.2837 -39.2125 -39.2075 -39.1615 -39.1573 -39.1356 -39.1329 -24.3182
   -24.2976 -24.1920 -24.1875 -24.1775 -24.1712 -23.8077 -23.8001 -23.7920
    -4.5066  -2.9362  -2.4263  -2.4116  -2.0718  -1.9497  -1.8482  -1.7561
    -1.3341  -1.2683  -1.2231  -1.0874  -1.0166  -0.9183  -0.6172  -0.2039
     0.0256   0.0796   0.4773   0.6174   0.7613   0.8847   1.0028   1.0614
     1.0892   1.3759   1.4202   1.6141   1.6473   1.8269   1.8370   1.9251
     1.9429   2.1499   2.2410   2.2976   2.3736   2.5068   2.6047   2.6880
     2.9058   2.9085   3.1583   3.1929   3.2715   3.5970   3.7726   3.9090
     4.2999   4.3559   4.5172   4.6259   4.8210   5.4736   5.4960   5.6763
     5.7829   5.8386   6.1466   6.3729   6.4518   6.6705   6.7255   6.8490
     6.9509   6.9659   7.1408

          k = 0.0291-0.0168 0.0000 ( 17770 PWs)   bands (ev):

   -77.8409 -77.8105 -77.8084 -77.7026 -77.7010 -77.6737 -77.6732 -77.6717
   -77.6713 -46.1955 -46.1933 -45.7040 -39.8607 -39.7183 -39.7056 -39.6740
   -39.6461 -39.6154 -39.5981 -39.5902 -39.4742 -39.4462 -39.4378 -39.4267
   -39.4222 -39.3950 -39.3897 -39.3823 -39.3112 -39.3091 -39.3024 -39.2833
   -39.2679 -39.1635 -39.1510 -39.1441 -39.1409 -39.1190 -39.1143 -24.3208
   -24.2938 -24.1780 -24.1709 -24.1707 -24.1630 -23.8001 -23.7918 -23.7840
    -4.9733  -3.3585  -2.8118  -2.5019  -2.3521  -2.2140  -2.1305  -2.1021
    -1.5574  -1.5162  -1.4447  -1.4415  -1.3553  -1.2885  -1.0676  -0.2610
    -0.0163  -0.0010   0.6695   0.7247   0.8015   0.9840   1.1322   1.2174
     1.4345   1.4583   1.6974   1.7377   1.8391   1.8594   2.0354   2.0438
     2.1078   2.3155   2.4022   2.4053   2.7793   2.8116   2.8543   3.1141
     3.1402   3.5101   3.5650   3.6527   3.8747   3.8861   3.9962   4.1311
     4.5376   4.5432   4.8409   5.0823   5.5520   5.7257   5.8051   5.8349
     5.9566   6.1028   6.3309   6.4589   6.5893   6.7921   6.8327   6.8688
     7.0970   7.2216   7.2425

          k = 0.0583 0.0336 0.0000 ( 17780 PWs)   bands (ev):

   -77.8356 -77.8158 -77.8084 -77.6975 -77.6963 -77.6787 -77.6780 -77.6717
   -77.6713 -46.1968 -46.1953 -45.7060 -39.8082 -39.7044 -39.6583 -39.6305
   -39.6200 -39.5786 -39.5774 -39.5557 -39.4861 -39.4584 -39.4348 -39.4154
   -39.4103 -39.3839 -39.3688 -39.3594 -39.3592 -39.3192 -39.2974 -39.2966
   -39.2832 -39.2234 -39.2158 -39.2067 -39.1951 -39.1228 -39.1188 -24.3172
   -24.2991 -24.1993 -24.1945 -24.1789 -24.1707 -23.8156 -23.8002 -23.7920
    -4.2974  -2.8821  -2.5220  -2.0843  -1.9591  -1.8542  -1.6873  -1.6332
    -1.3629  -1.1074  -1.0416  -0.9940  -0.9587  -0.5477  -0.5131  -0.1626
    -0.0041   0.1189   0.4142   0.5508   0.5667   0.7854   0.9148   1.0885
     1.1036   1.2667   1.4636   1.5342   1.5828   1.6264   1.7607   1.7928
     2.0080   2.0368   2.1229   2.1981   2.3774   2.4070   2.4263   2.6233
     2.6444   2.7967   3.0127   3.1371   3.4198   3.4391   3.5313   3.7480
     4.1435   4.2576   4.4390   4.5911   4.6005   5.3396   5.4575   5.6255
     5.6763   5.8392   5.9584   6.0200   6.0964   6.3045   6.7191   6.7505
     6.8928   7.2518   7.4076

          k = 0.0583 0.0673 0.0000 ( 17734 PWs)   bands (ev):

   -77.8314 -77.8200 -77.8085 -77.6934 -77.6926 -77.6825 -77.6820 -77.6716
   -77.6714 -46.1972 -46.1964 -45.7070 -39.7700 -39.6966 -39.6390 -39.6320
   -39.5942 -39.5583 -39.5320 -39.5279 -39.5163 -39.4620 -39.4283 -39.4154
   -39.4124 -39.3848 -39.3767 -39.3562 -39.3470 -39.3260 -39.3088 -39.2930
   -39.2863 -39.2751 -39.2453 -39.2146 -39.1997 -39.1450 -39.1434 -24.3139
   -24.3033 -24.2043 -24.2021 -24.1869 -24.1803 -23.8220 -23.8013 -23.8002
    -3.7185  -2.8825  -2.1415  -2.0028  -1.7103  -1.5038  -1.3297  -1.2987
    -1.0761  -0.8661  -0.7643  -0.6140  -0.5194  -0.4383  -0.3108  -0.1058
     0.1013   0.1832   0.2240   0.2696   0.4733   0.5970   0.6950   0.7985
     0.8663   0.9618   1.1161   1.2170   1.2406   1.3534   1.4293   1.6058
     1.6732   1.7457   1.8927   2.0479   2.1568   2.3390   2.4033   2.5728
     2.6370   2.7312   2.9284   3.1577   3.2536   3.3863   3.4992   3.7561
     3.8698   3.9660   4.2694   4.5461   4.5783   5.1892   5.3536   5.4656
     5.5198   5.6784   5.7435   5.8567   6.0857   6.2460   6.5673   6.7039
     6.8604   6.9099   7.0057

          k = 0.0583 0.1009 0.0000 ( 17712 PWs)   bands (ev):

   -77.8257 -77.8257 -77.8085 -77.6882 -77.6877 -77.6873 -77.6873 -77.6715
   -77.6715 -46.1972 -46.1972 -45.7074 -39.7181 -39.7181 -39.6485 -39.6136
   -39.5814 -39.5814 -39.4991 -39.4991 -39.4606 -39.4594 -39.4554 -39.4554
   -39.4007 -39.4007 -39.3866 -39.3754 -39.3494 -39.3494 -39.3275 -39.2803
   -39.2803 -39.2299 -39.2215 -39.2214 -39.1926 -39.1898 -39.1897 -24.3088
   -24.3088 -24.2006 -24.1970 -24.1970 -24.1941 -23.8157 -23.8157 -23.8002
    -3.0251  -3.0251  -2.4678  -1.6748  -1.3939  -1.3939  -0.8532  -0.8532
    -0.7885  -0.6833  -0.6833  -0.6464  -0.4830  -0.1806  -0.1137  -0.1137
    -0.0574  -0.0574  -0.0125  -0.0124   0.4625   0.5275   0.5275   0.6873
     0.6873   0.7545   0.7545   0.9102   0.9606   1.3036   1.4309   1.5124
     1.5124   1.5171   1.9260   2.0441   2.0441   2.3947   2.3947   2.5028
     2.6110   2.7940   2.7940   3.1377   3.1424   3.1424   3.6536   3.6536
     3.9092   4.3335   4.3335   4.6600   4.6600   5.0513   5.3731   5.3731
     5.5823   5.8235   5.8235   5.9120   5.9205   6.0661   6.0661   6.4482
     6.4482   6.8159   6.8733

          k = 0.0583-0.0673 0.0000 ( 17734 PWs)   bands (ev):

   -77.8314 -77.8200 -77.8085 -77.6934 -77.6926 -77.6825 -77.6821 -77.6716
   -77.6714 -46.1972 -46.1964 -45.7070 -39.7700 -39.6966 -39.6390 -39.6320
   -39.5942 -39.5583 -39.5320 -39.5279 -39.5163 -39.4621 -39.4283 -39.4154
   -39.4124 -39.3848 -39.3767 -39.3562 -39.3470 -39.3260 -39.3088 -39.2930
   -39.2863 -39.2751 -39.2453 -39.2146 -39.1997 -39.1449 -39.1434 -24.3139
   -24.3033 -24.2043 -24.2021 -24.1869 -24.1803 -23.8220 -23.8013 -23.8002
    -3.7185  -2.8825  -2.1415  -2.0028  -1.7103  -1.5038  -1.3297  -1.2987
    -1.0761  -0.8661  -0.7643  -0.6140  -0.5194  -0.4383  -0.3108  -0.1058
     0.1013   0.1832   0.2240   0.2696   0.4733   0.5970   0.6950   0.7985
     0.8663   0.9618   1.1161   1.2170   1.2406   1.3534   1.4293   1.6058
     1.6732   1.7457   1.8927   2.0479   2.1568   2.3390   2.4033   2.5728
     2.6371   2.7312   2.9284   3.1577   3.2536   3.3863   3.4992   3.7561
     3.8698   3.9660   4.2693   4.5461   4.5783   5.1892   5.3536   5.4656
     5.5198   5.6784   5.7435   5.8567   6.0857   6.2460   6.5673   6.7039
     6.8604   6.9099   7.0057

          k = 0.0583-0.0336 0.0000 ( 17780 PWs)   bands (ev):

   -77.8356 -77.8158 -77.8084 -77.6975 -77.6963 -77.6787 -77.6780 -77.6717
   -77.6713 -46.1968 -46.1953 -45.7060 -39.8082 -39.7044 -39.6583 -39.6305
   -39.6200 -39.5786 -39.5774 -39.5557 -39.4862 -39.4584 -39.4348 -39.4154
   -39.4103 -39.3839 -39.3687 -39.3594 -39.3592 -39.3192 -39.2974 -39.2966
   -39.2832 -39.2235 -39.2158 -39.2067 -39.1951 -39.1228 -39.1188 -24.3172
   -24.2991 -24.1993 -24.1945 -24.1789 -24.1707 -23.8156 -23.8002 -23.7920
    -4.2974  -2.8821  -2.5220  -2.0843  -1.9591  -1.8542  -1.6873  -1.6332
    -1.3629  -1.1074  -1.0416  -0.9940  -0.9587  -0.5477  -0.5131  -0.1626
    -0.0041   0.1189   0.4142   0.5508   0.5667   0.7854   0.9148   1.0885
     1.1036   1.2666   1.4636   1.5342   1.5828   1.6264   1.7607   1.7928
     2.0080   2.0368   2.1229   2.1981   2.3774   2.4070   2.4263   2.6233
     2.6444   2.7967   3.0127   3.1371   3.4198   3.4391   3.5313   3.7480
     4.1435   4.2576   4.4390   4.5911   4.6005   5.3396   5.4575   5.6255
     5.6763   5.8392   5.9584   6.0200   6.0964   6.3045   6.7191   6.7505
     6.8928   7.2518   7.4077

          k = 0.0583 0.0000 0.0000 ( 17763 PWs)   bands (ev):

   -77.8372 -77.8142 -77.8084 -77.6990 -77.6976 -77.6770 -77.6768 -77.6716
   -77.6714 -46.1965 -46.1948 -45.7055 -39.8201 -39.7089 -39.6769 -39.6353
   -39.6236 -39.5923 -39.5859 -39.5644 -39.4791 -39.4638 -39.4299 -39.4274
   -39.4088 -39.3862 -39.3746 -39.3703 -39.3414 -39.3143 -39.2996 -39.2943
   -39.2837 -39.2125 -39.2075 -39.1615 -39.1573 -39.1356 -39.1329 -24.3182
   -24.2976 -24.1920 -24.1875 -24.1775 -24.1712 -23.8077 -23.8001 -23.7920
    -4.5066  -2.9362  -2.4263  -2.4116  -2.0718  -1.9497  -1.8482  -1.7561
    -1.3341  -1.2683  -1.2231  -1.0874  -1.0166  -0.9183  -0.6172  -0.2039
     0.0256   0.0796   0.4773   0.6174   0.7613   0.8847   1.0028   1.0614
     1.0892   1.3759   1.4202   1.6141   1.6473   1.8269   1.8370   1.9251
     1.9429   2.1499   2.2410   2.2976   2.3736   2.5068   2.6047   2.6880
     2.9058   2.9085   3.1583   3.1929   3.2715   3.5970   3.7726   3.9090
     4.2999   4.3559   4.5172   4.6259   4.8210   5.4736   5.4960   5.6763
     5.7829   5.8386   6.1466   6.3729   6.4518   6.6704   6.7255   6.8490
     6.9509   6.9659   7.1408

          k =-0.0874-0.0505 0.0000 ( 17748 PWs)   bands (ev):

   -77.8314 -77.8200 -77.8084 -77.6932 -77.6927 -77.6827 -77.6818 -77.6717
   -77.6713 -46.1973 -46.1964 -45.7070 -39.7808 -39.6902 -39.6438 -39.6132
   -39.5871 -39.5683 -39.5439 -39.5258 -39.5105 -39.4789 -39.4430 -39.4031
   -39.3679 -39.3665 -39.3653 -39.3646 -39.3573 -39.3275 -39.3027 -39.2953
   -39.2867 -39.2773 -39.2646 -39.2567 -39.2226 -39.1228 -39.1205 -24.3141
   -24.3032 -24.2086 -24.2074 -24.1829 -24.1745 -23.8273 -23.8002 -23.7960
    -3.5642  -3.2638  -2.0665  -1.9169  -1.5231  -1.4994  -1.4443  -1.2882
    -1.2655  -0.8899  -0.7333  -0.5552  -0.5066  -0.2832  -0.2259  -0.0518
    -0.0328   0.1529   0.2720   0.3481   0.5243   0.6133   0.7543   0.9301
     1.0035   1.1023   1.1496   1.1570   1.1880   1.2400   1.4266   1.5171
     1.5827   1.6411   1.9077   1.9183   2.2366   2.3518   2.5649   2.5764
     2.5881   2.7451   2.8332   3.0759   3.2743   3.2934   3.5212   3.5216
     3.9154   4.0382   4.2260   4.3653   4.4464   5.0826   5.0944   5.3263
     5.4529   5.5946   5.6714   5.6934   6.0444   6.3555   6.4610   6.7239
     6.8900   7.4616   7.5835

          k =-0.0874-0.0168 0.0000 ( 17734 PWs)   bands (ev):

   -77.8314 -77.8200 -77.8085 -77.6934 -77.6926 -77.6825 -77.6820 -77.6716
   -77.6714 -46.1972 -46.1964 -45.7070 -39.7700 -39.6966 -39.6390 -39.6320
   -39.5942 -39.5583 -39.5320 -39.5279 -39.5163 -39.4621 -39.4283 -39.4154
   -39.4123 -39.3848 -39.3767 -39.3562 -39.3470 -39.3260 -39.3088 -39.2930
   -39.2863 -39.2751 -39.2453 -39.2145 -39.1997 -39.1450 -39.1434 -24.3139
   -24.3033 -24.2043 -24.2021 -24.1869 -24.1803 -23.8220 -23.8013 -23.8002
    -3.7185  -2.8825  -2.1415  -2.0028  -1.7103  -1.5038  -1.3297  -1.2987
    -1.0761  -0.8661  -0.7643  -0.6140  -0.5194  -0.4383  -0.3108  -0.1058
     0.1013   0.1832   0.2240   0.2696   0.4733   0.5970   0.6950   0.7985
     0.8663   0.9618   1.1161   1.2170   1.2406   1.3534   1.4293   1.6058
     1.6732   1.7457   1.8927   2.0479   2.1568   2.3390   2.4033   2.5728
     2.6370   2.7312   2.9284   3.1577   3.2536   3.3863   3.4992   3.7561
     3.8698   3.9660   4.2693   4.5461   4.5783   5.1892   5.3536   5.4656
     5.5198   5.6784   5.7435   5.8567   6.0857   6.2460   6.5673   6.7039
     6.8604   6.9099   7.0057

          k =-0.0874 0.0168 0.0000 ( 17734 PWs)   bands (ev):

   -77.8314 -77.8200 -77.8085 -77.6934 -77.6926 -77.6825 -77.6821 -77.6716
   -77.6714 -46.1972 -46.1964 -45.7070 -39.7700 -39.6966 -39.6390 -39.6320
   -39.5942 -39.5583 -39.5320 -39.5279 -39.5163 -39.4621 -39.4283 -39.4154
   -39.4124 -39.3848 -39.3767 -39.3562 -39.3470 -39.3260 -39.3088 -39.2930
   -39.2863 -39.2751 -39.2453 -39.2146 -39.1997 -39.1449 -39.1434 -24.3139
   -24.3033 -24.2043 -24.2021 -24.1869 -24.1803 -23.8221 -23.8013 -23.8002
    -3.7185  -2.8825  -2.1415  -2.0028  -1.7103  -1.5038  -1.3297  -1.2987
    -1.0761  -0.8661  -0.7643  -0.6140  -0.5194  -0.4383  -0.3108  -0.1058
     0.1013   0.1832   0.2240   0.2696   0.4733   0.5970   0.6950   0.7985
     0.8663   0.9618   1.1161   1.2170   1.2406   1.3534   1.4293   1.6058
     1.6732   1.7457   1.8927   2.0479   2.1568   2.3390   2.4033   2.5728
     2.6371   2.7312   2.9284   3.1577   3.2536   3.3863   3.4992   3.7561
     3.8698   3.9660   4.2693   4.5461   4.5783   5.1892   5.3536   5.4656
     5.5198   5.6784   5.7435   5.8567   6.0857   6.2460   6.5673   6.7039
     6.8604   6.9099   7.0057

          k =-0.0874-0.1514 0.0000 ( 17748 PWs)   bands (ev):

   -77.8314 -77.8200 -77.8084 -77.6932 -77.6927 -77.6827 -77.6819 -77.6717
   -77.6713 -46.1973 -46.1964 -45.7070 -39.7808 -39.6902 -39.6438 -39.6132
   -39.5871 -39.5683 -39.5439 -39.5258 -39.5106 -39.4789 -39.4430 -39.4031
   -39.3679 -39.3665 -39.3653 -39.3646 -39.3573 -39.3275 -39.3027 -39.2953
   -39.2867 -39.2773 -39.2646 -39.2567 -39.2226 -39.1228 -39.1205 -24.3141
   -24.3032 -24.2086 -24.2074 -24.1829 -24.1745 -23.8273 -23.8002 -23.7960
    -3.5642  -3.2638  -2.0665  -1.9169  -1.5231  -1.4994  -1.4442  -1.2882
    -1.2655  -0.8899  -0.7333  -0.5552  -0.5066  -0.2832  -0.2259  -0.0518
    -0.0328   0.1529   0.2720   0.3481   0.5243   0.6133   0.7543   0.9301
     1.0035   1.1023   1.1496   1.1570   1.1880   1.2400   1.4266   1.5171
     1.5827   1.6412   1.9077   1.9183   2.2367   2.3518   2.5649   2.5764
     2.5881   2.7451   2.8332   3.0759   3.2743   3.2934   3.5212   3.5216
     3.9154   4.0382   4.2260   4.3653   4.4464   5.0826   5.0944   5.3263
     5.4529   5.5946   5.6713   5.6934   6.0444   6.3555   6.4610   6.7239
     6.8900   7.4616   7.5835

     the Fermi energy is     2.4487 ev

!    total energy              =   -2028.41264752 Ry
     Harris-Foulkes estimate   =   -2028.41265033 Ry
     estimated scf accuracy    <       0.00000035 Ry

     The total energy is the sum of the following terms:

     one-electron contribution =  -15114.19631953 Ry
     hartree contribution      =    7544.51708618 Ry
     xc contribution           =    -541.92943475 Ry
     ewald contribution        =    6083.29055955 Ry
     electric field correction =       0.00000000 Ry
     smearing contrib. (-TS)   =      -0.09453897 Ry

     convergence has been achieved in  17 iterations
 
 BEEF-vdW xc energy contributions
           1 :   -479.753490371360     
           2 :    444.735172880690     
           3 :   -382.277303194931     
           4 :    304.870339060050     
           5 :   -225.982834796689     
           6 :    156.426837613146     
           7 :   -102.162958648074     
           8 :    64.0025516129957     
           9 :   -38.9518721532572     
          10 :    22.4106778369904     
          11 :   -10.2756961881267     
          12 :   0.202597173713798     
          13 :    8.24663236866729     
          14 :   -14.3384684604866     
          15 :    17.2315734943077     
          16 :   -16.8063895619725     
          17 :    13.9299399378610     
          18 :   -10.1517651786363     
          19 :    7.07318467996379     
          20 :   -5.72869379200120     
          21 :    6.25971068129343     
          22 :   -7.99658691250534     
          23 :    9.86462627218856     
          24 :   -10.8977377692778     
          25 :    10.6260579031800     
          26 :   -9.19423756618323     
          27 :    7.20168016859742     
          28 :   -5.37545217231752     
          29 :    4.23942474311730     
          30 :   -3.92386671784914     
          31 :   -41.3609584361018     
          32 :   -30.6345303482368     

     Forces acting on atoms (Ry/au):


     negative rho (up, down):  1.368E+00 0.000E+00
     atom    1 type  1   force =     0.00000035   -0.02834906    0.02487306
     atom    2 type  1   force =    -0.02455257    0.01417337    0.02487437
     atom    3 type  1   force =     0.02455181    0.01417341    0.02487232
     atom    4 type  2   force =    -0.00000084    0.00000184   -0.03897101
     atom    5 type  1   force =     0.00000191   -0.00000990   -0.00000216
     atom    6 type  1   force =    -0.00000670    0.00000450   -0.00000258
     atom    7 type  1   force =     0.00000825    0.00000592   -0.00000100
     atom    8 type  2   force =    -0.00000038   -0.00000001   -0.00000228
     atom    9 type  1   force =    -0.00000232    0.02835846   -0.02487039
     atom   10 type  1   force =     0.02455927   -0.01418052   -0.02487319
     atom   11 type  1   force =    -0.02455991   -0.01417769   -0.02487409
     atom   12 type  2   force =     0.00000115   -0.00000033    0.03897694

     Total force =     0.107581     Total SCF correction =     0.001439


     entering subroutine stress ...


     negative rho (up, down):  1.368E+00 0.000E+00
          total   stress  (Ry/bohr**3)                   (kbar)     P=  -37.33
  -0.00033499   0.00000000   0.00000000        -49.28      0.00      0.00
   0.00000000  -0.00033499   0.00000000          0.00    -49.28      0.00
   0.00000000   0.00000000  -0.00009134          0.00      0.00    -13.44

 !ASE

     Writing output data file calc.save
 
     init_run     :     12.84s CPU     22.43s WALL (       1 calls)
     electrons    :    483.36s CPU    787.59s WALL (       1 calls)
     forces       :      3.41s CPU      4.17s WALL (       1 calls)
     stress       :      8.77s CPU     10.15s WALL (       1 calls)

     Called by init_run:
     wfcinit      :     10.87s CPU     19.51s WALL (       1 calls)
     potinit      :      0.76s CPU      1.55s WALL (       1 calls)

     Called by electrons:
     c_bands      :    365.22s CPU    590.82s WALL (      17 calls)
     sum_band     :     69.58s CPU    117.64s WALL (      17 calls)
     v_of_rho     :     13.84s CPU     24.04s WALL (      18 calls)
     newd         :      9.94s CPU     10.37s WALL (      18 calls)
     mix_rho      :      0.64s CPU      1.09s WALL (      17 calls)
     vdW_energy   :      1.49s CPU      1.50s WALL (      54 calls)
     vdW_ffts     :     25.42s CPU     47.46s WALL (     110 calls)
     vdW_v        :      4.48s CPU      7.80s WALL (      54 calls)

     Called by c_bands:
     init_us_2    :      0.52s CPU      0.54s WALL (     740 calls)
     cegterg      :    355.33s CPU    578.89s WALL (     340 calls)

     Called by *egterg:
     h_psi        :    252.73s CPU    461.49s WALL (    1226 calls)
     s_psi        :      8.05s CPU      8.18s WALL (    1226 calls)
     g_psi        :      0.27s CPU      0.26s WALL (     866 calls)
     cdiaghg      :     57.03s CPU     60.60s WALL (    1206 calls)

     Called by h_psi:
     add_vuspsi   :      8.40s CPU      8.49s WALL (    1226 calls)

     General routines
     calbec       :     24.18s CPU     32.08s WALL (    1606 calls)
     fft          :     38.27s CPU     71.33s WALL (    3291 calls)
     ffts         :      0.14s CPU      0.25s WALL (      35 calls)
     fftw         :    272.43s CPU    520.04s WALL (  214000 calls)
     interpolate  :      0.53s CPU      0.97s WALL (      35 calls)
     davcio       :      0.00s CPU      0.02s WALL (      20 calls)
 
     Parallel routines
     fft_scatter  :    291.20s CPU    570.53s WALL (  217326 calls)
 
     PWSCF        :  8m29.59s CPU    13m46.32s WALL

 
   This run was terminated on:  20:37:36  27Dec2018            

=------------------------------------------------------------------------------=
   JOB DONE.
=------------------------------------------------------------------------------=
Job  /afs/slac/g/suncat/bin/suncat-tsmpirun -x LD_LIBRARY_PATH -wdir /scratch/qe110663_YOq8w pw.x -in pw.inp

TID   HOST_NAME   COMMAND_LINE            STATUS            TERMINATION_TIME
===== ========== ================  =======================  ===================
00000 suncat0138 pw.x -in pw.inp   Done                     12/27/2018 20:37:36
00001 suncat0138 pw.x -in pw.inp   Done                     12/27/2018 20:37:36
00002 suncat0138 pw.x -in pw.inp   Done                     12/27/2018 20:37:36
00003 suncat0138 pw.x -in pw.inp   Done                     12/27/2018 20:37:36
00004 suncat0138 pw.x -in pw.inp   Done                     12/27/2018 20:37:36
00005 suncat0138 pw.x -in pw.inp   Done                     12/27/2018 20:37:36
00006 suncat0138 pw.x -in pw.inp   Done                     12/27/2018 20:37:36
00007 suncat0138 pw.x -in pw.inp   Done                     12/27/2018 20:37:36
00008 suncat0113 pw.x -in pw.inp   Done                     12/27/2018 20:37:36
00009 suncat0113 pw.x -in pw.inp   Done                     12/27/2018 20:37:36
00010 suncat0113 pw.x -in pw.inp   Done                     12/27/2018 20:37:36
00011 suncat0113 pw.x -in pw.inp   Done                     12/27/2018 20:37:36
00012 suncat0113 pw.x -in pw.inp   Done                     12/27/2018 20:37:36
00013 suncat0113 pw.x -in pw.inp   Done                     12/27/2018 20:37:36
00014 suncat0113 pw.x -in pw.inp   Done                     12/27/2018 20:37:36
00015 suncat0113 pw.x -in pw.inp   Done                     12/27/2018 20:37:36
00016 suncat0110 pw.x -in pw.inp   Done                     12/27/2018 20:37:36
00017 suncat0110 pw.x -in pw.inp   Done                     12/27/2018 20:37:36
00018 suncat0110 pw.x -in pw.inp   Done                     12/27/2018 20:37:36
00019 suncat0110 pw.x -in pw.inp   Done                     12/27/2018 20:37:36
00020 suncat0110 pw.x -in pw.inp   Done                     12/27/2018 20:37:36
00021 suncat0110 pw.x -in pw.inp   Done                     12/27/2018 20:37:36
00022 suncat0110 pw.x -in pw.inp   Done                     12/27/2018 20:37:36
00023 suncat0110 pw.x -in pw.inp   Done                     12/27/2018 20:37:36
00024 suncat0109 pw.x -in pw.inp   Done                     12/27/2018 20:37:36
00025 suncat0109 pw.x -in pw.inp   Done                     12/27/2018 20:37:36
00026 suncat0109 pw.x -in pw.inp   Done                     12/27/2018 20:37:36
00027 suncat0109 pw.x -in pw.inp   Done                     12/27/2018 20:37:36
00028 suncat0109 pw.x -in pw.inp   Done                     12/27/2018 20:37:36
00029 suncat0109 pw.x -in pw.inp   Done                     12/27/2018 20:37:36
00030 suncat0109 pw.x -in pw.inp   Done                     12/27/2018 20:37:36
00031 suncat0109 pw.x -in pw.inp   Done                     12/27/2018 20:37:36
00032 suncat0262 pw.x -in pw.inp   Done                     12/27/2018 20:37:36
00033 suncat0262 pw.x -in pw.inp   Done                     12/27/2018 20:37:36
00034 suncat0262 pw.x -in pw.inp   Done                     12/27/2018 20:37:36
00035 suncat0262 pw.x -in pw.inp   Done                     12/27/2018 20:37:36
00036 suncat0262 pw.x -in pw.inp   Done                     12/27/2018 20:37:36
00037 suncat0262 pw.x -in pw.inp   Done                     12/27/2018 20:37:36
00038 suncat0262 pw.x -in pw.inp   Done                     12/27/2018 20:37:36
00039 suncat0262 pw.x -in pw.inp   Done                     12/27/2018 20:37:36
00040 suncat0258 pw.x -in pw.inp   Done                     12/27/2018 20:37:36
00041 suncat0258 pw.x -in pw.inp   Done                     12/27/2018 20:37:36
00042 suncat0258 pw.x -in pw.inp   Done                     12/27/2018 20:37:36
00043 suncat0258 pw.x -in pw.inp   Done                     12/27/2018 20:37:36
00044 suncat0258 pw.x -in pw.inp   Done                     12/27/2018 20:37:36
00045 suncat0258 pw.x -in pw.inp   Done                     12/27/2018 20:37:36
00046 suncat0258 pw.x -in pw.inp   Done                     12/27/2018 20:37:36
00047 suncat0258 pw.x -in pw.inp   Done                     12/27/2018 20:37:36
00048 suncat0257 pw.x -in pw.inp   Done                     12/27/2018 20:37:36
00049 suncat0257 pw.x -in pw.inp   Done                     12/27/2018 20:37:36
00050 suncat0257 pw.x -in pw.inp   Done                     12/27/2018 20:37:36
00051 suncat0257 pw.x -in pw.inp   Done                     12/27/2018 20:37:36
00052 suncat0257 pw.x -in pw.inp   Done                     12/27/2018 20:37:36
00053 suncat0257 pw.x -in pw.inp   Done                     12/27/2018 20:37:36
00054 suncat0257 pw.x -in pw.inp   Done                     12/27/2018 20:37:36
00055 suncat0257 pw.x -in pw.inp   Done                     12/27/2018 20:37:36
00056 suncat0251 pw.x -in pw.inp   Done                     12/27/2018 20:37:36
00057 suncat0251 pw.x -in pw.inp   Done                     12/27/2018 20:37:36
00058 suncat0251 pw.x -in pw.inp   Done                     12/27/2018 20:37:36
00059 suncat0251 pw.x -in pw.inp   Done                     12/27/2018 20:37:36
00060 suncat0251 pw.x -in pw.inp   Done                     12/27/2018 20:37:36
00061 suncat0251 pw.x -in pw.inp   Done                     12/27/2018 20:37:36
00062 suncat0251 pw.x -in pw.inp   Done                     12/27/2018 20:37:36
00063 suncat0251 pw.x -in pw.inp   Done                     12/27/2018 20:37:36

     Program PWSCF v.5.1rc2 (svn rev. 11289) starts on 27Dec2018 at 20:37:42 

     This program is part of the open-source Quantum ESPRESSO suite
     for quantum simulation of materials; please cite
         "P. Giannozzi et al., J. Phys.:Condens. Matter 21 395502 (2009);
          URL http://www.quantum-espresso.org", 
     in publications or presentations arising from this work. More details at
     http://www.quantum-espresso.org/quote

     Parallel version (MPI), running on    64 processors
     R & G space division:  proc/nbgrp/npool/nimage =      64
     Reading input from pw.inp
     Message from routine read_cards :
     DEPRECATED: no units specified in CELL_PARAMETERS card

     Current dimensions of program PWSCF are:
     Max number of different atomic species (ntypx) = 10
     Max number of k-points (npk) =  40000
     Max angular momentum in pseudopotentials (lmaxx) =  3
     Presently stress not available with electric field


     **************************************************************************
     Initializing libbeef V0.1.1 with the BEEF-vdW functional.
     Citation: Wellendorff et al., PRB 85, 235149 (2012).
     **************************************************************************


     IMPORTANT: XC functional enforced from input :
     Exchange-correlation      = BEEF-VDW ( 1  4 27 13 2)
     Any further DFT definition will be discarded
     Please, verify this is what you really want


     Subspace diagonalization in iterative solution of the eigenvalue problem:
     a serial algorithm will be used

 
     Parallelization info
     --------------------
     sticks:   dense  smooth     PW     G-vecs:    dense   smooth      PW
     Min          45      18      5                 8739     2204     357
     Max          46      19      6                 8778     2245     376
     Sum        2941    1177    361               560973   142007   23391
 


     bravais-lattice index     =            0
     lattice parameter (alat)  =       1.8897  a.u.
     unit-cell volume          =    4719.6709 (a.u.)^3
     number of atoms/cell      =           12
     number of atomic types    =            2
     number of electrons       =       171.00
     number of Kohn-Sham states=          115
     kinetic-energy cutoff     =      36.7493  Ry
     charge density cutoff     =     367.4932  Ry
     convergence threshold     =      1.0E-06
     mixing beta               =       0.1000
     number of iterations used =           10  plain     mixing
     Exchange-correlation      = BEEF-VDW ( 1  4 27 13 2)
     nstep                     =           50


     celldm(1)=   1.889726  celldm(2)=   0.000000  celldm(3)=   0.000000
     celldm(4)=   0.000000  celldm(5)=   0.000000  celldm(6)=   0.000000

     crystal axes: (cart. coord. in units of alat)
               a(1) = (   5.721305   0.000000   0.000000 )  
               a(2) = (  -2.860653   4.954796   0.000000 )  
               a(3) = (   0.000000   0.000000  24.671426 )  

     reciprocal axes: (cart. coord. in units 2 pi/alat)
               b(1) = (  0.174785  0.100912  0.000000 )  
               b(2) = (  0.000000  0.201825  0.000000 )  
               b(3) = (  0.000000  0.000000  0.040533 )  


     PseudoPot. # 1 for Re read from file:
     /afs/slac.stanford.edu/u/if/mamunm/psp/gbrv1.5pbe/Re.UPF
     MD5 check sum: 85f993410f3e006da9d71c142b4ad953
     Pseudo is Ultrasoft + core correction, Zval = 15.0
     Generated by new atomic code, or converted to UPF format
     Using radial grid of  981 points,  8 beta functions with: 
                l(1) =   0
                l(2) =   0
                l(3) =   1
                l(4) =   1
                l(5) =   2
                l(6) =   2
                l(7) =   3
                l(8) =   3
     Q(r) pseudized with  8 coefficients,  rinner =    1.150   1.150   1.150
                                                       1.150   1.150   1.150
                                                       1.150

     PseudoPot. # 2 for Zr read from file:
     /afs/slac.stanford.edu/u/if/mamunm/psp/gbrv1.5pbe/Zr.UPF
     MD5 check sum: 5db81b1e868ab7776c4564c113de050b
     Pseudo is Ultrasoft + core correction, Zval = 12.0
     Generated by new atomic code, or converted to UPF format
     Using radial grid of  887 points,  6 beta functions with: 
                l(1) =   0
                l(2) =   0
                l(3) =   1
                l(4) =   1
                l(5) =   2
                l(6) =   2
     Q(r) pseudized with  6 coefficients,  rinner =    1.200   1.200   1.200
                                                       1.200   1.200

     vdW kernel table read from file vdW_kernel_table
     MD5 check sum: 095c7af220d748ca6e76c0b4c6cfb241

     atomic species   valence    mass     pseudopotential
        Re1           15.00   186.20700     Re( 1.00)
        Zr1           12.00    91.22400     Zr( 1.00)

     No symmetry found



   Cartesian axes

     site n.     atom                  positions (alat units)
         1           Re1 tau(   1) = (   0.0000000   0.0000000  10.0000000  )
         2           Re1 tau(   2) = (  -1.4303263   2.4773978  10.0000000  )
         3           Re1 tau(   3) = (   1.4303263   2.4773978  10.0000000  )
         4           Zr1 tau(   4) = (   2.8606526   0.0000000  10.0000000  )
         5           Re1 tau(   5) = (   2.8606526   1.6515985  12.3357131  )
         6           Re1 tau(   6) = (   1.4303263   4.1289964  12.3357131  )
         7           Re1 tau(   7) = (  -1.4303263   4.1289964  12.3357131  )
         8           Zr1 tau(   8) = (   0.0000000   1.6515985  12.3357131  )
         9           Re1 tau(   9) = (  -0.0000060   3.3761096  14.6074818  )
        10           Re1 tau(  10) = (   1.4934707   0.7893397  14.6074746  )
        11           Re1 tau(  11) = (   4.2278328   0.7893470  14.6074723  )
        12           Zr1 tau(  12) = (   2.8606556   3.3031962  14.7716399  )

     number of k points=    20  Fermi-Dirac smearing, width (Ry)=  0.0110
                       cart. coord. in units 2pi/alat
        k(    1) = (   0.0000000   0.0000000   0.0000000), wk =   0.0555556
        k(    2) = (   0.0000000   0.0336374   0.0000000), wk =   0.1111111
        k(    3) = (   0.0000000   0.0672749   0.0000000), wk =   0.1111111
        k(    4) = (   0.0000000  -0.1009123   0.0000000), wk =   0.0555556
        k(    5) = (   0.0291309   0.0168187   0.0000000), wk =   0.1111111
        k(    6) = (   0.0291309   0.0504562   0.0000000), wk =   0.1111111
        k(    7) = (   0.0291309   0.0840936   0.0000000), wk =   0.1111111
        k(    8) = (   0.0291309  -0.0840936   0.0000000), wk =   0.1111111
        k(    9) = (   0.0291309  -0.0504562   0.0000000), wk =   0.1111111
        k(   10) = (   0.0291309  -0.0168187   0.0000000), wk =   0.1111111
        k(   11) = (   0.0582618   0.0336374   0.0000000), wk =   0.1111111
        k(   12) = (   0.0582618   0.0672749   0.0000000), wk =   0.1111111
        k(   13) = (   0.0582618   0.1009123   0.0000000), wk =   0.1111111
        k(   14) = (   0.0582618  -0.0672749   0.0000000), wk =   0.1111111
        k(   15) = (   0.0582618  -0.0336374   0.0000000), wk =   0.1111111
        k(   16) = (   0.0582618   0.0000000   0.0000000), wk =   0.1111111
        k(   17) = (  -0.0873926  -0.0504562   0.0000000), wk =   0.0555556
        k(   18) = (  -0.0873926  -0.0168187   0.0000000), wk =   0.1111111
        k(   19) = (  -0.0873926   0.0168187   0.0000000), wk =   0.1111111
        k(   20) = (  -0.0873926  -0.1513685   0.0000000), wk =   0.0555556

     Dense  grid:   560973 G-vectors     FFT dimensions: (  72,  72, 288)

     Smooth grid:   142007 G-vectors     FFT dimensions: (  45,  45, 180)

     Largest allocated arrays     est. size (Mb)     dimensions
        Kohn-Sham Wavefunctions         0.52 Mb     (     295,  115)
        NL pseudopotentials             1.54 Mb     (     295,  342)
        Each V/rho on FFT grid          0.40 Mb     (   25920)
        Each G-vector array             0.07 Mb     (    8778)
        G-vector shells                 0.03 Mb     (    4412)
     Largest temporary arrays     est. size (Mb)     dimensions
        Auxiliary wavefunctions         2.07 Mb     (     295,  460)
        Each subspace H/S matrix        3.23 Mb     (     460,  460)
        Each <psi_i|beta_j> matrix      0.60 Mb     (     342,  115)
        Arrays for rho mixing           3.96 Mb     (   25920,   10)

     Initial potential from superposition of free atoms
     Check: negative starting charge=   -1.329681

     starting charge  166.49315, renormalised to  171.00000

     negative rho (up, down):  1.366E+00 0.000E+00


     ************************************************************************
     *
     * You are using vdW-DF for exchange-correlation in this calculation.
     * Please cite the following three references that made this development
     * possible:
     *
     *   M. Dion, H. Rydberg, E. Schroder, D. C. Langreth, and
     *   B. I. Lundqvist, Phys. Rev. Lett. 92, 246401 (2004).
     *
     *   T. Thonhauser, V. R. Cooper, S. Li, A. Puzder, P. Hyldgaard, and
     *   D. C. Langreth, Phys. Rev. B 76, 125112 (2007).
     *
     *   G. Roman-Perez and J. M. Soler, Phys. Rev. Lett. 103, 096102 (2009).
     *
     *
     * If you are using vdW-DF2, please also cite:
     *
     *   K. Lee, E. D. Murray, L. Kong, B. I. Lundqvist, and
     *   D. C. Langreth, Phys. Rev. B 82, 081101(R) (2010).
     *
     *
     * If you are calculating the stress with vdW-DF, please also cite:
     *
     *   R. Sabatini, E. Kucukbenli, B. Kolb, T. Thonhauser, and
     *   S. de Gironcoli, J. Phys.: Condens. Matter 24, 424209 (2012).
     *
     ************************************************************************

     Carrying out vdW-DF run using the following parameters:

     Nqs =      20    Nr_points =    1024   r_max =   100.000
     q_mesh =
               0.00001000     0.04494208     0.09755937     0.15916263
               0.23128650     0.31572767     0.41458969     0.53033537
               0.66584808     0.82450364     1.01025438     1.22772762
               1.48234092     1.78043706     2.12944203     2.53805004
               3.01644009     3.57652955     4.23227104     5.00000000

     Gradients computed in reciprocal space

     ************************************************************************


 
     Adding external electric field

     Computed dipole along edir(3) : 
        Dipole               -0.1001 Ry au,         -0.2544 Debye
        Dipole field         -0.0003 Ry au
 
        Potential amp.        0.0242 Ry
        Total length         45.4567 bohr
 
     Starting wfc are  156 randomized atomic wfcs

     total cpu time spent up to now is       23.3 secs

     per-process dynamical memory:    41.9 Mb

     Self-consistent Calculation

     iteration #  1     ecut=    36.75 Ry     beta=0.10
     Davidson diagonalization with overlap
     ethr =  1.00E-02,  avg # of iterations =  2.0

     negative rho (up, down):  1.368E+00 0.000E+00
 
     Adding external electric field

     Computed dipole along edir(3) : 
        Dipole                0.4719 Ry au,          1.1994 Debye
        Dipole field          0.0013 Ry au
 
        Potential amp.       -0.1142 Ry
        Total length         45.4567 bohr
 

     total cpu time spent up to now is       68.0 secs

     total energy              =   -2028.49683697 Ry
     Harris-Foulkes estimate   =   -2029.02121274 Ry
     estimated scf accuracy    <       3.19937395 Ry

     iteration #  2     ecut=    36.75 Ry     beta=0.10
     Davidson diagonalization with overlap
     ethr =  1.87E-03,  avg # of iterations =  1.1

     negative rho (up, down):  1.369E+00 0.000E+00
 
     Adding external electric field

     Computed dipole along edir(3) : 
        Dipole               -0.3400 Ry au,         -0.8642 Debye
        Dipole field         -0.0009 Ry au
 
        Potential amp.        0.0823 Ry
        Total length         45.4567 bohr
 

     total cpu time spent up to now is      104.0 secs

     total energy              =   -2028.32204367 Ry
     Harris-Foulkes estimate   =   -2028.99682219 Ry
     estimated scf accuracy    <      15.04686833 Ry

     iteration #  3     ecut=    36.75 Ry     beta=0.10
     Davidson diagonalization with overlap
     ethr =  1.87E-03,  avg # of iterations =  1.0

     negative rho (up, down):  1.370E+00 0.000E+00
 
     Adding external electric field

     Computed dipole along edir(3) : 
        Dipole                0.0301 Ry au,          0.0765 Debye
        Dipole field          0.0001 Ry au
 
        Potential amp.       -0.0073 Ry
        Total length         45.4567 bohr
 

     total cpu time spent up to now is      141.4 secs

     total energy              =   -2028.55562320 Ry
     Harris-Foulkes estimate   =   -2028.86190110 Ry
     estimated scf accuracy    <       8.52426878 Ry

     iteration #  4     ecut=    36.75 Ry     beta=0.10
     Davidson diagonalization with overlap
     ethr =  1.87E-03,  avg # of iterations =  1.0

     negative rho (up, down):  1.376E+00 0.000E+00
 
     Adding external electric field

     Computed dipole along edir(3) : 
        Dipole                0.0430 Ry au,          0.1093 Debye
        Dipole field          0.0001 Ry au
 
        Potential amp.       -0.0104 Ry
        Total length         45.4567 bohr
 

     total cpu time spent up to now is      181.7 secs

     total energy              =   -2028.45438207 Ry
     Harris-Foulkes estimate   =   -2028.68578489 Ry
     estimated scf accuracy    <       0.70302539 Ry

     iteration #  5     ecut=    36.75 Ry     beta=0.10
     Davidson diagonalization with overlap
     ethr =  4.11E-04,  avg # of iterations =  2.6

     negative rho (up, down):  1.380E+00 0.000E+00
 
     Adding external electric field

     Computed dipole along edir(3) : 
        Dipole                0.0465 Ry au,          0.1182 Debye
        Dipole field          0.0001 Ry au
 
        Potential amp.       -0.0113 Ry
        Total length         45.4567 bohr
 

     total cpu time spent up to now is      222.7 secs

     total energy              =   -2028.42783844 Ry
     Harris-Foulkes estimate   =   -2028.49820248 Ry
     estimated scf accuracy    <       0.19632139 Ry

     iteration #  6     ecut=    36.75 Ry     beta=0.10
     Davidson diagonalization with overlap
     ethr =  1.15E-04,  avg # of iterations =  4.3

     negative rho (up, down):  1.379E+00 0.000E+00
 
     Adding external electric field

     Computed dipole along edir(3) : 
        Dipole                0.0495 Ry au,          0.1258 Debye
        Dipole field          0.0001 Ry au
 
        Potential amp.       -0.0120 Ry
        Total length         45.4567 bohr
 

     total cpu time spent up to now is      271.5 secs

     total energy              =   -2028.44183595 Ry
     Harris-Foulkes estimate   =   -2028.45132659 Ry
     estimated scf accuracy    <       0.04953518 Ry

     iteration #  7     ecut=    36.75 Ry     beta=0.10
     Davidson diagonalization with overlap
     ethr =  2.90E-05,  avg # of iterations =  7.2

     negative rho (up, down):  1.377E+00 0.000E+00
 
     Adding external electric field

     Computed dipole along edir(3) : 
        Dipole                0.0506 Ry au,          0.1287 Debye
        Dipole field          0.0001 Ry au
 
        Potential amp.       -0.0123 Ry
        Total length         45.4567 bohr
 

     total cpu time spent up to now is      326.6 secs

     total energy              =   -2028.44646490 Ry
     Harris-Foulkes estimate   =   -2028.44869325 Ry
     estimated scf accuracy    <       0.02272110 Ry

     iteration #  8     ecut=    36.75 Ry     beta=0.10
     Davidson diagonalization with overlap
     ethr =  1.33E-05,  avg # of iterations =  4.5

     negative rho (up, down):  1.374E+00 0.000E+00
 
     Adding external electric field

     Computed dipole along edir(3) : 
        Dipole                0.0530 Ry au,          0.1348 Debye
        Dipole field          0.0001 Ry au
 
        Potential amp.       -0.0128 Ry
        Total length         45.4567 bohr
 

     total cpu time spent up to now is      373.4 secs

     total energy              =   -2028.44779371 Ry
     Harris-Foulkes estimate   =   -2028.44841445 Ry
     estimated scf accuracy    <       0.00734653 Ry

     iteration #  9     ecut=    36.75 Ry     beta=0.10
     Davidson diagonalization with overlap
     ethr =  4.30E-06,  avg # of iterations =  4.2

     negative rho (up, down):  1.373E+00 0.000E+00
 
     Adding external electric field

     Computed dipole along edir(3) : 
        Dipole                0.0506 Ry au,          0.1287 Debye
        Dipole field          0.0001 Ry au
 
        Potential amp.       -0.0123 Ry
        Total length         45.4567 bohr
 

     total cpu time spent up to now is      422.4 secs

     total energy              =   -2028.44871601 Ry
     Harris-Foulkes estimate   =   -2028.44867607 Ry
     estimated scf accuracy    <       0.00254225 Ry

     iteration # 10     ecut=    36.75 Ry     beta=0.10
     Davidson diagonalization with overlap
     ethr =  1.49E-06,  avg # of iterations =  4.8

     negative rho (up, down):  1.372E+00 0.000E+00
 
     Adding external electric field

     Computed dipole along edir(3) : 
        Dipole                0.0533 Ry au,          0.1354 Debye
        Dipole field          0.0001 Ry au
 
        Potential amp.       -0.0129 Ry
        Total length         45.4567 bohr
 

     total cpu time spent up to now is      468.9 secs

     total energy              =   -2028.44887794 Ry
     Harris-Foulkes estimate   =   -2028.44881622 Ry
     estimated scf accuracy    <       0.00060536 Ry

     iteration # 11     ecut=    36.75 Ry     beta=0.10
     Davidson diagonalization with overlap
     ethr =  3.54E-07,  avg # of iterations =  2.8

     negative rho (up, down):  1.372E+00 0.000E+00
 
     Adding external electric field

     Computed dipole along edir(3) : 
        Dipole                0.0506 Ry au,          0.1287 Debye
        Dipole field          0.0001 Ry au
 
        Potential amp.       -0.0123 Ry
        Total length         45.4567 bohr
 

     total cpu time spent up to now is      513.9 secs

     total energy              =   -2028.44887300 Ry
     Harris-Foulkes estimate   =   -2028.44892481 Ry
     estimated scf accuracy    <       0.00030255 Ry

     iteration # 12     ecut=    36.75 Ry     beta=0.10
     Davidson diagonalization with overlap
     ethr =  1.77E-07,  avg # of iterations =  2.0

     negative rho (up, down):  1.372E+00 0.000E+00
 
     Adding external electric field

     Computed dipole along edir(3) : 
        Dipole                0.0518 Ry au,          0.1317 Debye
        Dipole field          0.0001 Ry au
 
        Potential amp.       -0.0125 Ry
        Total length         45.4567 bohr
 

     total cpu time spent up to now is      562.7 secs

     total energy              =   -2028.44889270 Ry
     Harris-Foulkes estimate   =   -2028.44891744 Ry
     estimated scf accuracy    <       0.00013440 Ry

     iteration # 13     ecut=    36.75 Ry     beta=0.10
     Davidson diagonalization with overlap
     ethr =  7.86E-08,  avg # of iterations =  2.0

     negative rho (up, down):  1.372E+00 0.000E+00
 
     Adding external electric field

     Computed dipole along edir(3) : 
        Dipole                0.0511 Ry au,          0.1299 Debye
        Dipole field          0.0001 Ry au
 
        Potential amp.       -0.0124 Ry
        Total length         45.4567 bohr
 

     total cpu time spent up to now is      612.3 secs

     total energy              =   -2028.44891224 Ry
     Harris-Foulkes estimate   =   -2028.44891799 Ry
     estimated scf accuracy    <       0.00005100 Ry

     iteration # 14     ecut=    36.75 Ry     beta=0.10
     Davidson diagonalization with overlap
     ethr =  2.98E-08,  avg # of iterations =  1.1

     negative rho (up, down):  1.372E+00 0.000E+00
 
     Adding external electric field

     Computed dipole along edir(3) : 
        Dipole                0.0511 Ry au,          0.1299 Debye
        Dipole field          0.0001 Ry au
 
        Potential amp.       -0.0124 Ry
        Total length         45.4567 bohr
 

     total cpu time spent up to now is      650.8 secs

     total energy              =   -2028.44890909 Ry
     Harris-Foulkes estimate   =   -2028.44891412 Ry
     estimated scf accuracy    <       0.00001156 Ry

     iteration # 15     ecut=    36.75 Ry     beta=0.10
     Davidson diagonalization with overlap
     ethr =  6.76E-09,  avg # of iterations =  2.6

     negative rho (up, down):  1.372E+00 0.000E+00
 
     Adding external electric field

     Computed dipole along edir(3) : 
        Dipole                0.0510 Ry au,          0.1295 Debye
        Dipole field          0.0001 Ry au
 
        Potential amp.       -0.0123 Ry
        Total length         45.4567 bohr
 

     total cpu time spent up to now is      699.7 secs

     total energy              =   -2028.44890865 Ry
     Harris-Foulkes estimate   =   -2028.44891040 Ry
     estimated scf accuracy    <       0.00000218 Ry

[...]
   -24.3729 -24.3700 -24.0491 -23.9313 -23.9311 -23.4753 -23.4750 -23.4517
    -3.1403  -2.9406  -2.3351  -1.5085  -1.3316  -1.2677  -1.2043  -0.8048
    -0.7768  -0.6425  -0.5790  -0.5463  -0.3070  -0.2119  -0.1790  -0.0151
     0.0076   0.0586   0.1656   0.1735   0.3885   0.4990   0.7190   0.7800
     0.8982   0.9001   1.0565   1.1116   1.1640   1.3826   1.6127   1.7060
     1.7595   1.9067   2.2185   2.2641   2.2850   2.7141   2.9168   2.9956
     3.0078   3.0247   3.1791   3.3972   3.5216   3.7013   3.7622   4.0358
     4.0494   4.3055   4.5076   4.8462   4.9576   4.9800   5.1375   5.5945
     5.6278   6.0989   6.1314   6.1684   6.1816   6.3025   6.3514   6.6507
     6.7083   6.9542   7.3351

          k = 0.0583-0.0673 0.0000 ( 17734 PWs)   bands (ev):

   -77.6657 -77.6535 -77.6415 -77.4608 -77.4501 -77.4393 -77.4310 -77.4000
   -77.3938 -46.4546 -45.9313 -45.3349 -39.7008 -39.6047 -39.5372 -39.5048
   -39.4685 -39.4141 -39.3801 -39.3490 -39.3046 -39.2877 -39.2292 -39.2100
   -39.1871 -39.1719 -39.1556 -39.1053 -39.0902 -39.0807 -39.0540 -39.0180
   -38.9987 -38.9737 -38.9652 -38.9502 -38.9190 -38.9057 -38.8534 -24.5919
   -24.3755 -24.3622 -24.0490 -23.9372 -23.9175 -23.4818 -23.4604 -23.4517
    -3.6993  -2.8587  -2.0386  -1.8596  -1.6118  -1.4764  -1.3521  -1.1565
    -1.0284  -0.8795  -0.7239  -0.6240  -0.4767  -0.3685  -0.1534  -0.0164
     0.1092   0.2241   0.2989   0.4314   0.4957   0.7298   0.8028   0.9551
     1.0794   1.1389   1.2350   1.3164   1.4308   1.5815   1.7020   1.8485
     1.8846   1.9903   2.2032   2.3136   2.4281   2.5730   2.7055   2.9117
     3.0337   3.0816   3.2784   3.4512   3.6122   3.7429   3.7677   3.9863
     4.0200   4.2279   4.3417   4.7649   4.8897   5.1058   5.3561   5.6918
     5.6978   5.9334   5.9916   6.1192   6.3034   6.4209   6.6883   6.8368
     7.1474   7.2245   7.2963

          k = 0.0583-0.0336 0.0000 ( 17780 PWs)   bands (ev):

   -77.6701 -77.6491 -77.6415 -77.4648 -77.4462 -77.4392 -77.4328 -77.3982
   -77.3938 -46.4541 -45.9305 -45.3338 -39.7346 -39.6022 -39.5496 -39.5151
   -39.4816 -39.4617 -39.3792 -39.3331 -39.3225 -39.2755 -39.2331 -39.2036
   -39.1841 -39.1774 -39.1566 -39.1393 -39.0913 -39.0659 -39.0163 -39.0115
   -39.0037 -38.9637 -38.9604 -38.9330 -38.9065 -38.8836 -38.8352 -24.5923
   -24.3713 -24.3563 -24.0487 -23.9309 -23.9085 -23.4751 -23.4518 -23.4508
    -4.2531  -2.8300  -2.3287  -1.9535  -1.8884  -1.8258  -1.7004  -1.4810
    -1.3148  -1.1194  -1.0268  -0.9283  -0.8142  -0.4799  -0.3050  -0.0197
     0.1648   0.2053   0.4127   0.6012   0.6485   0.9071   1.0882   1.1657
     1.3399   1.5657   1.6041   1.7156   1.7735   1.8646   1.9995   2.0743
     2.1490   2.1657   2.2916   2.4132   2.4695   2.6856   2.7977   2.8674
     2.9336   3.0992   3.2531   3.5206   3.5997   3.7005   3.9491   4.0986
     4.3414   4.4321   4.5939   4.7766   4.8671   5.2936   5.4238   5.7817
     5.7835   6.0221   6.0886   6.3882   6.4153   6.6154   6.7936   6.7973
     7.2255   7.3602   7.4743

          k = 0.0583 0.0000 0.0000 ( 17763 PWs)   bands (ev):

   -77.6717 -77.6475 -77.6415 -77.4663 -77.4446 -77.4393 -77.4336 -77.3974
   -77.3938 -46.4538 -45.9301 -45.3333 -39.7472 -39.5987 -39.5642 -39.5120
   -39.5022 -39.4674 -39.3909 -39.3485 -39.3104 -39.2475 -39.2302 -39.2026
   -39.1935 -39.1880 -39.1605 -39.1511 -39.0917 -39.0686 -39.0122 -39.0068
   -38.9943 -38.9621 -38.9327 -38.9200 -38.8957 -38.8801 -38.8402 -24.5926
   -24.3662 -24.3563 -24.0486 -23.9234 -23.9084 -23.4669 -23.4518 -23.4507
    -4.4562  -2.8082  -2.3148  -2.2830  -1.9953  -1.9428  -1.8008  -1.6354
    -1.3048  -1.2651  -1.1721  -1.0066  -0.8464  -0.7346  -0.4913  -0.0771
     0.2093   0.2470   0.4848   0.6802   0.8076   1.0550   1.1384   1.2566
     1.3469   1.6245   1.7100   1.7176   1.8099   1.9157   2.0878   2.1268
     2.1603   2.2383   2.3633   2.5097   2.5573   2.9022   2.9189   3.0120
     3.1042   3.1932   3.3114   3.5027   3.5109   3.9097   4.0423   4.3131
     4.4726   4.5124   4.6141   4.9566   5.0668   5.2801   5.6349   5.7476
     5.8431   5.9236   6.3281   6.4959   6.5713   6.7070   6.9175   7.0662
     7.1056   7.2533   7.3022

          k =-0.0874-0.0505 0.0000 ( 17748 PWs)   bands (ev):

   -77.6657 -77.6535 -77.6414 -77.4609 -77.4500 -77.4393 -77.4310 -77.4000
   -77.3938 -46.4546 -45.9313 -45.3349 -39.7049 -39.6072 -39.5285 -39.5157
   -39.4335 -39.4226 -39.3676 -39.3527 -39.3475 -39.2980 -39.2301 -39.2059
   -39.1796 -39.1503 -39.1174 -39.0995 -39.0935 -39.0874 -39.0658 -39.0343
   -39.0144 -38.9739 -38.9713 -38.9546 -38.9407 -38.8846 -38.8384 -24.5919
   -24.3789 -24.3589 -24.0490 -23.9423 -23.9124 -23.4872 -23.4549 -23.4517
    -3.5817  -3.1794  -1.9072  -1.7644  -1.5374  -1.5301  -1.3022  -1.2165
    -1.1486  -0.8871  -0.7948  -0.5145  -0.4606  -0.3048  -0.0966  -0.0032
     0.0359   0.2181   0.3354   0.4379   0.5887   0.6907   0.9401   1.0747
     1.1677   1.1995   1.2334   1.4282   1.4570   1.5102   1.5421   1.7497
     1.7842   1.9838   2.2650   2.4183   2.4209   2.5532   2.5835   2.7410
     2.9488   3.1711   3.3336   3.4666   3.5534   3.6754   3.7117   3.7480
     4.1146   4.1680   4.5101   4.5738   4.6849   5.1169   5.1986   5.5118
     5.6968   5.8336   6.0541   6.1314   6.2310   6.4314   6.6545   6.7621
     7.4040   7.4527   7.6443

          k =-0.0874-0.0168 0.0000 ( 17734 PWs)   bands (ev):

   -77.6657 -77.6535 -77.6415 -77.4609 -77.4500 -77.4393 -77.4310 -77.4000
   -77.3938 -46.4546 -45.9313 -45.3349 -39.7008 -39.6047 -39.5372 -39.5048
   -39.4685 -39.4141 -39.3801 -39.3490 -39.3046 -39.2878 -39.2292 -39.2099
   -39.1871 -39.1719 -39.1556 -39.1053 -39.0901 -39.0807 -39.0540 -39.0180
   -38.9987 -38.9737 -38.9652 -38.9502 -38.9190 -38.9058 -38.8534 -24.5919
   -24.3755 -24.3622 -24.0490 -23.9372 -23.9175 -23.4818 -23.4604 -23.4517
    -3.6993  -2.8587  -2.0386  -1.8596  -1.6118  -1.4764  -1.3521  -1.1565
    -1.0284  -0.8795  -0.7239  -0.6240  -0.4767  -0.3685  -0.1534  -0.0164
     0.1092   0.2241   0.2989   0.4314   0.4957   0.7298   0.8028   0.9551
     1.0794   1.1389   1.2350   1.3164   1.4308   1.5815   1.7020   1.8485
     1.8846   1.9903   2.2032   2.3136   2.4281   2.5731   2.7055   2.9117
     3.0337   3.0816   3.2784   3.4512   3.6122   3.7429   3.7677   3.9863
     4.0200   4.2279   4.3417   4.7649   4.8897   5.1058   5.3560   5.6918
     5.6978   5.9334   5.9916   6.1192   6.3035   6.4209   6.6883   6.8368
     7.1474   7.2245   7.2964

          k =-0.0874 0.0168 0.0000 ( 17734 PWs)   bands (ev):

   -77.6657 -77.6535 -77.6415 -77.4608 -77.4501 -77.4393 -77.4310 -77.4000
   -77.3938 -46.4546 -45.9313 -45.3349 -39.7008 -39.6047 -39.5372 -39.5048
   -39.4685 -39.4141 -39.3801 -39.3490 -39.3045 -39.2877 -39.2292 -39.2100
   -39.1871 -39.1719 -39.1556 -39.1053 -39.0901 -39.0806 -39.0540 -39.0180
   -38.9987 -38.9737 -38.9652 -38.9502 -38.9190 -38.9057 -38.8534 -24.5919
   -24.3755 -24.3622 -24.0490 -23.9372 -23.9175 -23.4818 -23.4604 -23.4517
    -3.6993  -2.8587  -2.0386  -1.8596  -1.6118  -1.4764  -1.3521  -1.1565
    -1.0284  -0.8795  -0.7239  -0.6240  -0.4767  -0.3685  -0.1534  -0.0164
     0.1092   0.2241   0.2989   0.4314   0.4957   0.7298   0.8028   0.9551
     1.0794   1.1389   1.2350   1.3164   1.4308   1.5815   1.7020   1.8485
     1.8846   1.9903   2.2032   2.3136   2.4281   2.5731   2.7055   2.9117
     3.0337   3.0816   3.2784   3.4512   3.6122   3.7429   3.7677   3.9863
     4.0200   4.2279   4.3417   4.7650   4.8897   5.1058   5.3560   5.6917
     5.6978   5.9334   5.9916   6.1192   6.3035   6.4209   6.6883   6.8368
     7.1474   7.2245   7.2963

          k =-0.0874-0.1514 0.0000 ( 17748 PWs)   bands (ev):

   -77.6657 -77.6535 -77.6415 -77.4608 -77.4502 -77.4392 -77.4310 -77.4000
   -77.3938 -46.4546 -45.9313 -45.3349 -39.7049 -39.6072 -39.5285 -39.5157
   -39.4335 -39.4226 -39.3676 -39.3527 -39.3475 -39.2979 -39.2300 -39.2060
   -39.1795 -39.1503 -39.1175 -39.0995 -39.0935 -39.0874 -39.0657 -39.0343
   -39.0144 -38.9739 -38.9713 -38.9546 -38.9406 -38.8846 -38.8384 -24.5919
   -24.3789 -24.3589 -24.0490 -23.9423 -23.9124 -23.4872 -23.4549 -23.4517
    -3.5818  -3.1794  -1.9072  -1.7644  -1.5374  -1.5302  -1.3022  -1.2165
    -1.1486  -0.8870  -0.7948  -0.5145  -0.4606  -0.3048  -0.0966  -0.0032
     0.0359   0.2181   0.3354   0.4379   0.5887   0.6907   0.9401   1.0747
     1.1677   1.1995   1.2334   1.4282   1.4570   1.5102   1.5421   1.7497
     1.7842   1.9838   2.2650   2.4183   2.4208   2.5532   2.5835   2.7410
     2.9488   3.1711   3.3336   3.4666   3.5534   3.6755   3.7117   3.7480
     4.1146   4.1680   4.5101   4.5738   4.6849   5.1169   5.1986   5.5118
     5.6968   5.8336   6.0541   6.1314   6.2310   6.4314   6.6545   6.7621
     7.4040   7.4528   7.6446

     the Fermi energy is     2.7127 ev

!    total energy              =   -2028.46536237 Ry
     Harris-Foulkes estimate   =   -2028.46537013 Ry
     estimated scf accuracy    <       0.00000066 Ry

     The total energy is the sum of the following terms:

     one-electron contribution =  -15322.59407921 Ry
     hartree contribution      =    7649.84156005 Ry
     xc contribution           =    -542.18847141 Ry
     ewald contribution        =    6186.55739668 Ry
     electric field correction =       0.00009414 Ry
     smearing contrib. (-TS)   =      -0.08186262 Ry

     convergence has been achieved in  17 iterations
 
 BEEF-vdW xc energy contributions
           1 :   -480.405748143327     
           2 :    445.478351029410     
           3 :   -383.155849937250     
           4 :    305.849003673398     
           5 :   -226.942326031751     
           6 :    157.210065908167     
           7 :   -102.662507864610     
           8 :    64.2298899533988     
           9 :   -39.0347442729567     
          10 :    22.5231301095004     
          11 :   -10.5505973352733     
          12 :   0.673844367373704     
          13 :    7.65314611797373     
          14 :   -13.7681702342690     
          15 :    16.8332847662071     
          16 :   -16.6603107065995     
          17 :    14.0064896806096     
          18 :   -10.3229773379708     
          19 :    7.16926661314812     
          20 :   -5.61181620041077     
          21 :    5.88259353469743     
          22 :   -7.42098498003429     
          23 :    9.23097055212486     
          24 :   -10.3583902778125     
          25 :    10.2734723670076     
          26 :   -9.01998137502187     
          27 :    7.10594003315521     
          28 :   -5.21954413457956     
          29 :    3.91365536587318     
          30 :   -3.39860634142883     
          31 :   -41.3987661552579     
          32 :   -30.6944923176271     

     Forces acting on atoms (Ry/au):


     negative rho (up, down):  1.377E+00 0.000E+00
     atom    1 type  1   force =    -0.00000026   -0.02326927    0.02041493
     atom    2 type  1   force =    -0.02015073    0.01163200    0.02041233
     atom    3 type  1   force =     0.02015446    0.01163765    0.02041236
     atom    4 type  2   force =    -0.00000114   -0.00000023   -0.05013712
     atom    5 type  1   force =     0.00000850    0.02812280    0.01426279
     atom    6 type  1   force =     0.02435937   -0.01405456    0.01426994
     atom    7 type  1   force =    -0.02435897   -0.01406382    0.01425796
     atom    8 type  2   force =    -0.00000777   -0.00000142   -0.05089964
     atom    9 type  1   force =    -0.00000280    0.00021986   -0.00053455
     atom   10 type  1   force =     0.00018951   -0.00011270   -0.00053535
     atom   11 type  1   force =    -0.00018944   -0.00010847   -0.00053162
     atom   12 type  2   force =    -0.00000071   -0.00000183   -0.00139202

     Total force =     0.104715     Total SCF correction =     0.003801


     entering subroutine stress ...


     negative rho (up, down):  1.377E+00 0.000E+00
          total   stress  (Ry/bohr**3)                   (kbar)     P=  -25.35
  -0.00024154  -0.00000000  -0.00000000        -35.53     -0.00     -0.00
  -0.00000000  -0.00024154  -0.00000000         -0.00    -35.53     -0.00
  -0.00000000  -0.00000000  -0.00003384         -0.00     -0.00     -4.98

 !ASE

     Writing output data file calc.save
 
     init_run     :     13.70s CPU     23.56s WALL (       1 calls)
     electrons    :    584.78s CPU    964.78s WALL (       1 calls)
     forces       :      3.68s CPU      4.40s WALL (       1 calls)
     stress       :      9.55s CPU     10.96s WALL (       1 calls)

     Called by init_run:
     wfcinit      :     11.31s CPU     20.39s WALL (       1 calls)
     potinit      :      1.00s CPU      1.53s WALL (       1 calls)

     Called by electrons:
     c_bands      :    437.95s CPU    733.56s WALL (      17 calls)
     sum_band     :     91.69s CPU    148.94s WALL (      17 calls)
     v_of_rho     :     16.19s CPU     25.45s WALL (      18 calls)
     newd         :      9.92s CPU     10.30s WALL (      18 calls)
     mix_rho      :      0.68s CPU      1.08s WALL (      17 calls)
     vdW_energy   :      1.56s CPU      1.59s WALL (      54 calls)
     vdW_ffts     :     30.71s CPU     50.20s WALL (     110 calls)
     vdW_v        :      5.43s CPU      8.32s WALL (      54 calls)

     Called by c_bands:
     init_us_2    :      0.48s CPU      0.54s WALL (     740 calls)
     cegterg      :    427.62s CPU    721.08s WALL (     340 calls)

     Called by *egterg:
     h_psi        :    308.29s CPU    582.64s WALL (    1425 calls)
     s_psi        :      7.99s CPU      8.17s WALL (    1425 calls)
     g_psi        :      0.26s CPU      0.25s WALL (    1065 calls)
     cdiaghg      :     68.23s CPU     72.89s WALL (    1405 calls)

     Called by h_psi:
     add_vuspsi   :      8.36s CPU      8.54s WALL (    1425 calls)

     General routines
     calbec       :     26.90s CPU     36.79s WALL (    1805 calls)
     fft          :     46.38s CPU     75.72s WALL (    3291 calls)
     ffts         :      0.14s CPU      0.22s WALL (      35 calls)
     fftw         :    347.88s CPU    668.24s WALL (  212030 calls)
     interpolate  :      0.61s CPU      1.00s WALL (      35 calls)
     davcio       :      0.00s CPU      0.01s WALL (      20 calls)
 
     Parallel routines
     fft_scatter  :    374.70s CPU    722.98s WALL (  215356 calls)
 
     PWSCF        : 10m12.71s CPU    16m45.41s WALL

 
   This run was terminated on:  22: 8:13  27Dec2018            

=------------------------------------------------------------------------------=
   JOB DONE.
=------------------------------------------------------------------------------=
Job  /afs/slac/g/suncat/bin/suncat-tsmpirun -x LD_LIBRARY_PATH -wdir /scratch/qe110663_YOq8w pw.x -in pw.inp

TID   HOST_NAME   COMMAND_LINE            STATUS            TERMINATION_TIME
===== ========== ================  =======================  ===================
00000 suncat0138 pw.x -in pw.inp   Done                     12/27/2018 22:08:13
00001 suncat0138 pw.x -in pw.inp   Done                     12/27/2018 22:08:13
00002 suncat0138 pw.x -in pw.inp   Done                     12/27/2018 22:08:13
00003 suncat0138 pw.x -in pw.inp   Done                     12/27/2018 22:08:13
00004 suncat0138 pw.x -in pw.inp   Done                     12/27/2018 22:08:13
00005 suncat0138 pw.x -in pw.inp   Done                     12/27/2018 22:08:13
00006 suncat0138 pw.x -in pw.inp   Done                     12/27/2018 22:08:13
00007 suncat0138 pw.x -in pw.inp   Done                     12/27/2018 22:08:13
00008 suncat0113 pw.x -in pw.inp   Done                     12/27/2018 22:08:13
00009 suncat0113 pw.x -in pw.inp   Done                     12/27/2018 22:08:13
00010 suncat0113 pw.x -in pw.inp   Done                     12/27/2018 22:08:13
00011 suncat0113 pw.x -in pw.inp   Done                     12/27/2018 22:08:13
00012 suncat0113 pw.x -in pw.inp   Done                     12/27/2018 22:08:13
00013 suncat0113 pw.x -in pw.inp   Done                     12/27/2018 22:08:13
00014 suncat0113 pw.x -in pw.inp   Done                     12/27/2018 22:08:13
00015 suncat0113 pw.x -in pw.inp   Done                     12/27/2018 22:08:13
00016 suncat0110 pw.x -in pw.inp   Done                     12/27/2018 22:08:13
00017 suncat0110 pw.x -in pw.inp   Done                     12/27/2018 22:08:13
00018 suncat0110 pw.x -in pw.inp   Done                     12/27/2018 22:08:13
00019 suncat0110 pw.x -in pw.inp   Done                     12/27/2018 22:08:13
00020 suncat0110 pw.x -in pw.inp   Done                     12/27/2018 22:08:13
00021 suncat0110 pw.x -in pw.inp   Done                     12/27/2018 22:08:13
00022 suncat0110 pw.x -in pw.inp   Done                     12/27/2018 22:08:13
00023 suncat0110 pw.x -in pw.inp   Done                     12/27/2018 22:08:13
00024 suncat0109 pw.x -in pw.inp   Done                     12/27/2018 22:08:13
00025 suncat0109 pw.x -in pw.inp   Done                     12/27/2018 22:08:13
00026 suncat0109 pw.x -in pw.inp   Done                     12/27/2018 22:08:13
00027 suncat0109 pw.x -in pw.inp   Done                     12/27/2018 22:08:13
00028 suncat0109 pw.x -in pw.inp   Done                     12/27/2018 22:08:13
00029 suncat0109 pw.x -in pw.inp   Done                     12/27/2018 22:08:13
00030 suncat0109 pw.x -in pw.inp   Done                     12/27/2018 22:08:13
00031 suncat0109 pw.x -in pw.inp   Done                     12/27/2018 22:08:13
00032 suncat0262 pw.x -in pw.inp   Done                     12/27/2018 22:08:13
00033 suncat0262 pw.x -in pw.inp   Done                     12/27/2018 22:08:13
00034 suncat0262 pw.x -in pw.inp   Done                     12/27/2018 22:08:13
00035 suncat0262 pw.x -in pw.inp   Done                     12/27/2018 22:08:13
00036 suncat0262 pw.x -in pw.inp   Done                     12/27/2018 22:08:13
00037 suncat0262 pw.x -in pw.inp   Done                     12/27/2018 22:08:13
00038 suncat0262 pw.x -in pw.inp   Done                     12/27/2018 22:08:13
00039 suncat0262 pw.x -in pw.inp   Done                     12/27/2018 22:08:13
00040 suncat0258 pw.x -in pw.inp   Done                     12/27/2018 22:08:13
00041 suncat0258 pw.x -in pw.inp   Done                     12/27/2018 22:08:13
00042 suncat0258 pw.x -in pw.inp   Done                     12/27/2018 22:08:13
00043 suncat0258 pw.x -in pw.inp   Done                     12/27/2018 22:08:13
00044 suncat0258 pw.x -in pw.inp   Done                     12/27/2018 22:08:13
00045 suncat0258 pw.x -in pw.inp   Done                     12/27/2018 22:08:13
00046 suncat0258 pw.x -in pw.inp   Done                     12/27/2018 22:08:13
00047 suncat0258 pw.x -in pw.inp   Done                     12/27/2018 22:08:13
00048 suncat0257 pw.x -in pw.inp   Done                     12/27/2018 22:08:13
00049 suncat0257 pw.x -in pw.inp   Done                     12/27/2018 22:08:13
00050 suncat0257 pw.x -in pw.inp   Done                     12/27/2018 22:08:13
00051 suncat0257 pw.x -in pw.inp   Done                     12/27/2018 22:08:13
00052 suncat0257 pw.x -in pw.inp   Done                     12/27/2018 22:08:13
00053 suncat0257 pw.x -in pw.inp   Done                     12/27/2018 22:08:13
00054 suncat0257 pw.x -in pw.inp   Done                     12/27/2018 22:08:13
00055 suncat0257 pw.x -in pw.inp   Done                     12/27/2018 22:08:13
00056 suncat0251 pw.x -in pw.inp   Done                     12/27/2018 22:08:13
00057 suncat0251 pw.x -in pw.inp   Done                     12/27/2018 22:08:13
00058 suncat0251 pw.x -in pw.inp   Done                     12/27/2018 22:08:13
00059 suncat0251 pw.x -in pw.inp   Done                     12/27/2018 22:08:13
00060 suncat0251 pw.x -in pw.inp   Done                     12/27/2018 22:08:13
00061 suncat0251 pw.x -in pw.inp   Done                     12/27/2018 22:08:13
00062 suncat0251 pw.x -in pw.inp   Done                     12/27/2018 22:08:13
00063 suncat0251 pw.x -in pw.inp   Done                     12/27/2018 22:08:13
