  python dir          : /u/if/mamunm/src/espresso
  espresso dir        : /nfs/slac/g/suncatfs/sw/espv18/espresso-dynpy-beef/bin
  pseudo dir          : /afs/slac.stanford.edu/u/if/mamunm/psp/gbrv1.5pbe
  ase-espresso py git : GITVERSION



     Program PWSCF v.5.1rc2 (svn rev. 11289) starts on 19Dec2018 at 16:20:50 

     This program is part of the open-source Quantum ESPRESSO suite
     for quantum simulation of materials; please cite
         "P. Giannozzi et al., J. Phys.:Condens. Matter 21 395502 (2009);
          URL http://www.quantum-espresso.org", 
     in publications or presentations arising from this work. More details at
     http://www.quantum-espresso.org/quote

     Parallel version (MPI), running on    64 processors
     R & G space division:  proc/nbgrp/npool/nimage =      64
     Reading input from pw.inp
     Message from routine read_cards :
     DEPRECATED: no units specified in CELL_PARAMETERS card

     Current dimensions of program PWSCF are:
     Max number of different atomic species (ntypx) = 10
     Max number of k-points (npk) =  40000
     Max angular momentum in pseudopotentials (lmaxx) =  3
     Presently stress not available with electric field


     **************************************************************************
     Initializing libbeef V0.1.1 with the BEEF-vdW functional.
     Citation: Wellendorff et al., PRB 85, 235149 (2012).
     **************************************************************************


     IMPORTANT: XC functional enforced from input :
     Exchange-correlation      = BEEF-VDW ( 1  4 27 13 2)
     Any further DFT definition will be discarded
     Please, verify this is what you really want


     Subspace diagonalization in iterative solution of the eigenvalue problem:
     a serial algorithm will be used

 
     Parallelization info
     --------------------
     sticks:   dense  smooth     PW     G-vecs:    dense   smooth      PW
     Min          49      19      5                 9477     2372     371
     Max          50      20      6                 9496     2422     400
     Sum        3193    1273    379               607259   153781   25065
 


     bravais-lattice index     =            0
     lattice parameter (alat)  =       1.8897  a.u.
     unit-cell volume          =    5104.5628 (a.u.)^3
     number of atoms/cell      =           12
     number of atomic types    =            2
     number of electrons       =       207.00
     number of Kohn-Sham states=          133
     kinetic-energy cutoff     =      36.7493  Ry
     charge density cutoff     =     367.4932  Ry
     convergence threshold     =      1.0E-06
     mixing beta               =       0.1000
     number of iterations used =           10  plain     mixing
     Exchange-correlation      = BEEF-VDW ( 1  4 27 13 2)
     nstep                     =           50


     celldm(1)=   1.889726  celldm(2)=   0.000000  celldm(3)=   0.000000
     celldm(4)=   0.000000  celldm(5)=   0.000000  celldm(6)=   0.000000

     crystal axes: (cart. coord. in units of alat)
               a(1) = (   5.929617   0.000000   0.000000 )  
               a(2) = (  -2.964809   5.135199   0.000000 )  
               a(3) = (   0.000000   0.000000  24.841512 )  

     reciprocal axes: (cart. coord. in units 2 pi/alat)
               b(1) = (  0.168645  0.097367  0.000000 )  
               b(2) = (  0.000000  0.194734  0.000000 )  
               b(3) = (  0.000000  0.000000  0.040255 )  


     PseudoPot. # 1 for Ag read from file:
     /afs/slac.stanford.edu/u/if/mamunm/psp/gbrv1.5pbe/Ag.UPF
     MD5 check sum: d66d668201baa78d5eb5b04ef7011058
     Pseudo is Ultrasoft + core correction, Zval = 19.0
     Generated by new atomic code, or converted to UPF format
     Using radial grid of  887 points,  6 beta functions with: 
                l(1) =   0
                l(2) =   0
                l(3) =   1
                l(4) =   1
                l(5) =   2
                l(6) =   2
     Q(r) pseudized with  6 coefficients,  rinner =    1.300   1.300   1.300
                                                       1.300   1.300

     PseudoPot. # 2 for Ti read from file:
     /afs/slac.stanford.edu/u/if/mamunm/psp/gbrv1.5pbe/Ti.UPF
     MD5 check sum: 88a00a6731bd790ddea75d31a80cb452
     Pseudo is Ultrasoft + core correction, Zval = 12.0
     Generated by new atomic code, or converted to UPF format
     Using radial grid of  851 points,  6 beta functions with: 
                l(1) =   0
                l(2) =   0
                l(3) =   1
                l(4) =   1
                l(5) =   2
                l(6) =   2
     Q(r) pseudized with  6 coefficients,  rinner =    1.000   1.000   1.000
                                                       1.000   1.000

     vdW kernel table read from file vdW_kernel_table
     MD5 check sum: 095c7af220d748ca6e76c0b4c6cfb241

     atomic species   valence    mass     pseudopotential
        Ag1           19.00   107.86820     Ag( 1.00)
        Ti1           12.00    47.86700     Ti( 1.00)

     No symmetry found



   Cartesian axes

     site n.     atom                  positions (alat units)
         1           Ag1 tau(   1) = (   0.0000000   0.0000000  10.0000000  )
         2           Ag1 tau(   2) = (  -1.4824043   2.5675995  10.0000000  )
         3           Ag1 tau(   3) = (   1.4824043   2.5675995  10.0000000  )
         4           Ti1 tau(   4) = (   2.9648085   0.0000000  10.0000000  )
         5           Ag1 tau(   5) = (   2.9648085   1.7117330  12.4207560  )
         6           Ag1 tau(   6) = (   1.4824043   4.2793325  12.4207560  )
         7           Ag1 tau(   7) = (  -1.4824043   4.2793325  12.4207560  )
         8           Ti1 tau(   8) = (   0.0000000   1.7117330  12.4207560  )
         9           Ag1 tau(   9) = (  -0.0000000   3.4234660  14.8415120  )
        10           Ag1 tau(  10) = (   1.4824043   0.8558665  14.8415120  )
        11           Ag1 tau(  11) = (   4.4472128   0.8558665  14.8415120  )
        12           Ti1 tau(  12) = (   2.9648085   3.4234660  14.8415120  )

     number of k points=    20  Fermi-Dirac smearing, width (Ry)=  0.0110
                       cart. coord. in units 2pi/alat
        k(    1) = (   0.0000000   0.0000000   0.0000000), wk =   0.0555556
        k(    2) = (   0.0000000   0.0324557   0.0000000), wk =   0.1111111
        k(    3) = (   0.0000000   0.0649115   0.0000000), wk =   0.1111111
        k(    4) = (   0.0000000  -0.0973672   0.0000000), wk =   0.0555556
        k(    5) = (   0.0281075   0.0162279   0.0000000), wk =   0.1111111
        k(    6) = (   0.0281075   0.0486836   0.0000000), wk =   0.1111111
        k(    7) = (   0.0281075   0.0811393   0.0000000), wk =   0.1111111
        k(    8) = (   0.0281075  -0.0811393   0.0000000), wk =   0.1111111
        k(    9) = (   0.0281075  -0.0486836   0.0000000), wk =   0.1111111
        k(   10) = (   0.0281075  -0.0162279   0.0000000), wk =   0.1111111
        k(   11) = (   0.0562150   0.0324557   0.0000000), wk =   0.1111111
        k(   12) = (   0.0562150   0.0649115   0.0000000), wk =   0.1111111
        k(   13) = (   0.0562150   0.0973672   0.0000000), wk =   0.1111111
        k(   14) = (   0.0562150  -0.0649115   0.0000000), wk =   0.1111111
        k(   15) = (   0.0562150  -0.0324557   0.0000000), wk =   0.1111111
        k(   16) = (   0.0562150   0.0000000   0.0000000), wk =   0.1111111
        k(   17) = (  -0.0843225  -0.0486836   0.0000000), wk =   0.0555556
        k(   18) = (  -0.0843225  -0.0162279   0.0000000), wk =   0.1111111
        k(   19) = (  -0.0843225   0.0162279   0.0000000), wk =   0.1111111
        k(   20) = (  -0.0843225  -0.1460508   0.0000000), wk =   0.0555556

     Dense  grid:   607259 G-vectors     FFT dimensions: (  72,  72, 288)

     Smooth grid:   153781 G-vectors     FFT dimensions: (  45,  45, 192)

     Largest allocated arrays     est. size (Mb)     dimensions
        Kohn-Sham Wavefunctions         0.73 Mb     (     362,  133)
        NL pseudopotentials             1.19 Mb     (     362,  216)
        Each V/rho on FFT grid          0.40 Mb     (   25920)
        Each G-vector array             0.07 Mb     (    9492)
        G-vector shells                 0.04 Mb     (    4771)
     Largest temporary arrays     est. size (Mb)     dimensions
        Auxiliary wavefunctions         2.94 Mb     (     362,  532)
        Each subspace H/S matrix        4.32 Mb     (     532,  532)
        Each <psi_i|beta_j> matrix      0.44 Mb     (     216,  133)
        Arrays for rho mixing           3.96 Mb     (   25920,   10)

     Check: negative/imaginary core charge=   -0.000003    0.000000

     Initial potential from superposition of free atoms
     Check: negative starting charge=   -0.004580

     starting charge  199.49944, renormalised to  207.00000

     negative rho (up, down):  4.752E-03 0.000E+00


     ************************************************************************
     *
     * You are using vdW-DF for exchange-correlation in this calculation.
     * Please cite the following three references that made this development
     * possible:
     *
     *   M. Dion, H. Rydberg, E. Schroder, D. C. Langreth, and
     *   B. I. Lundqvist, Phys. Rev. Lett. 92, 246401 (2004).
     *
     *   T. Thonhauser, V. R. Cooper, S. Li, A. Puzder, P. Hyldgaard, and
     *   D. C. Langreth, Phys. Rev. B 76, 125112 (2007).
     *
     *   G. Roman-Perez and J. M. Soler, Phys. Rev. Lett. 103, 096102 (2009).
     *
     *
     * If you are using vdW-DF2, please also cite:
     *
     *   K. Lee, E. D. Murray, L. Kong, B. I. Lundqvist, and
     *   D. C. Langreth, Phys. Rev. B 82, 081101(R) (2010).
     *
     *
     * If you are calculating the stress with vdW-DF, please also cite:
     *
     *   R. Sabatini, E. Kucukbenli, B. Kolb, T. Thonhauser, and
     *   S. de Gironcoli, J. Phys.: Condens. Matter 24, 424209 (2012).
     *
     ************************************************************************

     Carrying out vdW-DF run using the following parameters:

     Nqs =      20    Nr_points =    1024   r_max =   100.000
     q_mesh =
               0.00001000     0.04494208     0.09755937     0.15916263
               0.23128650     0.31572767     0.41458969     0.53033537
               0.66584808     0.82450364     1.01025438     1.22772762
               1.48234092     1.78043706     2.12944203     2.53805004
               3.01644009     3.57652955     4.23227104     5.00000000

     Gradients computed in reciprocal space

     ************************************************************************


 
     Adding external electric field

     Computed dipole along edir(3) : 
        Dipole                0.0000 Ry au,          0.0000 Debye
        Dipole field          0.0000 Ry au
 
        Potential amp.       -0.0000 Ry
        Total length         45.7701 bohr
 
     Starting wfc are  147 randomized atomic wfcs

     total cpu time spent up to now is       18.4 secs

     per-process dynamical memory:    43.4 Mb

     Self-consistent Calculation

     iteration #  1     ecut=    36.75 Ry     beta=0.10
     Davidson diagonalization with overlap
     ethr =  1.00E-02,  avg # of iterations =  7.3

     negative rho (up, down):  1.781E-03 0.000E+00
 
     Adding external electric field

     Computed dipole along edir(3) : 
        Dipole               -0.0075 Ry au,         -0.0191 Debye
        Dipole field         -0.0000 Ry au
 
        Potential amp.        0.0017 Ry
        Total length         45.7701 bohr
 

     total cpu time spent up to now is      101.8 secs

     total energy              =   -3013.36195595 Ry
     Harris-Foulkes estimate   =   -3042.79319028 Ry
     estimated scf accuracy    <     163.65943537 Ry

     iteration #  2     ecut=    36.75 Ry     beta=0.10
     Davidson diagonalization with overlap
     ethr =  1.00E-02,  avg # of iterations =  3.0

     negative rho (up, down):  1.967E-03 0.000E+00
 
     Adding external electric field

     Computed dipole along edir(3) : 
        Dipole               -0.0017 Ry au,         -0.0044 Debye
        Dipole field         -0.0000 Ry au
 
        Potential amp.        0.0004 Ry
        Total length         45.7701 bohr
 

     total cpu time spent up to now is      158.9 secs

     total energy              =   -3030.41000547 Ry
     Harris-Foulkes estimate   =   -3031.65429204 Ry
     estimated scf accuracy    <       8.38943934 Ry

     iteration #  3     ecut=    36.75 Ry     beta=0.10
     Davidson diagonalization with overlap
     ethr =  4.05E-03,  avg # of iterations =  1.0

     negative rho (up, down):  3.090E-03 0.000E+00
 
     Adding external electric field

     Computed dipole along edir(3) : 
        Dipole               -0.0437 Ry au,         -0.1112 Debye
        Dipole field         -0.0001 Ry au
 
        Potential amp.        0.0099 Ry
        Total length         45.7701 bohr
 

     total cpu time spent up to now is      201.1 secs

     total energy              =   -3027.41791285 Ry
     Harris-Foulkes estimate   =   -3030.49336432 Ry
     estimated scf accuracy    <       5.24378549 Ry

     iteration #  4     ecut=    36.75 Ry     beta=0.10
     Davidson diagonalization with overlap
     ethr =  2.53E-03,  avg # of iterations =  3.1

     negative rho (up, down):  3.087E-03 0.000E+00
 
     Adding external electric field

     Computed dipole along edir(3) : 
        Dipole               -0.0283 Ry au,         -0.0719 Debye
        Dipole field         -0.0001 Ry au
 
        Potential amp.        0.0064 Ry
        Total length         45.7701 bohr
 

     total cpu time spent up to now is      262.7 secs

     total energy              =   -3031.30554152 Ry
     Harris-Foulkes estimate   =   -3032.44323105 Ry
     estimated scf accuracy    <      62.53688672 Ry

     iteration #  5     ecut=    36.75 Ry     beta=0.10
     Davidson diagonalization with overlap
     ethr =  2.53E-03,  avg # of iterations =  1.0

     negative rho (up, down):  3.267E-03 0.000E+00
 
     Adding external electric field

     Computed dipole along edir(3) : 
        Dipole               -0.0235 Ry au,         -0.0596 Debye
        Dipole field         -0.0001 Ry au
 
        Potential amp.        0.0053 Ry
        Total length         45.7701 bohr
 

     total cpu time spent up to now is      301.7 secs

     total energy              =   -3031.18280824 Ry
     Harris-Foulkes estimate   =   -3031.37883557 Ry
     estimated scf accuracy    <      44.34695906 Ry

     iteration #  6     ecut=    36.75 Ry     beta=0.10
     Davidson diagonalization with overlap
     ethr =  2.53E-03,  avg # of iterations =  1.0

     negative rho (up, down):  3.463E-03 0.000E+00
 
     Adding external electric field

     Computed dipole along edir(3) : 
        Dipole               -0.0568 Ry au,         -0.1444 Debye
        Dipole field         -0.0001 Ry au
 
        Potential amp.        0.0128 Ry
        Total length         45.7701 bohr
 

     total cpu time spent up to now is      340.3 secs

     total energy              =   -3031.02468939 Ry
     Harris-Foulkes estimate   =   -3031.18895763 Ry
     estimated scf accuracy    <      39.95784334 Ry

     iteration #  7     ecut=    36.75 Ry     beta=0.10
     Davidson diagonalization with overlap
     ethr =  2.53E-03,  avg # of iterations =  1.0

     negative rho (up, down):  3.458E-03 0.000E+00
 
     Adding external electric field

     Computed dipole along edir(3) : 
        Dipole               -0.0073 Ry au,         -0.0186 Debye
        Dipole field         -0.0000 Ry au
 
        Potential amp.        0.0016 Ry
        Total length         45.7701 bohr
 

     total cpu time spent up to now is      378.6 secs

     total energy              =   -3029.47997121 Ry
     Harris-Foulkes estimate   =   -3031.03029768 Ry
     estimated scf accuracy    <      36.31473127 Ry

     iteration #  8     ecut=    36.75 Ry     beta=0.10
     Davidson diagonalization with overlap
     ethr =  2.53E-03,  avg # of iterations =  1.0

     negative rho (up, down):  3.183E-03 0.000E+00
 
     Adding external electric field

     Computed dipole along edir(3) : 
        Dipole               -0.0019 Ry au,         -0.0048 Debye
        Dipole field         -0.0000 Ry au
 
        Potential amp.        0.0004 Ry
        Total length         45.7701 bohr
 

     total cpu time spent up to now is      413.8 secs

     total energy              =   -3029.05061666 Ry
     Harris-Foulkes estimate   =   -3029.88894371 Ry
     estimated scf accuracy    <       8.59868799 Ry

     iteration #  9     ecut=    36.75 Ry     beta=0.10
     Davidson diagonalization with overlap
     ethr =  2.53E-03,  avg # of iterations =  2.0

     negative rho (up, down):  2.960E-03 0.000E+00
 
     Adding external electric field

     Computed dipole along edir(3) : 
        Dipole               -0.0090 Ry au,         -0.0229 Debye
        Dipole field         -0.0000 Ry au
 
        Potential amp.        0.0020 Ry
        Total length         45.7701 bohr
 

     total cpu time spent up to now is      452.9 secs

     total energy              =   -3029.26005028 Ry
     Harris-Foulkes estimate   =   -3029.38089395 Ry
     estimated scf accuracy    <       1.38379953 Ry

     iteration # 10     ecut=    36.75 Ry     beta=0.10
     Davidson diagonalization with overlap
     ethr =  6.69E-04,  avg # of iterations =  2.1

     negative rho (up, down):  3.006E-03 0.000E+00
 
     Adding external electric field

     Computed dipole along edir(3) : 
        Dipole               -0.0059 Ry au,         -0.0150 Debye
        Dipole field         -0.0000 Ry au
 
        Potential amp.        0.0013 Ry
        Total length         45.7701 bohr
 

     total cpu time spent up to now is      495.9 secs

     total energy              =   -3029.40955967 Ry
     Harris-Foulkes estimate   =   -3029.38341050 Ry
     estimated scf accuracy    <       1.37741538 Ry

     iteration # 11     ecut=    36.75 Ry     beta=0.10
     Davidson diagonalization with overlap
     ethr =  6.65E-04,  avg # of iterations =  1.0

     negative rho (up, down):  3.047E-03 0.000E+00
 
     Adding external electric field

     Computed dipole along edir(3) : 
        Dipole                0.0008 Ry au,          0.0020 Debye
        Dipole field          0.0000 Ry au
 
        Potential amp.       -0.0002 Ry
        Total length         45.7701 bohr
 

     total cpu time spent up to now is      535.0 secs

     total energy              =   -3029.41154900 Ry
     Harris-Foulkes estimate   =   -3029.42362893 Ry
     estimated scf accuracy    <       2.47749004 Ry

     iteration # 12     ecut=    36.75 Ry     beta=0.10
     Davidson diagonalization with overlap
     ethr =  6.65E-04,  avg # of iterations =  1.0

     negative rho (up, down):  3.211E-03 0.000E+00
 
     Adding external electric field

     Computed dipole along edir(3) : 
        Dipole                0.0052 Ry au,          0.0131 Debye
        Dipole field          0.0000 Ry au
 
        Potential amp.       -0.0012 Ry
        Total length         45.7701 bohr
 

     total cpu time spent up to now is      574.1 secs

     total energy              =   -3029.36362098 Ry
     Harris-Foulkes estimate   =   -3029.41424725 Ry
     estimated scf accuracy    <       2.36307806 Ry

     iteration # 13     ecut=    36.75 Ry     beta=0.10
     Davidson diagonalization with overlap
     ethr =  6.65E-04,  avg # of iterations =  1.0

     negative rho (up, down):  3.108E-03 0.000E+00
 
     Adding external electric field

     Computed dipole along edir(3) : 
        Dipole               -0.0005 Ry au,         -0.0013 Debye
        Dipole field         -0.0000 Ry au
 
        Potential amp.        0.0001 Ry
        Total length         45.7701 bohr
 

     total cpu time spent up to now is      614.9 secs

     total energy              =   -3029.39754715 Ry
     Harris-Foulkes estimate   =   -3029.40647089 Ry
     estimated scf accuracy    <       1.17326181 Ry

     iteration # 14     ecut=    36.75 Ry     beta=0.10
     Davidson diagonalization with overlap
     ethr =  5.67E-04,  avg # of iterations =  1.0

     negative rho (up, down):  3.183E-03 0.000E+00
 
     Adding external electric field

     Computed dipole along edir(3) : 
        Dipole                0.0108 Ry au,          0.0274 Debye
        Dipole field          0.0000 Ry au
 
        Potential amp.       -0.0024 Ry
        Total length         45.7701 bohr
 

     total cpu time spent up to now is      655.3 secs

     total energy              =   -3029.32832132 Ry
     Harris-Foulkes estimate   =   -3029.39883256 Ry
     estimated scf accuracy    <       0.96358806 Ry

     iteration # 15     ecut=    36.75 Ry     beta=0.10
     Davidson diagonalization with overlap
     ethr =  4.66E-04,  avg # of iterations =  1.0

     negative rho (up, down):  3.115E-03 0.000E+00
 
     Adding external electric field

     Computed dipole along edir(3) : 
        Dipole                0.0088 Ry au,          0.0223 Debye
        Dipole field          0.0000 Ry au
 
        Potential amp.       -0.0020 Ry
        Total length         45.7701 bohr
 

     total cpu time spent up to now is      695.1 secs

     total energy              =   -3029.36992370 Ry
     Harris-Foulkes estimate   =   -3029.34629577 Ry
     estimated scf accuracy    <       0.58788759 Ry

     iteration # 16     ecut=    36.75 Ry     beta=0.10
     Davidson diagonalization with overlap
     ethr =  2.84E-04,  avg # of iterations =  1.0

     negative rho (up, down):  3.219E-03 0.000E+00
 
     Adding external electric field

     Computed dipole along edir(3) : 
        Dipole                0.0142 Ry au,          0.0361 Debye
        Dipole field          0.0000 Ry au
 
        Potential amp.       -0.0032 Ry
        Total length         45.7701 bohr
 

     total cpu time spent up to now is      735.8 secs

     total energy              =   -3029.31644155 Ry
     Harris-Foulkes estimate   =   -3029.37657942 Ry
     estimated scf accuracy    <       1.06309673 Ry

     iteration # 17     ecut=    36.75 Ry     beta=0.10
     Davidson diagonalization with overlap
     ethr =  2.84E-04,  avg # of iterations =  1.1

     negative rho (up, down):  3.407E-03 0.000E+00
 
     Adding external electric field

     Computed dipole along edir(3) : 
        Dipole                0.0003 Ry au,          0.0008 Debye
        Dipole field          0.0000 Ry au
 
        Potential amp.       -0.0001 Ry
        Total length         45.7701 bohr
 

     total cpu time spent up to now is      776.2 secs

     total energy              =   -3029.29277950 Ry
     Harris-Foulkes estimate   =   -3029.32708281 Ry
     estimated scf accuracy    <       0.30906124 Ry

     iteration # 18     ecut=    36.75 Ry     beta=0.10
     Davidson diagonalization with overlap
     ethr =  1.49E-04,  avg # of iterations =  2.1

     negative rho (up, down):  3.390E-03 0.000E+00
 
     Adding external electric field

     Computed dipole along edir(3) : 
        Dipole                0.0001 Ry au,          0.0002 Debye
        Dipole field          0.0000 Ry au
 
        Potential amp.       -0.0000 Ry
        Total length         45.7701 bohr
 

     total cpu time spent up to now is      819.4 secs

     total energy              =   -3029.31497706 Ry
     Harris-Foulkes estimate   =   -3029.31571720 Ry
     estimated scf accuracy    <       0.32788053 Ry

     iteration # 19     ecut=    36.75 Ry     beta=0.10
     Davidson diagonalization with overlap
     ethr =  1.49E-04,  avg # of iterations =  1.0

     negative rho (up, down):  3.518E-03 0.000E+00
 
     Adding external electric field

     Computed dipole along edir(3) : 
        Dipole               -0.0107 Ry au,         -0.0271 Debye
        Dipole field         -0.0000 Ry au
 
        Potential amp.        0.0024 Ry
        Total length         45.7701 bohr
 

     total cpu time spent up to now is      857.6 secs

     total energy              =   -3029.31354208 Ry
     Harris-Foulkes estimate   =   -3029.31509752 Ry
     estimated scf accuracy    <       0.27512717 Ry

     iteration # 20     ecut=    36.75 Ry     beta=0.10
     Davidson diagonalization with overlap
     ethr =  1.33E-04,  avg # of iterations =  1.0

     negative rho (up, down):  3.433E-03 0.000E+00
 
     Adding external electric field

     Computed dipole along edir(3) : 
        Dipole                0.0017 Ry au,          0.0043 Debye
        Dipole field          0.0000 Ry au
 
        Potential amp.       -0.0004 Ry
        Total length         45.7701 bohr
 

     total cpu time spent up to now is      896.8 secs

     total energy              =   -3029.31047507 Ry
     Harris-Foulkes estimate   =   -3029.31391149 Ry
     estimated scf accuracy    <       0.16977192 Ry

     iteration # 21     ecut=    36.75 Ry     beta=0.10
     Davidson diagonalization with overlap
     ethr =  8.20E-05,  avg # of iterations =  2.5

     negative rho (up, down):  3.526E-03 0.000E+00
 
     Adding external electric field

     Computed dipole along edir(3) : 
        Dipole                0.0002 Ry au,          0.0004 Debye
        Dipole field          0.0000 Ry au
 
        Potential amp.       -0.0000 Ry
        Total length         45.7701 bohr
 

     total cpu time spent up to now is      940.9 secs

     total energy              =   -3029.31128563 Ry
     Harris-Foulkes estimate   =   -3029.31179676 Ry
     estimated scf accuracy    <       0.01103828 Ry

     iteration # 22     ecut=    36.75 Ry     beta=0.10
     Davidson diagonalization with overlap
     ethr =  5.33E-06,  avg # of iterations =  6.2

     negative rho (up, down):  3.527E-03 0.000E+00
 
     Adding external electric field

     Computed dipole along edir(3) : 
        Dipole               -0.0004 Ry au,         -0.0010 Debye
        Dipole field         -0.0000 Ry au
 
        Potential amp.        0.0001 Ry
        Total length         45.7701 bohr
 

     total cpu time spent up to now is      996.4 secs

     total energy              =   -3029.31163454 Ry
     Harris-Foulkes estimate   =   -3029.31172483 Ry
     estimated scf accuracy    <       0.00682611 Ry

     iteration # 23     ecut=    36.75 Ry     beta=0.10
     Davidson diagonalization with overlap
     ethr =  3.30E-06,  avg # of iterations =  1.0

     negative rho (up, down):  3.564E-03 0.000E+00
 
     Adding external electric field

     Computed dipole along edir(3) : 
        Dipole               -0.0006 Ry au,         -0.0015 Debye
        Dipole field         -0.0000 Ry au
 
        Potential amp.        0.0001 Ry
        Total length         45.7701 bohr
 

     total cpu time spent up to now is     1036.9 secs

     total energy              =   -3029.31147401 Ry
     Harris-Foulkes estimate   =   -3029.31168448 Ry
     estimated scf accuracy    <       0.00212137 Ry

     iteration # 24     ecut=    36.75 Ry     beta=0.10
     Davidson diagonalization with overlap
     ethr =  1.02E-06,  avg # of iterations =  2.0

     negative rho (up, down):  3.579E-03 0.000E+00
 
     Adding external electric field

     Computed dipole along edir(3) : 
        Dipole               -0.0003 Ry au,         -0.0008 Debye
        Dipole field         -0.0000 Ry au
 
        Potential amp.        0.0001 Ry
        Total length         45.7701 bohr
 

     total cpu time spent up to now is     1079.9 secs

     total energy              =   -3029.31053112 Ry
     Harris-Foulkes estimate   =   -3029.31181415 Ry
     estimated scf accuracy    <       0.01020213 Ry

     iteration # 25     ecut=    36.75 Ry     beta=0.10
     Davidson diagonalization with overlap
     ethr =  1.02E-06,  avg # of iterations =  1.0

     negative rho (up, down):  3.606E-03 0.000E+00
 
     Adding external electric field

     Computed dipole along edir(3) : 
        Dipole                0.0001 Ry au,          0.0003 Debye
        Dipole field          0.0000 Ry au
 
        Potential amp.       -0.0000 Ry
        Total length         45.7701 bohr
 

     total cpu time spent up to now is     1121.0 secs

     total energy              =   -3029.31162835 Ry
     Harris-Foulkes estimate   =   -3029.31061624 Ry
     estimated scf accuracy    <       0.00093344 Ry

     iteration # 26     ecut=    36.75 Ry     beta=0.10
     Davidson diagonalization with overlap
     ethr =  4.51E-07,  avg # of iterations =  1.2

     negative rho (up, down):  3.599E-03 0.000E+00
 
     Adding external electric field

     Computed dipole along edir(3) : 
        Dipole                0.0004 Ry au,          0.0009 Debye
        Dipole field          0.0000 Ry au
 
        Potential amp.       -0.0001 Ry
        Total length         45.7701 bohr
 

     total cpu time spent up to now is     1162.5 secs

     total energy              =   -3029.30985404 Ry
     Harris-Foulkes estimate   =   -3029.31166080 Ry
     estimated scf accuracy    <       0.00025734 Ry

     iteration # 27     ecut=    36.75 Ry     beta=0.10
     Davidson diagonalization with overlap
     ethr =  1.24E-07,  avg # of iterations =  1.0

     negative rho (up, down):  3.609E-03 0.000E+00
 
     Adding external electric field

     Computed dipole along edir(3) : 
        Dipole                0.0001 Ry au,          0.0002 Debye
        Dipole field          0.0000 Ry au
 
        Potential amp.       -0.0000 Ry
        Total length         45.7701 bohr
 

     total cpu time spent up to now is     1203.5 secs

     total energy              =   -3029.31060692 Ry
     Harris-Foulkes estimate   =   -3029.30986173 Ry
     estimated scf accuracy    <       0.00003130 Ry

     iteration # 28     ecut=    36.75 Ry     beta=0.10
     Davidson diagonalization with overlap
     ethr =  1.51E-08,  avg # of iterations =  1.1

     negative rho (up, down):  3.605E-03 0.000E+00
 
     Adding external electric field

     Computed dipole along edir(3) : 
        Dipole               -0.0000 Ry au,         -0.0001 Debye
        Dipole field         -0.0000 Ry au
 
        Potential amp.        0.0000 Ry
        Total length         45.7701 bohr
 

     total cpu time spent up to now is     1244.9 secs

     total energy              =   -3029.31060759 Ry
     Harris-Foulkes estimate   =   -3029.31060796 Ry
     estimated scf accuracy    <       0.00000407 Ry

     iteration # 29     ecut=    36.75 Ry     beta=0.10
     Davidson diagonalization with overlap
     ethr =  1.97E-09,  avg # of iterations =  1.0

     negative rho (up, down):  3.603E-03 0.000E+00
 
     Adding external electric field

     Computed dipole along edir(3) : 
        Dipole               -0.0001 Ry au,         -0.0001 Debye
        Dipole field         -0.0000 Ry au
 
        Potential amp.        0.0000 Ry
        Total length         45.7701 bohr
 

     total cpu time spent up to now is     1286.1 secs

     total energy              =   -3029.31060784 Ry
     Harris-Foulkes estimate   =   -3029.31060782 Ry
     estimated scf accuracy    <       0.00000146 Ry

     iteration # 30     ecut=    36.75 Ry     beta=0.10
     Davidson diagonalization with overlap
     ethr =  7.06E-10,  avg # of iterations =  1.0

     negative rho (up, down):  3.589E-03 0.000E+00

     negative rho (up, down):  3.589E-03 0.000E+00

     negative rho (up, down):  3.589E-03 0.000E+00

     negative rho (up, down):  3.589E-03 0.000E+00

     negative rho (up, down):  3.589E-03 0.000E+00

     negative rho (up, down):  3.589E-03 0.000E+00

     negative rho (up, down):  3.589E-03 0.000E+00

     negative rho (up, down):  3.589E-03 0.000E+00

     negative rho (up, down):  3.589E-03 0.000E+00

     negative rho (up, down):  3.589E-03 0.000E+00

     negative rho (up, down):  3.589E-03 0.000E+00

     negative rho (up, down):  3.589E-03 0.000E+00

     negative rho (up, down):  3.589E-03 0.000E+00

     negative rho (up, down):  3.589E-03 0.000E+00

     negative rho (up, down):  3.589E-03 0.000E+00

     negative rho (up, down):  3.589E-03 0.000E+00

     negative rho (up, down):  3.589E-03 0.000E+00

     negative rho (up, down):  3.589E-03 0.000E+00

     negative rho (up, down):  3.589E-03 0.000E+00

     negative rho (up, down):  3.589E-03 0.000E+00

     negative rho (up, down):  3.589E-03 0.000E+00

     negative rho (up, down):  3.589E-03 0.000E+00

     negative rho (up, down):  3.589E-03 0.000E+00

     negative rho (up, down):  3.589E-03 0.000E+00

     negative rho (up, down):  3.589E-03 0.000E+00

     negative rho (up, down):  3.589E-03 0.000E+00

     negative rho (up, down):  3.589E-03 0.000E+00

     negative rho (up, down):  3.589E-03 0.000E+00

     negative rho (up, down):  3.589E-03 0.000E+00

     negative rho (up, down):  3.589E-03 0.000E+00

     negative rho (up, down):  3.589E-03 0.000E+00

     negative rho (up, down):  3.589E-03 0.000E+00

     negative rho (up, down):  3.589E-03 0.000E+00

     negative rho (up, down):  3.589E-03 0.000E+00

     negative rho (up, down):  3.589E-03 0.000E+00
 
     Adding external electric field

     Computed dipole along edir(3) : 
        Dipole               -0.0007 Ry au,         -0.0018 Debye
        Dipole field         -0.0000 Ry au
 
        Potential amp.        0.0002 Ry
        Total length         45.7701 bohr
 

     total cpu time spent up to now is     1371.1 secs

     End of self-consistent calculation

          k = 0.0000 0.0000 0.0000 ( 19219 PWs)   bands (ev):

   -90.8945 -90.8888 -90.8888 -90.7691 -90.7690 -90.7633 -90.7633 -90.7633
   -90.7633 -56.4810 -56.4806 -56.4674 -54.4247 -54.4178 -54.4178 -54.3952
   -54.3952 -54.3818 -54.3539 -54.3271 -54.3271 -54.3262 -54.3262 -54.2941
   -54.2938 -54.2938 -54.2931 -54.2760 -54.2757 -54.2297 -54.2297 -54.2279
   -54.2279 -54.2074 -54.2009 -54.1737 -54.1737 -54.1722 -54.1722 -32.7641
   -32.7631 -32.6961 -32.6601 -32.6601 -32.6597 -32.6597 -32.6533 -32.6533
    -5.1483  -4.4991  -4.4542  -4.3510  -4.2929  -4.2814  -4.2814  -4.1920
    -4.1291  -4.1291  -4.1234  -4.1113  -4.1113  -3.9549  -3.9549  -3.6196
    -3.4880  -3.4880  -3.4017  -3.4017  -3.2665  -3.1711  -3.0995  -2.9916
    -2.9916  -2.8831  -2.8831  -2.8688  -2.8688  -2.7481  -2.7481  -2.6629
    -2.6437  -2.5873  -2.5873  -2.4234  -2.4234  -2.3547  -2.3547  -2.2095
    -2.2095  -2.1313  -1.9380  -1.9380  -1.8875  -1.7909  -1.7538  -0.4099
     0.8381   1.1587   1.1587   1.2098   1.2098   1.2456   1.5304   1.5304
     1.6249   1.6906   1.6906   2.0308   2.0308   2.0384   2.2492   2.2492
     2.2688   2.2688   2.3185   3.2975   3.2975   3.4079   3.4079   3.6028
     3.6162   4.7509   5.0368   5.4031   5.6949   5.6949   6.0308   6.0308
     6.2534   6.3488   6.6223   6.8357   6.8357

          k = 0.0000 0.0325 0.0000 ( 19179 PWs)   bands (ev):

   -90.8942 -90.8891 -90.8888 -90.7687 -90.7687 -90.7636 -90.7636 -90.7633
   -90.7633 -56.4811 -56.4807 -56.4675 -54.4228 -54.4169 -54.4154 -54.3963
   -54.3953 -54.3835 -54.3517 -54.3272 -54.3252 -54.3252 -54.3239 -54.2975
   -54.2972 -54.2949 -54.2927 -54.2725 -54.2722 -54.2314 -54.2298 -54.2298
   -54.2282 -54.2060 -54.2001 -54.1767 -54.1752 -54.1739 -54.1726 -32.7640
   -32.7631 -32.6961 -32.6605 -32.6603 -32.6600 -32.6598 -32.6537 -32.6534
    -4.9730  -4.4194  -4.3767  -4.2689  -4.2363  -4.1824  -4.1763  -4.1292
    -4.0893  -4.0814  -4.0663  -4.0457  -4.0201  -3.9042  -3.8473  -3.6035
    -3.4738  -3.4435  -3.4067  -3.4020  -3.2496  -3.1522  -3.0991  -3.0748
    -3.0028  -2.9743  -2.9093  -2.8727  -2.8499  -2.8149  -2.7451  -2.6674
    -2.6644  -2.6385  -2.6131  -2.5062  -2.4604  -2.3762  -2.3450  -2.2464
    -2.2364  -2.1716  -2.0447  -2.0275  -1.9811  -1.9084  -1.8436  -0.3799
    -0.1128   0.3890   0.9355   0.9776   1.3371   1.3976   1.4503   1.4582
     1.5558   1.6832   1.6882   1.8634   1.9754   2.0507   2.1016   2.1701
     2.2295   2.2840   2.6015   2.9008   2.9624   3.4168   3.9364   4.1077
     4.2137   4.8941   5.2082   5.5533   5.8325   6.1147   6.1305   6.1408
     6.3801   6.5521   6.7266   7.1493   7.2632

          k = 0.0000 0.0649 0.0000 ( 19207 PWs)   bands (ev):

   -90.8933 -90.8900 -90.8888 -90.7678 -90.7678 -90.7645 -90.7645 -90.7633
   -90.7633 -56.4813 -56.4809 -56.4677 -54.4203 -54.4124 -54.4091 -54.3996
   -54.3963 -54.3879 -54.3455 -54.3285 -54.3227 -54.3203 -54.3181 -54.3065
   -54.3024 -54.2999 -54.2928 -54.2635 -54.2633 -54.2369 -54.2357 -54.2299
   -54.2289 -54.2021 -54.1980 -54.1841 -54.1820 -54.1742 -54.1733 -32.7639
   -32.7633 -32.6962 -32.6611 -32.6608 -32.6606 -32.6599 -32.6547 -32.6535
    -4.5300  -4.2345  -4.1780  -4.1629  -4.0977  -4.0393  -3.9942  -3.9589
    -3.9387  -3.8925  -3.8832  -3.8532  -3.7890  -3.6815  -3.5936  -3.5936
    -3.4505  -3.4292  -3.4101  -3.3224  -3.2735  -3.2242  -3.1817  -3.0929
    -3.0535  -3.0176  -2.9488  -2.9347  -2.8889  -2.8186  -2.8067  -2.7804
    -2.7557  -2.7088  -2.6560  -2.6246  -2.5562  -2.4965  -2.4736  -2.4414
    -2.4002  -2.3665  -2.3060  -2.1588  -2.0651  -2.0243  -1.8569  -1.5127
    -0.5906  -0.0403   0.2081   0.8510   0.9134   1.1862   1.2796   1.4498
     1.4605   1.6047   1.6205   1.6290   1.8331   1.9370   2.0013   2.0637
     2.1840   2.2473   2.9035   2.9538   3.2961   3.5605   3.6484   4.6789
     4.9082   5.3150   5.4982   5.7197   6.0013   6.2762   6.5744   6.9715
     6.9964   7.0375   7.0702   7.5535   7.7382

          k = 0.0000-0.0974 0.0000 ( 19212 PWs)   bands (ev):

   -90.8926 -90.8907 -90.8888 -90.7671 -90.7671 -90.7652 -90.7652 -90.7633
   -90.7633 -56.4813 -56.4811 -56.4678 -54.4197 -54.4055 -54.4051 -54.4014
   -54.4013 -54.3902 -54.3400 -54.3310 -54.3205 -54.3161 -54.3133 -54.3127
   -54.3059 -54.3047 -54.2931 -54.2560 -54.2559 -54.2426 -54.2416 -54.2299
   -54.2294 -54.1977 -54.1965 -54.1899 -54.1863 -54.1744 -54.1737 -32.7638
   -32.7634 -32.6963 -32.6613 -32.6611 -32.6610 -32.6600 -32.6551 -32.6536
    -4.2704  -4.1567  -4.1164  -4.0060  -3.9781  -3.9008  -3.8629  -3.8390
    -3.8292  -3.8266  -3.7796  -3.7200  -3.6132  -3.5725  -3.5519  -3.5402
    -3.4731  -3.4442  -3.3989  -3.1970  -3.1954  -3.1559  -3.1127  -3.1042
    -3.0482  -3.0406  -3.0276  -2.9451  -2.9324  -2.9101  -2.8452  -2.8173
    -2.7888  -2.7765  -2.7493  -2.7427  -2.6383  -2.6171  -2.6060  -2.5987
    -2.5889  -2.5555  -2.4984  -2.3227  -2.2042  -2.0263  -1.8527  -1.6903
    -1.0928  -0.4287   0.4805   0.7204   0.8147   0.8348   1.2352   1.3367
     1.4990   1.5416   1.5535   1.6272   1.6640   1.8549   1.9464   2.0355
     2.2402   2.3223   2.7450   2.9759   3.4242   3.7297   4.3052   4.3727
     4.7791   5.1124   6.0011   6.0279   6.5593   6.5595   6.7511   6.7606
     7.1120   7.2974   7.4151   7.7424   7.8286

          k = 0.0281 0.0162 0.0000 ( 19179 PWs)   bands (ev):

   -90.8942 -90.8891 -90.8888 -90.7687 -90.7687 -90.7636 -90.7636 -90.7633
   -90.7633 -56.4811 -56.4807 -56.4675 -54.4228 -54.4169 -54.4154 -54.3963
   -54.3953 -54.3835 -54.3517 -54.3272 -54.3252 -54.3252 -54.3239 -54.2975
   -54.2972 -54.2949 -54.2927 -54.2725 -54.2722 -54.2314 -54.2298 -54.2298
   -54.2282 -54.2060 -54.2001 -54.1767 -54.1752 -54.1739 -54.1726 -32.7640
   -32.7631 -32.6961 -32.6605 -32.6603 -32.6600 -32.6598 -32.6537 -32.6534
    -4.9730  -4.4194  -4.3767  -4.2689  -4.2363  -4.1824  -4.1763  -4.1292
    -4.0893  -4.0814  -4.0663  -4.0457  -4.0201  -3.9042  -3.8473  -3.6035
    -3.4738  -3.4435  -3.4067  -3.4020  -3.2496  -3.1522  -3.0991  -3.0748
    -3.0028  -2.9743  -2.9093  -2.8727  -2.8499  -2.8149  -2.7451  -2.6674
    -2.6644  -2.6385  -2.6131  -2.5062  -2.4604  -2.3762  -2.3450  -2.2464
    -2.2364  -2.1716  -2.0447  -2.0275  -1.9811  -1.9084  -1.8436  -0.3799
    -0.1128   0.3890   0.9355   0.9776   1.3371   1.3976   1.4503   1.4582
     1.5558   1.6832   1.6882   1.8634   1.9754   2.0507   2.1016   2.1701
     2.2295   2.2840   2.6015   2.9008   2.9624   3.4168   3.9364   4.1077
     4.2137   4.8941   5.2082   5.5533   5.8325   6.1147   6.1305   6.1408
     6.3801   6.5521   6.7266   7.1493   7.2632

          k = 0.0281 0.0487 0.0000 ( 19201 PWs)   bands (ev):

   -90.8936 -90.8897 -90.8888 -90.7681 -90.7680 -90.7643 -90.7642 -90.7633
   -90.7633 -56.4812 -56.4809 -56.4676 -54.4197 -54.4157 -54.4104 -54.3987
   -54.3955 -54.3868 -54.3474 -54.3276 -54.3231 -54.3221 -54.3202 -54.3037
   -54.3010 -54.2983 -54.2930 -54.2662 -54.2660 -54.2349 -54.2339 -54.2299
   -54.2290 -54.2033 -54.1986 -54.1815 -54.1805 -54.1741 -54.1734 -32.7640
   -32.7633 -32.6962 -32.6610 -32.6607 -32.6602 -32.6601 -32.6543 -32.6536
    -4.6524  -4.2771  -4.2354  -4.1562  -4.1375  -4.0773  -4.0378  -4.0109
    -4.0006  -3.9593  -3.9536  -3.8798  -3.8419  -3.8167  -3.6473  -3.5910
    -3.4566  -3.4289  -3.4226  -3.3113  -3.2961  -3.1782  -3.1776  -3.0852
    -3.0423  -2.9897  -2.9659  -2.9313  -2.8735  -2.8531  -2.7679  -2.7302
    -2.7290  -2.6872  -2.6648  -2.5855  -2.5339  -2.4365  -2.4203  -2.4046
    -2.3501  -2.3045  -2.2040  -2.0772  -2.0479  -2.0282  -1.9223  -0.8294
    -0.7911   0.0094   0.3738   0.5847   1.1974   1.2509   1.3306   1.5084
     1.5456   1.5689   1.6094   1.6861   1.9439   1.9519   2.0562   2.1040
     2.1757   2.2697   2.5043   2.9301   3.6240   3.8065   3.8103   4.2267
     4.4823   5.1728   5.5470   5.8410   6.0115   6.2162   6.2342   6.5622
     6.8770   7.1215   7.1535   7.3791   7.4589

          k = 0.0281 0.0811 0.0000 ( 19211 PWs)   bands (ev):

   -90.8926 -90.8907 -90.8888 -90.7671 -90.7671 -90.7652 -90.7652 -90.7633
   -90.7633 -56.4813 -56.4811 -56.4678 -54.4174 -54.4110 -54.4040 -54.4029
   -54.3970 -54.3909 -54.3403 -54.3300 -54.3200 -54.3173 -54.3144 -54.3116
   -54.3062 -54.3041 -54.2936 -54.2565 -54.2564 -54.2415 -54.2409 -54.2301
   -54.2297 -54.1985 -54.1961 -54.1886 -54.1868 -54.1745 -54.1741 -32.7638
   -32.7634 -32.6963 -32.6614 -32.6610 -32.6609 -32.6602 -32.6549 -32.6539
    -4.2224  -4.0982  -4.0715  -4.0155  -4.0004  -3.9476  -3.8909  -3.8647
    -3.8057  -3.7725  -3.7442  -3.7072  -3.6923  -3.6299  -3.5741  -3.5290
    -3.5062  -3.4344  -3.3670  -3.3186  -3.2574  -3.2170  -3.1454  -3.1099
    -3.0757  -3.0557  -3.0306  -3.0073  -2.9275  -2.8928  -2.8540  -2.8385
    -2.7821  -2.7565  -2.7359  -2.7239  -2.6594  -2.6341  -2.5906  -2.5462
    -2.4965  -2.4404  -2.3401  -2.1837  -2.1110  -2.0651  -1.9481  -1.6431
    -1.0777  -0.5756   0.1476   0.3281   0.9615   1.1253   1.2782   1.4468
     1.4575   1.5519   1.5922   1.6285   1.7721   1.8506   1.9187   2.0790
     2.1721   2.3282   2.5095   2.9217   3.6889   4.0174   4.0547   4.7291
     5.0412   5.5665   5.7356   6.0297   6.2226   6.4477   6.5732   6.6323
     6.8952   7.2253   7.3527   7.3908   7.4737

          k = 0.0281-0.0811 0.0000 ( 19211 PWs)   bands (ev):

   -90.8926 -90.8907 -90.8888 -90.7671 -90.7671 -90.7652 -90.7652 -90.7633
   -90.7633 -56.4813 -56.4811 -56.4678 -54.4174 -54.4110 -54.4040 -54.4029
   -54.3970 -54.3909 -54.3403 -54.3300 -54.3200 -54.3173 -54.3144 -54.3116
   -54.3062 -54.3041 -54.2936 -54.2565 -54.2564 -54.2415 -54.2409 -54.2301
   -54.2297 -54.1985 -54.1961 -54.1886 -54.1868 -54.1745 -54.1741 -32.7638
   -32.7634 -32.6963 -32.6614 -32.6610 -32.6609 -32.6602 -32.6549 -32.6539
    -4.2224  -4.0982  -4.0715  -4.0155  -4.0004  -3.9476  -3.8909  -3.8647
    -3.8057  -3.7725  -3.7442  -3.7072  -3.6923  -3.6299  -3.5741  -3.5290
    -3.5062  -3.4344  -3.3670  -3.3186  -3.2574  -3.2170  -3.1454  -3.1099
    -3.0757  -3.0557  -3.0306  -3.0073  -2.9275  -2.8928  -2.8540  -2.8385
    -2.7821  -2.7565  -2.7359  -2.7239  -2.6594  -2.6341  -2.5906  -2.5462
    -2.4965  -2.4404  -2.3401  -2.1837  -2.1110  -2.0651  -1.9481  -1.6431
    -1.0777  -0.5756   0.1476   0.3281   0.9615   1.1253   1.2782   1.4468
     1.4575   1.5519   1.5922   1.6285   1.7721   1.8506   1.9187   2.0790
     2.1721   2.3282   2.5095   2.9217   3.6889   4.0174   4.0547   4.7291
     5.0412   5.5665   5.7356   6.0297   6.2226   6.4477   6.5732   6.6323
     6.8952   7.2253   7.3527   7.3908   7.4737

          k = 0.0281-0.0487 0.0000 ( 19201 PWs)   bands (ev):

   -90.8936 -90.8897 -90.8888 -90.7681 -90.7680 -90.7643 -90.7642 -90.7633
   -90.7633 -56.4812 -56.4809 -56.4676 -54.4197 -54.4157 -54.4104 -54.3987
   -54.3955 -54.3868 -54.3474 -54.3276 -54.3231 -54.3221 -54.3202 -54.3037
   -54.3010 -54.2983 -54.2930 -54.2662 -54.2660 -54.2349 -54.2339 -54.2299
   -54.2290 -54.2033 -54.1986 -54.1815 -54.1805 -54.1741 -54.1734 -32.7640
   -32.7633 -32.6962 -32.6610 -32.6607 -32.6602 -32.6601 -32.6543 -32.6536
    -4.6524  -4.2771  -4.2354  -4.1562  -4.1375  -4.0773  -4.0378  -4.0109
    -4.0006  -3.9593  -3.9536  -3.8798  -3.8419  -3.8167  -3.6473  -3.5910
    -3.4566  -3.4289  -3.4226  -3.3113  -3.2961  -3.1782  -3.1776  -3.0852
    -3.0423  -2.9897  -2.9659  -2.9313  -2.8735  -2.8531  -2.7679  -2.7302
    -2.7290  -2.6872  -2.6648  -2.5855  -2.5339  -2.4365  -2.4203  -2.4046
    -2.3501  -2.3045  -2.2040  -2.0772  -2.0479  -2.0282  -1.9223  -0.8294
    -0.7911   0.0094   0.3738   0.5847   1.1974   1.2509   1.3306   1.5084
     1.5456   1.5689   1.6094   1.6861   1.9439   1.9519   2.0562   2.1040
     2.1757   2.2697   2.5043   2.9301   3.6240   3.8065   3.8103   4.2267
     4.4823   5.1728   5.5470   5.8410   6.0115   6.2162   6.2342   6.5622
     6.8770   7.1215   7.1535   7.3791   7.4589

          k = 0.0281-0.0162 0.0000 ( 19179 PWs)   bands (ev):

   -90.8942 -90.8891 -90.8888 -90.7687 -90.7687 -90.7636 -90.7636 -90.7633
   -90.7633 -56.4811 -56.4807 -56.4675 -54.4228 -54.4169 -54.4154 -54.3963
   -54.3953 -54.3835 -54.3517 -54.3272 -54.3252 -54.3252 -54.3239 -54.2975
   -54.2972 -54.2949 -54.2927 -54.2725 -54.2722 -54.2314 -54.2298 -54.2298
   -54.2282 -54.2060 -54.2001 -54.1767 -54.1752 -54.1739 -54.1726 -32.7640
   -32.7631 -32.6961 -32.6605 -32.6603 -32.6600 -32.6598 -32.6537 -32.6534
    -4.9730  -4.4194  -4.3767  -4.2689  -4.2363  -4.1824  -4.1763  -4.1292
    -4.0893  -4.0814  -4.0663  -4.0457  -4.0201  -3.9042  -3.8473  -3.6035
    -3.4738  -3.4435  -3.4067  -3.4020  -3.2496  -3.1522  -3.0991  -3.0748
    -3.0028  -2.9743  -2.9093  -2.8727  -2.8499  -2.8149  -2.7451  -2.6674
    -2.6644  -2.6385  -2.6131  -2.5062  -2.4604  -2.3762  -2.3450  -2.2464
    -2.2364  -2.1716  -2.0447  -2.0275  -1.9811  -1.9084  -1.8436  -0.3799
    -0.1128   0.3890   0.9355   0.9776   1.3371   1.3976   1.4503   1.4582
     1.5558   1.6832   1.6882   1.8634   1.9754   2.0507   2.1016   2.1701
     2.2295   2.2840   2.6015   2.9008   2.9624   3.4168   3.9364   4.1077
     4.2137   4.8941   5.2082   5.5533   5.8325   6.1147   6.1305   6.1408
     6.3801   6.5521   6.7266   7.1494   7.2632

          k = 0.0562 0.0325 0.0000 ( 19207 PWs)   bands (ev):

   -90.8933 -90.8900 -90.8888 -90.7678 -90.7678 -90.7645 -90.7645 -90.7633
   -90.7633 -56.4813 -56.4809 -56.4677 -54.4203 -54.4124 -54.4091 -54.3996
   -54.3963 -54.3879 -54.3455 -54.3285 -54.3227 -54.3203 -54.3181 -54.3065
   -54.3024 -54.2999 -54.2928 -54.2635 -54.2633 -54.2369 -54.2357 -54.2299
   -54.2289 -54.2021 -54.1980 -54.1841 -54.1820 -54.1742 -54.1733 -32.7639
   -32.7633 -32.6962 -32.6611 -32.6608 -32.6606 -32.6599 -32.6547 -32.6535
    -4.5300  -4.2345  -4.1780  -4.1629  -4.0977  -4.0393  -3.9942  -3.9589
    -3.9387  -3.8925  -3.8832  -3.8532  -3.7890  -3.6815  -3.5936  -3.5936
    -3.4505  -3.4292  -3.4101  -3.3224  -3.2735  -3.2242  -3.1817  -3.0929
    -3.0535  -3.0176  -2.9488  -2.9347  -2.8889  -2.8186  -2.8067  -2.7804
    -2.7557  -2.7088  -2.6560  -2.6246  -2.5562  -2.4965  -2.4736  -2.4414
    -2.4002  -2.3665  -2.3060  -2.1588  -2.0651  -2.0243  -1.8569  -1.5127
    -0.5906  -0.0403   0.2081   0.8510   0.9134   1.1862   1.2796   1.4498
     1.4605   1.6047   1.6205   1.6290   1.8331   1.9370   2.0013   2.0637
     2.1840   2.2473   2.9035   2.9538   3.2961   3.5605   3.6484   4.6789
     4.9082   5.3150   5.4982   5.7197   6.0013   6.2762   6.5744   6.9715
     6.9964   7.0375   7.0702   7.5537   7.7382

          k = 0.0562 0.0649 0.0000 ( 19211 PWs)   bands (ev):

   -90.8926 -90.8907 -90.8888 -90.7671 -90.7671 -90.7652 -90.7652 -90.7633
   -90.7633 -56.4813 -56.4811 -56.4678 -54.4174 -54.4110 -54.4040 -54.4029
   -54.3970 -54.3909 -54.3403 -54.3300 -54.3200 -54.3173 -54.3144 -54.3116
   -54.3062 -54.3041 -54.2936 -54.2565 -54.2564 -54.2415 -54.2409 -54.2301
   -54.2297 -54.1985 -54.1961 -54.1886 -54.1868 -54.1745 -54.1741 -32.7638
   -32.7634 -32.6963 -32.6614 -32.6610 -32.6609 -32.6602 -32.6549 -32.6539
    -4.2224  -4.0982  -4.0715  -4.0155  -4.0004  -3.9476  -3.8909  -3.8647
    -3.8057  -3.7725  -3.7442  -3.7072  -3.6923  -3.6299  -3.5741  -3.5290
    -3.5062  -3.4344  -3.3670  -3.3186  -3.2574  -3.2170  -3.1454  -3.1099
    -3.0757  -3.0557  -3.0306  -3.0073  -2.9275  -2.8928  -2.8540  -2.8385
    -2.7821  -2.7565  -2.7359  -2.7239  -2.6594  -2.6341  -2.5906  -2.5462
    -2.4965  -2.4404  -2.3401  -2.1837  -2.1110  -2.0651  -1.9481  -1.6431
    -1.0777  -0.5756   0.1476   0.3281   0.9615   1.1253   1.2782   1.4468
     1.4575   1.5519   1.5922   1.6285   1.7721   1.8506   1.9187   2.0790
     2.1721   2.3282   2.5095   2.9217   3.6889   4.0174   4.0547   4.7291
     5.0412   5.5665   5.7356   6.0297   6.2226   6.4477   6.5732   6.6323
     6.8952   7.2253   7.3527   7.3908   7.4737

          k = 0.0562 0.0974 0.0000 ( 19209 PWs)   bands (ev):

   -90.8916 -90.8916 -90.8888 -90.7662 -90.7662 -90.7662 -90.7661 -90.7633
   -90.7633 -56.4814 -56.4811 -56.4678 -54.4113 -54.4113 -54.4103 -54.3983
   -54.3955 -54.3955 -54.3340 -54.3340 -54.3159 -54.3159 -54.3150 -54.3098
   -54.3094 -54.3094 -54.2943 -54.2483 -54.2482 -54.2480 -54.2480 -54.2304
   -54.2304 -54.1937 -54.1934 -54.1922 -54.1921 -54.1747 -54.1747 -32.7637
   -32.7636 -32.6963 -32.6614 -32.6611 -32.6610 -32.6605 -32.6545 -32.6545
    -3.9943  -3.9943  -3.9437  -3.9112  -3.9112  -3.8616  -3.8284  -3.7802
    -3.7802  -3.7662  -3.6803  -3.6803  -3.6139  -3.6139  -3.4893  -3.4848
    -3.4848  -3.4075  -3.4062  -3.4062  -3.3346  -3.3158  -3.3157  -3.2992
    -3.0784  -3.0784  -3.0591  -2.9760  -2.9276  -2.9276  -2.9042  -2.8408
    -2.8208  -2.8208  -2.7055  -2.7055  -2.6266  -2.6134  -2.6134  -2.6104
    -2.4456  -2.4456  -2.1842  -2.1842  -2.1327  -2.1327  -2.1032  -1.9884
    -0.8166  -0.8166  -0.6961   0.4829   0.9498   0.9498   1.3660   1.3661
     1.5019   1.6309   1.6309   1.7062   1.7201   1.8383   1.8384   1.9840
     2.1906   2.1907   2.7280   2.7281   3.2651   4.8377   4.9107   4.9107
     5.4290   5.4290   5.5612   6.1776   6.4140   6.4140   6.4796   6.8815
     6.8815   7.0675   7.0799   7.0800   7.2223

          k = 0.0562-0.0649 0.0000 ( 19211 PWs)   bands (ev):

   -90.8926 -90.8907 -90.8888 -90.7671 -90.7671 -90.7652 -90.7652 -90.7633
   -90.7633 -56.4813 -56.4811 -56.4678 -54.4174 -54.4110 -54.4040 -54.4029
   -54.3970 -54.3909 -54.3403 -54.3300 -54.3200 -54.3173 -54.3144 -54.3116
   -54.3062 -54.3041 -54.2936 -54.2565 -54.2564 -54.2415 -54.2409 -54.2301
   -54.2297 -54.1985 -54.1961 -54.1886 -54.1868 -54.1745 -54.1741 -32.7638
   -32.7634 -32.6963 -32.6614 -32.6610 -32.6609 -32.6602 -32.6549 -32.6539
    -4.2224  -4.0982  -4.0715  -4.0155  -4.0004  -3.9476  -3.8909  -3.8647
    -3.8057  -3.7725  -3.7442  -3.7072  -3.6923  -3.6299  -3.5741  -3.5290
    -3.5062  -3.4344  -3.3670  -3.3186  -3.2574  -3.2170  -3.1454  -3.1099
    -3.0757  -3.0557  -3.0306  -3.0073  -2.9275  -2.8928  -2.8540  -2.8385
    -2.7821  -2.7565  -2.7359  -2.7239  -2.6594  -2.6341  -2.5906  -2.5462
    -2.4965  -2.4404  -2.3401  -2.1837  -2.1110  -2.0651  -1.9481  -1.6431
    -1.0777  -0.5756   0.1476   0.3281   0.9615   1.1253   1.2782   1.4468
     1.4575   1.5519   1.5922   1.6285   1.7721   1.8506   1.9187   2.0790
     2.1721   2.3282   2.5095   2.9217   3.6889   4.0174   4.0547   4.7291
     5.0412   5.5665   5.7356   6.0297   6.2226   6.4477   6.5732   6.6323
     6.8952   7.2253   7.3527   7.3908   7.4737

          k = 0.0562-0.0325 0.0000 ( 19207 PWs)   bands (ev):

   -90.8933 -90.8900 -90.8888 -90.7678 -90.7678 -90.7645 -90.7645 -90.7633
   -90.7633 -56.4813 -56.4809 -56.4677 -54.4203 -54.4124 -54.4091 -54.3996
   -54.3963 -54.3879 -54.3455 -54.3285 -54.3227 -54.3203 -54.3181 -54.3065
   -54.3024 -54.2999 -54.2928 -54.2635 -54.2633 -54.2369 -54.2357 -54.2299
   -54.2289 -54.2021 -54.1980 -54.1841 -54.1820 -54.1742 -54.1733 -32.7639
   -32.7633 -32.6962 -32.6611 -32.6608 -32.6606 -32.6599 -32.6547 -32.6535
    -4.5300  -4.2345  -4.1780  -4.1629  -4.0977  -4.0393  -3.9942  -3.9589
    -3.9387  -3.8925  -3.8832  -3.8532  -3.7890  -3.6815  -3.5936  -3.5936
    -3.4505  -3.4292  -3.4101  -3.3224  -3.2735  -3.2242  -3.1817  -3.0929
    -3.0535  -3.0176  -2.9488  -2.9347  -2.8889  -2.8186  -2.8067  -2.7804
    -2.7557  -2.7088  -2.6560  -2.6246  -2.5562  -2.4965  -2.4736  -2.4414
    -2.4002  -2.3665  -2.3060  -2.1588  -2.0651  -2.0243  -1.8569  -1.5127
    -0.5906  -0.0403   0.2081   0.8510   0.9134   1.1862   1.2796   1.4498
     1.4605   1.6047   1.6205   1.6290   1.8331   1.9370   2.0013   2.0637
     2.1840   2.2473   2.9035   2.9538   3.2961   3.5605   3.6484   4.6789
     4.9082   5.3150   5.4982   5.7197   6.0013   6.2762   6.5744   6.9715
     6.9964   7.0375   7.0702   7.5537   7.7382

          k = 0.0562 0.0000 0.0000 ( 19201 PWs)   bands (ev):

   -90.8936 -90.8897 -90.8888 -90.7681 -90.7680 -90.7643 -90.7642 -90.7633
   -90.7633 -56.4812 -56.4809 -56.4676 -54.4197 -54.4157 -54.4104 -54.3987
   -54.3955 -54.3868 -54.3474 -54.3276 -54.3231 -54.3221 -54.3202 -54.3037
   -54.3010 -54.2983 -54.2930 -54.2662 -54.2660 -54.2349 -54.2339 -54.2299
   -54.2290 -54.2033 -54.1986 -54.1815 -54.1805 -54.1741 -54.1734 -32.7640
   -32.7633 -32.6962 -32.6610 -32.6607 -32.6602 -32.6601 -32.6543 -32.6536
    -4.6524  -4.2771  -4.2354  -4.1562  -4.1375  -4.0773  -4.0378  -4.0109
    -4.0006  -3.9593  -3.9536  -3.8798  -3.8419  -3.8167  -3.6473  -3.5910
    -3.4566  -3.4289  -3.4226  -3.3113  -3.2961  -3.1782  -3.1776  -3.0852
    -3.0423  -2.9897  -2.9659  -2.9313  -2.8735  -2.8531  -2.7679  -2.7302
    -2.7290  -2.6872  -2.6648  -2.5855  -2.5339  -2.4365  -2.4203  -2.4046
    -2.3501  -2.3045  -2.2040  -2.0772  -2.0479  -2.0282  -1.9223  -0.8294
    -0.7911   0.0094   0.3738   0.5847   1.1974   1.2509   1.3306   1.5084
     1.5456   1.5689   1.6094   1.6861   1.9439   1.9519   2.0562   2.1040
     2.1757   2.2697   2.5043   2.9301   3.6240   3.8065   3.8103   4.2267
     4.4823   5.1728   5.5470   5.8410   6.0115   6.2162   6.2342   6.5622
     6.8770   7.1215   7.1535   7.3791   7.4589

          k =-0.0843-0.0487 0.0000 ( 19212 PWs)   bands (ev):

   -90.8926 -90.8907 -90.8888 -90.7671 -90.7671 -90.7652 -90.7652 -90.7633
   -90.7633 -56.4813 -56.4811 -56.4678 -54.4197 -54.4055 -54.4051 -54.4014
   -54.4013 -54.3902 -54.3400 -54.3310 -54.3205 -54.3161 -54.3133 -54.3127
   -54.3059 -54.3047 -54.2931 -54.2560 -54.2559 -54.2426 -54.2416 -54.2299
   -54.2294 -54.1977 -54.1965 -54.1899 -54.1863 -54.1744 -54.1737 -32.7638
   -32.7634 -32.6963 -32.6613 -32.6611 -32.6610 -32.6600 -32.6551 -32.6536
    -4.2704  -4.1567  -4.1164  -4.0060  -3.9781  -3.9008  -3.8629  -3.8390
    -3.8292  -3.8266  -3.7796  -3.7200  -3.6132  -3.5725  -3.5519  -3.5402
    -3.4731  -3.4442  -3.3989  -3.1970  -3.1954  -3.1559  -3.1127  -3.1042
    -3.0482  -3.0406  -3.0276  -2.9451  -2.9324  -2.9101  -2.8452  -2.8173
    -2.7888  -2.7765  -2.7493  -2.7427  -2.6383  -2.6171  -2.6060  -2.5987
    -2.5889  -2.5555  -2.4984  -2.3227  -2.2042  -2.0263  -1.8527  -1.6903
    -1.0928  -0.4287   0.4805   0.7204   0.8147   0.8348   1.2352   1.3367
     1.4990   1.5416   1.5535   1.6272   1.6640   1.8549   1.9464   2.0355
     2.2402   2.3223   2.7450   2.9759   3.4242   3.7297   4.3052   4.3727
     4.7791   5.1124   6.0011   6.0279   6.5593   6.5595   6.7511   6.7606
     7.1120   7.2974   7.4151   7.7424   7.8286

          k =-0.0843-0.0162 0.0000 ( 19211 PWs)   bands (ev):

   -90.8926 -90.8907 -90.8888 -90.7671 -90.7671 -90.7652 -90.7652 -90.7633
   -90.7633 -56.4813 -56.4811 -56.4678 -54.4174 -54.4110 -54.4040 -54.4029
   -54.3970 -54.3909 -54.3403 -54.3300 -54.3200 -54.3173 -54.3144 -54.3116
   -54.3062 -54.3041 -54.2936 -54.2565 -54.2564 -54.2415 -54.2409 -54.2301
   -54.2297 -54.1985 -54.1961 -54.1886 -54.1868 -54.1745 -54.1741 -32.7638
   -32.7634 -32.6963 -32.6614 -32.6610 -32.6609 -32.6602 -32.6549 -32.6539
    -4.2224  -4.0982  -4.0715  -4.0155  -4.0004  -3.9476  -3.8909  -3.8647
    -3.8057  -3.7725  -3.7442  -3.7072  -3.6923  -3.6299  -3.5741  -3.5290
    -3.5062  -3.4344  -3.3670  -3.3186  -3.2574  -3.2170  -3.1454  -3.1099
    -3.0757  -3.0557  -3.0306  -3.0073  -2.9275  -2.8928  -2.8540  -2.8385
    -2.7821  -2.7565  -2.7359  -2.7239  -2.6594  -2.6341  -2.5906  -2.5462
    -2.4965  -2.4404  -2.3401  -2.1837  -2.1110  -2.0651  -1.9481  -1.6431
    -1.0777  -0.5756   0.1476   0.3281   0.9615   1.1253   1.2782   1.4468
     1.4575   1.5519   1.5922   1.6285   1.7721   1.8506   1.9187   2.0790
     2.1721   2.3282   2.5095   2.9217   3.6889   4.0174   4.0547   4.7291
     5.0412   5.5665   5.7356   6.0297   6.2226   6.4477   6.5732   6.6323
     6.8952   7.2253   7.3527   7.3908   7.4737

          k =-0.0843 0.0162 0.0000 ( 19211 PWs)   bands (ev):

   -90.8926 -90.8907 -90.8888 -90.7671 -90.7671 -90.7652 -90.7652 -90.7633
   -90.7633 -56.4813 -56.4811 -56.4678 -54.4174 -54.4110 -54.4040 -54.4029
   -54.3970 -54.3909 -54.3403 -54.3300 -54.3200 -54.3173 -54.3144 -54.3116
   -54.3062 -54.3041 -54.2936 -54.2565 -54.2564 -54.2415 -54.2409 -54.2301
   -54.2297 -54.1985 -54.1961 -54.1886 -54.1868 -54.1745 -54.1741 -32.7638
   -32.7634 -32.6963 -32.6614 -32.6610 -32.6609 -32.6602 -32.6549 -32.6539
    -4.2224  -4.0982  -4.0715  -4.0155  -4.0004  -3.9476  -3.8909  -3.8647
    -3.8057  -3.7725  -3.7442  -3.7072  -3.6923  -3.6299  -3.5741  -3.5290
    -3.5062  -3.4344  -3.3670  -3.3186  -3.2574  -3.2170  -3.1454  -3.1099
    -3.0757  -3.0557  -3.0306  -3.0073  -2.9275  -2.8928  -2.8540  -2.8385
    -2.7821  -2.7565  -2.7359  -2.7239  -2.6594  -2.6341  -2.5906  -2.5462
    -2.4965  -2.4404  -2.3401  -2.1837  -2.1110  -2.0651  -1.9481  -1.6431
    -1.0777  -0.5756   0.1476   0.3281   0.9615   1.1253   1.2782   1.4468
     1.4575   1.5519   1.5922   1.6285   1.7721   1.8506   1.9187   2.0790
     2.1721   2.3282   2.5095   2.9217   3.6889   4.0174   4.0547   4.7291
     5.0412   5.5665   5.7356   6.0297   6.2226   6.4477   6.5732   6.6323
     6.8952   7.2253   7.3527   7.3908   7.4737

          k =-0.0843-0.1461 0.0000 ( 19212 PWs)   bands (ev):

   -90.8926 -90.8907 -90.8888 -90.7671 -90.7671 -90.7652 -90.7652 -90.7633
   -90.7633 -56.4813 -56.4811 -56.4678 -54.4197 -54.4055 -54.4051 -54.4014
   -54.4013 -54.3902 -54.3400 -54.3310 -54.3205 -54.3161 -54.3133 -54.3127
   -54.3059 -54.3047 -54.2931 -54.2560 -54.2559 -54.2426 -54.2416 -54.2299
   -54.2294 -54.1977 -54.1965 -54.1899 -54.1863 -54.1744 -54.1737 -32.7638
   -32.7634 -32.6963 -32.6613 -32.6611 -32.6610 -32.6600 -32.6551 -32.6536
    -4.2704  -4.1567  -4.1164  -4.0060  -3.9781  -3.9008  -3.8629  -3.8390
    -3.8292  -3.8266  -3.7796  -3.7200  -3.6132  -3.5725  -3.5519  -3.5402
    -3.4731  -3.4442  -3.3989  -3.1970  -3.1954  -3.1559  -3.1127  -3.1042
    -3.0482  -3.0406  -3.0276  -2.9451  -2.9324  -2.9101  -2.8452  -2.8173
    -2.7888  -2.7765  -2.7493  -2.7427  -2.6383  -2.6171  -2.6060  -2.5987
    -2.5889  -2.5555  -2.4984  -2.3227  -2.2042  -2.0263  -1.8527  -1.6903
    -1.0928  -0.4287   0.4805   0.7204   0.8147   0.8348   1.2352   1.3367
     1.4990   1.5416   1.5535   1.6272   1.6640   1.8549   1.9464   2.0355
     2.2402   2.3223   2.7450   2.9759   3.4242   3.7297   4.3052   4.3727
     4.7791   5.1124   6.0011   6.0279   6.5593   6.5595   6.7511   6.7606
     7.1120   7.2974   7.4151   7.7424   7.8287

     the Fermi energy is     1.3818 ev

!    total energy              =   -3029.30986180 Ry
     Harris-Foulkes estimate   =   -3029.31060786 Ry
     estimated scf accuracy    <       0.00000036 Ry

     The total energy is the sum of the following terms:

     one-electron contribution =  -21488.31451493 Ry
     hartree contribution      =   10732.43470541 Ry
     xc contribution           =    -326.53409406 Ry
     ewald contribution        =    8053.20881239 Ry
     electric field correction =       0.00000000 Ry
     smearing contrib. (-TS)   =      -0.10477062 Ry

     convergence has been achieved in  30 iterations
 
 BEEF-vdW xc energy contributions
           1 :   -282.598164714356     
           2 :    255.405226875112     
           3 :   -210.111767968792     
           4 :    160.443581682489     
           5 :   -118.686237197780     
           6 :    91.2068474365268     
           7 :   -77.4648281120051     
           8 :    72.2418830644493     
           9 :   -69.3255882220604     
          10 :    64.5607021089119     
          11 :   -57.0022660948888     
          12 :    48.1329571595750     
          13 :   -40.1112601367436     
          14 :    34.2649653946474     
          15 :   -30.5866733422070     
          16 :    28.1865742709662     
          17 :   -26.1160547905130     
          18 :    23.9385010115364     
          19 :   -21.7912293581415     
          20 :    20.0670356316190     
          21 :   -19.0315083456272     
          22 :    18.6258772779457     
          23 :   -18.5304541324265     
          24 :    18.3891045049006     
          25 :   -18.0291022733142     
          26 :    17.5425270895831     
          27 :   -17.1995492105194     
          28 :    17.2546322736903     
          29 :   -17.7619181298629     
          30 :    18.5069666442612     
          31 :   -28.4528585622387     
          32 :   -20.6277971914896     

     Forces acting on atoms (Ry/au):


     negative rho (up, down):  3.589E-03 0.000E+00
     atom    1 type  1   force =    -0.00000007    0.00253082    0.00024109
     atom    2 type  1   force =     0.00219177   -0.00126543    0.00024104
     atom    3 type  1   force =    -0.00219174   -0.00126539    0.00024105
     atom    4 type  2   force =     0.00000003    0.00000000    0.01319883
     atom    5 type  1   force =     0.00000001   -0.00007734   -0.00006108
     atom    6 type  1   force =    -0.00006698    0.00003867   -0.00006114
     atom    7 type  1   force =     0.00006697    0.00003868   -0.00006107
     atom    8 type  2   force =    -0.00000001   -0.00000000    0.00001626
     atom    9 type  1   force =    -0.00000000   -0.00256254   -0.00020720
     atom   10 type  1   force =    -0.00221920    0.00128126   -0.00020719
     atom   11 type  1   force =     0.00221924    0.00128126   -0.00020722
     atom   12 type  2   force =    -0.00000001    0.00000002   -0.01313338

     Total force =     0.019645     Total SCF correction =     0.002144
     SCF correction compared to forces is large: reduce conv_thr to get better values


     entering subroutine stress ...


     negative rho (up, down):  3.589E-03 0.000E+00
          total   stress  (Ry/bohr**3)                   (kbar)     P=   -8.77
  -0.00006885  -0.00000000  -0.00000000        -10.13     -0.00     -0.00
  -0.00000000  -0.00006885   0.00000000         -0.00    -10.13      0.00
  -0.00000000   0.00000000  -0.00004111         -0.00      0.00     -6.05

 !ASE

     Writing output data file calc.save
 
     init_run     :     10.21s CPU     17.84s WALL (       1 calls)
     electrons    :    814.02s CPU   1352.98s WALL (       1 calls)
     forces       :      2.48s CPU      3.07s WALL (       1 calls)
     stress       :      5.82s CPU      7.00s WALL (       1 calls)

     Called by init_run:
     wfcinit      :      8.44s CPU     15.29s WALL (       1 calls)
     potinit      :      0.90s CPU      1.52s WALL (       1 calls)

     Called by electrons:
     c_bands      :    648.74s CPU   1067.77s WALL (      30 calls)
     sum_band     :    103.89s CPU    189.18s WALL (      30 calls)
     v_of_rho     :     24.79s CPU     42.18s WALL (      31 calls)
     newd         :      7.42s CPU      7.89s WALL (      31 calls)
     mix_rho      :      1.24s CPU      2.16s WALL (      30 calls)
     vdW_energy   :      2.12s CPU      2.13s WALL (      67 calls)
     vdW_ffts     :     33.83s CPU     57.76s WALL (     136 calls)
     vdW_v        :      6.35s CPU      9.84s WALL (      67 calls)

     Called by c_bands:
     init_us_2    :      0.70s CPU      0.76s WALL (    1260 calls)
     cegterg      :    637.47s CPU   1051.51s WALL (     600 calls)

     Called by *egterg:
     h_psi        :    396.24s CPU    753.54s WALL (    1657 calls)
     s_psi        :     10.23s CPU     10.40s WALL (    1657 calls)
     g_psi        :      0.56s CPU      0.55s WALL (    1037 calls)
     cdiaghg      :    142.53s CPU    166.89s WALL (    1637 calls)

     Called by h_psi:
     add_vuspsi   :     10.75s CPU     10.86s WALL (    1657 calls)

     General routines
     calbec       :     29.11s CPU     38.70s WALL (    2297 calls)
     fft          :     52.01s CPU     88.83s WALL (    4149 calls)
     ffts         :      0.17s CPU      0.31s WALL (      61 calls)
     fftw         :    436.55s CPU    866.69s WALL (  420354 calls)
     interpolate  :      0.90s CPU      1.57s WALL (      61 calls)
     davcio       :      0.00s CPU      0.02s WALL (      20 calls)
 
     Parallel routines
     fft_scatter  :    451.46s CPU    915.63s WALL (  424564 calls)
 
     PWSCF        : 13m53.36s CPU    23m 2.48s WALL

 
   This run was terminated on:  16:43:52  19Dec2018            

=------------------------------------------------------------------------------=
   JOB DONE.
=------------------------------------------------------------------------------=
Job  /afs/slac/g/suncat/bin/suncat-tsmpirun -x LD_LIBRARY_PATH -wdir /scratch/qe773206_vhIL3 pw.x -in pw.inp

TID   HOST_NAME   COMMAND_LINE            STATUS            TERMINATION_TIME
===== ========== ================  =======================  ===================
00000 suncat0178 pw.x -in pw.inp   Done                     12/19/2018 16:43:52
00001 suncat0178 pw.x -in pw.inp   Done                     12/19/2018 16:43:52
00002 suncat0178 pw.x -in pw.inp   Done                     12/19/2018 16:43:52
00003 suncat0178 pw.x -in pw.inp   Done                     12/19/2018 16:43:52
00004 suncat0178 pw.x -in pw.inp   Done                     12/19/2018 16:43:52
00005 suncat0178 pw.x -in pw.inp   Done                     12/19/2018 16:43:52
00006 suncat0178 pw.x -in pw.inp   Done                     12/19/2018 16:43:52
00007 suncat0178 pw.x -in pw.inp   Done                     12/19/2018 16:43:52
00008 suncat0177 pw.x -in pw.inp   Done                     12/19/2018 16:43:52
00009 suncat0177 pw.x -in pw.inp   Done                     12/19/2018 16:43:52
00010 suncat0177 pw.x -in pw.inp   Done                     12/19/2018 16:43:52
00011 suncat0177 pw.x -in pw.inp   Done                     12/19/2018 16:43:52
00012 suncat0177 pw.x -in pw.inp   Done                     12/19/2018 16:43:52
00013 suncat0177 pw.x -in pw.inp   Done                     12/19/2018 16:43:52
00014 suncat0177 pw.x -in pw.inp   Done                     12/19/2018 16:43:52
00015 suncat0177 pw.x -in pw.inp   Done                     12/19/2018 16:43:52
00016 suncat0172 pw.x -in pw.inp   Done                     12/19/2018 16:43:52
00017 suncat0172 pw.x -in pw.inp   Done                     12/19/2018 16:43:52
00018 suncat0172 pw.x -in pw.inp   Done                     12/19/2018 16:43:52
00019 suncat0172 pw.x -in pw.inp   Done                     12/19/2018 16:43:52
00020 suncat0172 pw.x -in pw.inp   Done                     12/19/2018 16:43:52
00021 suncat0172 pw.x -in pw.inp   Done                     12/19/2018 16:43:52
00022 suncat0172 pw.x -in pw.inp   Done                     12/19/2018 16:43:52
00023 suncat0172 pw.x -in pw.inp   Done                     12/19/2018 16:43:52
00024 suncat0171 pw.x -in pw.inp   Done                     12/19/2018 16:43:52
00025 suncat0171 pw.x -in pw.inp   Done                     12/19/2018 16:43:52
00026 suncat0171 pw.x -in pw.inp   Done                     12/19/2018 16:43:52
00027 suncat0171 pw.x -in pw.inp   Done                     12/19/2018 16:43:52
00028 suncat0171 pw.x -in pw.inp   Done                     12/19/2018 16:43:52
00029 suncat0171 pw.x -in pw.inp   Done                     12/19/2018 16:43:52
00030 suncat0171 pw.x -in pw.inp   Done                     12/19/2018 16:43:52
00031 suncat0171 pw.x -in pw.inp   Done                     12/19/2018 16:43:52
00032 suncat0169 pw.x -in pw.inp   Done                     12/19/2018 16:43:52
00033 suncat0169 pw.x -in pw.inp   Done                     12/19/2018 16:43:52
00034 suncat0169 pw.x -in pw.inp   Done                     12/19/2018 16:43:52
00035 suncat0169 pw.x -in pw.inp   Done                     12/19/2018 16:43:52
00036 suncat0169 pw.x -in pw.inp   Done                     12/19/2018 16:43:52
00037 suncat0169 pw.x -in pw.inp   Done                     12/19/2018 16:43:52
00038 suncat0169 pw.x -in pw.inp   Done                     12/19/2018 16:43:52
00039 suncat0169 pw.x -in pw.inp   Done                     12/19/2018 16:43:52
00040 suncat0168 pw.x -in pw.inp   Done                     12/19/2018 16:43:52
00041 suncat0168 pw.x -in pw.inp   Done                     12/19/2018 16:43:52
00042 suncat0168 pw.x -in pw.inp   Done                     12/19/2018 16:43:52
00043 suncat0168 pw.x -in pw.inp   Done                     12/19/2018 16:43:52
00044 suncat0168 pw.x -in pw.inp   Done                     12/19/2018 16:43:52
00045 suncat0168 pw.x -in pw.inp   Done                     12/19/2018 16:43:52
00046 suncat0168 pw.x -in pw.inp   Done                     12/19/2018 16:43:52
00047 suncat0168 pw.x -in pw.inp   Done                     12/19/2018 16:43:52
00048 suncat0110 pw.x -in pw.inp   Done                     12/19/2018 16:43:52
00049 suncat0110 pw.x -in pw.inp   Done                     12/19/2018 16:43:52
00050 suncat0110 pw.x -in pw.inp   Done                     12/19/2018 16:43:52
00051 suncat0110 pw.x -in pw.inp   Done                     12/19/2018 16:43:52
00052 suncat0110 pw.x -in pw.inp   Done                     12/19/2018 16:43:52
00053 suncat0110 pw.x -in pw.inp   Done                     12/19/2018 16:43:52
00054 suncat0110 pw.x -in pw.inp   Done                     12/19/2018 16:43:52
00055 suncat0110 pw.x -in pw.inp   Done                     12/19/2018 16:43:52
00056 suncat0105 pw.x -in pw.inp   Done                     12/19/2018 16:43:52
00057 suncat0105 pw.x -in pw.inp   Done                     12/19/2018 16:43:52
00058 suncat0105 pw.x -in pw.inp   Done                     12/19/2018 16:43:52
00059 suncat0105 pw.x -in pw.inp   Done                     12/19/2018 16:43:52
00060 suncat0105 pw.x -in pw.inp   Done                     12/19/2018 16:43:52
00061 suncat0105 pw.x -in pw.inp   Done                     12/19/2018 16:43:52
00062 suncat0105 pw.x -in pw.inp   Done                     12/19/2018 16:43:52
00063 suncat0105 pw.x -in pw.inp   Done                     12/19/2018 16:43:52

     Program PWSCF v.5.1rc2 (svn rev. 11289) starts on 19Dec2018 at 16:43:59 

     This program is part of the open-source Quantum ESPRESSO suite
     for quantum simulation of materials; please cite
         "P. Giannozzi et al., J. Phys.:Condens. Matter 21 395502 (2009);
          URL http://www.quantum-espresso.org", 
     in publications or presentations arising from this work. More details at
     http://www.quantum-espresso.org/quote

     Parallel version (MPI), running on    64 processors
     R & G space division:  proc/nbgrp/npool/nimage =      64
     Reading input from pw.inp
     Message from routine read_cards :
     DEPRECATED: no units specified in CELL_PARAMETERS card

     Current dimensions of program PWSCF are:
     Max number of different atomic species (ntypx) = 10
     Max number of k-points (npk) =  40000
     Max angular momentum in pseudopotentials (lmaxx) =  3
     Presently stress not available with electric field


     **************************************************************************
     Initializing libbeef V0.1.1 with the BEEF-vdW functional.
     Citation: Wellendorff et al., PRB 85, 235149 (2012).
     **************************************************************************


     IMPORTANT: XC functional enforced from input :
     Exchange-correlation      = BEEF-VDW ( 1  4 27 13 2)
     Any further DFT definition will be discarded
     Please, verify this is what you really want


     Subspace diagonalization in iterative solution of the eigenvalue problem:
     a serial algorithm will be used

 
     Parallelization info
     --------------------
     sticks:   dense  smooth     PW     G-vecs:    dense   smooth      PW
     Min          49      19      5                 9477     2372     371
     Max          50      20      6                 9496     2422     400
     Sum        3193    1273    379               607259   153781   25065
 


     bravais-lattice index     =            0
     lattice parameter (alat)  =       1.8897  a.u.
     unit-cell volume          =    5104.5628 (a.u.)^3
     number of atoms/cell      =           12
     number of atomic types    =            2
     number of electrons       =       207.00
     number of Kohn-Sham states=          133
     kinetic-energy cutoff     =      36.7493  Ry
     charge density cutoff     =     367.4932  Ry
     convergence threshold     =      1.0E-06
     mixing beta               =       0.1000
     number of iterations used =           10  plain     mixing
     Exchange-correlation      = BEEF-VDW ( 1  4 27 13 2)
     nstep                     =           50


     celldm(1)=   1.889726  celldm(2)=   0.000000  celldm(3)=   0.000000
     celldm(4)=   0.000000  celldm(5)=   0.000000  celldm(6)=   0.000000

     crystal axes: (cart. coord. in units of alat)
               a(1) = (   5.929617   0.000000   0.000000 )  
               a(2) = (  -2.964809   5.135199   0.000000 )  
               a(3) = (   0.000000   0.000000  24.841512 )  

     reciprocal axes: (cart. coord. in units 2 pi/alat)
               b(1) = (  0.168645  0.097367  0.000000 )  
               b(2) = (  0.000000  0.194734  0.000000 )  
               b(3) = (  0.000000  0.000000  0.040255 )  


     PseudoPot. # 1 for Ag read from file:
     /afs/slac.stanford.edu/u/if/mamunm/psp/gbrv1.5pbe/Ag.UPF
     MD5 check sum: d66d668201baa78d5eb5b04ef7011058
     Pseudo is Ultrasoft + core correction, Zval = 19.0
     Generated by new atomic code, or converted to UPF format
     Using radial grid of  887 points,  6 beta functions with: 
                l(1) =   0
                l(2) =   0
                l(3) =   1
                l(4) =   1
                l(5) =   2
                l(6) =   2
     Q(r) pseudized with  6 coefficients,  rinner =    1.300   1.300   1.300
                                                       1.300   1.300

     PseudoPot. # 2 for Ti read from file:
     /afs/slac.stanford.edu/u/if/mamunm/psp/gbrv1.5pbe/Ti.UPF
     MD5 check sum: 88a00a6731bd790ddea75d31a80cb452
     Pseudo is Ultrasoft + core correction, Zval = 12.0
     Generated by new atomic code, or converted to UPF format
     Using radial grid of  851 points,  6 beta functions with: 
                l(1) =   0
                l(2) =   0
                l(3) =   1
                l(4) =   1
                l(5) =   2
                l(6) =   2
     Q(r) pseudized with  6 coefficients,  rinner =    1.000   1.000   1.000
                                                       1.000   1.000

     vdW kernel table read from file vdW_kernel_table
     MD5 check sum: 095c7af220d748ca6e76c0b4c6cfb241

     atomic species   valence    mass     pseudopotential
        Ag1           19.00   107.86820     Ag( 1.00)
        Ti1           12.00    47.86700     Ti( 1.00)

     No symmetry found



   Cartesian axes

     site n.     atom                  positions (alat units)
         1           Ag1 tau(   1) = (   0.0000000   0.0000000  10.0000000  )
         2           Ag1 tau(   2) = (  -1.4824043   2.5675995  10.0000000  )
         3           Ag1 tau(   3) = (   1.4824043   2.5675995  10.0000000  )
         4           Ti1 tau(   4) = (   2.9648085   0.0000000  10.0000000  )
         5           Ag1 tau(   5) = (   2.9648085   1.7117330  12.4207560  )
         6           Ag1 tau(   6) = (   1.4824043   4.2793325  12.4207560  )
         7           Ag1 tau(   7) = (  -1.4824043   4.2793325  12.4207560  )
         8           Ti1 tau(   8) = (   0.0000000   1.7117330  12.4207560  )
         9           Ag1 tau(   9) = (  -0.0000000   3.4168774  14.8409793  )
        10           Ag1 tau(  10) = (   1.4766985   0.8591608  14.8409793  )
        11           Ag1 tau(  11) = (   4.4529187   0.8591608  14.8409793  )
        12           Ti1 tau(  12) = (   2.9648085   3.4234660  14.8077448  )

     number of k points=    20  Fermi-Dirac smearing, width (Ry)=  0.0110
                       cart. coord. in units 2pi/alat
        k(    1) = (   0.0000000   0.0000000   0.0000000), wk =   0.0555556
        k(    2) = (   0.0000000   0.0324557   0.0000000), wk =   0.1111111
        k(    3) = (   0.0000000   0.0649115   0.0000000), wk =   0.1111111
        k(    4) = (   0.0000000  -0.0973672   0.0000000), wk =   0.0555556
        k(    5) = (   0.0281075   0.0162279   0.0000000), wk =   0.1111111
        k(    6) = (   0.0281075   0.0486836   0.0000000), wk =   0.1111111
        k(    7) = (   0.0281075   0.0811393   0.0000000), wk =   0.1111111
        k(    8) = (   0.0281075  -0.0811393   0.0000000), wk =   0.1111111
        k(    9) = (   0.0281075  -0.0486836   0.0000000), wk =   0.1111111
        k(   10) = (   0.0281075  -0.0162279   0.0000000), wk =   0.1111111
        k(   11) = (   0.0562150   0.0324557   0.0000000), wk =   0.1111111
        k(   12) = (   0.0562150   0.0649115   0.0000000), wk =   0.1111111
        k(   13) = (   0.0562150   0.0973672   0.0000000), wk =   0.1111111
        k(   14) = (   0.0562150  -0.0649115   0.0000000), wk =   0.1111111
        k(   15) = (   0.0562150  -0.0324557   0.0000000), wk =   0.1111111
        k(   16) = (   0.0562150   0.0000000   0.0000000), wk =   0.1111111
        k(   17) = (  -0.0843225  -0.0486836   0.0000000), wk =   0.0555556
        k(   18) = (  -0.0843225  -0.0162279   0.0000000), wk =   0.1111111
        k(   19) = (  -0.0843225   0.0162279   0.0000000), wk =   0.1111111
        k(   20) = (  -0.0843225  -0.1460508   0.0000000), wk =   0.0555556

     Dense  grid:   607259 G-vectors     FFT dimensions: (  72,  72, 288)

     Smooth grid:   153781 G-vectors     FFT dimensions: (  45,  45, 192)

     Largest allocated arrays     est. size (Mb)     dimensions
        Kohn-Sham Wavefunctions         0.73 Mb     (     362,  133)
        NL pseudopotentials             1.19 Mb     (     362,  216)
        Each V/rho on FFT grid          0.40 Mb     (   25920)
        Each G-vector array             0.07 Mb     (    9492)
        G-vector shells                 0.04 Mb     (    4771)
     Largest temporary arrays     est. size (Mb)     dimensions
        Auxiliary wavefunctions         2.94 Mb     (     362,  532)
        Each subspace H/S matrix        4.32 Mb     (     532,  532)
        Each <psi_i|beta_j> matrix      0.44 Mb     (     216,  133)
        Arrays for rho mixing           3.96 Mb     (   25920,   10)

     Check: negative/imaginary core charge=   -0.000003    0.000000

     Initial potential from superposition of free atoms
     Check: negative starting charge=   -0.004837

     starting charge  199.49944, renormalised to  207.00000

     negative rho (up, down):  5.019E-03 0.000E+00


     ************************************************************************
     *
     * You are using vdW-DF for exchange-correlation in this calculation.
     * Please cite the following three references that made this development
     * possible:
     *
[...]
   -32.7708 -32.7241 -32.6870 -32.6864 -32.6745 -32.6737 -32.6704 -32.6692
    -4.2776  -4.1548  -4.1238  -4.0680  -4.0515  -4.0035  -3.9672  -3.9138
    -3.8503  -3.8120  -3.7984  -3.7616  -3.7406  -3.6641  -3.6150  -3.5835
    -3.5495  -3.4731  -3.4045  -3.3625  -3.2918  -3.2559  -3.1777  -3.1455
    -3.1169  -3.0985  -3.0671  -3.0339  -2.9676  -2.9307  -2.8938  -2.8727
    -2.8440  -2.7918  -2.7834  -2.7616  -2.6987  -2.6655  -2.6172  -2.5809
    -2.5325  -2.4804  -2.3792  -2.2254  -2.1469  -2.1012  -1.9930  -1.6799
    -1.1164  -0.6079   0.1186   0.2908   0.9415   1.0973   1.2512   1.4184
     1.4385   1.5326   1.5746   1.6031   1.7286   1.8285   1.8990   2.0675
     2.1680   2.3268   2.5021   2.9342   3.7048   4.0162   4.0516   4.7112
     5.0486   5.5451   5.7529   6.0347   6.2384   6.4627   6.5922   6.6310
     6.8805   7.2398   7.3477   7.3928   7.4833

          k = 0.0562-0.0325 0.0000 ( 19207 PWs)   bands (ev):

   -90.9621 -90.9588 -90.9576 -90.7945 -90.7911 -90.7899 -90.7894 -90.7861
   -90.7849 -56.5071 -56.4892 -56.4881 -54.5005 -54.4866 -54.4818 -54.4692
   -54.4643 -54.4486 -54.4062 -54.3784 -54.3666 -54.3500 -54.3442 -54.3438
   -54.3375 -54.3270 -54.3223 -54.2925 -54.2846 -54.2645 -54.2575 -54.2574
   -54.2504 -54.2274 -54.2217 -54.2096 -54.2048 -54.2004 -54.1956 -32.7906
   -32.7707 -32.7241 -32.6867 -32.6861 -32.6740 -32.6737 -32.6701 -32.6689
    -4.5876  -4.2844  -4.2461  -4.2140  -4.1446  -4.0943  -4.0607  -4.0097
    -3.9730  -3.9592  -3.9227  -3.8976  -3.8211  -3.7170  -3.6354  -3.6243
    -3.4891  -3.4728  -3.4646  -3.3595  -3.3115  -3.2638  -3.2213  -3.1398
    -3.0963  -3.0517  -2.9972  -2.9679  -2.9414  -2.8494  -2.8431  -2.8224
    -2.7965  -2.7543  -2.6935  -2.6542  -2.5920  -2.5268  -2.5119  -2.4907
    -2.4346  -2.4000  -2.3459  -2.1987  -2.1017  -2.0580  -1.9005  -1.5540
    -0.6289  -0.0773   0.1855   0.8021   0.8987   1.1417   1.2540   1.4285
     1.4355   1.5853   1.6036   1.6161   1.7834   1.9310   1.9632   2.0454
     2.1723   2.2458   2.9126   2.9469   3.2822   3.5845   3.6223   4.7296
     4.8739   5.3250   5.5068   5.7333   6.0160   6.2609   6.5572   6.9612
     6.9941   7.0389   7.0762   7.5653   7.6784

          k = 0.0562 0.0000 0.0000 ( 19201 PWs)   bands (ev):

   -90.9624 -90.9586 -90.9576 -90.7947 -90.7909 -90.7899 -90.7896 -90.7858
   -90.7849 -56.5070 -56.4892 -56.4881 -54.5016 -54.4868 -54.4825 -54.4689
   -54.4650 -54.4472 -54.4083 -54.3756 -54.3670 -54.3498 -54.3461 -54.3433
   -54.3390 -54.3257 -54.3209 -54.2951 -54.2873 -54.2626 -54.2576 -54.2554
   -54.2505 -54.2285 -54.2225 -54.2074 -54.2029 -54.2003 -54.1956 -32.7906
   -32.7707 -32.7240 -32.6865 -32.6861 -32.6739 -32.6736 -32.6698 -32.6689
    -4.7097  -4.3231  -4.3002  -4.2133  -4.2102  -4.1177  -4.0999  -4.0575
    -4.0404  -4.0245  -3.9847  -3.9226  -3.8754  -3.8480  -3.6831  -3.6237
    -3.4992  -3.4644  -3.4554  -3.3762  -3.3370  -3.2230  -3.2151  -3.1248
    -3.0955  -3.0467  -2.9980  -2.9701  -2.9130  -2.8914  -2.8057  -2.7685
    -2.7670  -2.7235  -2.6992  -2.6091  -2.5699  -2.4725  -2.4610  -2.4547
    -2.3852  -2.3348  -2.2511  -2.1112  -2.0859  -2.0649  -1.9639  -0.8768
    -0.8367  -0.0073   0.3400   0.5619   1.1551   1.2232   1.2954   1.4892
     1.5352   1.5391   1.5859   1.6513   1.8788   1.9264   2.0514   2.0929
     2.1735   2.2541   2.5032   2.9223   3.6075   3.8310   3.8505   4.1896
     4.4778   5.1862   5.5601   5.8515   6.0011   6.2023   6.2543   6.5358
     6.8802   7.1023   7.1415   7.3798   7.4905

          k =-0.0843-0.0487 0.0000 ( 19212 PWs)   bands (ev):

   -90.9614 -90.9595 -90.9576 -90.7938 -90.7918 -90.7899 -90.7887 -90.7868
   -90.7849 -56.5072 -56.4893 -56.4882 -54.4979 -54.4868 -54.4803 -54.4701
   -54.4617 -54.4523 -54.3998 -54.3856 -54.3663 -54.3495 -54.3441 -54.3400
   -54.3340 -54.3306 -54.3263 -54.2852 -54.2771 -54.2701 -54.2631 -54.2578
   -54.2507 -54.2243 -54.2192 -54.2147 -54.2096 -54.2007 -54.1959 -32.7906
   -32.7708 -32.7241 -32.6871 -32.6863 -32.6743 -32.6739 -32.6706 -32.6690
    -4.3300  -4.1972  -4.1807  -4.0586  -4.0258  -3.9667  -3.9116  -3.8903
    -3.8814  -3.8659  -3.8375  -3.7677  -3.6720  -3.6062  -3.5960  -3.5959
    -3.5212  -3.4882  -3.4299  -3.2482  -3.2246  -3.1786  -3.1540  -3.1468
    -3.0782  -3.0695  -3.0534  -2.9746  -2.9667  -2.9643  -2.8907  -2.8704
    -2.8563  -2.8288  -2.8022  -2.7811  -2.6727  -2.6521  -2.6486  -2.6165
    -2.6139  -2.5847  -2.5251  -2.3609  -2.2468  -2.0596  -1.8976  -1.7224
    -1.1253  -0.4710   0.4296   0.7014   0.7677   0.8178   1.2140   1.3242
     1.4681   1.5271   1.5586   1.6079   1.6231   1.8307   1.9096   2.0190
     2.2397   2.3221   2.7569   2.9695   3.4013   3.7102   4.2880   4.4070
     4.8369   5.0729   6.0214   6.0468   6.5682   6.5821   6.7668   6.7741
     7.1337   7.2770   7.3991   7.7000   7.8271

          k =-0.0843-0.0162 0.0000 ( 19211 PWs)   bands (ev):

   -90.9614 -90.9595 -90.9576 -90.7938 -90.7918 -90.7899 -90.7887 -90.7868
   -90.7849 -56.5072 -56.4893 -56.4882 -54.4970 -54.4880 -54.4800 -54.4701
   -54.4615 -54.4523 -54.4003 -54.3845 -54.3670 -54.3487 -54.3432 -54.3411
   -54.3351 -54.3304 -54.3259 -54.2857 -54.2776 -54.2693 -54.2623 -54.2581
   -54.2510 -54.2245 -54.2192 -54.2139 -54.2096 -54.2009 -54.1962 -32.7906
   -32.7708 -32.7241 -32.6870 -32.6864 -32.6745 -32.6737 -32.6704 -32.6692
    -4.2776  -4.1548  -4.1238  -4.0680  -4.0515  -4.0035  -3.9672  -3.9138
    -3.8503  -3.8120  -3.7984  -3.7616  -3.7406  -3.6641  -3.6150  -3.5835
    -3.5495  -3.4731  -3.4045  -3.3625  -3.2918  -3.2559  -3.1777  -3.1455
    -3.1169  -3.0985  -3.0671  -3.0339  -2.9676  -2.9307  -2.8938  -2.8727
    -2.8440  -2.7918  -2.7834  -2.7616  -2.6987  -2.6655  -2.6172  -2.5809
    -2.5325  -2.4804  -2.3792  -2.2254  -2.1469  -2.1012  -1.9930  -1.6799
    -1.1164  -0.6079   0.1186   0.2908   0.9415   1.0973   1.2512   1.4184
     1.4385   1.5326   1.5746   1.6031   1.7286   1.8285   1.8990   2.0675
     2.1680   2.3268   2.5021   2.9342   3.7048   4.0162   4.0516   4.7112
     5.0486   5.5451   5.7529   6.0347   6.2384   6.4627   6.5922   6.6310
     6.8805   7.2398   7.3477   7.3928   7.4834

          k =-0.0843 0.0162 0.0000 ( 19211 PWs)   bands (ev):

   -90.9614 -90.9595 -90.9576 -90.7938 -90.7918 -90.7899 -90.7887 -90.7868
   -90.7849 -56.5072 -56.4893 -56.4882 -54.4970 -54.4880 -54.4800 -54.4701
   -54.4615 -54.4523 -54.4003 -54.3845 -54.3670 -54.3487 -54.3432 -54.3411
   -54.3351 -54.3304 -54.3259 -54.2857 -54.2776 -54.2693 -54.2623 -54.2581
   -54.2510 -54.2245 -54.2192 -54.2139 -54.2096 -54.2009 -54.1962 -32.7906
   -32.7708 -32.7241 -32.6870 -32.6864 -32.6745 -32.6737 -32.6704 -32.6692
    -4.2776  -4.1548  -4.1238  -4.0680  -4.0515  -4.0035  -3.9672  -3.9138
    -3.8503  -3.8120  -3.7984  -3.7616  -3.7406  -3.6641  -3.6150  -3.5835
    -3.5495  -3.4731  -3.4045  -3.3625  -3.2918  -3.2559  -3.1777  -3.1455
    -3.1169  -3.0985  -3.0671  -3.0339  -2.9676  -2.9307  -2.8938  -2.8727
    -2.8440  -2.7918  -2.7834  -2.7616  -2.6987  -2.6655  -2.6172  -2.5809
    -2.5325  -2.4804  -2.3792  -2.2254  -2.1469  -2.1012  -1.9930  -1.6799
    -1.1164  -0.6079   0.1186   0.2908   0.9415   1.0973   1.2512   1.4184
     1.4385   1.5326   1.5746   1.6031   1.7286   1.8285   1.8990   2.0675
     2.1680   2.3268   2.5021   2.9342   3.7048   4.0162   4.0516   4.7112
     5.0486   5.5451   5.7529   6.0347   6.2384   6.4627   6.5922   6.6310
     6.8805   7.2398   7.3477   7.3928   7.4835

          k =-0.0843-0.1461 0.0000 ( 19212 PWs)   bands (ev):

   -90.9614 -90.9595 -90.9576 -90.7938 -90.7918 -90.7899 -90.7887 -90.7868
   -90.7849 -56.5072 -56.4893 -56.4882 -54.4979 -54.4868 -54.4803 -54.4701
   -54.4617 -54.4523 -54.3998 -54.3856 -54.3663 -54.3495 -54.3441 -54.3400
   -54.3340 -54.3306 -54.3263 -54.2852 -54.2771 -54.2701 -54.2631 -54.2578
   -54.2507 -54.2243 -54.2192 -54.2147 -54.2096 -54.2007 -54.1959 -32.7906
   -32.7708 -32.7241 -32.6871 -32.6863 -32.6743 -32.6739 -32.6706 -32.6690
    -4.3300  -4.1972  -4.1807  -4.0586  -4.0258  -3.9667  -3.9116  -3.8903
    -3.8814  -3.8659  -3.8375  -3.7677  -3.6720  -3.6062  -3.5960  -3.5959
    -3.5212  -3.4882  -3.4299  -3.2482  -3.2246  -3.1786  -3.1540  -3.1468
    -3.0782  -3.0695  -3.0534  -2.9746  -2.9667  -2.9643  -2.8907  -2.8704
    -2.8563  -2.8288  -2.8022  -2.7811  -2.6727  -2.6521  -2.6486  -2.6165
    -2.6139  -2.5847  -2.5251  -2.3609  -2.2468  -2.0596  -1.8976  -1.7224
    -1.1253  -0.4710   0.4296   0.7014   0.7677   0.8178   1.2140   1.3242
     1.4681   1.5271   1.5586   1.6079   1.6231   1.8307   1.9096   2.0190
     2.2397   2.3221   2.7569   2.9695   3.4013   3.7102   4.2880   4.4070
     4.8369   5.0729   6.0214   6.0468   6.5682   6.5821   6.7668   6.7741
     7.1337   7.2770   7.3991   7.7000   7.8273

     the Fermi energy is     1.3564 ev

!    total energy              =   -3029.31339776 Ry
     Harris-Foulkes estimate   =   -3029.31339853 Ry
     estimated scf accuracy    <       0.00000033 Ry

     The total energy is the sum of the following terms:

     one-electron contribution =  -21554.87966918 Ry
     hartree contribution      =   10765.46790194 Ry
     xc contribution           =    -326.56187948 Ry
     ewald contribution        =    8086.76432245 Ry
     electric field correction =       0.00000068 Ry
     smearing contrib. (-TS)   =      -0.10407416 Ry

     convergence has been achieved in  24 iterations
 
 BEEF-vdW xc energy contributions
           1 :   -282.680257928763     
           2 :    255.505307496945     
           3 :   -210.231653416629     
           4 :    160.565450542631     
           5 :   -118.785541136887     
           6 :    91.2704827479085     
           7 :   -77.4998015704564     
           8 :    72.2697735258920     
           9 :   -69.3687955038000     
          10 :    64.6299551593174     
          11 :   -57.0918081602226     
          12 :    48.2249762410355     
          13 :   -40.1869956674706     
          14 :    34.3165297642884     
          15 :   -30.6215770054405     
          16 :    28.2217974437672     
          17 :   -26.1670054625691     
          18 :    24.0101312305512     
          19 :   -21.8754342873626     
          20 :    20.1465798279765     
          21 :   -19.0892872948486     
          22 :    18.6556364346324     
          23 :   -18.5420454933414     
          24 :    18.4035942044992     
          25 :   -18.0659534294172     
          26 :    17.6073256417738     
          27 :   -17.2805624003323     
          28 :    17.3308351808519     
          29 :   -17.8179017015349     
          30 :    18.5445296585228     
          31 :   -28.4596769668473     
          32 :   -20.6383703281237     

     Forces acting on atoms (Ry/au):


     negative rho (up, down):  3.680E-03 0.000E+00
     atom    1 type  1   force =     0.00000003    0.00250141   -0.00012007
     atom    2 type  1   force =     0.00216628   -0.00125073   -0.00011985
     atom    3 type  1   force =    -0.00216630   -0.00125080   -0.00011970
     atom    4 type  2   force =     0.00000004   -0.00000000    0.01079209
     atom    5 type  1   force =    -0.00000004   -0.00349214   -0.00333496
     atom    6 type  1   force =    -0.00302434    0.00174602   -0.00333494
     atom    7 type  1   force =     0.00302434    0.00174613   -0.00333499
     atom    8 type  2   force =     0.00000003   -0.00000001    0.00051870
     atom    9 type  1   force =    -0.00000011    0.00126299   -0.00008671
     atom   10 type  1   force =     0.00109376   -0.00063153   -0.00008666
     atom   11 type  1   force =    -0.00109374   -0.00063130   -0.00008653
     atom   12 type  2   force =     0.00000005   -0.00000004   -0.00068638

     Total force =     0.014518     Total SCF correction =     0.001128


     entering subroutine stress ...


     negative rho (up, down):  3.680E-03 0.000E+00
          total   stress  (Ry/bohr**3)                   (kbar)     P=   -7.01
  -0.00005949  -0.00000000   0.00000000         -8.75     -0.00      0.00
  -0.00000000  -0.00005949  -0.00000000         -0.00     -8.75     -0.00
   0.00000000  -0.00000000  -0.00002403          0.00     -0.00     -3.53

 !ASE

     Writing output data file calc.save
 
     init_run     :     11.97s CPU     18.75s WALL (       1 calls)
     electrons    :    736.20s CPU   1185.12s WALL (       1 calls)
     forces       :      2.75s CPU      3.31s WALL (       1 calls)
     stress       :      5.78s CPU      6.66s WALL (       1 calls)

     Called by init_run:
     wfcinit      :      9.71s CPU     15.72s WALL (       1 calls)
     potinit      :      1.15s CPU      1.69s WALL (       1 calls)

     Called by electrons:
     c_bands      :    587.40s CPU    942.21s WALL (      24 calls)
     sum_band     :     86.15s CPU    154.54s WALL (      24 calls)
     v_of_rho     :     23.01s CPU     34.45s WALL (      25 calls)
     newd         :      5.97s CPU      6.37s WALL (      25 calls)
     mix_rho      :      1.09s CPU      1.70s WALL (      24 calls)
     vdW_energy   :      1.82s CPU      1.83s WALL (      61 calls)
     vdW_ffts     :     37.44s CPU     55.48s WALL (     124 calls)
     vdW_v        :      6.63s CPU      9.35s WALL (      61 calls)

     Called by c_bands:
     init_us_2    :      0.52s CPU      0.57s WALL (    1020 calls)
     cegterg      :    577.10s CPU    927.07s WALL (     480 calls)

     Called by *egterg:
     h_psi        :    336.77s CPU    634.88s WALL (    1710 calls)
     s_psi        :      8.39s CPU      8.51s WALL (    1710 calls)
     g_psi        :      0.44s CPU      0.46s WALL (    1210 calls)
     cdiaghg      :    151.11s CPU    170.89s WALL (    1690 calls)

     Called by h_psi:
     add_vuspsi   :      8.85s CPU      8.89s WALL (    1710 calls)

     General routines
     calbec       :     25.65s CPU     32.93s WALL (    2230 calls)
     fft          :     56.51s CPU     84.06s WALL (    3753 calls)
     ffts         :      0.15s CPU      0.27s WALL (      49 calls)
     fftw         :    368.97s CPU    725.79s WALL (  342118 calls)
     interpolate  :      0.83s CPU      1.34s WALL (      49 calls)
     davcio       :      0.00s CPU      0.02s WALL (      20 calls)
 
     Parallel routines
     fft_scatter  :    395.23s CPU    776.91s WALL (  345920 calls)
 
     PWSCF        : 12m37.73s CPU    20m15.55s WALL

 
   This run was terminated on:  17:46: 3  19Dec2018            

=------------------------------------------------------------------------------=
   JOB DONE.
=------------------------------------------------------------------------------=
Job  /afs/slac/g/suncat/bin/suncat-tsmpirun -x LD_LIBRARY_PATH -wdir /scratch/qe773206_vhIL3 pw.x -in pw.inp

TID   HOST_NAME   COMMAND_LINE            STATUS            TERMINATION_TIME
===== ========== ================  =======================  ===================
00000 suncat0178 pw.x -in pw.inp   Done                     12/19/2018 17:46:03
00001 suncat0178 pw.x -in pw.inp   Done                     12/19/2018 17:46:03
00002 suncat0178 pw.x -in pw.inp   Done                     12/19/2018 17:46:03
00003 suncat0178 pw.x -in pw.inp   Done                     12/19/2018 17:46:03
00004 suncat0178 pw.x -in pw.inp   Done                     12/19/2018 17:46:03
00005 suncat0178 pw.x -in pw.inp   Done                     12/19/2018 17:46:03
00006 suncat0178 pw.x -in pw.inp   Done                     12/19/2018 17:46:03
00007 suncat0178 pw.x -in pw.inp   Done                     12/19/2018 17:46:03
00008 suncat0177 pw.x -in pw.inp   Done                     12/19/2018 17:46:03
00009 suncat0177 pw.x -in pw.inp   Done                     12/19/2018 17:46:03
00010 suncat0177 pw.x -in pw.inp   Done                     12/19/2018 17:46:03
00011 suncat0177 pw.x -in pw.inp   Done                     12/19/2018 17:46:03
00012 suncat0177 pw.x -in pw.inp   Done                     12/19/2018 17:46:03
00013 suncat0177 pw.x -in pw.inp   Done                     12/19/2018 17:46:03
00014 suncat0177 pw.x -in pw.inp   Done                     12/19/2018 17:46:03
00015 suncat0177 pw.x -in pw.inp   Done                     12/19/2018 17:46:03
00016 suncat0172 pw.x -in pw.inp   Done                     12/19/2018 17:46:03
00017 suncat0172 pw.x -in pw.inp   Done                     12/19/2018 17:46:03
00018 suncat0172 pw.x -in pw.inp   Done                     12/19/2018 17:46:03
00019 suncat0172 pw.x -in pw.inp   Done                     12/19/2018 17:46:03
00020 suncat0172 pw.x -in pw.inp   Done                     12/19/2018 17:46:03
00021 suncat0172 pw.x -in pw.inp   Done                     12/19/2018 17:46:03
00022 suncat0172 pw.x -in pw.inp   Done                     12/19/2018 17:46:03
00023 suncat0172 pw.x -in pw.inp   Done                     12/19/2018 17:46:03
00024 suncat0171 pw.x -in pw.inp   Done                     12/19/2018 17:46:03
00025 suncat0171 pw.x -in pw.inp   Done                     12/19/2018 17:46:03
00026 suncat0171 pw.x -in pw.inp   Done                     12/19/2018 17:46:03
00027 suncat0171 pw.x -in pw.inp   Done                     12/19/2018 17:46:03
00028 suncat0171 pw.x -in pw.inp   Done                     12/19/2018 17:46:03
00029 suncat0171 pw.x -in pw.inp   Done                     12/19/2018 17:46:03
00030 suncat0171 pw.x -in pw.inp   Done                     12/19/2018 17:46:03
00031 suncat0171 pw.x -in pw.inp   Done                     12/19/2018 17:46:03
00032 suncat0169 pw.x -in pw.inp   Done                     12/19/2018 17:46:03
00033 suncat0169 pw.x -in pw.inp   Done                     12/19/2018 17:46:03
00034 suncat0169 pw.x -in pw.inp   Done                     12/19/2018 17:46:03
00035 suncat0169 pw.x -in pw.inp   Done                     12/19/2018 17:46:03
00036 suncat0169 pw.x -in pw.inp   Done                     12/19/2018 17:46:03
00037 suncat0169 pw.x -in pw.inp   Done                     12/19/2018 17:46:03
00038 suncat0169 pw.x -in pw.inp   Done                     12/19/2018 17:46:03
00039 suncat0169 pw.x -in pw.inp   Done                     12/19/2018 17:46:03
00040 suncat0168 pw.x -in pw.inp   Done                     12/19/2018 17:46:03
00041 suncat0168 pw.x -in pw.inp   Done                     12/19/2018 17:46:03
00042 suncat0168 pw.x -in pw.inp   Done                     12/19/2018 17:46:03
00043 suncat0168 pw.x -in pw.inp   Done                     12/19/2018 17:46:03
00044 suncat0168 pw.x -in pw.inp   Done                     12/19/2018 17:46:03
00045 suncat0168 pw.x -in pw.inp   Done                     12/19/2018 17:46:03
00046 suncat0168 pw.x -in pw.inp   Done                     12/19/2018 17:46:03
00047 suncat0168 pw.x -in pw.inp   Done                     12/19/2018 17:46:03
00048 suncat0110 pw.x -in pw.inp   Done                     12/19/2018 17:46:03
00049 suncat0110 pw.x -in pw.inp   Done                     12/19/2018 17:46:03
00050 suncat0110 pw.x -in pw.inp   Done                     12/19/2018 17:46:03
00051 suncat0110 pw.x -in pw.inp   Done                     12/19/2018 17:46:03
00052 suncat0110 pw.x -in pw.inp   Done                     12/19/2018 17:46:03
00053 suncat0110 pw.x -in pw.inp   Done                     12/19/2018 17:46:03
00054 suncat0110 pw.x -in pw.inp   Done                     12/19/2018 17:46:03
00055 suncat0110 pw.x -in pw.inp   Done                     12/19/2018 17:46:03
00056 suncat0105 pw.x -in pw.inp   Done                     12/19/2018 17:46:03
00057 suncat0105 pw.x -in pw.inp   Done                     12/19/2018 17:46:03
00058 suncat0105 pw.x -in pw.inp   Done                     12/19/2018 17:46:03
00059 suncat0105 pw.x -in pw.inp   Done                     12/19/2018 17:46:03
00060 suncat0105 pw.x -in pw.inp   Done                     12/19/2018 17:46:03
00061 suncat0105 pw.x -in pw.inp   Done                     12/19/2018 17:46:03
00062 suncat0105 pw.x -in pw.inp   Done                     12/19/2018 17:46:03
00063 suncat0105 pw.x -in pw.inp   Done                     12/19/2018 17:46:03
