  python dir          : /u/if/mamunm/src/espresso
  espresso dir        : /nfs/slac/g/suncatfs/sw/espv18/espresso-dynpy-beef/bin
  pseudo dir          : /afs/slac.stanford.edu/u/if/mamunm/psp/gbrv1.5pbe
  ase-espresso py git : GITVERSION



     Program PWSCF v.5.1rc2 (svn rev. 11289) starts on 19Dec2018 at 16:48:22 

     This program is part of the open-source Quantum ESPRESSO suite
     for quantum simulation of materials; please cite
         "P. Giannozzi et al., J. Phys.:Condens. Matter 21 395502 (2009);
          URL http://www.quantum-espresso.org", 
     in publications or presentations arising from this work. More details at
     http://www.quantum-espresso.org/quote

     Parallel version (MPI), running on    64 processors
     R & G space division:  proc/nbgrp/npool/nimage =      64
     Reading input from pw.inp
     Message from routine read_cards :
     DEPRECATED: no units specified in CELL_PARAMETERS card

     Current dimensions of program PWSCF are:
     Max number of different atomic species (ntypx) = 10
     Max number of k-points (npk) =  40000
     Max angular momentum in pseudopotentials (lmaxx) =  3
     Presently stress not available with electric field


     **************************************************************************
     Initializing libbeef V0.1.1 with the BEEF-vdW functional.
     Citation: Wellendorff et al., PRB 85, 235149 (2012).
     **************************************************************************


     IMPORTANT: XC functional enforced from input :
     Exchange-correlation      = BEEF-VDW ( 1  4 27 13 2)
     Any further DFT definition will be discarded
     Please, verify this is what you really want


     Subspace diagonalization in iterative solution of the eigenvalue problem:
     a serial algorithm will be used

 
     Parallelization info
     --------------------
     sticks:   dense  smooth     PW     G-vecs:    dense   smooth      PW
     Min          52      21      6                10074     2537     404
     Max          53      22      8                10093     2568     416
     Sum        3355    1345    397               645175   163239   26343
 


     bravais-lattice index     =            0
     lattice parameter (alat)  =       1.8897  a.u.
     unit-cell volume          =    5425.5107 (a.u.)^3
     number of atoms/cell      =           12
     number of atomic types    =            2
     number of electrons       =       207.00
     number of Kohn-Sham states=          133
     kinetic-energy cutoff     =      36.7493  Ry
     charge density cutoff     =     367.4932  Ry
     convergence threshold     =      1.0E-06
     mixing beta               =       0.1000
     number of iterations used =           10  plain     mixing
     Exchange-correlation      = BEEF-VDW ( 1  4 27 13 2)
     nstep                     =           50


     celldm(1)=   1.889726  celldm(2)=   0.000000  celldm(3)=   0.000000
     celldm(4)=   0.000000  celldm(5)=   0.000000  celldm(6)=   0.000000

     crystal axes: (cart. coord. in units of alat)
               a(1) = (   6.096491   0.000000   0.000000 )  
               a(2) = (  -3.048245   5.279716   0.000000 )  
               a(3) = (   0.000000   0.000000  24.977764 )  

     reciprocal axes: (cart. coord. in units 2 pi/alat)
               b(1) = (  0.164029  0.094702  0.000000 )  
               b(2) = (  0.000000  0.189404  0.000000 )  
               b(3) = (  0.000000  0.000000  0.040036 )  


     PseudoPot. # 1 for Ag read from file:
     /afs/slac.stanford.edu/u/if/mamunm/psp/gbrv1.5pbe/Ag.UPF
     MD5 check sum: d66d668201baa78d5eb5b04ef7011058
     Pseudo is Ultrasoft + core correction, Zval = 19.0
     Generated by new atomic code, or converted to UPF format
     Using radial grid of  887 points,  6 beta functions with: 
                l(1) =   0
                l(2) =   0
                l(3) =   1
                l(4) =   1
                l(5) =   2
                l(6) =   2
     Q(r) pseudized with  6 coefficients,  rinner =    1.300   1.300   1.300
                                                       1.300   1.300

     PseudoPot. # 2 for Zr read from file:
     /afs/slac.stanford.edu/u/if/mamunm/psp/gbrv1.5pbe/Zr.UPF
     MD5 check sum: 5db81b1e868ab7776c4564c113de050b
     Pseudo is Ultrasoft + core correction, Zval = 12.0
     Generated by new atomic code, or converted to UPF format
     Using radial grid of  887 points,  6 beta functions with: 
                l(1) =   0
                l(2) =   0
                l(3) =   1
                l(4) =   1
                l(5) =   2
                l(6) =   2
     Q(r) pseudized with  6 coefficients,  rinner =    1.200   1.200   1.200
                                                       1.200   1.200

     vdW kernel table read from file vdW_kernel_table
     MD5 check sum: 095c7af220d748ca6e76c0b4c6cfb241

     atomic species   valence    mass     pseudopotential
        Ag1           19.00   107.86820     Ag( 1.00)
        Zr1           12.00    91.22400     Zr( 1.00)

     No symmetry found



   Cartesian axes

     site n.     atom                  positions (alat units)
         1           Ag1 tau(   1) = (   0.0000000   0.0000000  10.0000000  )
         2           Ag1 tau(   2) = (   4.5723681   2.6398579  10.0000000  )
         3           Ag1 tau(   3) = (   1.5241227   2.6398579  10.0000000  )
         4           Zr1 tau(   4) = (   3.0482454   0.0000000  10.0000000  )
         5           Ag1 tau(   5) = (   3.0482454   1.7599053  12.4888819  )
         6           Ag1 tau(   6) = (   1.5241227   4.3997632  12.4888819  )
         7           Ag1 tau(   7) = (  -1.5241227   4.3997632  12.4888819  )
         8           Zr1 tau(   8) = (   0.0000000   1.7599053  12.4888819  )
         9           Ag1 tau(   9) = (  -0.0000000   3.5198106  14.9777639  )
        10           Ag1 tau(  10) = (   1.5241227   0.8799526  14.9777639  )
        11           Ag1 tau(  11) = (   4.5723681   0.8799526  14.9777639  )
        12           Zr1 tau(  12) = (   3.0482454   3.5198106  14.9777639  )

     number of k points=    20  Fermi-Dirac smearing, width (Ry)=  0.0110
                       cart. coord. in units 2pi/alat
        k(    1) = (   0.0000000   0.0000000   0.0000000), wk =   0.0555556
        k(    2) = (   0.0000000   0.0315674   0.0000000), wk =   0.1111111
        k(    3) = (   0.0000000   0.0631347   0.0000000), wk =   0.1111111
        k(    4) = (   0.0000000  -0.0947021   0.0000000), wk =   0.0555556
        k(    5) = (   0.0273381   0.0157837   0.0000000), wk =   0.1111111
        k(    6) = (   0.0273381   0.0473510   0.0000000), wk =   0.1111111
        k(    7) = (   0.0273381   0.0789184   0.0000000), wk =   0.1111111
        k(    8) = (   0.0273381  -0.0789184   0.0000000), wk =   0.1111111
        k(    9) = (   0.0273381  -0.0473510   0.0000000), wk =   0.1111111
        k(   10) = (   0.0273381  -0.0157837   0.0000000), wk =   0.1111111
        k(   11) = (   0.0546763   0.0315674   0.0000000), wk =   0.1111111
        k(   12) = (   0.0546763   0.0631347   0.0000000), wk =   0.1111111
        k(   13) = (   0.0546763   0.0947021   0.0000000), wk =   0.1111111
        k(   14) = (   0.0546763  -0.0631347   0.0000000), wk =   0.1111111
        k(   15) = (   0.0546763  -0.0315674   0.0000000), wk =   0.1111111
        k(   16) = (   0.0546763   0.0000000   0.0000000), wk =   0.1111111
        k(   17) = (  -0.0820144  -0.0473510   0.0000000), wk =   0.0555556
        k(   18) = (  -0.0820144  -0.0157837   0.0000000), wk =   0.1111111
        k(   19) = (  -0.0820144   0.0157837   0.0000000), wk =   0.1111111
        k(   20) = (  -0.0820144  -0.1420531   0.0000000), wk =   0.0555556

     Dense  grid:   645175 G-vectors     FFT dimensions: (  72,  72, 300)

     Smooth grid:   163239 G-vectors     FFT dimensions: (  45,  45, 192)

     Largest allocated arrays     est. size (Mb)     dimensions
        Kohn-Sham Wavefunctions         0.72 Mb     (     356,  133)
        NL pseudopotentials             1.17 Mb     (     356,  216)
        Each V/rho on FFT grid          0.40 Mb     (   25920)
        Each G-vector array             0.08 Mb     (   10074)
        G-vector shells                 0.04 Mb     (    4713)
     Largest temporary arrays     est. size (Mb)     dimensions
        Auxiliary wavefunctions         2.89 Mb     (     356,  532)
        Each subspace H/S matrix        4.32 Mb     (     532,  532)
        Each <psi_i|beta_j> matrix      0.44 Mb     (     216,  133)
        Arrays for rho mixing           3.96 Mb     (   25920,   10)

     Initial potential from superposition of free atoms
     Check: negative starting charge=   -0.188177

     starting charge  202.49313, renormalised to  207.00000

     negative rho (up, down):  1.924E-01 0.000E+00


     ************************************************************************
     *
     * You are using vdW-DF for exchange-correlation in this calculation.
     * Please cite the following three references that made this development
     * possible:
     *
     *   M. Dion, H. Rydberg, E. Schroder, D. C. Langreth, and
     *   B. I. Lundqvist, Phys. Rev. Lett. 92, 246401 (2004).
     *
     *   T. Thonhauser, V. R. Cooper, S. Li, A. Puzder, P. Hyldgaard, and
     *   D. C. Langreth, Phys. Rev. B 76, 125112 (2007).
     *
     *   G. Roman-Perez and J. M. Soler, Phys. Rev. Lett. 103, 096102 (2009).
     *
     *
     * If you are using vdW-DF2, please also cite:
     *
     *   K. Lee, E. D. Murray, L. Kong, B. I. Lundqvist, and
     *   D. C. Langreth, Phys. Rev. B 82, 081101(R) (2010).
     *
     *
     * If you are calculating the stress with vdW-DF, please also cite:
     *
     *   R. Sabatini, E. Kucukbenli, B. Kolb, T. Thonhauser, and
     *   S. de Gironcoli, J. Phys.: Condens. Matter 24, 424209 (2012).
     *
     ************************************************************************

     Carrying out vdW-DF run using the following parameters:

     Nqs =      20    Nr_points =    1024   r_max =   100.000
     q_mesh =
               0.00001000     0.04494208     0.09755937     0.15916263
               0.23128650     0.31572767     0.41458969     0.53033537
               0.66584808     0.82450364     1.01025438     1.22772762
               1.48234092     1.78043706     2.12944203     2.53805004
               3.01644009     3.57652955     4.23227104     5.00000000

     Gradients computed in reciprocal space

     ************************************************************************


 
     Adding external electric field

     Computed dipole along edir(3) : 
        Dipole                0.0000 Ry au,          0.0000 Debye
        Dipole field          0.0000 Ry au
 
        Potential amp.       -0.0000 Ry
        Total length         46.0211 bohr
 
     Starting wfc are  156 randomized atomic wfcs

     total cpu time spent up to now is       21.8 secs

     per-process dynamical memory:    43.9 Mb

     Self-consistent Calculation

     iteration #  1     ecut=    36.75 Ry     beta=0.10
     Davidson diagonalization with overlap
     ethr =  1.00E-02,  avg # of iterations =  7.8

     negative rho (up, down):  1.911E-01 0.000E+00
 
     Adding external electric field

     Computed dipole along edir(3) : 
        Dipole               -0.0001 Ry au,         -0.0002 Debye
        Dipole field         -0.0000 Ry au
 
        Potential amp.        0.0000 Ry
        Total length         46.0211 bohr
 

     total cpu time spent up to now is      102.5 secs

     total energy              =   -2968.87982281 Ry
     Harris-Foulkes estimate   =   -2971.52682109 Ry
     estimated scf accuracy    <      15.57799685 Ry

     iteration #  2     ecut=    36.75 Ry     beta=0.10
     Davidson diagonalization with overlap
     ethr =  7.53E-03,  avg # of iterations =  1.0

     negative rho (up, down):  1.908E-01 0.000E+00
 
     Adding external electric field

     Computed dipole along edir(3) : 
        Dipole               -0.0003 Ry au,         -0.0009 Debye
        Dipole field         -0.0000 Ry au
 
        Potential amp.        0.0001 Ry
        Total length         46.0211 bohr
 

     total cpu time spent up to now is      149.5 secs

     total energy              =   -2969.06070878 Ry
     Harris-Foulkes estimate   =   -2969.73945084 Ry
     estimated scf accuracy    <       3.36551701 Ry

     iteration #  3     ecut=    36.75 Ry     beta=0.10
     Davidson diagonalization with overlap
     ethr =  1.63E-03,  avg # of iterations =  1.3

     negative rho (up, down):  1.906E-01 0.000E+00
 
     Adding external electric field

     Computed dipole along edir(3) : 
        Dipole                0.0008 Ry au,          0.0020 Debye
        Dipole field          0.0000 Ry au
 
        Potential amp.       -0.0002 Ry
        Total length         46.0211 bohr
 

     total cpu time spent up to now is      198.2 secs

     total energy              =   -2968.99793627 Ry
     Harris-Foulkes estimate   =   -2969.24063781 Ry
     estimated scf accuracy    <       1.19944605 Ry

     iteration #  4     ecut=    36.75 Ry     beta=0.10
     Davidson diagonalization with overlap
     ethr =  5.79E-04,  avg # of iterations =  1.3

     negative rho (up, down):  1.906E-01 0.000E+00
 
     Adding external electric field

     Computed dipole along edir(3) : 
        Dipole               -0.0114 Ry au,         -0.0290 Debye
        Dipole field         -0.0000 Ry au
 
        Potential amp.        0.0024 Ry
        Total length         46.0211 bohr
 

     total cpu time spent up to now is      247.8 secs

     total energy              =   -2968.86782662 Ry
     Harris-Foulkes estimate   =   -2969.04377228 Ry
     estimated scf accuracy    <       0.42084138 Ry

     iteration #  5     ecut=    36.75 Ry     beta=0.10
     Davidson diagonalization with overlap
     ethr =  2.03E-04,  avg # of iterations =  4.0

     negative rho (up, down):  1.907E-01 0.000E+00
 
     Adding external electric field

     Computed dipole along edir(3) : 
        Dipole                0.0727 Ry au,          0.1848 Debye
        Dipole field          0.0002 Ry au
 
        Potential amp.       -0.0155 Ry
        Total length         46.0211 bohr
 

     total cpu time spent up to now is      312.9 secs

     total energy              =   -2968.93186697 Ry
     Harris-Foulkes estimate   =   -2968.93968937 Ry
     estimated scf accuracy    <       0.06182592 Ry

     iteration #  6     ecut=    36.75 Ry     beta=0.10
     Davidson diagonalization with overlap
     ethr =  2.99E-05,  avg # of iterations =  5.2

     negative rho (up, down):  1.908E-01 0.000E+00
 
     Adding external electric field

     Computed dipole along edir(3) : 
        Dipole               -0.0075 Ry au,         -0.0191 Debye
        Dipole field         -0.0000 Ry au
 
        Potential amp.        0.0016 Ry
        Total length         46.0211 bohr
 

     total cpu time spent up to now is      372.9 secs

     total energy              =   -2968.92942371 Ry
     Harris-Foulkes estimate   =   -2968.93867317 Ry
     estimated scf accuracy    <       0.25868525 Ry

     iteration #  7     ecut=    36.75 Ry     beta=0.10
     Davidson diagonalization with overlap
     ethr =  2.99E-05,  avg # of iterations =  4.3

     negative rho (up, down):  1.909E-01 0.000E+00
 
     Adding external electric field

     Computed dipole along edir(3) : 
        Dipole                0.0013 Ry au,          0.0033 Debye
        Dipole field          0.0000 Ry au
 
        Potential amp.       -0.0003 Ry
        Total length         46.0211 bohr
 

     total cpu time spent up to now is      429.2 secs

     total energy              =   -2968.92968395 Ry
     Harris-Foulkes estimate   =   -2968.93485055 Ry
     estimated scf accuracy    <       0.04129037 Ry

     iteration #  8     ecut=    36.75 Ry     beta=0.10
     Davidson diagonalization with overlap
     ethr =  1.99E-05,  avg # of iterations =  4.9

     negative rho (up, down):  1.908E-01 0.000E+00
 
     Adding external electric field

     Computed dipole along edir(3) : 
        Dipole                0.0011 Ry au,          0.0029 Debye
        Dipole field          0.0000 Ry au
 
        Potential amp.       -0.0002 Ry
        Total length         46.0211 bohr
 

     total cpu time spent up to now is      487.6 secs

     total energy              =   -2968.93024721 Ry
     Harris-Foulkes estimate   =   -2968.93473287 Ry
     estimated scf accuracy    <       0.02822234 Ry

     iteration #  9     ecut=    36.75 Ry     beta=0.10
     Davidson diagonalization with overlap
     ethr =  1.36E-05,  avg # of iterations =  2.0

     negative rho (up, down):  1.908E-01 0.000E+00
 
     Adding external electric field

     Computed dipole along edir(3) : 
        Dipole               -0.0015 Ry au,         -0.0039 Debye
        Dipole field         -0.0000 Ry au
 
        Potential amp.        0.0003 Ry
        Total length         46.0211 bohr
 

     total cpu time spent up to now is      535.7 secs

     total energy              =   -2968.93126778 Ry
     Harris-Foulkes estimate   =   -2968.93208083 Ry
     estimated scf accuracy    <       0.00525548 Ry

     iteration # 10     ecut=    36.75 Ry     beta=0.10
     Davidson diagonalization with overlap
     ethr =  2.54E-06,  avg # of iterations =  5.5

     negative rho (up, down):  1.908E-01 0.000E+00
 
     Adding external electric field

     Computed dipole along edir(3) : 
        Dipole               -0.0001 Ry au,         -0.0003 Debye
        Dipole field         -0.0000 Ry au
 
        Potential amp.        0.0000 Ry
        Total length         46.0211 bohr
 

     total cpu time spent up to now is      599.0 secs

     total energy              =   -2968.93102199 Ry
     Harris-Foulkes estimate   =   -2968.93269273 Ry
     estimated scf accuracy    <       0.00977031 Ry

     iteration # 11     ecut=    36.75 Ry     beta=0.10
     Davidson diagonalization with overlap
     ethr =  2.54E-06,  avg # of iterations =  2.7

     negative rho (up, down):  1.908E-01 0.000E+00
 
     Adding external electric field

     Computed dipole along edir(3) : 
        Dipole               -0.0001 Ry au,         -0.0002 Debye
        Dipole field         -0.0000 Ry au
 
        Potential amp.        0.0000 Ry
        Total length         46.0211 bohr
 

     total cpu time spent up to now is      652.8 secs

     total energy              =   -2968.93170533 Ry
     Harris-Foulkes estimate   =   -2968.93179831 Ry
     estimated scf accuracy    <       0.00074748 Ry

     iteration # 12     ecut=    36.75 Ry     beta=0.10
     Davidson diagonalization with overlap
     ethr =  3.61E-07,  avg # of iterations =  1.4

     negative rho (up, down):  1.907E-01 0.000E+00
 
     Adding external electric field

     Computed dipole along edir(3) : 
        Dipole               -0.0001 Ry au,         -0.0003 Debye
        Dipole field         -0.0000 Ry au
 
        Potential amp.        0.0000 Ry
        Total length         46.0211 bohr
 

     total cpu time spent up to now is      702.3 secs

     total energy              =   -2968.93176878 Ry
     Harris-Foulkes estimate   =   -2968.93179267 Ry
     estimated scf accuracy    <       0.00023555 Ry

     iteration # 13     ecut=    36.75 Ry     beta=0.10
     Davidson diagonalization with overlap
     ethr =  1.14E-07,  avg # of iterations =  2.0

     negative rho (up, down):  1.907E-01 0.000E+00
 
     Adding external electric field

     Computed dipole along edir(3) : 
        Dipole               -0.0002 Ry au,         -0.0005 Debye
        Dipole field         -0.0000 Ry au
 
        Potential amp.        0.0000 Ry
        Total length         46.0211 bohr
 

     total cpu time spent up to now is      754.7 secs

     total energy              =   -2968.93179274 Ry
     Harris-Foulkes estimate   =   -2968.93180499 Ry
     estimated scf accuracy    <       0.00012144 Ry

     iteration # 14     ecut=    36.75 Ry     beta=0.10
     Davidson diagonalization with overlap
     ethr =  5.87E-08,  avg # of iterations =  1.0

     negative rho (up, down):  1.907E-01 0.000E+00
 
     Adding external electric field

     Computed dipole along edir(3) : 
        Dipole                0.0002 Ry au,          0.0005 Debye
        Dipole field          0.0000 Ry au
 
        Potential amp.       -0.0000 Ry
        Total length         46.0211 bohr
 

     total cpu time spent up to now is      804.4 secs

     total energy              =   -2968.93179157 Ry
     Harris-Foulkes estimate   =   -2968.93179571 Ry
     estimated scf accuracy    <       0.00006700 Ry

     iteration # 15     ecut=    36.75 Ry     beta=0.10
     Davidson diagonalization with overlap
     ethr =  3.24E-08,  avg # of iterations =  2.0

     negative rho (up, down):  1.907E-01 0.000E+00
 
     Adding external electric field

     Computed dipole along edir(3) : 
        Dipole                0.0000 Ry au,          0.0001 Debye
        Dipole field          0.0000 Ry au
 
        Potential amp.       -0.0000 Ry
        Total length         46.0211 bohr
 

     total cpu time spent up to now is      857.9 secs

     total energy              =   -2968.93179586 Ry
     Harris-Foulkes estimate   =   -2968.93179755 Ry
     estimated scf accuracy    <       0.00000727 Ry

     iteration # 16     ecut=    36.75 Ry     beta=0.10
     Davidson diagonalization with overlap
     ethr =  3.51E-09,  avg # of iterations =  2.0

     negative rho (up, down):  1.908E-01 0.000E+00

     negative rho (up, down):  1.908E-01 0.000E+00

     negative rho (up, down):  1.908E-01 0.000E+00

     negative rho (up, down):  1.908E-01 0.000E+00

     negative rho (up, down):  1.908E-01 0.000E+00

     negative rho (up, down):  1.908E-01 0.000E+00

     negative rho (up, down):  1.908E-01 0.000E+00

     negative rho (up, down):  1.908E-01 0.000E+00

     negative rho (up, down):  1.908E-01 0.000E+00

     negative rho (up, down):  1.908E-01 0.000E+00

     negative rho (up, down):  1.908E-01 0.000E+00

     negative rho (up, down):  1.908E-01 0.000E+00

     negative rho (up, down):  1.908E-01 0.000E+00

     negative rho (up, down):  1.908E-01 0.000E+00

     negative rho (up, down):  1.908E-01 0.000E+00

     negative rho (up, down):  1.908E-01 0.000E+00

     negative rho (up, down):  1.908E-01 0.000E+00

     negative rho (up, down):  1.908E-01 0.000E+00

     negative rho (up, down):  1.908E-01 0.000E+00

     negative rho (up, down):  1.908E-01 0.000E+00

     negative rho (up, down):  1.908E-01 0.000E+00

     negative rho (up, down):  1.908E-01 0.000E+00

     negative rho (up, down):  1.908E-01 0.000E+00

     negative rho (up, down):  1.908E-01 0.000E+00

     negative rho (up, down):  1.908E-01 0.000E+00

     negative rho (up, down):  1.908E-01 0.000E+00

     negative rho (up, down):  1.908E-01 0.000E+00

     negative rho (up, down):  1.908E-01 0.000E+00

     negative rho (up, down):  1.908E-01 0.000E+00

     negative rho (up, down):  1.908E-01 0.000E+00

     negative rho (up, down):  1.908E-01 0.000E+00

     negative rho (up, down):  1.908E-01 0.000E+00

     negative rho (up, down):  1.908E-01 0.000E+00

     negative rho (up, down):  1.908E-01 0.000E+00

     negative rho (up, down):  1.908E-01 0.000E+00
 
     Adding external electric field

     Computed dipole along edir(3) : 
        Dipole               -0.0006 Ry au,         -0.0016 Debye
        Dipole field         -0.0000 Ry au
 
        Potential amp.        0.0001 Ry
        Total length         46.0211 bohr
 

     total cpu time spent up to now is      952.8 secs

     End of self-consistent calculation

          k = 0.0000 0.0000 0.0000 ( 20395 PWs)   bands (ev):

   -90.6402 -90.6364 -90.6364 -90.5453 -90.5451 -90.5416 -90.5416 -90.5414
   -90.5414 -54.1742 -54.1698 -54.1698 -54.1526 -54.1526 -54.1445 -54.1114
   -54.1114 -54.1101 -54.1101 -54.0897 -54.0886 -54.0664 -54.0389 -54.0376
   -54.0264 -54.0264 -54.0140 -54.0140 -54.0115 -54.0115 -53.9671 -53.9630
   -53.9361 -53.9361 -53.9351 -53.9351 -48.7343 -48.7340 -48.5730 -26.7483
   -26.7455 -26.6088 -26.6088 -26.6082 -26.6082 -26.5091 -26.4746 -26.4746
    -4.6847  -4.0743  -4.0371  -4.0035  -4.0035  -3.9354  -3.8994  -3.8391
    -3.8391  -3.8168  -3.8154  -3.8154  -3.7807  -3.6869  -3.6869  -3.2430
    -3.2042  -3.2042  -3.1692  -3.1692  -3.0130  -2.9677  -2.8796  -2.8349
    -2.8349  -2.7484  -2.7484  -2.7242  -2.7242  -2.5909  -2.5909  -2.4827
    -2.3941  -2.3941  -2.3566  -2.2562  -2.2562  -2.1978  -2.1978  -2.0701
    -2.0701  -2.0323  -1.8216  -1.8216  -1.7884  -1.7199  -1.6789  -0.3044
     0.9557   1.2394   1.2394   1.3092   1.3092   1.4621   1.7164   1.7164
     1.9097   2.0127   2.0127   2.5284   2.5978   2.5978   2.6074   2.7598
     2.7598   3.0423   3.0423   4.0834   4.0834   4.1964   4.3259   4.3259
     4.3733   5.0068   5.2109   5.6556   6.4749   6.4749   6.5011   6.5011
     6.5669   6.7907   6.8937   7.3803   7.5297

          k = 0.0000 0.0316 0.0000 ( 20345 PWs)   bands (ev):

   -90.6399 -90.6366 -90.6364 -90.5451 -90.5449 -90.5418 -90.5416 -90.5416
   -90.5414 -54.1730 -54.1693 -54.1682 -54.1536 -54.1527 -54.1456 -54.1112
   -54.1101 -54.1099 -54.1088 -54.0907 -54.0898 -54.0643 -54.0371 -54.0357
   -54.0289 -54.0266 -54.0151 -54.0140 -54.0128 -54.0117 -53.9655 -53.9618
   -53.9382 -53.9373 -53.9361 -53.9353 -48.7342 -48.7339 -48.5729 -26.7482
   -26.7457 -26.6101 -26.6093 -26.6093 -26.6085 -26.5090 -26.4757 -26.4749
    -4.5093  -3.9940  -3.9698  -3.9324  -3.9031  -3.8665  -3.7995  -3.7914
    -3.7846  -3.7653  -3.7458  -3.7313  -3.6995  -3.6251  -3.5825  -3.2557
    -3.1783  -3.1693  -3.1544  -3.1535  -3.0039  -2.9553  -2.9131  -2.8487
    -2.8206  -2.7998  -2.7548  -2.7204  -2.6975  -2.6420  -2.5856  -2.5049
    -2.4532  -2.4242  -2.4170  -2.3137  -2.2919  -2.2095  -2.1897  -2.1064
    -2.0723  -2.0655  -1.9107  -1.9074  -1.8669  -1.8084  -1.7498  -0.3065
    -0.0104   0.4728   1.0345   1.0719   1.4215   1.6346   1.6513   1.7146
     1.8342   1.9964   2.0320   2.3188   2.5085   2.5561   2.6468   2.7246
     2.8320   2.9042   3.3324   3.6423   3.7963   4.2921   4.5303   4.7850
     4.8239   5.1568   5.3686   5.7918   6.5184   6.6040   6.6393   6.7281
     6.7453   6.9300   7.1516   7.4983   7.7623

          k = 0.0000 0.0631 0.0000 ( 20421 PWs)   bands (ev):

   -90.6394 -90.6372 -90.6364 -90.5445 -90.5444 -90.5424 -90.5422 -90.5416
   -90.5414 -54.1717 -54.1664 -54.1639 -54.1568 -54.1541 -54.1482 -54.1108
   -54.1101 -54.1061 -54.1053 -54.0938 -54.0933 -54.0586 -54.0368 -54.0320
   -54.0304 -54.0270 -54.0182 -54.0163 -54.0140 -54.0121 -53.9613 -53.9587
   -53.9439 -53.9426 -53.9363 -53.9356 -48.7339 -48.7337 -48.5727 -26.7479
   -26.7461 -26.6124 -26.6117 -26.6103 -26.6092 -26.5088 -26.4781 -26.4757
    -4.0658  -3.8453  -3.8113  -3.7620  -3.7390  -3.6768  -3.6748  -3.6557
    -3.6263  -3.5705  -3.5578  -3.5322  -3.4825  -3.3808  -3.3367  -3.2735
    -3.1886  -3.1386  -3.1322  -3.0515  -3.0232  -2.9700  -2.9696  -2.8809
    -2.8351  -2.8101  -2.7536  -2.7116  -2.6950  -2.6276  -2.6040  -2.6030
    -2.5533  -2.5497  -2.4795  -2.4167  -2.3654  -2.3322  -2.3172  -2.2631
    -2.2406  -2.2216  -2.1574  -2.0277  -1.9067  -1.8790  -1.7556  -1.2814
    -0.5669   0.0934   0.2556   0.9497   1.0127   1.3281   1.3812   1.6725
     1.7191   1.9004   1.9411   1.9989   2.2821   2.4114   2.5199   2.5451
     2.6946   2.9536   3.4957   3.7924   4.3211   4.3780   4.6988   5.2660
     5.3871   5.5758   5.8563   5.9687   6.2017   6.8253   6.9500   7.0142
     7.1557   7.2077   7.3099   7.7214   7.8071

          k = 0.0000-0.0947 0.0000 ( 20420 PWs)   bands (ev):

   -90.6389 -90.6376 -90.6364 -90.5440 -90.5439 -90.5428 -90.5427 -90.5416
   -90.5414 -54.1714 -54.1615 -54.1614 -54.1585 -54.1581 -54.1493 -54.1105
   -54.1102 -54.1031 -54.1022 -54.0965 -54.0964 -54.0536 -54.0421 -54.0284
   -54.0272 -54.0265 -54.0213 -54.0197 -54.0140 -54.0123 -53.9571 -53.9562
   -53.9484 -53.9465 -53.9364 -53.9358 -48.7337 -48.7336 -48.5726 -26.7477
   -26.7465 -26.6135 -26.6131 -26.6107 -26.6096 -26.5088 -26.4792 -26.4761
    -3.8193  -3.7388  -3.7304  -3.6713  -3.6563  -3.5341  -3.5271  -3.5219
    -3.5208  -3.4954  -3.4659  -3.3558  -3.3287  -3.2812  -3.2715  -3.2438
    -3.2202  -3.1369  -3.1196  -2.9786  -2.9236  -2.9207  -2.8708  -2.8524
    -2.8319  -2.8298  -2.7760  -2.7154  -2.7041  -2.6981  -2.6636  -2.6365
    -2.5712  -2.5689  -2.5573  -2.5429  -2.4499  -2.4452  -2.4333  -2.3917
    -2.3534  -2.3347  -2.3211  -2.1676  -2.0712  -1.9086  -1.7517  -1.5732
    -0.8743  -0.4202   0.4918   0.7551   0.8941   0.9156   1.3428   1.5494
     1.7490   1.8192   1.8643   1.9471   2.0203   2.3205   2.3464   2.5821
     2.7325   2.9660   3.5300   3.8357   4.6282   4.7729   4.9141   5.1049
     5.3751   5.7047   6.1237   6.1749   6.6480   6.6855   6.8769   6.8975
     7.1062   7.2684   7.6865   7.9229   8.0868

          k = 0.0273 0.0158 0.0000 ( 20345 PWs)   bands (ev):

   -90.6399 -90.6366 -90.6364 -90.5451 -90.5449 -90.5418 -90.5416 -90.5416
   -90.5414 -54.1730 -54.1693 -54.1682 -54.1536 -54.1527 -54.1456 -54.1112
   -54.1101 -54.1099 -54.1088 -54.0907 -54.0898 -54.0643 -54.0371 -54.0357
   -54.0289 -54.0266 -54.0150 -54.0140 -54.0128 -54.0117 -53.9655 -53.9618
   -53.9382 -53.9373 -53.9361 -53.9353 -48.7342 -48.7339 -48.5729 -26.7482
   -26.7457 -26.6101 -26.6093 -26.6093 -26.6085 -26.5090 -26.4757 -26.4749
    -4.5093  -3.9940  -3.9698  -3.9324  -3.9031  -3.8665  -3.7995  -3.7914
    -3.7846  -3.7653  -3.7458  -3.7313  -3.6995  -3.6251  -3.5825  -3.2557
    -3.1783  -3.1693  -3.1544  -3.1535  -3.0039  -2.9553  -2.9131  -2.8487
    -2.8206  -2.7998  -2.7548  -2.7204  -2.6975  -2.6420  -2.5856  -2.5049
    -2.4532  -2.4242  -2.4170  -2.3137  -2.2919  -2.2095  -2.1897  -2.1064
    -2.0723  -2.0655  -1.9107  -1.9074  -1.8669  -1.8084  -1.7498  -0.3065
    -0.0104   0.4728   1.0345   1.0719   1.4215   1.6346   1.6513   1.7146
     1.8342   1.9964   2.0320   2.3188   2.5085   2.5561   2.6468   2.7246
     2.8320   2.9042   3.3324   3.6423   3.7963   4.2921   4.5303   4.7850
     4.8239   5.1568   5.3686   5.7918   6.5184   6.6040   6.6393   6.7281
     6.7453   6.9300   7.1516   7.4983   7.7324

          k = 0.0273 0.0474 0.0000 ( 20401 PWs)   bands (ev):

   -90.6395 -90.6370 -90.6364 -90.5447 -90.5445 -90.5422 -90.5420 -90.5416
   -90.5414 -54.1712 -54.1687 -54.1647 -54.1560 -54.1531 -54.1477 -54.1108
   -54.1100 -54.1073 -54.1065 -54.0929 -54.0923 -54.0603 -54.0351 -54.0326
   -54.0324 -54.0269 -54.0167 -54.0158 -54.0135 -54.0124 -53.9626 -53.9596
   -53.9419 -53.9414 -53.9362 -53.9357 -48.7340 -48.7337 -48.5728 -26.7480
   -26.7460 -26.6117 -26.6110 -26.6099 -26.6094 -26.5089 -26.4773 -26.4757
    -4.1899  -3.8594  -3.8369  -3.8262  -3.7677  -3.7291  -3.7156  -3.7130
    -3.6825  -3.6460  -3.5635  -3.5628  -3.5476  -3.5266  -3.3834  -3.2693
    -3.1900  -3.1597  -3.1156  -3.0626  -3.0482  -2.9726  -2.9493  -2.8653
    -2.8331  -2.7798  -2.7601  -2.7563  -2.6992  -2.6689  -2.5790  -2.5532
    -2.5155  -2.5122  -2.4942  -2.4021  -2.3477  -2.2664  -2.2516  -2.2396
    -2.1978  -2.1399  -2.0811  -1.9566  -1.9070  -1.8798  -1.8121  -0.7076
    -0.6752   0.0788   0.4518   0.7462   1.3400   1.3491   1.4933   1.7301
     1.8460   1.8629   1.9153   2.0602   2.4348   2.4582   2.5661   2.6617
     2.7535   2.8920   3.4386   3.5658   4.3257   4.4477   4.6005   5.0670
     5.2487   5.4329   5.6820   6.0620   6.4444   6.5562   6.7144   6.7192
     7.0461   7.3827   7.6035   7.6380   7.7426

          k = 0.0273 0.0789 0.0000 ( 20439 PWs)   bands (ev):

   -90.6389 -90.6376 -90.6364 -90.5441 -90.5439 -90.5428 -90.5427 -90.5416
   -90.5414 -54.1699 -54.1656 -54.1605 -54.1594 -54.1547 -54.1502 -54.1103
   -54.1099 -54.1034 -54.1028 -54.0964 -54.0962 -54.0539 -54.0413 -54.0294
   -54.0285 -54.0257 -54.0201 -54.0194 -54.0139 -54.0129 -53.9576 -53.9560
   -53.9478 -53.9468 -53.9364 -53.9361 -48.7337 -48.7336 -48.5726 -26.7476
   -26.7465 -26.6130 -26.6125 -26.6111 -26.6103 -26.5087 -26.4787 -26.4766
    -3.7735  -3.7061  -3.6817  -3.6654  -3.6381  -3.5997  -3.5472  -3.5303
    -3.5117  -3.4579  -3.4226  -3.3922  -3.3634  -3.3118  -3.2661  -3.2392
    -3.2313  -3.1559  -3.0737  -3.0556  -3.0079  -2.9672  -2.9073  -2.8591
    -2.8452  -2.8273  -2.8199  -2.7810  -2.7303  -2.6692  -2.6607  -2.6298
    -2.6048  -2.5614  -2.5485  -2.5371  -2.4716  -2.4559  -2.3953  -2.3816
    -2.3170  -2.2831  -2.1878  -2.0453  -1.9568  -1.9006  -1.8341  -1.4966
    -0.9567  -0.4166   0.1992   0.3489   1.0168   1.2084   1.4419   1.6603
     1.6792   1.8470   1.8879   1.9668   2.1659   2.3157   2.4199   2.6457
     2.7669   2.8477   3.4579   3.6087   4.3819   4.7703   5.0746   5.4820
     5.5835   5.9014   6.2126   6.3453   6.4327   6.6104   6.6499   6.7715
     7.0643   7.3171   7.4308   7.4717   7.6624

          k = 0.0273-0.0789 0.0000 ( 20439 PWs)   bands (ev):

   -90.6389 -90.6376 -90.6364 -90.5441 -90.5439 -90.5428 -90.5427 -90.5416
   -90.5414 -54.1699 -54.1656 -54.1605 -54.1594 -54.1547 -54.1502 -54.1103
   -54.1099 -54.1034 -54.1028 -54.0964 -54.0962 -54.0539 -54.0413 -54.0294
   -54.0285 -54.0257 -54.0201 -54.0194 -54.0139 -54.0129 -53.9576 -53.9560
   -53.9478 -53.9468 -53.9364 -53.9361 -48.7337 -48.7336 -48.5726 -26.7476
   -26.7465 -26.6130 -26.6125 -26.6111 -26.6103 -26.5087 -26.4787 -26.4766
    -3.7735  -3.7061  -3.6817  -3.6654  -3.6381  -3.5997  -3.5472  -3.5303
    -3.5117  -3.4579  -3.4226  -3.3922  -3.3634  -3.3118  -3.2661  -3.2392
    -3.2313  -3.1559  -3.0737  -3.0556  -3.0079  -2.9672  -2.9073  -2.8591
    -2.8452  -2.8273  -2.8199  -2.7810  -2.7303  -2.6692  -2.6607  -2.6298
    -2.6048  -2.5614  -2.5485  -2.5371  -2.4716  -2.4559  -2.3953  -2.3816
    -2.3170  -2.2831  -2.1878  -2.0453  -1.9568  -1.9006  -1.8341  -1.4966
    -0.9567  -0.4166   0.1992   0.3489   1.0168   1.2084   1.4419   1.6603
     1.6792   1.8470   1.8879   1.9668   2.1659   2.3157   2.4199   2.6457
     2.7669   2.8477   3.4579   3.6087   4.3819   4.7703   5.0746   5.4820
     5.5835   5.9014   6.2126   6.3453   6.4327   6.6104   6.6499   6.7715
     7.0643   7.3171   7.4308   7.4717   7.6624

          k = 0.0273-0.0474 0.0000 ( 20401 PWs)   bands (ev):

   -90.6395 -90.6370 -90.6364 -90.5447 -90.5445 -90.5422 -90.5420 -90.5416
   -90.5414 -54.1712 -54.1687 -54.1647 -54.1560 -54.1531 -54.1477 -54.1108
   -54.1100 -54.1073 -54.1065 -54.0929 -54.0923 -54.0603 -54.0351 -54.0326
   -54.0324 -54.0269 -54.0167 -54.0158 -54.0135 -54.0124 -53.9626 -53.9596
   -53.9419 -53.9414 -53.9362 -53.9357 -48.7340 -48.7337 -48.5728 -26.7480
   -26.7460 -26.6117 -26.6110 -26.6099 -26.6094 -26.5089 -26.4773 -26.4757
    -4.1899  -3.8594  -3.8369  -3.8262  -3.7677  -3.7291  -3.7156  -3.7130
    -3.6825  -3.6460  -3.5635  -3.5628  -3.5476  -3.5266  -3.3834  -3.2693
    -3.1900  -3.1597  -3.1156  -3.0626  -3.0482  -2.9726  -2.9493  -2.8653
    -2.8331  -2.7798  -2.7601  -2.7563  -2.6992  -2.6689  -2.5790  -2.5532
    -2.5155  -2.5122  -2.4942  -2.4021  -2.3477  -2.2664  -2.2516  -2.2396
    -2.1978  -2.1399  -2.0811  -1.9566  -1.9070  -1.8798  -1.8121  -0.7076
    -0.6752   0.0788   0.4518   0.7462   1.3400   1.3491   1.4933   1.7301
     1.8460   1.8629   1.9153   2.0602   2.4348   2.4582   2.5661   2.6617
     2.7535   2.8920   3.4386   3.5658   4.3257   4.4477   4.6005   5.0670
     5.2487   5.4329   5.6820   6.0620   6.4444   6.5562   6.7144   6.7192
     7.0461   7.3827   7.6035   7.6380   7.7427

          k = 0.0273-0.0158 0.0000 ( 20345 PWs)   bands (ev):

   -90.6399 -90.6366 -90.6364 -90.5451 -90.5449 -90.5418 -90.5416 -90.5416
   -90.5414 -54.1730 -54.1693 -54.1682 -54.1536 -54.1527 -54.1456 -54.1112
   -54.1101 -54.1099 -54.1088 -54.0907 -54.0898 -54.0643 -54.0371 -54.0357
   -54.0289 -54.0266 -54.0150 -54.0140 -54.0128 -54.0117 -53.9655 -53.9618
   -53.9382 -53.9373 -53.9361 -53.9353 -48.7342 -48.7339 -48.5729 -26.7482
   -26.7457 -26.6101 -26.6093 -26.6093 -26.6085 -26.5090 -26.4757 -26.4749
    -4.5093  -3.9940  -3.9698  -3.9324  -3.9031  -3.8665  -3.7995  -3.7914
    -3.7846  -3.7653  -3.7458  -3.7313  -3.6995  -3.6251  -3.5825  -3.2557
    -3.1783  -3.1693  -3.1544  -3.1535  -3.0039  -2.9553  -2.9131  -2.8487
    -2.8206  -2.7998  -2.7548  -2.7204  -2.6975  -2.6420  -2.5856  -2.5049
    -2.4532  -2.4242  -2.4170  -2.3137  -2.2919  -2.2095  -2.1897  -2.1064
    -2.0723  -2.0655  -1.9107  -1.9074  -1.8669  -1.8084  -1.7498  -0.3065
    -0.0104   0.4728   1.0345   1.0719   1.4215   1.6346   1.6513   1.7146
     1.8342   1.9964   2.0320   2.3188   2.5085   2.5561   2.6468   2.7246
     2.8320   2.9042   3.3324   3.6423   3.7963   4.2921   4.5303   4.7850
     4.8239   5.1568   5.3686   5.7918   6.5184   6.6040   6.6393   6.7281
     6.7453   6.9300   7.1516   7.4983   7.7325

          k = 0.0547 0.0316 0.0000 ( 20421 PWs)   bands (ev):

   -90.6394 -90.6372 -90.6364 -90.5445 -90.5444 -90.5424 -90.5422 -90.5416
   -90.5414 -54.1717 -54.1664 -54.1639 -54.1568 -54.1541 -54.1482 -54.1108
   -54.1101 -54.1061 -54.1053 -54.0938 -54.0933 -54.0586 -54.0368 -54.0320
   -54.0304 -54.0270 -54.0182 -54.0163 -54.0140 -54.0121 -53.9613 -53.9587
   -53.9439 -53.9426 -53.9363 -53.9356 -48.7339 -48.7337 -48.5727 -26.7479
   -26.7461 -26.6124 -26.6117 -26.6103 -26.6092 -26.5088 -26.4781 -26.4757
    -4.0658  -3.8453  -3.8113  -3.7620  -3.7390  -3.6768  -3.6748  -3.6557
    -3.6263  -3.5705  -3.5578  -3.5322  -3.4825  -3.3808  -3.3367  -3.2735
    -3.1886  -3.1386  -3.1322  -3.0515  -3.0232  -2.9700  -2.9696  -2.8809
    -2.8351  -2.8101  -2.7536  -2.7116  -2.6950  -2.6276  -2.6040  -2.6030
    -2.5533  -2.5497  -2.4795  -2.4167  -2.3654  -2.3322  -2.3172  -2.2631
    -2.2406  -2.2216  -2.1574  -2.0277  -1.9067  -1.8790  -1.7556  -1.2814
    -0.5669   0.0934   0.2556   0.9497   1.0127   1.3281   1.3812   1.6725
     1.7191   1.9004   1.9411   1.9989   2.2821   2.4114   2.5199   2.5451
     2.6946   2.9536   3.4957   3.7924   4.3211   4.3780   4.6988   5.2660
     5.3871   5.5758   5.8563   5.9687   6.2017   6.8253   6.9500   7.0142
     7.1557   7.2077   7.3099   7.7214   7.8071

          k = 0.0547 0.0631 0.0000 ( 20439 PWs)   bands (ev):

   -90.6389 -90.6376 -90.6364 -90.5441 -90.5439 -90.5428 -90.5427 -90.5416
   -90.5414 -54.1699 -54.1656 -54.1605 -54.1594 -54.1547 -54.1502 -54.1103
   -54.1099 -54.1034 -54.1028 -54.0964 -54.0962 -54.0539 -54.0413 -54.0294
   -54.0285 -54.0257 -54.0201 -54.0194 -54.0139 -54.0129 -53.9576 -53.9560
   -53.9478 -53.9468 -53.9364 -53.9361 -48.7337 -48.7336 -48.5726 -26.7476
   -26.7465 -26.6130 -26.6125 -26.6111 -26.6103 -26.5087 -26.4787 -26.4766
    -3.7735  -3.7061  -3.6817  -3.6654  -3.6381  -3.5997  -3.5472  -3.5303
    -3.5117  -3.4579  -3.4226  -3.3922  -3.3634  -3.3118  -3.2661  -3.2392
    -3.2313  -3.1559  -3.0737  -3.0556  -3.0079  -2.9672  -2.9073  -2.8591
    -2.8452  -2.8273  -2.8199  -2.7810  -2.7303  -2.6692  -2.6607  -2.6298
    -2.6048  -2.5614  -2.5485  -2.5371  -2.4716  -2.4559  -2.3953  -2.3816
    -2.3170  -2.2831  -2.1878  -2.0453  -1.9568  -1.9006  -1.8341  -1.4966
    -0.9567  -0.4166   0.1992   0.3489   1.0168   1.2084   1.4419   1.6603
     1.6792   1.8470   1.8879   1.9668   2.1659   2.3157   2.4199   2.6457
     2.7669   2.8477   3.4579   3.6087   4.3819   4.7703   5.0746   5.4820
     5.5835   5.9014   6.2126   6.3453   6.4327   6.6104   6.6499   6.7715
     7.0643   7.3171   7.4308   7.4717   7.6621

          k = 0.0547 0.0947 0.0000 ( 20445 PWs)   bands (ev):

   -90.6383 -90.6383 -90.6364 -90.5434 -90.5434 -90.5433 -90.5433 -90.5416
   -90.5414 -54.1658 -54.1658 -54.1652 -54.1559 -54.1536 -54.1536 -54.1099
   -54.1097 -54.1001 -54.0999 -54.0997 -54.0996 -54.0475 -54.0475 -54.0299
   -54.0247 -54.0232 -54.0230 -54.0213 -54.0140 -54.0138 -53.9529 -53.9524
   -53.9518 -53.9516 -53.9365 -53.9364 -48.7337 -48.7336 -48.5726 -26.7471
   -26.7470 -26.6122 -26.6121 -26.6121 -26.6120 -26.5087 -26.4780 -26.4780
    -3.6116  -3.6115  -3.5638  -3.5361  -3.5361  -3.5094  -3.5068  -3.4406
    -3.4116  -3.4115  -3.3595  -3.3595  -3.3317  -3.3317  -3.2198  -3.1726
    -3.1726  -3.1194  -3.1194  -3.0994  -3.0486  -3.0168  -3.0167  -2.9901
    -2.8892  -2.8892  -2.8128  -2.8033  -2.7253  -2.7253  -2.6828  -2.6609
    -2.6116  -2.6115  -2.5484  -2.5484  -2.4632  -2.4375  -2.4375  -2.4285
    -2.2833  -2.2833  -2.0219  -2.0218  -1.9958  -1.9957  -1.9705  -1.8109
    -0.7007  -0.7007  -0.5262   0.4464   0.9926   0.9926   1.5420   1.5420
     1.7561   1.9695   1.9695   2.0590   2.0866   2.3288   2.3288   2.5913
     2.7533   2.7533   3.4796   3.4796   4.0686   5.2948   5.4961   5.4961
     6.1111   6.1111   6.2540   6.4926   6.4926   6.5795   6.8639   6.9498
     6.9499   7.1532   7.2557   7.2561   7.3252

          k = 0.0547-0.0631 0.0000 ( 20439 PWs)   bands (ev):

   -90.6389 -90.6376 -90.6364 -90.5441 -90.5439 -90.5428 -90.5427 -90.5416
   -90.5414 -54.1699 -54.1656 -54.1605 -54.1594 -54.1547 -54.1502 -54.1103
   -54.1099 -54.1034 -54.1028 -54.0964 -54.0962 -54.0539 -54.0413 -54.0294
   -54.0285 -54.0257 -54.0201 -54.0194 -54.0139 -54.0129 -53.9576 -53.9560
   -53.9478 -53.9468 -53.9364 -53.9361 -48.7337 -48.7336 -48.5726 -26.7476
   -26.7465 -26.6130 -26.6125 -26.6111 -26.6103 -26.5087 -26.4787 -26.4766
    -3.7735  -3.7061  -3.6817  -3.6654  -3.6381  -3.5997  -3.5472  -3.5303
    -3.5117  -3.4579  -3.4226  -3.3922  -3.3634  -3.3118  -3.2661  -3.2392
    -3.2313  -3.1559  -3.0737  -3.0556  -3.0079  -2.9672  -2.9073  -2.8591
    -2.8452  -2.8273  -2.8199  -2.7810  -2.7303  -2.6692  -2.6607  -2.6298
    -2.6048  -2.5614  -2.5485  -2.5371  -2.4716  -2.4559  -2.3953  -2.3816
    -2.3170  -2.2831  -2.1878  -2.0453  -1.9568  -1.9006  -1.8341  -1.4966
    -0.9567  -0.4166   0.1992   0.3489   1.0168   1.2084   1.4419   1.6603
     1.6792   1.8470   1.8879   1.9668   2.1659   2.3157   2.4199   2.6457
     2.7669   2.8477   3.4579   3.6087   4.3819   4.7703   5.0746   5.4820
     5.5835   5.9014   6.2126   6.3453   6.4327   6.6104   6.6499   6.7715
     7.0643   7.3171   7.4308   7.4717   7.6624

          k = 0.0547-0.0316 0.0000 ( 20421 PWs)   bands (ev):

   -90.6394 -90.6372 -90.6364 -90.5445 -90.5444 -90.5424 -90.5422 -90.5416
   -90.5414 -54.1717 -54.1664 -54.1639 -54.1568 -54.1541 -54.1482 -54.1108
   -54.1101 -54.1061 -54.1053 -54.0938 -54.0933 -54.0586 -54.0368 -54.0320
   -54.0304 -54.0270 -54.0182 -54.0163 -54.0140 -54.0121 -53.9613 -53.9587
   -53.9439 -53.9426 -53.9363 -53.9356 -48.7339 -48.7337 -48.5727 -26.7479
   -26.7461 -26.6124 -26.6117 -26.6103 -26.6092 -26.5088 -26.4781 -26.4757
    -4.0658  -3.8453  -3.8113  -3.7620  -3.7390  -3.6768  -3.6748  -3.6557
    -3.6263  -3.5705  -3.5578  -3.5322  -3.4825  -3.3808  -3.3367  -3.2735
    -3.1886  -3.1386  -3.1322  -3.0515  -3.0232  -2.9700  -2.9696  -2.8809
    -2.8351  -2.8101  -2.7536  -2.7116  -2.6950  -2.6276  -2.6040  -2.6030
    -2.5533  -2.5497  -2.4795  -2.4167  -2.3654  -2.3322  -2.3172  -2.2631
    -2.2406  -2.2216  -2.1574  -2.0277  -1.9067  -1.8790  -1.7556  -1.2814
    -0.5669   0.0934   0.2556   0.9497   1.0127   1.3281   1.3812   1.6725
     1.7191   1.9004   1.9411   1.9989   2.2821   2.4114   2.5199   2.5451
     2.6946   2.9536   3.4957   3.7924   4.3211   4.3780   4.6988   5.2660
     5.3871   5.5758   5.8563   5.9687   6.2017   6.8253   6.9500   7.0142
     7.1557   7.2077   7.3099   7.7214   7.8071

          k = 0.0547 0.0000 0.0000 ( 20401 PWs)   bands (ev):

   -90.6395 -90.6370 -90.6364 -90.5447 -90.5445 -90.5422 -90.5420 -90.5416
   -90.5414 -54.1712 -54.1687 -54.1647 -54.1560 -54.1531 -54.1477 -54.1108
   -54.1100 -54.1073 -54.1065 -54.0929 -54.0923 -54.0603 -54.0351 -54.0326
   -54.0324 -54.0269 -54.0167 -54.0158 -54.0135 -54.0124 -53.9626 -53.9596
   -53.9419 -53.9414 -53.9362 -53.9357 -48.7340 -48.7337 -48.5728 -26.7480
   -26.7460 -26.6117 -26.6110 -26.6099 -26.6094 -26.5089 -26.4773 -26.4757
    -4.1899  -3.8594  -3.8369  -3.8262  -3.7677  -3.7291  -3.7156  -3.7130
    -3.6825  -3.6460  -3.5635  -3.5628  -3.5476  -3.5266  -3.3834  -3.2693
    -3.1900  -3.1597  -3.1156  -3.0626  -3.0482  -2.9726  -2.9493  -2.8653
    -2.8331  -2.7798  -2.7601  -2.7563  -2.6992  -2.6689  -2.5790  -2.5532
    -2.5155  -2.5122  -2.4942  -2.4021  -2.3477  -2.2664  -2.2516  -2.2396
    -2.1978  -2.1399  -2.0811  -1.9566  -1.9070  -1.8798  -1.8121  -0.7076
    -0.6752   0.0788   0.4518   0.7462   1.3400   1.3491   1.4933   1.7301
     1.8460   1.8629   1.9153   2.0602   2.4348   2.4582   2.5661   2.6617
     2.7535   2.8920   3.4386   3.5658   4.3257   4.4477   4.6005   5.0670
     5.2487   5.4329   5.6820   6.0620   6.4444   6.5562   6.7144   6.7192
     7.0461   7.3827   7.6035   7.6380   7.7427

          k =-0.0820-0.0474 0.0000 ( 20420 PWs)   bands (ev):

   -90.6389 -90.6376 -90.6364 -90.5441 -90.5439 -90.5428 -90.5427 -90.5416
   -90.5414 -54.1714 -54.1615 -54.1614 -54.1585 -54.1581 -54.1493 -54.1105
   -54.1102 -54.1031 -54.1022 -54.0965 -54.0964 -54.0536 -54.0421 -54.0284
   -54.0272 -54.0265 -54.0213 -54.0197 -54.0140 -54.0123 -53.9571 -53.9562
   -53.9484 -53.9465 -53.9364 -53.9358 -48.7337 -48.7336 -48.5726 -26.7477
   -26.7465 -26.6135 -26.6131 -26.6107 -26.6096 -26.5088 -26.4792 -26.4761
    -3.8193  -3.7388  -3.7304  -3.6713  -3.6563  -3.5341  -3.5271  -3.5219
    -3.5208  -3.4954  -3.4659  -3.3558  -3.3287  -3.2812  -3.2715  -3.2438
    -3.2202  -3.1369  -3.1196  -2.9786  -2.9236  -2.9207  -2.8708  -2.8524
    -2.8319  -2.8298  -2.7760  -2.7154  -2.7041  -2.6981  -2.6636  -2.6365
    -2.5712  -2.5689  -2.5573  -2.5429  -2.4499  -2.4452  -2.4333  -2.3917
    -2.3534  -2.3347  -2.3211  -2.1676  -2.0712  -1.9086  -1.7517  -1.5732
    -0.8743  -0.4202   0.4918   0.7551   0.8941   0.9156   1.3428   1.5494
     1.7490   1.8192   1.8643   1.9471   2.0203   2.3205   2.3464   2.5821
     2.7325   2.9660   3.5300   3.8357   4.6282   4.7729   4.9141   5.1049
     5.3751   5.7047   6.1237   6.1749   6.6480   6.6855   6.8769   6.8975
     7.1062   7.2684   7.6865   7.9228   8.0867

          k =-0.0820-0.0158 0.0000 ( 20439 PWs)   bands (ev):

   -90.6389 -90.6376 -90.6364 -90.5441 -90.5439 -90.5428 -90.5427 -90.5416
   -90.5414 -54.1699 -54.1656 -54.1605 -54.1594 -54.1547 -54.1502 -54.1103
   -54.1099 -54.1034 -54.1028 -54.0964 -54.0962 -54.0539 -54.0413 -54.0294
   -54.0285 -54.0257 -54.0201 -54.0194 -54.0139 -54.0129 -53.9576 -53.9560
   -53.9478 -53.9468 -53.9364 -53.9361 -48.7337 -48.7336 -48.5726 -26.7476
   -26.7465 -26.6130 -26.6125 -26.6111 -26.6103 -26.5087 -26.4787 -26.4766
    -3.7735  -3.7061  -3.6817  -3.6654  -3.6381  -3.5997  -3.5472  -3.5303
    -3.5117  -3.4579  -3.4226  -3.3922  -3.3634  -3.3118  -3.2661  -3.2392
    -3.2313  -3.1559  -3.0737  -3.0556  -3.0079  -2.9672  -2.9073  -2.8591
    -2.8452  -2.8273  -2.8199  -2.7810  -2.7303  -2.6692  -2.6607  -2.6298
    -2.6048  -2.5614  -2.5485  -2.5371  -2.4716  -2.4559  -2.3953  -2.3816
    -2.3170  -2.2831  -2.1878  -2.0453  -1.9568  -1.9006  -1.8341  -1.4966
    -0.9567  -0.4166   0.1992   0.3489   1.0168   1.2084   1.4419   1.6603
     1.6792   1.8470   1.8879   1.9668   2.1659   2.3157   2.4199   2.6457
     2.7669   2.8477   3.4579   3.6087   4.3819   4.7703   5.0746   5.4820
     5.5835   5.9014   6.2126   6.3453   6.4327   6.6104   6.6499   6.7715
     7.0643   7.3171   7.4308   7.4717   7.6624

          k =-0.0820 0.0158 0.0000 ( 20439 PWs)   bands (ev):

   -90.6389 -90.6376 -90.6364 -90.5441 -90.5439 -90.5428 -90.5427 -90.5416
   -90.5414 -54.1699 -54.1656 -54.1605 -54.1594 -54.1547 -54.1502 -54.1103
   -54.1099 -54.1034 -54.1028 -54.0964 -54.0962 -54.0539 -54.0413 -54.0294
   -54.0285 -54.0257 -54.0201 -54.0194 -54.0139 -54.0129 -53.9576 -53.9560
   -53.9478 -53.9468 -53.9364 -53.9361 -48.7337 -48.7336 -48.5726 -26.7476
   -26.7465 -26.6130 -26.6125 -26.6111 -26.6103 -26.5087 -26.4787 -26.4766
    -3.7735  -3.7061  -3.6817  -3.6654  -3.6381  -3.5997  -3.5472  -3.5303
    -3.5117  -3.4579  -3.4226  -3.3922  -3.3634  -3.3118  -3.2661  -3.2392
    -3.2313  -3.1559  -3.0737  -3.0556  -3.0079  -2.9672  -2.9073  -2.8591
    -2.8452  -2.8273  -2.8199  -2.7810  -2.7303  -2.6692  -2.6607  -2.6298
    -2.6048  -2.5614  -2.5485  -2.5371  -2.4716  -2.4559  -2.3953  -2.3816
    -2.3170  -2.2831  -2.1878  -2.0453  -1.9568  -1.9006  -1.8341  -1.4966
    -0.9567  -0.4166   0.1992   0.3489   1.0168   1.2084   1.4419   1.6603
     1.6792   1.8470   1.8879   1.9668   2.1659   2.3157   2.4199   2.6457
     2.7669   2.8477   3.4579   3.6087   4.3819   4.7703   5.0746   5.4820
     5.5835   5.9014   6.2126   6.3453   6.4327   6.6104   6.6499   6.7715
     7.0643   7.3171   7.4308   7.4717   7.6621

          k =-0.0820-0.1421 0.0000 ( 20420 PWs)   bands (ev):

   -90.6389 -90.6376 -90.6364 -90.5441 -90.5439 -90.5428 -90.5427 -90.5416
   -90.5414 -54.1714 -54.1615 -54.1614 -54.1585 -54.1581 -54.1493 -54.1105
   -54.1102 -54.1031 -54.1022 -54.0965 -54.0964 -54.0536 -54.0421 -54.0284
   -54.0272 -54.0265 -54.0213 -54.0197 -54.0140 -54.0123 -53.9571 -53.9562
   -53.9484 -53.9465 -53.9364 -53.9358 -48.7337 -48.7336 -48.5726 -26.7477
   -26.7465 -26.6135 -26.6131 -26.6107 -26.6096 -26.5088 -26.4792 -26.4761
    -3.8193  -3.7388  -3.7304  -3.6713  -3.6563  -3.5341  -3.5271  -3.5219
    -3.5208  -3.4954  -3.4659  -3.3558  -3.3287  -3.2812  -3.2715  -3.2438
    -3.2202  -3.1369  -3.1196  -2.9786  -2.9236  -2.9207  -2.8708  -2.8524
    -2.8319  -2.8298  -2.7760  -2.7154  -2.7041  -2.6981  -2.6636  -2.6365
    -2.5712  -2.5689  -2.5573  -2.5429  -2.4499  -2.4452  -2.4333  -2.3917
    -2.3534  -2.3347  -2.3211  -2.1676  -2.0712  -1.9086  -1.7517  -1.5732
    -0.8743  -0.4202   0.4918   0.7551   0.8941   0.9156   1.3428   1.5494
     1.7490   1.8192   1.8643   1.9471   2.0203   2.3205   2.3464   2.5821
     2.7325   2.9660   3.5300   3.8357   4.6282   4.7729   4.9141   5.1049
     5.3751   5.7047   6.1237   6.1749   6.6480   6.6855   6.8769   6.8975
     7.1062   7.2684   7.6865   7.9228   8.0869

     the Fermi energy is     1.6161 ev

!    total energy              =   -2968.93179320 Ry
     Harris-Foulkes estimate   =   -2968.93179624 Ry
     estimated scf accuracy    <       0.00000081 Ry

     The total energy is the sum of the following terms:

     one-electron contribution =  -20167.24670919 Ry
     hartree contribution      =   10073.92709791 Ry
     xc contribution           =    -325.34938625 Ry
     ewald contribution        =    7449.81644193 Ry
     electric field correction =       0.00000000 Ry
     smearing contrib. (-TS)   =      -0.07923760 Ry

     convergence has been achieved in  16 iterations
 
 BEEF-vdW xc energy contributions
           1 :   -281.425357966047     
           2 :    254.900261955911     
           3 :   -210.444491210623     
           4 :    161.210153652579     
           5 :   -119.289237596814     
           6 :    91.3517456090761     
           7 :   -77.3558051284351     
           8 :    72.3587183195004     
           9 :   -70.0165062067396     
          10 :    65.8079183432926     
          11 :   -58.5314362169583     
          12 :    49.7414226685324     
          13 :   -41.9192731999718     
          14 :    36.6715631864399     
          15 :   -33.9580991374316     
          16 :    32.5312509654177     
          17 :   -31.0147158268573     
          18 :    28.7883818537778     
          19 :   -26.1635050170011     
          20 :    23.8926355974647     
          21 :   -22.4834455147867     
          22 :    21.8214980541240     
          23 :   -21.3139026311707     
          24 :    20.3711508448490     
          25 :   -18.8404748674354     
          26 :    17.0852467667259     
          27 :   -15.6936426001493     
          28 :    15.0560677688804     
          29 :   -15.1146602221849     
          30 :    15.4347434420314     
          31 :   -28.7901893898625     
          32 :   -21.0419371544667     

     Forces acting on atoms (Ry/au):


     negative rho (up, down):  1.908E-01 0.000E+00
     atom    1 type  1   force =     0.00000006   -0.00156387    0.00389921
     atom    2 type  1   force =    -0.00135450    0.00078224    0.00389908
     atom    3 type  1   force =     0.00135421    0.00078185    0.00389935
     atom    4 type  2   force =     0.00000011    0.00000015    0.01656892
     atom    5 type  1   force =    -0.00000018    0.00001736   -0.00001883
     atom    6 type  1   force =     0.00001523   -0.00000868   -0.00001884
     atom    7 type  1   force =    -0.00001511   -0.00000843   -0.00001858
     atom    8 type  2   force =    -0.00000000    0.00000004    0.00004105
     atom    9 type  1   force =     0.00000001    0.00156666   -0.00391764
     atom   10 type  1   force =     0.00135680   -0.00078347   -0.00391776
     atom   11 type  1   force =    -0.00135678   -0.00078357   -0.00391744
     atom   12 type  2   force =     0.00000015   -0.00000028   -0.01649850

     Total force =     0.025556     Total SCF correction =     0.003129
     SCF correction compared to forces is large: reduce conv_thr to get better values


     entering subroutine stress ...


     negative rho (up, down):  1.908E-01 0.000E+00
          total   stress  (Ry/bohr**3)                   (kbar)     P=  -10.73
  -0.00007945   0.00000000   0.00000000        -11.69      0.00      0.00
   0.00000000  -0.00007945   0.00000000          0.00    -11.69      0.00
   0.00000000   0.00000000  -0.00006002          0.00      0.00     -8.83

 !ASE

     Writing output data file calc.save
 
     init_run     :     13.53s CPU     21.26s WALL (       1 calls)
     electrons    :    621.45s CPU    931.25s WALL (       1 calls)
     forces       :      3.04s CPU      3.68s WALL (       1 calls)
     stress       :      6.31s CPU      7.46s WALL (       1 calls)

     Called by init_run:
     wfcinit      :     11.38s CPU     18.55s WALL (       1 calls)
     potinit      :      1.19s CPU      1.65s WALL (       1 calls)

     Called by electrons:
     c_bands      :    489.04s CPU    727.99s WALL (      16 calls)
     sum_band     :     78.24s CPU    127.35s WALL (      16 calls)
     v_of_rho     :     17.02s CPU     24.80s WALL (      17 calls)
     newd         :      4.67s CPU      4.99s WALL (      17 calls)
     mix_rho      :      0.69s CPU      0.99s WALL (      16 calls)
     vdW_energy   :      1.47s CPU      1.47s WALL (      53 calls)
     vdW_ffts     :     33.57s CPU     49.34s WALL (     108 calls)
     vdW_v        :      5.72s CPU      8.07s WALL (      53 calls)

     Called by c_bands:
     init_us_2    :      0.38s CPU      0.40s WALL (     700 calls)
     cegterg      :    484.88s CPU    723.18s WALL (     320 calls)

     Called by *egterg:
     h_psi        :    316.46s CPU    528.95s WALL (    1308 calls)
     s_psi        :      5.77s CPU      5.84s WALL (    1308 calls)
     g_psi        :      0.32s CPU      0.32s WALL (     968 calls)
     cdiaghg      :    119.70s CPU    136.99s WALL (    1288 calls)

     Called by h_psi:
     add_vuspsi   :      6.12s CPU      6.18s WALL (    1308 calls)

     General routines
     calbec       :     19.14s CPU     24.18s WALL (    1668 calls)
     fft          :     50.37s CPU     74.18s WALL (    3225 calls)
     ffts         :      0.18s CPU      0.27s WALL (      33 calls)
     fftw         :    356.66s CPU    611.69s WALL (  228402 calls)
     interpolate  :      0.70s CPU      1.01s WALL (      33 calls)
     davcio       :      0.01s CPU      0.02s WALL (      20 calls)
 
     Parallel routines
     fft_scatter  :    386.35s CPU    663.75s WALL (  231660 calls)
 
     PWSCF        : 10m45.34s CPU    16m 5.37s WALL

 
   This run was terminated on:  17: 4:27  19Dec2018            

=------------------------------------------------------------------------------=
   JOB DONE.
=------------------------------------------------------------------------------=
Job  /afs/slac/g/suncat/bin/suncat-tsmpirun -x LD_LIBRARY_PATH -wdir /scratch/qe773225_ptBkn pw.x -in pw.inp

TID   HOST_NAME   COMMAND_LINE            STATUS            TERMINATION_TIME
===== ========== ================  =======================  ===================
00000 suncat0167 pw.x -in pw.inp   Done                     12/19/2018 17:04:27
00001 suncat0167 pw.x -in pw.inp   Done                     12/19/2018 17:04:27
00002 suncat0167 pw.x -in pw.inp   Done                     12/19/2018 17:04:27
00003 suncat0167 pw.x -in pw.inp   Done                     12/19/2018 17:04:27
00004 suncat0167 pw.x -in pw.inp   Done                     12/19/2018 17:04:27
00005 suncat0167 pw.x -in pw.inp   Done                     12/19/2018 17:04:27
00006 suncat0167 pw.x -in pw.inp   Done                     12/19/2018 17:04:27
00007 suncat0167 pw.x -in pw.inp   Done                     12/19/2018 17:04:27
00008 suncat0166 pw.x -in pw.inp   Done                     12/19/2018 17:04:27
00009 suncat0166 pw.x -in pw.inp   Done                     12/19/2018 17:04:27
00010 suncat0166 pw.x -in pw.inp   Done                     12/19/2018 17:04:27
00011 suncat0166 pw.x -in pw.inp   Done                     12/19/2018 17:04:27
00012 suncat0166 pw.x -in pw.inp   Done                     12/19/2018 17:04:27
00013 suncat0166 pw.x -in pw.inp   Done                     12/19/2018 17:04:27
00014 suncat0166 pw.x -in pw.inp   Done                     12/19/2018 17:04:27
00015 suncat0166 pw.x -in pw.inp   Done                     12/19/2018 17:04:27
00016 suncat0165 pw.x -in pw.inp   Done                     12/19/2018 17:04:27
00017 suncat0165 pw.x -in pw.inp   Done                     12/19/2018 17:04:27
00018 suncat0165 pw.x -in pw.inp   Done                     12/19/2018 17:04:27
00019 suncat0165 pw.x -in pw.inp   Done                     12/19/2018 17:04:27
00020 suncat0165 pw.x -in pw.inp   Done                     12/19/2018 17:04:27
00021 suncat0165 pw.x -in pw.inp   Done                     12/19/2018 17:04:27
00022 suncat0165 pw.x -in pw.inp   Done                     12/19/2018 17:04:27
00023 suncat0165 pw.x -in pw.inp   Done                     12/19/2018 17:04:27
00024 suncat0164 pw.x -in pw.inp   Done                     12/19/2018 17:04:27
00025 suncat0164 pw.x -in pw.inp   Done                     12/19/2018 17:04:27
00026 suncat0164 pw.x -in pw.inp   Done                     12/19/2018 17:04:27
00027 suncat0164 pw.x -in pw.inp   Done                     12/19/2018 17:04:27
00028 suncat0164 pw.x -in pw.inp   Done                     12/19/2018 17:04:27
00029 suncat0164 pw.x -in pw.inp   Done                     12/19/2018 17:04:27
00030 suncat0164 pw.x -in pw.inp   Done                     12/19/2018 17:04:27
00031 suncat0164 pw.x -in pw.inp   Done                     12/19/2018 17:04:27
00032 suncat0163 pw.x -in pw.inp   Done                     12/19/2018 17:04:27
00033 suncat0163 pw.x -in pw.inp   Done                     12/19/2018 17:04:27
00034 suncat0163 pw.x -in pw.inp   Done                     12/19/2018 17:04:27
00035 suncat0163 pw.x -in pw.inp   Done                     12/19/2018 17:04:27
00036 suncat0163 pw.x -in pw.inp   Done                     12/19/2018 17:04:27
00037 suncat0163 pw.x -in pw.inp   Done                     12/19/2018 17:04:27
00038 suncat0163 pw.x -in pw.inp   Done                     12/19/2018 17:04:27
00039 suncat0163 pw.x -in pw.inp   Done                     12/19/2018 17:04:27
00040 suncat0162 pw.x -in pw.inp   Done                     12/19/2018 17:04:27
00041 suncat0162 pw.x -in pw.inp   Done                     12/19/2018 17:04:27
00042 suncat0162 pw.x -in pw.inp   Done                     12/19/2018 17:04:27
00043 suncat0162 pw.x -in pw.inp   Done                     12/19/2018 17:04:27
00044 suncat0162 pw.x -in pw.inp   Done                     12/19/2018 17:04:27
00045 suncat0162 pw.x -in pw.inp   Done                     12/19/2018 17:04:27
00046 suncat0162 pw.x -in pw.inp   Done                     12/19/2018 17:04:27
00047 suncat0162 pw.x -in pw.inp   Done                     12/19/2018 17:04:27
00048 suncat0161 pw.x -in pw.inp   Done                     12/19/2018 17:04:27
00049 suncat0161 pw.x -in pw.inp   Done                     12/19/2018 17:04:27
00050 suncat0161 pw.x -in pw.inp   Done                     12/19/2018 17:04:27
00051 suncat0161 pw.x -in pw.inp   Done                     12/19/2018 17:04:27
00052 suncat0161 pw.x -in pw.inp   Done                     12/19/2018 17:04:27
00053 suncat0161 pw.x -in pw.inp   Done                     12/19/2018 17:04:27
00054 suncat0161 pw.x -in pw.inp   Done                     12/19/2018 17:04:27
00055 suncat0161 pw.x -in pw.inp   Done                     12/19/2018 17:04:27
00056 suncat0159 pw.x -in pw.inp   Done                     12/19/2018 17:04:27
00057 suncat0159 pw.x -in pw.inp   Done                     12/19/2018 17:04:27
00058 suncat0159 pw.x -in pw.inp   Done                     12/19/2018 17:04:27
00059 suncat0159 pw.x -in pw.inp   Done                     12/19/2018 17:04:27
00060 suncat0159 pw.x -in pw.inp   Done                     12/19/2018 17:04:27
00061 suncat0159 pw.x -in pw.inp   Done                     12/19/2018 17:04:27
00062 suncat0159 pw.x -in pw.inp   Done                     12/19/2018 17:04:27
00063 suncat0159 pw.x -in pw.inp   Done                     12/19/2018 17:04:27

     Program PWSCF v.5.1rc2 (svn rev. 11289) starts on 19Dec2018 at 17: 4:34 

     This program is part of the open-source Quantum ESPRESSO suite
     for quantum simulation of materials; please cite
         "P. Giannozzi et al., J. Phys.:Condens. Matter 21 395502 (2009);
          URL http://www.quantum-espresso.org", 
     in publications or presentations arising from this work. More details at
     http://www.quantum-espresso.org/quote

     Parallel version (MPI), running on    64 processors
     R & G space division:  proc/nbgrp/npool/nimage =      64
     Reading input from pw.inp
     Message from routine read_cards :
     DEPRECATED: no units specified in CELL_PARAMETERS card

     Current dimensions of program PWSCF are:
     Max number of different atomic species (ntypx) = 10
     Max number of k-points (npk) =  40000
     Max angular momentum in pseudopotentials (lmaxx) =  3
     Presently stress not available with electric field


     **************************************************************************
     Initializing libbeef V0.1.1 with the BEEF-vdW functional.
     Citation: Wellendorff et al., PRB 85, 235149 (2012).
     **************************************************************************


     IMPORTANT: XC functional enforced from input :
     Exchange-correlation      = BEEF-VDW ( 1  4 27 13 2)
     Any further DFT definition will be discarded
     Please, verify this is what you really want


     Subspace diagonalization in iterative solution of the eigenvalue problem:
     a serial algorithm will be used

 
     Parallelization info
     --------------------
     sticks:   dense  smooth     PW     G-vecs:    dense   smooth      PW
     Min          52      21      6                10074     2537     404
     Max          53      22      8                10093     2568     416
     Sum        3355    1345    397               645175   163239   26343
 


     bravais-lattice index     =            0
     lattice parameter (alat)  =       1.8897  a.u.
     unit-cell volume          =    5425.5107 (a.u.)^3
     number of atoms/cell      =           12
     number of atomic types    =            2
     number of electrons       =       207.00
     number of Kohn-Sham states=          133
     kinetic-energy cutoff     =      36.7493  Ry
     charge density cutoff     =     367.4932  Ry
     convergence threshold     =      1.0E-06
     mixing beta               =       0.1000
     number of iterations used =           10  plain     mixing
     Exchange-correlation      = BEEF-VDW ( 1  4 27 13 2)
     nstep                     =           50


     celldm(1)=   1.889726  celldm(2)=   0.000000  celldm(3)=   0.000000
     celldm(4)=   0.000000  celldm(5)=   0.000000  celldm(6)=   0.000000

     crystal axes: (cart. coord. in units of alat)
               a(1) = (   6.096491   0.000000   0.000000 )  
               a(2) = (  -3.048245   5.279716   0.000000 )  
               a(3) = (   0.000000   0.000000  24.977764 )  

     reciprocal axes: (cart. coord. in units 2 pi/alat)
               b(1) = (  0.164029  0.094702  0.000000 )  
               b(2) = (  0.000000  0.189404  0.000000 )  
               b(3) = (  0.000000  0.000000  0.040036 )  


     PseudoPot. # 1 for Ag read from file:
     /afs/slac.stanford.edu/u/if/mamunm/psp/gbrv1.5pbe/Ag.UPF
     MD5 check sum: d66d668201baa78d5eb5b04ef7011058
     Pseudo is Ultrasoft + core correction, Zval = 19.0
     Generated by new atomic code, or converted to UPF format
     Using radial grid of  887 points,  6 beta functions with: 
                l(1) =   0
                l(2) =   0
                l(3) =   1
                l(4) =   1
                l(5) =   2
                l(6) =   2
     Q(r) pseudized with  6 coefficients,  rinner =    1.300   1.300   1.300
                                                       1.300   1.300

     PseudoPot. # 2 for Zr read from file:
     /afs/slac.stanford.edu/u/if/mamunm/psp/gbrv1.5pbe/Zr.UPF
     MD5 check sum: 5db81b1e868ab7776c4564c113de050b
     Pseudo is Ultrasoft + core correction, Zval = 12.0
     Generated by new atomic code, or converted to UPF format
     Using radial grid of  887 points,  6 beta functions with: 
                l(1) =   0
                l(2) =   0
                l(3) =   1
                l(4) =   1
                l(5) =   2
                l(6) =   2
     Q(r) pseudized with  6 coefficients,  rinner =    1.200   1.200   1.200
                                                       1.200   1.200

     vdW kernel table read from file vdW_kernel_table
     MD5 check sum: 095c7af220d748ca6e76c0b4c6cfb241

     atomic species   valence    mass     pseudopotential
        Ag1           19.00   107.86820     Ag( 1.00)
        Zr1           12.00    91.22400     Zr( 1.00)

     No symmetry found



   Cartesian axes

     site n.     atom                  positions (alat units)
         1           Ag1 tau(   1) = (   0.0000000   0.0000000  10.0000000  )
         2           Ag1 tau(   2) = (   4.5723681   2.6398579  10.0000000  )
         3           Ag1 tau(   3) = (   1.5241227   2.6398579  10.0000000  )
         4           Zr1 tau(   4) = (   3.0482454   0.0000000  10.0000000  )
         5           Ag1 tau(   5) = (   3.0482454   1.7599053  12.4888819  )
         6           Ag1 tau(   6) = (   1.5241227   4.3997632  12.4888819  )
         7           Ag1 tau(   7) = (  -1.5241227   4.3997632  12.4888819  )
         8           Zr1 tau(   8) = (   0.0000000   1.7599053  12.4888819  )
         9           Ag1 tau(   9) = (   0.0000000   3.5238386  14.9676912  )
        10           Ag1 tau(  10) = (   1.5276112   0.8779383  14.9676909  )
        11           Ag1 tau(  11) = (   4.5688796   0.8779380  14.9676917  )
        12           Zr1 tau(  12) = (   3.0482458   3.5198099  14.9353445  )

     number of k points=    20  Fermi-Dirac smearing, width (Ry)=  0.0110
                       cart. coord. in units 2pi/alat
        k(    1) = (   0.0000000   0.0000000   0.0000000), wk =   0.0555556
        k(    2) = (   0.0000000   0.0315674   0.0000000), wk =   0.1111111
        k(    3) = (   0.0000000   0.0631347   0.0000000), wk =   0.1111111
        k(    4) = (   0.0000000  -0.0947021   0.0000000), wk =   0.0555556
        k(    5) = (   0.0273381   0.0157837   0.0000000), wk =   0.1111111
        k(    6) = (   0.0273381   0.0473510   0.0000000), wk =   0.1111111
        k(    7) = (   0.0273381   0.0789184   0.0000000), wk =   0.1111111
        k(    8) = (   0.0273381  -0.0789184   0.0000000), wk =   0.1111111
        k(    9) = (   0.0273381  -0.0473510   0.0000000), wk =   0.1111111
        k(   10) = (   0.0273381  -0.0157837   0.0000000), wk =   0.1111111
        k(   11) = (   0.0546763   0.0315674   0.0000000), wk =   0.1111111
        k(   12) = (   0.0546763   0.0631347   0.0000000), wk =   0.1111111
        k(   13) = (   0.0546763   0.0947021   0.0000000), wk =   0.1111111
        k(   14) = (   0.0546763  -0.0631347   0.0000000), wk =   0.1111111
        k(   15) = (   0.0546763  -0.0315674   0.0000000), wk =   0.1111111
        k(   16) = (   0.0546763   0.0000000   0.0000000), wk =   0.1111111
        k(   17) = (  -0.0820144  -0.0473510   0.0000000), wk =   0.0555556
        k(   18) = (  -0.0820144  -0.0157837   0.0000000), wk =   0.1111111
        k(   19) = (  -0.0820144   0.0157837   0.0000000), wk =   0.1111111
        k(   20) = (  -0.0820144  -0.1420531   0.0000000), wk =   0.0555556

     Dense  grid:   645175 G-vectors     FFT dimensions: (  72,  72, 300)

     Smooth grid:   163239 G-vectors     FFT dimensions: (  45,  45, 192)

     Largest allocated arrays     est. size (Mb)     dimensions
        Kohn-Sham Wavefunctions         0.72 Mb     (     356,  133)
        NL pseudopotentials             1.17 Mb     (     356,  216)
        Each V/rho on FFT grid          0.40 Mb     (   25920)
        Each G-vector array             0.08 Mb     (   10074)
        G-vector shells                 0.04 Mb     (    4713)
     Largest temporary arrays     est. size (Mb)     dimensions
        Auxiliary wavefunctions         2.89 Mb     (     356,  532)
        Each subspace H/S matrix        4.32 Mb     (     532,  532)
        Each <psi_i|beta_j> matrix      0.44 Mb     (     216,  133)
        Arrays for rho mixing           3.96 Mb     (   25920,   10)

     Initial potential from superposition of free atoms
     Check: negative starting charge=   -0.187286

     starting charge  202.49313, renormalised to  207.00000

     negative rho (up, down):  1.915E-01 0.000E+00


     ************************************************************************
     *
     * You are using vdW-DF for exchange-correlation in this calculation.
     * Please cite the following three references that made this development
     * possible:
     *
     *   M. Dion, H. Rydberg, E. Schroder, D. C. Langreth, and
     *   B. I. Lundqvist, Phys. Rev. Lett. 92, 246401 (2004).
     *
     *   T. Thonhauser, V. R. Cooper, S. Li, A. Puzder, P. Hyldgaard, and
     *   D. C. Langreth, Phys. Rev. B 76, 125112 (2007).
     *
     *   G. Roman-Perez and J. M. Soler, Phys. Rev. Lett. 103, 096102 (2009).
     *
     *
     * If you are using vdW-DF2, please also cite:
     *
     *   K. Lee, E. D. Murray, L. Kong, B. I. Lundqvist, and
     *   D. C. Langreth, Phys. Rev. B 82, 081101(R) (2010).
     *
     *
     * If you are calculating the stress with vdW-DF, please also cite:
     *
     *   R. Sabatini, E. Kucukbenli, B. Kolb, T. Thonhauser, and
     *   S. de Gironcoli, J. Phys.: Condens. Matter 24, 424209 (2012).
     *
     ************************************************************************

     Carrying out vdW-DF run using the following parameters:

     Nqs =      20    Nr_points =    1024   r_max =   100.000
     q_mesh =
               0.00001000     0.04494208     0.09755937     0.15916263
               0.23128650     0.31572767     0.41458969     0.53033537
               0.66584808     0.82450364     1.01025438     1.22772762
               1.48234092     1.78043706     2.12944203     2.53805004
               3.01644009     3.57652955     4.23227104     5.00000000

     Gradients computed in reciprocal space

     ************************************************************************


 
     Adding external electric field

     Computed dipole along edir(3) : 
        Dipole                0.0162 Ry au,          0.0412 Debye
        Dipole field          0.0000 Ry au
 
        Potential amp.       -0.0035 Ry
        Total length         46.0211 bohr
 
     Starting wfc are  156 randomized atomic wfcs

     total cpu time spent up to now is       21.9 secs

     per-process dynamical memory:    43.5 Mb

     Self-consistent Calculation

     iteration #  1     ecut=    36.75 Ry     beta=0.10
     Davidson diagonalization with overlap
     ethr =  1.00E-02,  avg # of iterations =  8.0

     negative rho (up, down):  1.902E-01 0.000E+00
 
     Adding external electric field

     Computed dipole along edir(3) : 
        Dipole               -0.0478 Ry au,         -0.1215 Debye
        Dipole field         -0.0001 Ry au
 
        Potential amp.        0.0102 Ry
        Total length         46.0211 bohr
 

     total cpu time spent up to now is      102.8 secs

     total energy              =   -2968.87661441 Ry
     Harris-Foulkes estimate   =   -2971.53303225 Ry
     estimated scf accuracy    <      15.62549483 Ry

     iteration #  2     ecut=    36.75 Ry     beta=0.10
     Davidson diagonalization with overlap
     ethr =  7.55E-03,  avg # of iterations =  1.0

     negative rho (up, down):  1.899E-01 0.000E+00
 
     Adding external electric field

     Computed dipole along edir(3) : 
        Dipole                0.2344 Ry au,          0.5958 Debye
        Dipole field          0.0005 Ry au
 
        Potential amp.       -0.0500 Ry
        Total length         46.0211 bohr
 

     total cpu time spent up to now is      148.9 secs

     total energy              =   -2969.05733722 Ry
     Harris-Foulkes estimate   =   -2969.74151059 Ry
     estimated scf accuracy    <       3.41037667 Ry

     iteration #  3     ecut=    36.75 Ry     beta=0.10
     Davidson diagonalization with overlap
     ethr =  1.65E-03,  avg # of iterations =  1.1

     negative rho (up, down):  1.898E-01 0.000E+00
 
     Adding external electric field

     Computed dipole along edir(3) : 
        Dipole               -0.4474 Ry au,         -1.1371 Debye
        Dipole field         -0.0010 Ry au
 
        Potential amp.        0.0954 Ry
        Total length         46.0211 bohr
 

     total cpu time spent up to now is      195.9 secs

     total energy              =   -2968.97743404 Ry
     Harris-Foulkes estimate   =   -2969.27259415 Ry
     estimated scf accuracy    <       2.91742303 Ry

     iteration #  4     ecut=    36.75 Ry     beta=0.10
     Davidson diagonalization with overlap
     ethr =  1.41E-03,  avg # of iterations =  2.8

     negative rho (up, down):  1.896E-01 0.000E+00
 
     Adding external electric field

     Computed dipole along edir(3) : 
        Dipole                0.0291 Ry au,          0.0741 Debye
        Dipole field          0.0001 Ry au
 
        Potential amp.       -0.0062 Ry
        Total length         46.0211 bohr
 

     total cpu time spent up to now is      247.1 secs

     total energy              =   -2968.89252623 Ry
     Harris-Foulkes estimate   =   -2969.24259285 Ry
     estimated scf accuracy    <       7.03490033 Ry

     iteration #  5     ecut=    36.75 Ry     beta=0.10
     Davidson diagonalization with overlap
     ethr =  1.41E-03,  avg # of iterations =  1.3

     negative rho (up, down):  1.896E-01 0.000E+00
 
     Adding external electric field

     Computed dipole along edir(3) : 
        Dipole                0.0116 Ry au,          0.0296 Debye
        Dipole field          0.0000 Ry au
 
        Potential amp.       -0.0025 Ry
        Total length         46.0211 bohr
 

     total cpu time spent up to now is      294.2 secs

     total energy              =   -2968.87536601 Ry
     Harris-Foulkes estimate   =   -2969.03740026 Ry
     estimated scf accuracy    <       0.42218143 Ry

     iteration #  6     ecut=    36.75 Ry     beta=0.10
     Davidson diagonalization with overlap
     ethr =  2.04E-04,  avg # of iterations =  5.0

     negative rho (up, down):  1.898E-01 0.000E+00
 
     Adding external electric field

     Computed dipole along edir(3) : 
        Dipole               -0.0254 Ry au,         -0.0645 Debye
        Dipole field         -0.0001 Ry au
 
        Potential amp.        0.0054 Ry
        Total length         46.0211 bohr
 

     total cpu time spent up to now is      364.8 secs

     total energy              =   -2968.93029549 Ry
     Harris-Foulkes estimate   =   -2968.94159290 Ry
     estimated scf accuracy    <       0.06008790 Ry

     iteration #  7     ecut=    36.75 Ry     beta=0.10
     Davidson diagonalization with overlap
     ethr =  2.90E-05,  avg # of iterations =  3.8

     negative rho (up, down):  1.900E-01 0.000E+00
 
     Adding external electric field

     Computed dipole along edir(3) : 
        Dipole               -0.0132 Ry au,         -0.0335 Debye
        Dipole field         -0.0000 Ry au
 
        Potential amp.        0.0028 Ry
        Total length         46.0211 bohr
 

     total cpu time spent up to now is      421.1 secs

     total energy              =   -2968.93441781 Ry
     Harris-Foulkes estimate   =   -2968.93532039 Ry
     estimated scf accuracy    <       0.03682426 Ry

     iteration #  8     ecut=    36.75 Ry     beta=0.10
     Davidson diagonalization with overlap
     ethr =  1.78E-05,  avg # of iterations =  5.5

     negative rho (up, down):  1.899E-01 0.000E+00
 
     Adding external electric field

     Computed dipole along edir(3) : 
        Dipole               -0.0031 Ry au,         -0.0078 Debye
        Dipole field         -0.0000 Ry au
 
        Potential amp.        0.0007 Ry
        Total length         46.0211 bohr
 

     total cpu time spent up to now is      484.5 secs

     total energy              =   -2968.93214783 Ry
     Harris-Foulkes estimate   =   -2968.93698755 Ry
     estimated scf accuracy    <       0.01994942 Ry

     iteration #  9     ecut=    36.75 Ry     beta=0.10
     Davidson diagonalization with overlap
     ethr =  9.64E-06,  avg # of iterations =  2.0

     negative rho (up, down):  1.899E-01 0.000E+00
 
     Adding external electric field

     Computed dipole along edir(3) : 
        Dipole               -0.0097 Ry au,         -0.0246 Debye
        Dipole field         -0.0000 Ry au
 
        Potential amp.        0.0021 Ry
        Total length         46.0211 bohr
 

     total cpu time spent up to now is      533.4 secs

     total energy              =   -2968.93411375 Ry
     Harris-Foulkes estimate   =   -2968.93439861 Ry
     estimated scf accuracy    <       0.00367637 Ry

     iteration # 10     ecut=    36.75 Ry     beta=0.10
     Davidson diagonalization with overlap
     ethr =  1.78E-06,  avg # of iterations =  5.3

     negative rho (up, down):  1.899E-01 0.000E+00
 
     Adding external electric field

     Computed dipole along edir(3) : 
        Dipole               -0.0070 Ry au,         -0.0178 Debye
        Dipole field         -0.0000 Ry au
 
        Potential amp.        0.0015 Ry
        Total length         46.0211 bohr
 

     total cpu time spent up to now is      600.9 secs

     total energy              =   -2968.93428284 Ry
     Harris-Foulkes estimate   =   -2968.93500662 Ry
     estimated scf accuracy    <       0.00456365 Ry

     iteration # 11     ecut=    36.75 Ry     beta=0.10
     Davidson diagonalization with overlap
     ethr =  1.78E-06,  avg # of iterations =  2.0

     negative rho (up, down):  1.899E-01 0.000E+00
 
     Adding external electric field

     Computed dipole along edir(3) : 
        Dipole               -0.0083 Ry au,         -0.0211 Debye
        Dipole field         -0.0000 Ry au
 
        Potential amp.        0.0018 Ry
        Total length         46.0211 bohr
 

     total cpu time spent up to now is      651.9 secs

     total energy              =   -2968.93419277 Ry
     Harris-Foulkes estimate   =   -2968.93448492 Ry
     estimated scf accuracy    <       0.00075850 Ry

     iteration # 12     ecut=    36.75 Ry     beta=0.10
     Davidson diagonalization with overlap
     ethr =  3.66E-07,  avg # of iterations =  3.0

     negative rho (up, down):  1.899E-01 0.000E+00
 
     Adding external electric field

     Computed dipole along edir(3) : 
[...]
    -3.8706  -3.8029  -3.7829  -3.7495  -3.7196  -3.6987  -3.6558  -3.6227
    -3.6048  -3.5203  -3.4886  -3.4636  -3.4416  -3.3609  -3.3392  -3.3244
    -3.2764  -3.2070  -3.1340  -3.0937  -3.0748  -3.0194  -2.9613  -2.9160
    -2.9035  -2.8825  -2.8616  -2.8253  -2.7818  -2.7223  -2.7160  -2.6792
    -2.6735  -2.6068  -2.6003  -2.5857  -2.5226  -2.4946  -2.4396  -2.4250
    -2.3660  -2.3312  -2.2376  -2.0925  -1.9990  -1.9647  -1.8889  -1.5468
    -0.9945  -0.4457   0.1677   0.3151   0.9971   1.1681   1.4119   1.6290
     1.6533   1.8349   1.8672   1.9457   2.1134   2.2870   2.4204   2.6484
     2.7813   2.8749   3.4719   3.6399   4.4307   4.7885   5.0590   5.4791
     5.5839   5.9327   6.2070   6.3605   6.4341   6.6351   6.6850   6.7874
     7.0640   7.3439   7.4522   7.4912   7.6590

          k = 0.0547-0.0316 0.0000 ( 20421 PWs)   bands (ev):

   -90.7380 -90.7358 -90.7350 -90.5852 -90.5830 -90.5823 -90.5705 -90.5683
   -90.5675 -54.2865 -54.2759 -54.2722 -54.2505 -54.2462 -54.2346 -54.1546
   -54.1483 -54.1480 -54.1382 -54.1351 -54.1338 -54.1239 -54.1214 -54.1147
   -54.0769 -54.0622 -54.0578 -54.0573 -54.0430 -54.0388 -53.9999 -53.9870
   -53.9831 -53.9759 -53.9699 -53.9625 -48.7671 -48.7163 -48.5748 -26.7827
   -26.7396 -26.6449 -26.6426 -26.6023 -26.5999 -26.5178 -26.4804 -26.4779
    -4.1533  -3.9460  -3.9031  -3.8506  -3.8267  -3.7782  -3.7738  -3.7507
    -3.7181  -3.6185  -3.6180  -3.6074  -3.5277  -3.4254  -3.3987  -3.3251
    -3.2465  -3.2334  -3.1957  -3.0937  -3.0769  -3.0318  -3.0174  -2.9327
    -2.9158  -2.8528  -2.8061  -2.7667  -2.7608  -2.6862  -2.6661  -2.6461
    -2.6008  -2.6000  -2.5329  -2.4634  -2.4101  -2.3759  -2.3672  -2.3205
    -2.2928  -2.2591  -2.2056  -2.0726  -1.9428  -1.9373  -1.8085  -1.3347
    -0.6083   0.0681   0.2298   0.8818   0.9952   1.2766   1.3434   1.6343
     1.7002   1.8912   1.9126   2.0057   2.2152   2.3746   2.5187   2.5427
     2.6996   2.9820   3.5209   3.8189   4.3548   4.3719   4.6770   5.3622
     5.3835   5.5780   5.8747   5.9704   6.2222   6.8113   6.9497   7.0418
     7.1527   7.2068   7.2698   7.7546   7.8309

          k = 0.0547 0.0000 0.0000 ( 20401 PWs)   bands (ev):

   -90.7382 -90.7356 -90.7350 -90.5854 -90.5829 -90.5823 -90.5706 -90.5681
   -90.5675 -54.2873 -54.2755 -54.2724 -54.2504 -54.2470 -54.2337 -54.1547
   -54.1494 -54.1492 -54.1384 -54.1355 -54.1336 -54.1220 -54.1204 -54.1148
   -54.0783 -54.0610 -54.0586 -54.0578 -54.0419 -54.0388 -54.0010 -53.9881
   -53.9815 -53.9759 -53.9682 -53.9625 -48.7672 -48.7163 -48.5748 -26.7827
   -26.7396 -26.6441 -26.6426 -26.6014 -26.5998 -26.5179 -26.4796 -26.4779
    -4.2757  -3.9553  -3.9318  -3.9276  -3.8680  -3.8276  -3.8152  -3.7921
    -3.7713  -3.7103  -3.6330  -3.6039  -3.5902  -3.5690  -3.4328  -3.3285
    -3.2570  -3.1963  -3.1740  -3.1647  -3.1048  -3.0194  -3.0063  -2.9249
    -2.9164  -2.8313  -2.8173  -2.8101  -2.7539  -2.7189  -2.6421  -2.6024
    -2.5618  -2.5580  -2.5437  -2.4396  -2.3987  -2.3135  -2.3034  -2.2933
    -2.2431  -2.1870  -2.1328  -1.9964  -1.9569  -1.9251  -1.8624  -0.7738
    -0.7220   0.0632   0.4287   0.7089   1.2783   1.3131   1.4515   1.7074
     1.8235   1.8357   1.8952   2.0298   2.3601   2.4287   2.5670   2.6648
     2.7547   2.9185   3.4625   3.5772   4.3309   4.5065   4.6451   5.0438
     5.2790   5.4418   5.6963   6.0734   6.4265   6.5414   6.6863   6.7272
     7.0485   7.4024   7.6463   7.6580   7.7998

          k =-0.0820-0.0474 0.0000 ( 20420 PWs)   bands (ev):

   -90.7375 -90.7363 -90.7350 -90.5848 -90.5835 -90.5823 -90.5700 -90.5688
   -90.5675 -54.2845 -54.2772 -54.2717 -54.2508 -54.2440 -54.2371 -54.1542
   -54.1453 -54.1450 -54.1377 -54.1371 -54.1311 -54.1286 -54.1242 -54.1148
   -54.0731 -54.0653 -54.0580 -54.0536 -54.0459 -54.0390 -53.9965 -53.9873
   -53.9836 -53.9760 -53.9742 -53.9627 -48.7670 -48.7162 -48.5747 -26.7827
   -26.7397 -26.6461 -26.6430 -26.6035 -26.6003 -26.5177 -26.4815 -26.4783
    -3.9230  -3.8311  -3.8123  -3.7654  -3.7374  -3.6374  -3.6371  -3.6246
    -3.5729  -3.5630  -3.5327  -3.4473  -3.4261  -3.3586  -3.3225  -3.2840
    -3.2645  -3.2064  -3.1950  -3.0156  -2.9975  -2.9645  -2.9110  -2.8991
    -2.8844  -2.8682  -2.8155  -2.7723  -2.7635  -2.7581  -2.7397  -2.7178
    -2.6232  -2.6175  -2.6046  -2.6029  -2.5004  -2.4880  -2.4722  -2.4322
    -2.4074  -2.3724  -2.3718  -2.2134  -2.1178  -1.9429  -1.8066  -1.6312
    -0.8937  -0.4566   0.4364   0.7351   0.8503   0.8762   1.3120   1.5379
     1.7119   1.8229   1.8830   1.9235   1.9666   2.2750   2.3305   2.5826
     2.7502   3.0014   3.5543   3.8626   4.6113   4.7533   4.9007   5.1344
     5.4868   5.6735   6.1563   6.2092   6.6793   6.7061   6.8925   6.9141
     7.1498   7.2448   7.6490   7.9348   7.9675

          k =-0.0820-0.0158 0.0000 ( 20439 PWs)   bands (ev):

   -90.7375 -90.7363 -90.7350 -90.5848 -90.5835 -90.5823 -90.5700 -90.5688
   -90.5675 -54.2842 -54.2777 -54.2716 -54.2509 -54.2439 -54.2372 -54.1540
   -54.1455 -54.1453 -54.1375 -54.1370 -54.1316 -54.1281 -54.1241 -54.1150
   -54.0733 -54.0649 -54.0581 -54.0538 -54.0456 -54.0391 -53.9966 -53.9870
   -53.9837 -53.9762 -53.9739 -53.9628 -48.7670 -48.7162 -48.5747 -26.7827
   -26.7397 -26.6456 -26.6435 -26.6029 -26.6008 -26.5177 -26.4810 -26.4788
    -3.8706  -3.8029  -3.7829  -3.7495  -3.7196  -3.6987  -3.6558  -3.6227
    -3.6048  -3.5203  -3.4886  -3.4636  -3.4416  -3.3609  -3.3392  -3.3244
    -3.2764  -3.2070  -3.1340  -3.0937  -3.0748  -3.0194  -2.9613  -2.9160
    -2.9035  -2.8825  -2.8616  -2.8253  -2.7818  -2.7223  -2.7160  -2.6792
    -2.6735  -2.6068  -2.6003  -2.5857  -2.5226  -2.4946  -2.4396  -2.4250
    -2.3660  -2.3312  -2.2376  -2.0925  -1.9990  -1.9647  -1.8889  -1.5468
    -0.9945  -0.4457   0.1677   0.3151   0.9971   1.1681   1.4119   1.6290
     1.6533   1.8349   1.8672   1.9457   2.1134   2.2870   2.4204   2.6484
     2.7813   2.8749   3.4719   3.6399   4.4307   4.7885   5.0590   5.4791
     5.5839   5.9327   6.2070   6.3605   6.4341   6.6351   6.6850   6.7874
     7.0640   7.3439   7.4522   7.4912   7.6589

          k =-0.0820 0.0158 0.0000 ( 20439 PWs)   bands (ev):

   -90.7375 -90.7363 -90.7350 -90.5848 -90.5835 -90.5823 -90.5700 -90.5688
   -90.5675 -54.2842 -54.2777 -54.2716 -54.2509 -54.2439 -54.2372 -54.1540
   -54.1455 -54.1453 -54.1375 -54.1370 -54.1316 -54.1281 -54.1241 -54.1150
   -54.0733 -54.0649 -54.0581 -54.0538 -54.0456 -54.0391 -53.9966 -53.9870
   -53.9837 -53.9762 -53.9739 -53.9628 -48.7670 -48.7162 -48.5747 -26.7827
   -26.7397 -26.6456 -26.6435 -26.6029 -26.6008 -26.5177 -26.4810 -26.4788
    -3.8706  -3.8029  -3.7829  -3.7495  -3.7196  -3.6987  -3.6558  -3.6227
    -3.6048  -3.5203  -3.4886  -3.4636  -3.4416  -3.3609  -3.3392  -3.3244
    -3.2764  -3.2070  -3.1340  -3.0937  -3.0748  -3.0194  -2.9613  -2.9160
    -2.9035  -2.8825  -2.8616  -2.8253  -2.7818  -2.7223  -2.7160  -2.6792
    -2.6735  -2.6068  -2.6003  -2.5857  -2.5225  -2.4946  -2.4396  -2.4250
    -2.3660  -2.3312  -2.2376  -2.0925  -1.9990  -1.9647  -1.8889  -1.5468
    -0.9945  -0.4457   0.1677   0.3151   0.9971   1.1681   1.4119   1.6290
     1.6533   1.8349   1.8672   1.9457   2.1134   2.2870   2.4204   2.6484
     2.7813   2.8749   3.4719   3.6399   4.4307   4.7885   5.0590   5.4791
     5.5839   5.9327   6.2070   6.3605   6.4341   6.6351   6.6850   6.7874
     7.0640   7.3439   7.4522   7.4912   7.6590

          k =-0.0820-0.1421 0.0000 ( 20420 PWs)   bands (ev):

   -90.7375 -90.7363 -90.7350 -90.5848 -90.5835 -90.5823 -90.5700 -90.5688
   -90.5675 -54.2845 -54.2772 -54.2717 -54.2508 -54.2440 -54.2371 -54.1542
   -54.1453 -54.1450 -54.1377 -54.1371 -54.1311 -54.1286 -54.1242 -54.1148
   -54.0731 -54.0653 -54.0580 -54.0536 -54.0459 -54.0390 -53.9965 -53.9873
   -53.9836 -53.9760 -53.9742 -53.9627 -48.7670 -48.7162 -48.5747 -26.7827
   -26.7397 -26.6461 -26.6430 -26.6035 -26.6003 -26.5177 -26.4815 -26.4783
    -3.9230  -3.8311  -3.8123  -3.7654  -3.7374  -3.6374  -3.6371  -3.6246
    -3.5729  -3.5630  -3.5327  -3.4473  -3.4261  -3.3586  -3.3225  -3.2840
    -3.2645  -3.2064  -3.1950  -3.0156  -2.9975  -2.9645  -2.9110  -2.8991
    -2.8844  -2.8682  -2.8155  -2.7723  -2.7635  -2.7581  -2.7397  -2.7178
    -2.6232  -2.6175  -2.6046  -2.6029  -2.5004  -2.4880  -2.4722  -2.4322
    -2.4074  -2.3724  -2.3718  -2.2134  -2.1178  -1.9429  -1.8066  -1.6312
    -0.8937  -0.4566   0.4364   0.7351   0.8503   0.8762   1.3120   1.5379
     1.7119   1.8229   1.8830   1.9235   1.9666   2.2750   2.3305   2.5826
     2.7502   3.0014   3.5543   3.8626   4.6113   4.7533   4.9007   5.1344
     5.4868   5.6735   6.1563   6.2092   6.6793   6.7061   6.8925   6.9141
     7.1498   7.2448   7.6490   7.9348   7.9675

     the Fermi energy is     1.5878 ev

!    total energy              =   -2968.93582442 Ry
     Harris-Foulkes estimate   =   -2968.93582689 Ry
     estimated scf accuracy    <       0.00000028 Ry

     The total energy is the sum of the following terms:

     one-electron contribution =  -20314.08701557 Ry
     hartree contribution      =   10146.97872464 Ry
     xc contribution           =    -325.40339105 Ry
     ewald contribution        =    7523.65354217 Ry
     electric field correction =       0.00000099 Ry
     smearing contrib. (-TS)   =      -0.07768559 Ry

     convergence has been achieved in  17 iterations
 
 BEEF-vdW xc energy contributions
           1 :   -281.520514568236     
           2 :    255.034976394592     
           3 :   -210.624539488865     
           4 :    161.397792210828     
           5 :   -119.426670720793     
           6 :    91.4013750093902     
           7 :   -77.3282010722701     
           8 :    72.3085150835974     
           9 :   -70.0090861795005     
          10 :    65.8785301070617     
          11 :   -58.6631527737566     
          12 :    49.8771472583603     
          13 :   -42.0003566010009     
          14 :    36.6769497504326     
          15 :   -33.9176354784174     
          16 :    32.5042084937876     
          17 :   -31.0484224677140     
          18 :    28.8860575168551     
          19 :   -26.2830540943070     
          20 :    23.9760095578746     
          21 :   -22.4962478178639     
          22 :    21.7763288517472     
          23 :   -21.2622423293583     
          24 :    20.3696901625510     
          25 :   -18.9146320527184     
          26 :    17.2149781241665     
          27 :   -15.8305252507157     
          28 :    15.1576899205515     
          29 :   -15.1712139674118     
          30 :    15.4692435708515     
          31 :   -28.7985722106418     
          32 :   -21.0590199862767     

     Forces acting on atoms (Ry/au):


     negative rho (up, down):  1.908E-01 0.000E+00
     atom    1 type  1   force =    -0.00000000   -0.00184425    0.00362152
     atom    2 type  1   force =    -0.00159723    0.00092216    0.00362162
     atom    3 type  1   force =     0.00159713    0.00092213    0.00362159
     atom    4 type  2   force =     0.00000002   -0.00000005    0.01290333
     atom    5 type  1   force =     0.00000005   -0.00412457   -0.00666437
     atom    6 type  1   force =    -0.00357185    0.00206229   -0.00666435
     atom    7 type  1   force =     0.00357191    0.00206229   -0.00666426
     atom    8 type  2   force =    -0.00000001   -0.00000002   -0.00137765
     atom    9 type  1   force =     0.00000009   -0.00025103   -0.00081593
     atom   10 type  1   force =    -0.00021721    0.00012548   -0.00081578
     atom   11 type  1   force =     0.00021720    0.00012552   -0.00081589
     atom   12 type  2   force =    -0.00000008    0.00000006    0.00005017

     Total force =     0.020110     Total SCF correction =     0.002247
     SCF correction compared to forces is large: reduce conv_thr to get better values


     entering subroutine stress ...


     negative rho (up, down):  1.908E-01 0.000E+00
          total   stress  (Ry/bohr**3)                   (kbar)     P=   -8.45
  -0.00006853   0.00000000   0.00000000        -10.08      0.00      0.00
   0.00000000  -0.00006853   0.00000000          0.00    -10.08      0.00
   0.00000000   0.00000000  -0.00003522          0.00      0.00     -5.18

 !ASE

     Writing output data file calc.save
 
     init_run     :     14.52s CPU     22.09s WALL (       1 calls)
     electrons    :    689.22s CPU   1040.53s WALL (       1 calls)
     forces       :      3.11s CPU      3.91s WALL (       1 calls)
     stress       :      6.56s CPU      7.63s WALL (       1 calls)

     Called by init_run:
     wfcinit      :     12.06s CPU     19.01s WALL (       1 calls)
     potinit      :      1.24s CPU      1.64s WALL (       1 calls)

     Called by electrons:
     c_bands      :    543.94s CPU    814.06s WALL (      17 calls)
     sum_band     :     86.42s CPU    140.93s WALL (      17 calls)
     v_of_rho     :     18.72s CPU     27.19s WALL (      18 calls)
     newd         :      4.99s CPU      5.20s WALL (      18 calls)
     mix_rho      :      0.93s CPU      1.37s WALL (      17 calls)
     vdW_energy   :      1.67s CPU      1.68s WALL (      54 calls)
     vdW_ffts     :     35.95s CPU     55.18s WALL (     110 calls)
     vdW_v        :      6.21s CPU      8.89s WALL (      54 calls)

     Called by c_bands:
     init_us_2    :      0.45s CPU      0.46s WALL (     740 calls)
     cegterg      :    538.34s CPU    807.43s WALL (     340 calls)

     Called by *egterg:
     h_psi        :    360.15s CPU    603.11s WALL (    1322 calls)
     s_psi        :      7.27s CPU      7.41s WALL (    1322 calls)
     g_psi        :      0.36s CPU      0.38s WALL (     962 calls)
     cdiaghg      :    119.58s CPU    134.50s WALL (    1302 calls)

     Called by h_psi:
     add_vuspsi   :      7.42s CPU      7.45s WALL (    1322 calls)

     General routines
     calbec       :     20.39s CPU     25.65s WALL (    1702 calls)
     fft          :     54.18s CPU     82.82s WALL (    3291 calls)
     ffts         :      0.19s CPU      0.29s WALL (      35 calls)
     fftw         :    404.68s CPU    695.16s WALL (  249844 calls)
     interpolate  :      0.70s CPU      1.06s WALL (      35 calls)
     davcio       :      0.00s CPU      0.02s WALL (      20 calls)
 
     Parallel routines
     fft_scatter  :    436.02s CPU    753.17s WALL (  253170 calls)
 
     PWSCF        : 11m54.35s CPU    17m55.71s WALL

 
   This run was terminated on:  17:58: 0  19Dec2018            

=------------------------------------------------------------------------------=
   JOB DONE.
=------------------------------------------------------------------------------=
Job  /afs/slac/g/suncat/bin/suncat-tsmpirun -x LD_LIBRARY_PATH -wdir /scratch/qe773225_ptBkn pw.x -in pw.inp

TID   HOST_NAME   COMMAND_LINE            STATUS            TERMINATION_TIME
===== ========== ================  =======================  ===================
00000 suncat0167 pw.x -in pw.inp   Done                     12/19/2018 17:58:00
00001 suncat0167 pw.x -in pw.inp   Done                     12/19/2018 17:58:00
00002 suncat0167 pw.x -in pw.inp   Done                     12/19/2018 17:58:00
00003 suncat0167 pw.x -in pw.inp   Done                     12/19/2018 17:58:00
00004 suncat0167 pw.x -in pw.inp   Done                     12/19/2018 17:58:00
00005 suncat0167 pw.x -in pw.inp   Done                     12/19/2018 17:58:00
00006 suncat0167 pw.x -in pw.inp   Done                     12/19/2018 17:58:00
00007 suncat0167 pw.x -in pw.inp   Done                     12/19/2018 17:58:00
00008 suncat0166 pw.x -in pw.inp   Done                     12/19/2018 17:58:00
00009 suncat0166 pw.x -in pw.inp   Done                     12/19/2018 17:58:00
00010 suncat0166 pw.x -in pw.inp   Done                     12/19/2018 17:58:00
00011 suncat0166 pw.x -in pw.inp   Done                     12/19/2018 17:58:00
00012 suncat0166 pw.x -in pw.inp   Done                     12/19/2018 17:58:00
00013 suncat0166 pw.x -in pw.inp   Done                     12/19/2018 17:58:00
00014 suncat0166 pw.x -in pw.inp   Done                     12/19/2018 17:58:00
00015 suncat0166 pw.x -in pw.inp   Done                     12/19/2018 17:58:00
00016 suncat0165 pw.x -in pw.inp   Done                     12/19/2018 17:58:00
00017 suncat0165 pw.x -in pw.inp   Done                     12/19/2018 17:58:00
00018 suncat0165 pw.x -in pw.inp   Done                     12/19/2018 17:58:00
00019 suncat0165 pw.x -in pw.inp   Done                     12/19/2018 17:58:00
00020 suncat0165 pw.x -in pw.inp   Done                     12/19/2018 17:58:00
00021 suncat0165 pw.x -in pw.inp   Done                     12/19/2018 17:58:00
00022 suncat0165 pw.x -in pw.inp   Done                     12/19/2018 17:58:00
00023 suncat0165 pw.x -in pw.inp   Done                     12/19/2018 17:58:00
00024 suncat0164 pw.x -in pw.inp   Done                     12/19/2018 17:58:00
00025 suncat0164 pw.x -in pw.inp   Done                     12/19/2018 17:58:00
00026 suncat0164 pw.x -in pw.inp   Done                     12/19/2018 17:58:00
00027 suncat0164 pw.x -in pw.inp   Done                     12/19/2018 17:58:00
00028 suncat0164 pw.x -in pw.inp   Done                     12/19/2018 17:58:00
00029 suncat0164 pw.x -in pw.inp   Done                     12/19/2018 17:58:00
00030 suncat0164 pw.x -in pw.inp   Done                     12/19/2018 17:58:00
00031 suncat0164 pw.x -in pw.inp   Done                     12/19/2018 17:58:00
00032 suncat0163 pw.x -in pw.inp   Done                     12/19/2018 17:58:00
00033 suncat0163 pw.x -in pw.inp   Done                     12/19/2018 17:58:00
00034 suncat0163 pw.x -in pw.inp   Done                     12/19/2018 17:58:00
00035 suncat0163 pw.x -in pw.inp   Done                     12/19/2018 17:58:00
00036 suncat0163 pw.x -in pw.inp   Done                     12/19/2018 17:58:00
00037 suncat0163 pw.x -in pw.inp   Done                     12/19/2018 17:58:00
00038 suncat0163 pw.x -in pw.inp   Done                     12/19/2018 17:58:00
00039 suncat0163 pw.x -in pw.inp   Done                     12/19/2018 17:58:00
00040 suncat0162 pw.x -in pw.inp   Done                     12/19/2018 17:58:00
00041 suncat0162 pw.x -in pw.inp   Done                     12/19/2018 17:58:00
00042 suncat0162 pw.x -in pw.inp   Done                     12/19/2018 17:58:00
00043 suncat0162 pw.x -in pw.inp   Done                     12/19/2018 17:58:00
00044 suncat0162 pw.x -in pw.inp   Done                     12/19/2018 17:58:00
00045 suncat0162 pw.x -in pw.inp   Done                     12/19/2018 17:58:00
00046 suncat0162 pw.x -in pw.inp   Done                     12/19/2018 17:58:00
00047 suncat0162 pw.x -in pw.inp   Done                     12/19/2018 17:58:00
00048 suncat0161 pw.x -in pw.inp   Done                     12/19/2018 17:58:00
00049 suncat0161 pw.x -in pw.inp   Done                     12/19/2018 17:58:00
00050 suncat0161 pw.x -in pw.inp   Done                     12/19/2018 17:58:00
00051 suncat0161 pw.x -in pw.inp   Done                     12/19/2018 17:58:00
00052 suncat0161 pw.x -in pw.inp   Done                     12/19/2018 17:58:00
00053 suncat0161 pw.x -in pw.inp   Done                     12/19/2018 17:58:00
00054 suncat0161 pw.x -in pw.inp   Done                     12/19/2018 17:58:00
00055 suncat0161 pw.x -in pw.inp   Done                     12/19/2018 17:58:00
00056 suncat0159 pw.x -in pw.inp   Done                     12/19/2018 17:58:00
00057 suncat0159 pw.x -in pw.inp   Done                     12/19/2018 17:58:00
00058 suncat0159 pw.x -in pw.inp   Done                     12/19/2018 17:58:00
00059 suncat0159 pw.x -in pw.inp   Done                     12/19/2018 17:58:00
00060 suncat0159 pw.x -in pw.inp   Done                     12/19/2018 17:58:00
00061 suncat0159 pw.x -in pw.inp   Done                     12/19/2018 17:58:00
00062 suncat0159 pw.x -in pw.inp   Done                     12/19/2018 17:58:00
00063 suncat0159 pw.x -in pw.inp   Done                     12/19/2018 17:58:00
