  python dir          : /u/if/mamunm/src/espresso
  espresso dir        : /nfs/slac/g/suncatfs/sw/espv18/espresso-dynpy-beef/bin
  pseudo dir          : /afs/slac.stanford.edu/u/if/mamunm/psp/gbrv1.5pbe
  ase-espresso py git : GITVERSION



     Program PWSCF v.5.1rc2 (svn rev. 11289) starts on 28Dec2018 at  1:55:36 

     This program is part of the open-source Quantum ESPRESSO suite
     for quantum simulation of materials; please cite
         "P. Giannozzi et al., J. Phys.:Condens. Matter 21 395502 (2009);
          URL http://www.quantum-espresso.org", 
     in publications or presentations arising from this work. More details at
     http://www.quantum-espresso.org/quote

     Parallel version (MPI), running on    64 processors
     R & G space division:  proc/nbgrp/npool/nimage =      64
     Reading input from pw.inp
     Message from routine read_cards :
     DEPRECATED: no units specified in CELL_PARAMETERS card

     Current dimensions of program PWSCF are:
     Max number of different atomic species (ntypx) = 10
     Max number of k-points (npk) =  40000
     Max angular momentum in pseudopotentials (lmaxx) =  3
     Presently stress not available with electric field


     **************************************************************************
     Initializing libbeef V0.1.1 with the BEEF-vdW functional.
     Citation: Wellendorff et al., PRB 85, 235149 (2012).
     **************************************************************************


     IMPORTANT: XC functional enforced from input :
     Exchange-correlation      = BEEF-VDW ( 1  4 27 13 2)
     Any further DFT definition will be discarded
     Please, verify this is what you really want


     Subspace diagonalization in iterative solution of the eigenvalue problem:
     a serial algorithm will be used

 
     Parallelization info
     --------------------
     sticks:   dense  smooth     PW     G-vecs:    dense   smooth      PW
     Min          50      19      5                 9488     2386     371
     Max          51      20      6                 9502     2428     400
     Sum        3205    1273    379               607691   153949   25089
 


     bravais-lattice index     =            0
     lattice parameter (alat)  =       1.8897  a.u.
     unit-cell volume          =    5109.3294 (a.u.)^3
     number of atoms/cell      =           12
     number of atomic types    =            2
     number of electrons       =       147.00
     number of Kohn-Sham states=          103
     kinetic-energy cutoff     =      36.7493  Ry
     charge density cutoff     =     367.4932  Ry
     convergence threshold     =      1.0E-06
     mixing beta               =       0.1000
     number of iterations used =           10  plain     mixing
     Exchange-correlation      = BEEF-VDW ( 1  4 27 13 2)
     nstep                     =           50


     celldm(1)=   1.889726  celldm(2)=   0.000000  celldm(3)=   0.000000
     celldm(4)=   0.000000  celldm(5)=   0.000000  celldm(6)=   0.000000

     crystal axes: (cart. coord. in units of alat)
               a(1) = (   5.932139   0.000000   0.000000 )  
               a(2) = (  -2.966070   5.137383   0.000000 )  
               a(3) = (   0.000000   0.000000  24.843571 )  

     reciprocal axes: (cart. coord. in units 2 pi/alat)
               b(1) = (  0.168573  0.097326  0.000000 )  
               b(2) = (  0.000000  0.194652  0.000000 )  
               b(3) = (  0.000000  0.000000  0.040252 )  


     PseudoPot. # 1 for Ti read from file:
     /afs/slac.stanford.edu/u/if/mamunm/psp/gbrv1.5pbe/Ti.UPF
     MD5 check sum: 88a00a6731bd790ddea75d31a80cb452
     Pseudo is Ultrasoft + core correction, Zval = 12.0
     Generated by new atomic code, or converted to UPF format
     Using radial grid of  851 points,  6 beta functions with: 
                l(1) =   0
                l(2) =   0
                l(3) =   1
                l(4) =   1
                l(5) =   2
                l(6) =   2
     Q(r) pseudized with  6 coefficients,  rinner =    1.000   1.000   1.000
                                                       1.000   1.000

     PseudoPot. # 2 for Tl read from file:
     /afs/slac.stanford.edu/u/if/mamunm/psp/gbrv1.5pbe/Tl.UPF
     MD5 check sum: b76cf1f7e72655a2b2c53cf6385d7059
     Pseudo is Ultrasoft + core correction, Zval = 13.0
     Generated by new atomic code, or converted to UPF format
     Using radial grid of  899 points,  6 beta functions with: 
                l(1) =   0
                l(2) =   0
                l(3) =   1
                l(4) =   1
                l(5) =   2
                l(6) =   2
     Q(r) pseudized with  6 coefficients,  rinner =    1.100   1.100   1.100
                                                       1.100   1.100

     vdW kernel table read from file vdW_kernel_table
     MD5 check sum: 095c7af220d748ca6e76c0b4c6cfb241

     atomic species   valence    mass     pseudopotential
        Ti1           12.00    47.86700     Ti( 1.00)
        Tl1           13.00   204.38000     Tl( 1.00)

     No symmetry found



   Cartesian axes

     site n.     atom                  positions (alat units)
         1           Ti1 tau(   1) = (   0.0000000   0.0000000  10.0000000  )
         2           Ti1 tau(   2) = (  -1.4830348   2.5686916  10.0000000  )
         3           Ti1 tau(   3) = (   1.4830348   2.5686916  10.0000000  )
         4           Tl1 tau(   4) = (   2.9660695   0.0000000  10.0000000  )
         5           Ti1 tau(   5) = (   2.9660695   1.7124610  12.4217856  )
         6           Ti1 tau(   6) = (   1.4830348   4.2811526  12.4217856  )
         7           Ti1 tau(   7) = (  -1.4830348   4.2811526  12.4217856  )
         8           Tl1 tau(   8) = (   0.0000000   1.7124610  12.4217856  )
         9           Ti1 tau(   9) = (  -0.0000000   3.4249221  14.8435712  )
        10           Ti1 tau(  10) = (   1.4830348   0.8562305  14.8435712  )
        11           Ti1 tau(  11) = (   4.4491043   0.8562305  14.8435712  )
        12           Tl1 tau(  12) = (   2.9660695   3.4249221  14.8435712  )

     number of k points=    20  Fermi-Dirac smearing, width (Ry)=  0.0110
                       cart. coord. in units 2pi/alat
        k(    1) = (   0.0000000   0.0000000   0.0000000), wk =   0.0555556
        k(    2) = (   0.0000000   0.0324419   0.0000000), wk =   0.1111111
        k(    3) = (   0.0000000   0.0648839   0.0000000), wk =   0.1111111
        k(    4) = (   0.0000000  -0.0973258   0.0000000), wk =   0.0555556
        k(    5) = (   0.0280955   0.0162210   0.0000000), wk =   0.1111111
        k(    6) = (   0.0280955   0.0486629   0.0000000), wk =   0.1111111
        k(    7) = (   0.0280955   0.0811048   0.0000000), wk =   0.1111111
        k(    8) = (   0.0280955  -0.0811048   0.0000000), wk =   0.1111111
        k(    9) = (   0.0280955  -0.0486629   0.0000000), wk =   0.1111111
        k(   10) = (   0.0280955  -0.0162210   0.0000000), wk =   0.1111111
        k(   11) = (   0.0561911   0.0324419   0.0000000), wk =   0.1111111
        k(   12) = (   0.0561911   0.0648839   0.0000000), wk =   0.1111111
        k(   13) = (   0.0561911   0.0973258   0.0000000), wk =   0.1111111
        k(   14) = (   0.0561911  -0.0648839   0.0000000), wk =   0.1111111
        k(   15) = (   0.0561911  -0.0324419   0.0000000), wk =   0.1111111
        k(   16) = (   0.0561911   0.0000000   0.0000000), wk =   0.1111111
        k(   17) = (  -0.0842866  -0.0486629   0.0000000), wk =   0.0555556
        k(   18) = (  -0.0842866  -0.0162210   0.0000000), wk =   0.1111111
        k(   19) = (  -0.0842866   0.0162210   0.0000000), wk =   0.1111111
        k(   20) = (  -0.0842866  -0.1459887   0.0000000), wk =   0.0555556

     Dense  grid:   607691 G-vectors     FFT dimensions: (  72,  72, 288)

     Smooth grid:   153949 G-vectors     FFT dimensions: (  45,  45, 192)

     Largest allocated arrays     est. size (Mb)     dimensions
        Kohn-Sham Wavefunctions         0.57 Mb     (     362,  103)
        NL pseudopotentials             1.19 Mb     (     362,  216)
        Each V/rho on FFT grid          0.40 Mb     (   25920)
        Each G-vector array             0.07 Mb     (    9492)
        G-vector shells                 0.04 Mb     (    4625)
     Largest temporary arrays     est. size (Mb)     dimensions
        Auxiliary wavefunctions         2.28 Mb     (     362,  412)
        Each subspace H/S matrix        2.59 Mb     (     412,  412)
        Each <psi_i|beta_j> matrix      0.34 Mb     (     216,  103)
        Arrays for rho mixing           3.96 Mb     (   25920,   10)

     Check: negative/imaginary core charge=   -0.000005    0.000000

     Initial potential from superposition of free atoms
     Check: negative starting charge=   -0.162615

     starting charge  137.98501, renormalised to  147.00000

     negative rho (up, down):  1.732E-01 0.000E+00


     ************************************************************************
     *
     * You are using vdW-DF for exchange-correlation in this calculation.
     * Please cite the following three references that made this development
     * possible:
     *
     *   M. Dion, H. Rydberg, E. Schroder, D. C. Langreth, and
     *   B. I. Lundqvist, Phys. Rev. Lett. 92, 246401 (2004).
     *
     *   T. Thonhauser, V. R. Cooper, S. Li, A. Puzder, P. Hyldgaard, and
     *   D. C. Langreth, Phys. Rev. B 76, 125112 (2007).
     *
     *   G. Roman-Perez and J. M. Soler, Phys. Rev. Lett. 103, 096102 (2009).
     *
     *
     * If you are using vdW-DF2, please also cite:
     *
     *   K. Lee, E. D. Murray, L. Kong, B. I. Lundqvist, and
     *   D. C. Langreth, Phys. Rev. B 82, 081101(R) (2010).
     *
     *
     * If you are calculating the stress with vdW-DF, please also cite:
     *
     *   R. Sabatini, E. Kucukbenli, B. Kolb, T. Thonhauser, and
     *   S. de Gironcoli, J. Phys.: Condens. Matter 24, 424209 (2012).
     *
     ************************************************************************

     Carrying out vdW-DF run using the following parameters:

     Nqs =      20    Nr_points =    1024   r_max =   100.000
     q_mesh =
               0.00001000     0.04494208     0.09755937     0.15916263
               0.23128650     0.31572767     0.41458969     0.53033537
               0.66584808     0.82450364     1.01025438     1.22772762
               1.48234092     1.78043706     2.12944203     2.53805004
               3.01644009     3.57652955     4.23227104     5.00000000

     Gradients computed in reciprocal space

     ************************************************************************


 
     Adding external electric field

     Computed dipole along edir(3) : 
        Dipole                0.0000 Ry au,          0.0000 Debye
        Dipole field          0.0000 Ry au
 
        Potential amp.       -0.0000 Ry
        Total length         45.7739 bohr
 
     Starting wfc are  117 randomized atomic wfcs

     total cpu time spent up to now is       16.5 secs

     per-process dynamical memory:    39.7 Mb

     Self-consistent Calculation

     iteration #  1     ecut=    36.75 Ry     beta=0.10
     Davidson diagonalization with overlap
     ethr =  1.00E-02,  avg # of iterations =  3.4

     negative rho (up, down):  1.707E-01 0.000E+00
 
     Adding external electric field

     Computed dipole along edir(3) : 
        Dipole                0.0003 Ry au,          0.0009 Debye
        Dipole field          0.0000 Ry au
 
        Potential amp.       -0.0001 Ry
        Total length         45.7739 bohr
 

     total cpu time spent up to now is       58.9 secs

     total energy              =   -1519.96862228 Ry
     Harris-Foulkes estimate   =   -1521.05980160 Ry
     estimated scf accuracy    <       6.43993614 Ry

     iteration #  2     ecut=    36.75 Ry     beta=0.10
     Davidson diagonalization with overlap
     ethr =  4.38E-03,  avg # of iterations =  1.1

     negative rho (up, down):  1.694E-01 0.000E+00
 
     Adding external electric field

     Computed dipole along edir(3) : 
        Dipole               -0.0026 Ry au,         -0.0066 Debye
        Dipole field         -0.0000 Ry au
 
        Potential amp.        0.0006 Ry
        Total length         45.7739 bohr
 

     total cpu time spent up to now is       86.9 secs

     total energy              =   -1519.64760323 Ry
     Harris-Foulkes estimate   =   -1520.21995999 Ry
     estimated scf accuracy    <       4.18508744 Ry

     iteration #  3     ecut=    36.75 Ry     beta=0.10
     Davidson diagonalization with overlap
     ethr =  2.85E-03,  avg # of iterations =  1.0

     negative rho (up, down):  1.675E-01 0.000E+00
 
     Adding external electric field

     Computed dipole along edir(3) : 
        Dipole                0.0381 Ry au,          0.0969 Debye
        Dipole field          0.0001 Ry au
 
        Potential amp.       -0.0086 Ry
        Total length         45.7739 bohr
 

     total cpu time spent up to now is      116.2 secs

     total energy              =   -1518.84476632 Ry
     Harris-Foulkes estimate   =   -1519.83413080 Ry
     estimated scf accuracy    <       2.71707219 Ry

     iteration #  4     ecut=    36.75 Ry     beta=0.10
     Davidson diagonalization with overlap
     ethr =  1.85E-03,  avg # of iterations =  3.0

     negative rho (up, down):  1.676E-01 0.000E+00
 
     Adding external electric field

     Computed dipole along edir(3) : 
        Dipole               -0.1899 Ry au,         -0.4827 Debye
        Dipole field         -0.0005 Ry au
 
        Potential amp.        0.0428 Ry
        Total length         45.7739 bohr
 

     total cpu time spent up to now is      152.8 secs

     total energy              =   -1519.20359149 Ry
     Harris-Foulkes estimate   =   -1519.23657377 Ry
     estimated scf accuracy    <       0.39642368 Ry

     iteration #  5     ecut=    36.75 Ry     beta=0.10
     Davidson diagonalization with overlap
     ethr =  2.70E-04,  avg # of iterations =  2.0

     negative rho (up, down):  1.691E-01 0.000E+00
 
     Adding external electric field

     Computed dipole along edir(3) : 
        Dipole               -0.0033 Ry au,         -0.0085 Debye
        Dipole field         -0.0000 Ry au
 
        Potential amp.        0.0007 Ry
        Total length         45.7739 bohr
 

     total cpu time spent up to now is      183.5 secs

     total energy              =   -1519.15098067 Ry
     Harris-Foulkes estimate   =   -1519.27360711 Ry
     estimated scf accuracy    <       5.29491738 Ry

     iteration #  6     ecut=    36.75 Ry     beta=0.10
     Davidson diagonalization with overlap
     ethr =  2.70E-04,  avg # of iterations =  1.4

     negative rho (up, down):  1.709E-01 0.000E+00
 
     Adding external electric field

     Computed dipole along edir(3) : 
        Dipole                0.0030 Ry au,          0.0076 Debye
        Dipole field          0.0000 Ry au
 
        Potential amp.       -0.0007 Ry
        Total length         45.7739 bohr
 

     total cpu time spent up to now is      212.0 secs

     total energy              =   -1519.19750827 Ry
     Harris-Foulkes estimate   =   -1519.20413403 Ry
     estimated scf accuracy    <       0.07761563 Ry

     iteration #  7     ecut=    36.75 Ry     beta=0.10
     Davidson diagonalization with overlap
     ethr =  5.28E-05,  avg # of iterations =  5.2

     negative rho (up, down):  1.712E-01 0.000E+00
 
     Adding external electric field

     Computed dipole along edir(3) : 
        Dipole               -0.0007 Ry au,         -0.0019 Debye
        Dipole field         -0.0000 Ry au
 
        Potential amp.        0.0002 Ry
        Total length         45.7739 bohr
 

     total cpu time spent up to now is      250.2 secs

     total energy              =   -1519.20523671 Ry
     Harris-Foulkes estimate   =   -1519.21056274 Ry
     estimated scf accuracy    <       0.04309336 Ry

     iteration #  8     ecut=    36.75 Ry     beta=0.10
     Davidson diagonalization with overlap
     ethr =  2.93E-05,  avg # of iterations =  2.0

     negative rho (up, down):  1.724E-01 0.000E+00
 
     Adding external electric field

     Computed dipole along edir(3) : 
        Dipole                0.0020 Ry au,          0.0051 Debye
        Dipole field          0.0000 Ry au
 
        Potential amp.       -0.0004 Ry
        Total length         45.7739 bohr
 

     total cpu time spent up to now is      281.1 secs

     total energy              =   -1519.20910584 Ry
     Harris-Foulkes estimate   =   -1519.20919938 Ry
     estimated scf accuracy    <       0.01880774 Ry

     iteration #  9     ecut=    36.75 Ry     beta=0.10
     Davidson diagonalization with overlap
     ethr =  1.28E-05,  avg # of iterations =  5.3

     negative rho (up, down):  1.737E-01 0.000E+00
 
     Adding external electric field

     Computed dipole along edir(3) : 
        Dipole                0.0012 Ry au,          0.0031 Debye
        Dipole field          0.0000 Ry au
 
        Potential amp.       -0.0003 Ry
        Total length         45.7739 bohr
 

     total cpu time spent up to now is      316.4 secs

     total energy              =   -1519.21072751 Ry
     Harris-Foulkes estimate   =   -1519.21006124 Ry
     estimated scf accuracy    <       0.00441879 Ry

     iteration # 10     ecut=    36.75 Ry     beta=0.10
     Davidson diagonalization with overlap
     ethr =  3.01E-06,  avg # of iterations =  6.3

     negative rho (up, down):  1.741E-01 0.000E+00
 
     Adding external electric field

     Computed dipole along edir(3) : 
        Dipole               -0.0002 Ry au,         -0.0004 Debye
        Dipole field         -0.0000 Ry au
 
        Potential amp.        0.0000 Ry
        Total length         45.7739 bohr
 

     total cpu time spent up to now is      356.5 secs

     total energy              =   -1519.21135098 Ry
     Harris-Foulkes estimate   =   -1519.21114053 Ry
     estimated scf accuracy    <       0.00165819 Ry

     iteration # 11     ecut=    36.75 Ry     beta=0.10
     Davidson diagonalization with overlap
     ethr =  1.13E-06,  avg # of iterations =  1.6

     negative rho (up, down):  1.742E-01 0.000E+00
 
     Adding external electric field

     Computed dipole along edir(3) : 
        Dipole               -0.0007 Ry au,         -0.0017 Debye
        Dipole field         -0.0000 Ry au
 
        Potential amp.        0.0001 Ry
        Total length         45.7739 bohr
 

     total cpu time spent up to now is      386.7 secs

     total energy              =   -1519.21141913 Ry
     Harris-Foulkes estimate   =   -1519.21144388 Ry
     estimated scf accuracy    <       0.00117531 Ry

     iteration # 12     ecut=    36.75 Ry     beta=0.10
     Davidson diagonalization with overlap
     ethr =  8.00E-07,  avg # of iterations =  2.6

     negative rho (up, down):  1.744E-01 0.000E+00
 
     Adding external electric field

     Computed dipole along edir(3) : 
        Dipole                0.0010 Ry au,          0.0026 Debye
        Dipole field          0.0000 Ry au
 
        Potential amp.       -0.0002 Ry
        Total length         45.7739 bohr
 

     total cpu time spent up to now is      421.2 secs

     total energy              =   -1519.20845874 Ry
     Harris-Foulkes estimate   =   -1519.21162340 Ry
     estimated scf accuracy    <       0.00165783 Ry

     iteration # 13     ecut=    36.75 Ry     beta=0.10
     Davidson diagonalization with overlap
     ethr =  8.00E-07,  avg # of iterations =  1.9

     negative rho (up, down):  1.743E-01 0.000E+00
 
     Adding external electric field

     Computed dipole along edir(3) : 
        Dipole                0.0008 Ry au,          0.0020 Debye
        Dipole field          0.0000 Ry au
 
        Potential amp.       -0.0002 Ry
        Total length         45.7739 bohr
 

     total cpu time spent up to now is      452.4 secs

     total energy              =   -1519.20854589 Ry
     Harris-Foulkes estimate   =   -1519.20855211 Ry
     estimated scf accuracy    <       0.00020673 Ry

     iteration # 14     ecut=    36.75 Ry     beta=0.10
     Davidson diagonalization with overlap
     ethr =  1.41E-07,  avg # of iterations =  3.0

     negative rho (up, down):  1.741E-01 0.000E+00
 
     Adding external electric field

     Computed dipole along edir(3) : 
        Dipole                0.0001 Ry au,          0.0004 Debye
        Dipole field          0.0000 Ry au
 
        Potential amp.       -0.0000 Ry
        Total length         45.7739 bohr
 

     total cpu time spent up to now is      487.4 secs

     total energy              =   -1519.20857546 Ry
     Harris-Foulkes estimate   =   -1519.20856874 Ry
     estimated scf accuracy    <       0.00006146 Ry

     iteration # 15     ecut=    36.75 Ry     beta=0.10
     Davidson diagonalization with overlap
     ethr =  4.18E-08,  avg # of iterations =  2.0

     negative rho (up, down):  1.741E-01 0.000E+00
 
     Adding external electric field

     Computed dipole along edir(3) : 
        Dipole               -0.0002 Ry au,         -0.0006 Debye
        Dipole field         -0.0000 Ry au
 
        Potential amp.        0.0001 Ry
        Total length         45.7739 bohr
 

     total cpu time spent up to now is      518.2 secs

     total energy              =   -1519.20858853 Ry
     Harris-Foulkes estimate   =   -1519.20857883 Ry
     estimated scf accuracy    <       0.00003299 Ry

     iteration # 16     ecut=    36.75 Ry     beta=0.10
     Davidson diagonalization with overlap
     ethr =  2.24E-08,  avg # of iterations =  2.5

     negative rho (up, down):  1.740E-01 0.000E+00
 
     Adding external electric field

     Computed dipole along edir(3) : 
        Dipole                0.0001 Ry au,          0.0001 Debye
        Dipole field          0.0000 Ry au
 
        Potential amp.       -0.0000 Ry
        Total length         45.7739 bohr
 

     total cpu time spent up to now is      552.5 secs

     total energy              =   -1519.20371348 Ry
     Harris-Foulkes estimate   =   -1519.20859357 Ry
     estimated scf accuracy    <       0.00001759 Ry

     iteration # 17     ecut=    36.75 Ry     beta=0.10
     Davidson diagonalization with overlap
     ethr =  1.20E-08,  avg # of iterations =  2.0

     negative rho (up, down):  1.739E-01 0.000E+00
 
     Adding external electric field

     Computed dipole along edir(3) : 
        Dipole               -0.0003 Ry au,         -0.0007 Debye
        Dipole field         -0.0000 Ry au
 
        Potential amp.        0.0001 Ry
        Total length         45.7739 bohr
 

     total cpu time spent up to now is      581.6 secs

     total energy              =   -1519.20371713 Ry
     Harris-Foulkes estimate   =   -1519.20371442 Ry
     estimated scf accuracy    <       0.00001602 Ry

     iteration # 18     ecut=    36.75 Ry     beta=0.10
     Davidson diagonalization with overlap
     ethr =  1.09E-08,  avg # of iterations =  1.0

     negative rho (up, down):  1.739E-01 0.000E+00
 
     Adding external electric field

     Computed dipole along edir(3) : 
        Dipole                0.0001 Ry au,          0.0002 Debye
        Dipole field          0.0000 Ry au
 
        Potential amp.       -0.0000 Ry
        Total length         45.7739 bohr
 

     total cpu time spent up to now is      609.8 secs

     total energy              =   -1519.20371822 Ry
     Harris-Foulkes estimate   =   -1519.20371742 Ry
     estimated scf accuracy    <       0.00000386 Ry

     iteration # 19     ecut=    36.75 Ry     beta=0.10
     Davidson diagonalization with overlap
     ethr =  2.62E-09,  avg # of iterations =  2.1

     negative rho (up, down):  1.738E-01 0.000E+00
 
     Adding external electric field

     Computed dipole along edir(3) : 
        Dipole                0.0002 Ry au,          0.0004 Debye
        Dipole field          0.0000 Ry au
 
        Potential amp.       -0.0000 Ry
        Total length         45.7739 bohr
 

     total cpu time spent up to now is      639.7 secs

     total energy              =   -1519.20371911 Ry
     Harris-Foulkes estimate   =   -1519.20371836 Ry
     estimated scf accuracy    <       0.00000466 Ry

     iteration # 20     ecut=    36.75 Ry     beta=0.10
     Davidson diagonalization with overlap
     ethr =  2.62E-09,  avg # of iterations =  2.0

     negative rho (up, down):  1.735E-01 0.000E+00

     negative rho (up, down):  1.735E-01 0.000E+00

     negative rho (up, down):  1.735E-01 0.000E+00

     negative rho (up, down):  1.735E-01 0.000E+00

     negative rho (up, down):  1.735E-01 0.000E+00

     negative rho (up, down):  1.735E-01 0.000E+00

     negative rho (up, down):  1.735E-01 0.000E+00

     negative rho (up, down):  1.735E-01 0.000E+00

     negative rho (up, down):  1.735E-01 0.000E+00

     negative rho (up, down):  1.735E-01 0.000E+00

     negative rho (up, down):  1.735E-01 0.000E+00

     negative rho (up, down):  1.735E-01 0.000E+00

     negative rho (up, down):  1.735E-01 0.000E+00

     negative rho (up, down):  1.735E-01 0.000E+00

     negative rho (up, down):  1.735E-01 0.000E+00

     negative rho (up, down):  1.735E-01 0.000E+00

     negative rho (up, down):  1.735E-01 0.000E+00

     negative rho (up, down):  1.735E-01 0.000E+00

     negative rho (up, down):  1.735E-01 0.000E+00

     negative rho (up, down):  1.735E-01 0.000E+00

     negative rho (up, down):  1.735E-01 0.000E+00

     negative rho (up, down):  1.735E-01 0.000E+00

     negative rho (up, down):  1.735E-01 0.000E+00

     negative rho (up, down):  1.735E-01 0.000E+00

     negative rho (up, down):  1.735E-01 0.000E+00

     negative rho (up, down):  1.735E-01 0.000E+00

     negative rho (up, down):  1.735E-01 0.000E+00

     negative rho (up, down):  1.735E-01 0.000E+00

     negative rho (up, down):  1.735E-01 0.000E+00

     negative rho (up, down):  1.735E-01 0.000E+00

     negative rho (up, down):  1.735E-01 0.000E+00

     negative rho (up, down):  1.735E-01 0.000E+00

     negative rho (up, down):  1.735E-01 0.000E+00

     negative rho (up, down):  1.735E-01 0.000E+00

     negative rho (up, down):  1.735E-01 0.000E+00
 
     Adding external electric field

     Computed dipole along edir(3) : 
        Dipole               -0.0012 Ry au,         -0.0031 Debye
        Dipole field         -0.0000 Ry au
 
        Potential amp.        0.0003 Ry
        Total length         45.7739 bohr
 

     total cpu time spent up to now is      718.3 secs

     End of self-consistent calculation

          k = 0.0000 0.0000 0.0000 ( 19267 PWs)   bands (ev):

   -56.1295 -56.1276 -56.0820 -56.0820 -56.0815 -56.0815 -55.8692 -55.8237
   -55.8237 -32.5124 -32.4913 -32.4569 -32.4569 -32.4319 -32.4318 -32.4297
   -32.4297 -32.4146 -32.4040 -32.4040 -32.3852 -32.2993 -32.2510 -32.2430
   -32.1944 -32.1944 -32.0739 -32.0739 -32.0519 -32.0519 -32.0391 -32.0390
   -32.0190 -31.9922 -31.8274 -31.8273 -10.6058 -10.6058 -10.5918 -10.5746
   -10.5746 -10.4646 -10.4646 -10.4579 -10.4579 -10.4289 -10.4120 -10.3552
   -10.3552 -10.3433 -10.3433  -7.2764  -6.0725  -5.5106  -1.6399  -1.5454
    -1.2649  -0.5771  -0.5771  -0.5123  -0.5123  -0.2087   0.0619   0.0901
     0.0901   0.4045   0.4045   0.5775   0.5775   0.6444   0.7844   0.8765
     1.2185   1.2185   1.2714   1.2714   1.4008   1.4008   1.4810   1.5133
     1.5133   1.8311   1.8573   2.1597   2.6196   2.7100   2.7100   2.8736
     2.8736   2.8821   2.8821   2.9098   2.9977   2.9977   3.1310   3.1310
     3.4750   3.4750   3.4859   3.5788   3.5788   3.6769   3.7625

          k = 0.0000 0.0324 0.0000 ( 19191 PWs)   bands (ev):

   -56.1267 -56.1249 -56.0848 -56.0843 -56.0820 -56.0815 -55.8665 -55.8264
   -55.8237 -32.5073 -32.4870 -32.4578 -32.4537 -32.4363 -32.4319 -32.4279
   -32.4165 -32.4044 -32.3954 -32.3934 -32.3695 -32.2835 -32.2594 -32.2534
   -32.1923 -32.1837 -32.0892 -32.0766 -32.0754 -32.0556 -32.0549 -32.0416
   -32.0264 -31.9853 -31.8444 -31.8295 -10.6004 -10.5928 -10.5835 -10.5693
   -10.5646 -10.4600 -10.4532 -10.4529 -10.4467 -10.4214 -10.4058 -10.3614
   -10.3609 -10.3418 -10.3370  -7.1266  -5.9738  -5.4989  -1.8828  -1.5964
    -1.3583  -1.1203  -0.8713  -0.3690  -0.2027  -0.1879   0.0596   0.0783
     0.1295   0.3212   0.4154   0.4712   0.6022   0.6883   0.6892   0.9293
     1.0883   1.1879   1.2094   1.3430   1.3672   1.3810   1.4525   1.5207
     1.5563   1.8515   1.8588   1.9669   2.4042   2.5314   2.7060   2.7411
     2.8192   2.8683   2.8760   2.9081   3.0310   3.0633   3.1213   3.1351
     3.2480   3.4398   3.4400   3.5305   3.6043   3.6059   3.7106

          k = 0.0000 0.0649 0.0000 ( 19229 PWs)   bands (ev):

   -56.1193 -56.1180 -56.0920 -56.0913 -56.0820 -56.0815 -55.8596 -55.8334
   -55.8236 -32.4946 -32.4811 -32.4631 -32.4467 -32.4411 -32.4336 -32.4279
   -32.4062 -32.3843 -32.3679 -32.3363 -32.3211 -32.2834 -32.2827 -32.2494
   -32.1817 -32.1542 -32.1437 -32.1306 -32.0871 -32.0854 -32.0679 -32.0500
   -32.0376 -31.9686 -31.8851 -31.8336 -10.5951 -10.5695 -10.5642 -10.5573
   -10.5408 -10.4535 -10.4480 -10.4327 -10.4211 -10.4050 -10.3918 -10.3683
   -10.3660 -10.3470 -10.3292  -6.7196  -5.7909  -5.5304  -2.5282  -1.7416
    -1.6249  -1.5576  -0.7186  -0.4828  -0.4314  -0.1821  -0.1207   0.0309
     0.1071   0.3137   0.5056   0.5164   0.5945   0.7265   0.8491   0.9073
     1.1003   1.1522   1.1576   1.1955   1.3826   1.3830   1.5235   1.5282
     1.6109   1.6856   1.8371   1.9350   2.2559   2.3876   2.4005   2.6383
     2.6776   2.7078   2.8156   2.8792   2.9446   3.0260   3.0472   3.1055
     3.1720   3.2103   3.2900   3.3435   3.5315   3.5646   3.7501

          k = 0.0000-0.0973 0.0000 ( 19232 PWs)   bands (ev):

   -56.1132 -56.1127 -56.0979 -56.0970 -56.0820 -56.0815 -55.8540 -55.8390
   -55.8236 -32.4836 -32.4765 -32.4741 -32.4425 -32.4398 -32.4385 -32.4279
   -32.4073 -32.3563 -32.3378 -32.3143 -32.3062 -32.2883 -32.2708 -32.2295
   -32.2057 -32.1868 -32.1404 -32.1218 -32.1183 -32.1110 -32.0761 -32.0550
   -32.0399 -31.9511 -31.9158 -31.8356 -10.5932 -10.5624 -10.5548 -10.5470
   -10.5254 -10.4503 -10.4499 -10.4226 -10.4075 -10.3964 -10.3832 -10.3717
   -10.3622 -10.3555 -10.3260  -6.3379  -5.9126  -5.4954  -2.7921  -1.8929
    -1.8373  -1.7199  -0.6045  -0.5528  -0.4177  -0.2619  -0.0874  -0.0484
     0.0176   0.4305   0.5175   0.5728   0.6605   0.7120   0.8576   0.9657
     1.0076   1.0138   1.1779   1.1893   1.2878   1.3132   1.5837   1.6322
     1.6646   1.7741   1.8184   1.8420   2.1537   2.5095   2.5143   2.5321
     2.6060   2.6399   2.7259   2.7726   2.7847   2.9155   2.9172   2.9641
     3.0815   3.1369   3.2374   3.2782   3.5305   3.5419   3.8054

          k = 0.0281 0.0162 0.0000 ( 19191 PWs)   bands (ev):

   -56.1267 -56.1249 -56.0848 -56.0842 -56.0820 -56.0815 -55.8665 -55.8264
   -55.8237 -32.5073 -32.4870 -32.4578 -32.4538 -32.4363 -32.4319 -32.4279
   -32.4165 -32.4044 -32.3954 -32.3934 -32.3695 -32.2835 -32.2594 -32.2534
   -32.1923 -32.1837 -32.0892 -32.0766 -32.0754 -32.0556 -32.0549 -32.0416
   -32.0264 -31.9853 -31.8444 -31.8295 -10.6004 -10.5928 -10.5836 -10.5693
   -10.5646 -10.4600 -10.4532 -10.4529 -10.4467 -10.4214 -10.4058 -10.3614
   -10.3609 -10.3418 -10.3370  -7.1266  -5.9738  -5.4989  -1.8828  -1.5964
    -1.3583  -1.1203  -0.8713  -0.3690  -0.2027  -0.1879   0.0596   0.0783
     0.1295   0.3212   0.4154   0.4712   0.6022   0.6883   0.6892   0.9293
     1.0883   1.1879   1.2094   1.3430   1.3672   1.3810   1.4525   1.5207
     1.5563   1.8515   1.8588   1.9669   2.4042   2.5314   2.7060   2.7411
     2.8192   2.8683   2.8760   2.9081   3.0310   3.0633   3.1213   3.1351
     3.2480   3.4398   3.4400   3.5305   3.6043   3.6059   3.7106

          k = 0.0281 0.0487 0.0000 ( 19221 PWs)   bands (ev):

   -56.1215 -56.1200 -56.0897 -56.0894 -56.0818 -56.0816 -55.8616 -55.8313
   -55.8237 -32.4983 -32.4818 -32.4597 -32.4501 -32.4408 -32.4336 -32.4177
   -32.4071 -32.3991 -32.3841 -32.3510 -32.3346 -32.2761 -32.2739 -32.2569
   -32.1892 -32.1613 -32.1193 -32.1187 -32.0804 -32.0774 -32.0658 -32.0477
   -32.0374 -31.9737 -31.8715 -31.8344 -10.5880 -10.5848 -10.5675 -10.5592
   -10.5489 -10.4487 -10.4485 -10.4365 -10.4343 -10.4094 -10.3960 -10.3664
   -10.3660 -10.3417 -10.3342  -6.8465  -5.8167  -5.5219  -2.2399  -1.9956
    -1.4373  -1.3731  -0.8180  -0.4829  -0.3153  -0.1805  -0.1072  -0.0175
     0.2476   0.2656   0.4782   0.5326   0.5626   0.6019   0.7835   1.0016
     1.1038   1.1977   1.2126   1.2879   1.3206   1.3957   1.4781   1.5173
     1.5701   1.6771   1.8231   2.0558   2.1782   2.3974   2.4907   2.6223
     2.6956   2.7996   2.8319   2.8433   2.9372   3.0883   3.1057   3.1960
     3.2006   3.2934   3.4298   3.4449   3.5039   3.5910   3.7443

          k = 0.0281 0.0811 0.0000 ( 19225 PWs)   bands (ev):

   -56.1134 -56.1125 -56.0976 -56.0971 -56.0819 -56.0816 -55.8540 -55.8389
   -55.8237 -32.4842 -32.4773 -32.4675 -32.4509 -32.4402 -32.4352 -32.4148
   -32.4005 -32.3716 -32.3567 -32.3116 -32.3064 -32.2855 -32.2772 -32.2238
   -32.1923 -32.1755 -32.1620 -32.1245 -32.1171 -32.0892 -32.0823 -32.0575
   -32.0460 -31.9534 -31.9082 -31.8398 -10.5835 -10.5659 -10.5582 -10.5456
   -10.5315 -10.4428 -10.4391 -10.4257 -10.4156 -10.3975 -10.3869 -10.3709
   -10.3623 -10.3495 -10.3327  -6.3989  -5.7726  -5.5759  -2.6309  -2.1844
    -1.8598  -1.4908  -0.8856  -0.4730  -0.3400  -0.2436  -0.1334  -0.0955
     0.0512   0.4455   0.4692   0.5715   0.6179   0.7633   0.8953   0.9088
     0.9780   1.0212   1.1804   1.2001   1.3736   1.4225   1.4842   1.5896
     1.6570   1.7991   1.8673   1.9078   2.1958   2.4183   2.4405   2.5263
     2.5910   2.6502   2.7390   2.7819   2.8334   2.9055   2.9764   3.0360
     3.1229   3.1747   3.2432   3.3557   3.4611   3.5572   3.8023

          k = 0.0281-0.0811 0.0000 ( 19225 PWs)   bands (ev):

   -56.1134 -56.1125 -56.0976 -56.0971 -56.0819 -56.0816 -55.8540 -55.8389
   -55.8237 -32.4842 -32.4773 -32.4675 -32.4509 -32.4402 -32.4352 -32.4148
   -32.4005 -32.3716 -32.3567 -32.3116 -32.3064 -32.2855 -32.2772 -32.2238
   -32.1923 -32.1755 -32.1621 -32.1245 -32.1171 -32.0893 -32.0823 -32.0575
   -32.0460 -31.9534 -31.9082 -31.8398 -10.5835 -10.5659 -10.5582 -10.5456
   -10.5315 -10.4428 -10.4391 -10.4257 -10.4156 -10.3975 -10.3869 -10.3709
   -10.3623 -10.3496 -10.3327  -6.3989  -5.7726  -5.5759  -2.6309  -2.1844
    -1.8598  -1.4908  -0.8856  -0.4730  -0.3400  -0.2436  -0.1334  -0.0955
     0.0512   0.4455   0.4692   0.5715   0.6179   0.7633   0.8953   0.9089
     0.9780   1.0212   1.1804   1.2001   1.3736   1.4225   1.4842   1.5896
     1.6571   1.7991   1.8673   1.9078   2.1958   2.4183   2.4405   2.5263
     2.5910   2.6502   2.7390   2.7819   2.8334   2.9055   2.9764   3.0360
     3.1229   3.1747   3.2432   3.3557   3.4611   3.5572   3.8023

          k = 0.0281-0.0487 0.0000 ( 19221 PWs)   bands (ev):

   -56.1215 -56.1200 -56.0897 -56.0894 -56.0819 -56.0816 -55.8616 -55.8313
   -55.8237 -32.4983 -32.4818 -32.4597 -32.4501 -32.4408 -32.4336 -32.4177
   -32.4071 -32.3991 -32.3841 -32.3510 -32.3346 -32.2761 -32.2739 -32.2569
   -32.1893 -32.1613 -32.1193 -32.1187 -32.0804 -32.0774 -32.0658 -32.0477
   -32.0374 -31.9737 -31.8715 -31.8344 -10.5880 -10.5848 -10.5675 -10.5592
   -10.5489 -10.4487 -10.4485 -10.4365 -10.4343 -10.4094 -10.3960 -10.3664
   -10.3660 -10.3417 -10.3342  -6.8465  -5.8167  -5.5219  -2.2399  -1.9956
    -1.4373  -1.3731  -0.8180  -0.4829  -0.3153  -0.1805  -0.1072  -0.0175
     0.2476   0.2656   0.4782   0.5326   0.5626   0.6019   0.7835   1.0016
     1.1038   1.1977   1.2126   1.2880   1.3206   1.3957   1.4781   1.5173
     1.5701   1.6771   1.8231   2.0558   2.1782   2.3974   2.4907   2.6223
     2.6956   2.7996   2.8319   2.8433   2.9372   3.0883   3.1057   3.1960
     3.2006   3.2934   3.4298   3.4448   3.5039   3.5911   3.7443

          k = 0.0281-0.0162 0.0000 ( 19191 PWs)   bands (ev):

   -56.1267 -56.1249 -56.0847 -56.0842 -56.0820 -56.0815 -55.8665 -55.8264
   -55.8237 -32.5073 -32.4870 -32.4578 -32.4538 -32.4363 -32.4319 -32.4279
   -32.4165 -32.4044 -32.3954 -32.3934 -32.3695 -32.2835 -32.2594 -32.2534
   -32.1924 -32.1837 -32.0892 -32.0766 -32.0754 -32.0556 -32.0549 -32.0416
   -32.0264 -31.9853 -31.8444 -31.8296 -10.6004 -10.5928 -10.5836 -10.5693
   -10.5646 -10.4600 -10.4532 -10.4529 -10.4467 -10.4214 -10.4058 -10.3614
   -10.3609 -10.3418 -10.3370  -7.1266  -5.9738  -5.4989  -1.8828  -1.5964
    -1.3583  -1.1203  -0.8713  -0.3690  -0.2027  -0.1879   0.0596   0.0783
     0.1295   0.3212   0.4154   0.4712   0.6022   0.6883   0.6892   0.9293
     1.0883   1.1879   1.2094   1.3430   1.3672   1.3810   1.4525   1.5207
     1.5563   1.8515   1.8588   1.9669   2.4042   2.5314   2.7060   2.7411
     2.8192   2.8683   2.8760   2.9081   3.0310   3.0634   3.1213   3.1351
     3.2481   3.4398   3.4400   3.5305   3.6043   3.6059   3.7106

          k = 0.0562 0.0324 0.0000 ( 19229 PWs)   bands (ev):

   -56.1193 -56.1180 -56.0920 -56.0913 -56.0820 -56.0815 -55.8596 -55.8334
   -55.8237 -32.4946 -32.4811 -32.4631 -32.4467 -32.4411 -32.4336 -32.4279
   -32.4062 -32.3843 -32.3679 -32.3363 -32.3211 -32.2834 -32.2827 -32.2494
   -32.1817 -32.1542 -32.1437 -32.1306 -32.0871 -32.0854 -32.0679 -32.0500
   -32.0376 -31.9686 -31.8850 -31.8337 -10.5951 -10.5695 -10.5642 -10.5573
   -10.5408 -10.4535 -10.4480 -10.4327 -10.4211 -10.4050 -10.3918 -10.3683
   -10.3660 -10.3470 -10.3292  -6.7196  -5.7909  -5.5304  -2.5282  -1.7416
    -1.6249  -1.5576  -0.7187  -0.4828  -0.4314  -0.1821  -0.1207   0.0309
     0.1071   0.3137   0.5056   0.5164   0.5945   0.7265   0.8491   0.9073
     1.1003   1.1522   1.1576   1.1955   1.3826   1.3830   1.5235   1.5282
     1.6109   1.6856   1.8371   1.9350   2.2559   2.3876   2.4005   2.6383
     2.6776   2.7078   2.8156   2.8792   2.9446   3.0260   3.0472   3.1055
     3.1720   3.2104   3.2900   3.3435   3.5315   3.5646   3.7501

          k = 0.0562 0.0649 0.0000 ( 19225 PWs)   bands (ev):

   -56.1134 -56.1125 -56.0976 -56.0971 -56.0819 -56.0816 -55.8540 -55.8389
   -55.8237 -32.4842 -32.4773 -32.4675 -32.4509 -32.4402 -32.4352 -32.4148
   -32.4005 -32.3717 -32.3567 -32.3116 -32.3063 -32.2855 -32.2772 -32.2238
   -32.1923 -32.1755 -32.1620 -32.1245 -32.1171 -32.0892 -32.0823 -32.0575
   -32.0460 -31.9534 -31.9082 -31.8398 -10.5835 -10.5659 -10.5582 -10.5456
   -10.5315 -10.4428 -10.4391 -10.4257 -10.4156 -10.3975 -10.3869 -10.3709
   -10.3623 -10.3496 -10.3327  -6.3989  -5.7726  -5.5759  -2.6309  -2.1844
    -1.8598  -1.4908  -0.8856  -0.4730  -0.3400  -0.2436  -0.1334  -0.0955
     0.0512   0.4455   0.4692   0.5715   0.6179   0.7633   0.8953   0.9088
     0.9780   1.0212   1.1804   1.2001   1.3736   1.4225   1.4842   1.5896
     1.6571   1.7991   1.8673   1.9078   2.1958   2.4183   2.4405   2.5263
     2.5910   2.6502   2.7390   2.7819   2.8334   2.9055   2.9764   3.0360
     3.1229   3.1747   3.2432   3.3557   3.4611   3.5572   3.8023

          k = 0.0562 0.0973 0.0000 ( 19209 PWs)   bands (ev):

   -56.1054 -56.1053 -56.1052 -56.1048 -56.0819 -56.0817 -55.8465 -55.8464
   -55.8237 -32.4744 -32.4721 -32.4720 -32.4601 -32.4368 -32.4367 -32.3962
   -32.3961 -32.3598 -32.3412 -32.3410 -32.3355 -32.2312 -32.2303 -32.2301
   -32.2196 -32.1829 -32.1828 -32.1410 -32.0999 -32.0998 -32.0872 -32.0597
   -32.0596 -31.9314 -31.9313 -31.8455 -10.5656 -10.5656 -10.5621 -10.5357
   -10.5357 -10.4289 -10.4237 -10.4236 -10.4234 -10.3921 -10.3919 -10.3721
   -10.3522 -10.3468 -10.3466  -6.1599  -5.7207  -5.7205  -2.4382  -2.4382
    -2.2143  -1.2843  -0.9196  -0.9196  -0.2360  -0.2360  -0.0947  -0.0250
    -0.0249   0.5388   0.5792   0.5928   0.6556   0.6557   0.8043   0.8043
     1.0844   1.0846   1.0847   1.1937   1.1937   1.4910   1.5157   1.6132
     1.6132   1.8920   2.0819   2.0819   2.1480   2.4098   2.4098   2.4341
     2.6506   2.6506   2.7469   2.7774   2.7775   2.7854   2.8613   2.8614
     3.1263   3.1264   3.2986   3.3897   3.4345   3.4346   3.7794

          k = 0.0562-0.0649 0.0000 ( 19225 PWs)   bands (ev):

   -56.1134 -56.1125 -56.0976 -56.0971 -56.0819 -56.0816 -55.8540 -55.8389
   -55.8237 -32.4842 -32.4773 -32.4675 -32.4509 -32.4402 -32.4352 -32.4148
   -32.4005 -32.3716 -32.3567 -32.3116 -32.3064 -32.2855 -32.2772 -32.2238
   -32.1923 -32.1755 -32.1620 -32.1244 -32.1171 -32.0892 -32.0823 -32.0575
   -32.0460 -31.9534 -31.9082 -31.8399 -10.5835 -10.5659 -10.5582 -10.5456
   -10.5315 -10.4428 -10.4391 -10.4257 -10.4156 -10.3975 -10.3869 -10.3709
   -10.3623 -10.3496 -10.3327  -6.3989  -5.7726  -5.5759  -2.6309  -2.1844
    -1.8598  -1.4908  -0.8856  -0.4730  -0.3400  -0.2436  -0.1334  -0.0955
     0.0512   0.4455   0.4692   0.5715   0.6179   0.7633   0.8953   0.9088
     0.9780   1.0212   1.1804   1.2001   1.3736   1.4225   1.4842   1.5896
     1.6571   1.7991   1.8674   1.9078   2.1958   2.4183   2.4405   2.5263
     2.5910   2.6502   2.7390   2.7819   2.8334   2.9055   2.9764   3.0360
     3.1229   3.1747   3.2432   3.3557   3.4611   3.5572   3.8022

          k = 0.0562-0.0324 0.0000 ( 19229 PWs)   bands (ev):

   -56.1193 -56.1180 -56.0920 -56.0913 -56.0820 -56.0815 -55.8596 -55.8333
   -55.8237 -32.4946 -32.4811 -32.4631 -32.4467 -32.4411 -32.4336 -32.4279
   -32.4062 -32.3843 -32.3679 -32.3363 -32.3211 -32.2834 -32.2827 -32.2494
   -32.1817 -32.1542 -32.1437 -32.1306 -32.0871 -32.0854 -32.0679 -32.0500
   -32.0376 -31.9686 -31.8850 -31.8337 -10.5951 -10.5695 -10.5642 -10.5573
   -10.5408 -10.4535 -10.4480 -10.4327 -10.4211 -10.4050 -10.3918 -10.3683
   -10.3660 -10.3470 -10.3292  -6.7196  -5.7909  -5.5304  -2.5282  -1.7416
    -1.6249  -1.5576  -0.7187  -0.4829  -0.4314  -0.1821  -0.1207   0.0309
     0.1071   0.3137   0.5056   0.5164   0.5945   0.7265   0.8491   0.9073
     1.1003   1.1523   1.1576   1.1955   1.3826   1.3831   1.5235   1.5282
     1.6109   1.6856   1.8371   1.9350   2.2559   2.3876   2.4005   2.6383
     2.6776   2.7079   2.8156   2.8792   2.9446   3.0260   3.0472   3.1055
     3.1720   3.2104   3.2900   3.3434   3.5315   3.5646   3.7501

          k = 0.0562 0.0000 0.0000 ( 19221 PWs)   bands (ev):

   -56.1215 -56.1200 -56.0897 -56.0894 -56.0819 -56.0816 -55.8616 -55.8313
   -55.8237 -32.4983 -32.4818 -32.4597 -32.4501 -32.4408 -32.4336 -32.4177
   -32.4071 -32.3991 -32.3841 -32.3510 -32.3346 -32.2761 -32.2739 -32.2569
   -32.1893 -32.1613 -32.1193 -32.1187 -32.0804 -32.0774 -32.0658 -32.0477
   -32.0374 -31.9737 -31.8715 -31.8344 -10.5880 -10.5848 -10.5675 -10.5592
   -10.5489 -10.4487 -10.4485 -10.4365 -10.4343 -10.4094 -10.3960 -10.3664
   -10.3660 -10.3417 -10.3342  -6.8465  -5.8167  -5.5219  -2.2399  -1.9956
    -1.4374  -1.3731  -0.8180  -0.4829  -0.3153  -0.1805  -0.1072  -0.0175
     0.2476   0.2656   0.4782   0.5326   0.5626   0.6019   0.7835   1.0016
     1.1038   1.1977   1.2126   1.2880   1.3206   1.3957   1.4781   1.5172
     1.5701   1.6771   1.8231   2.0558   2.1782   2.3974   2.4907   2.6223
     2.6956   2.7996   2.8319   2.8433   2.9372   3.0883   3.1057   3.1960
     3.2006   3.2934   3.4298   3.4449   3.5039   3.5910   3.7443

          k =-0.0843-0.0487 0.0000 ( 19232 PWs)   bands (ev):

   -56.1132 -56.1127 -56.0979 -56.0969 -56.0820 -56.0815 -55.8540 -55.8390
   -55.8236 -32.4836 -32.4766 -32.4741 -32.4424 -32.4398 -32.4385 -32.4279
   -32.4073 -32.3563 -32.3378 -32.3142 -32.3062 -32.2883 -32.2708 -32.2295
   -32.2057 -32.1868 -32.1404 -32.1218 -32.1183 -32.1110 -32.0761 -32.0550
   -32.0399 -31.9511 -31.9158 -31.8356 -10.5932 -10.5624 -10.5548 -10.5470
   -10.5254 -10.4503 -10.4499 -10.4226 -10.4075 -10.3964 -10.3832 -10.3717
   -10.3622 -10.3555 -10.3260  -6.3379  -5.9126  -5.4954  -2.7921  -1.8929
    -1.8373  -1.7199  -0.6045  -0.5528  -0.4177  -0.2619  -0.0874  -0.0484
     0.0176   0.4305   0.5175   0.5728   0.6605   0.7120   0.8576   0.9657
     1.0076   1.0138   1.1779   1.1893   1.2878   1.3132   1.5837   1.6322
     1.6646   1.7741   1.8184   1.8420   2.1537   2.5095   2.5143   2.5321
     2.6060   2.6399   2.7259   2.7726   2.7847   2.9155   2.9172   2.9641
     3.0815   3.1369   3.2374   3.2781   3.5305   3.5419   3.8054

          k =-0.0843-0.0162 0.0000 ( 19225 PWs)   bands (ev):

   -56.1134 -56.1125 -56.0976 -56.0971 -56.0819 -56.0816 -55.8540 -55.8389
   -55.8237 -32.4842 -32.4773 -32.4675 -32.4509 -32.4402 -32.4352 -32.4148
   -32.4005 -32.3717 -32.3567 -32.3116 -32.3063 -32.2855 -32.2772 -32.2238
   -32.1923 -32.1755 -32.1621 -32.1245 -32.1171 -32.0893 -32.0823 -32.0575
   -32.0460 -31.9534 -31.9082 -31.8399 -10.5835 -10.5659 -10.5582 -10.5456
   -10.5315 -10.4428 -10.4391 -10.4257 -10.4156 -10.3975 -10.3869 -10.3709
   -10.3623 -10.3496 -10.3327  -6.3989  -5.7726  -5.5759  -2.6309  -2.1844
    -1.8598  -1.4908  -0.8856  -0.4730  -0.3400  -0.2436  -0.1334  -0.0955
     0.0512   0.4455   0.4692   0.5715   0.6179   0.7633   0.8953   0.9088
     0.9780   1.0212   1.1804   1.2001   1.3736   1.4225   1.4842   1.5896
     1.6571   1.7991   1.8674   1.9078   2.1958   2.4183   2.4405   2.5263
     2.5910   2.6502   2.7390   2.7819   2.8334   2.9055   2.9764   3.0360
     3.1229   3.1747   3.2432   3.3557   3.4611   3.5572   3.8023

          k =-0.0843 0.0162 0.0000 ( 19225 PWs)   bands (ev):

   -56.1134 -56.1125 -56.0976 -56.0971 -56.0819 -56.0816 -55.8540 -55.8389
   -55.8237 -32.4842 -32.4773 -32.4675 -32.4509 -32.4402 -32.4352 -32.4148
   -32.4005 -32.3716 -32.3567 -32.3116 -32.3064 -32.2855 -32.2772 -32.2238
   -32.1923 -32.1755 -32.1620 -32.1244 -32.1171 -32.0893 -32.0823 -32.0575
   -32.0460 -31.9534 -31.9082 -31.8399 -10.5835 -10.5659 -10.5582 -10.5456
   -10.5315 -10.4428 -10.4391 -10.4257 -10.4156 -10.3975 -10.3869 -10.3709
   -10.3623 -10.3496 -10.3327  -6.3989  -5.7726  -5.5759  -2.6309  -2.1844
    -1.8598  -1.4908  -0.8856  -0.4730  -0.3400  -0.2436  -0.1334  -0.0955
     0.0512   0.4455   0.4692   0.5715   0.6179   0.7633   0.8953   0.9088
     0.9780   1.0212   1.1804   1.2001   1.3736   1.4225   1.4842   1.5896
     1.6571   1.7991   1.8674   1.9078   2.1958   2.4183   2.4405   2.5263
     2.5910   2.6502   2.7390   2.7819   2.8334   2.9055   2.9764   3.0360
     3.1229   3.1747   3.2432   3.3557   3.4611   3.5572   3.8023

          k =-0.0843-0.1460 0.0000 ( 19232 PWs)   bands (ev):

   -56.1132 -56.1127 -56.0979 -56.0969 -56.0820 -56.0815 -55.8540 -55.8389
   -55.8237 -32.4836 -32.4766 -32.4740 -32.4424 -32.4398 -32.4385 -32.4279
   -32.4073 -32.3563 -32.3378 -32.3143 -32.3062 -32.2883 -32.2708 -32.2295
   -32.2057 -32.1868 -32.1403 -32.1218 -32.1183 -32.1110 -32.0761 -32.0550
   -32.0400 -31.9511 -31.9158 -31.8356 -10.5932 -10.5624 -10.5548 -10.5470
   -10.5254 -10.4503 -10.4499 -10.4226 -10.4075 -10.3964 -10.3832 -10.3717
   -10.3622 -10.3555 -10.3260  -6.3379  -5.9126  -5.4954  -2.7921  -1.8929
    -1.8373  -1.7199  -0.6045  -0.5528  -0.4177  -0.2619  -0.0874  -0.0484
     0.0176   0.4305   0.5175   0.5728   0.6605   0.7120   0.8576   0.9657
     1.0076   1.0138   1.1779   1.1893   1.2878   1.3132   1.5837   1.6322
     1.6646   1.7741   1.8184   1.8420   2.1537   2.5095   2.5143   2.5321
     2.6060   2.6399   2.7259   2.7726   2.7847   2.9156   2.9172   2.9641
     3.0815   3.1369   3.2374   3.2781   3.5305   3.5419   3.8054

     the Fermi energy is     1.0889 ev

!    total energy              =   -1519.20371844 Ry
     Harris-Foulkes estimate   =   -1519.20371948 Ry
     estimated scf accuracy    <       0.00000050 Ry

     The total energy is the sum of the following terms:

     one-electron contribution =  -10479.64379270 Ry
     hartree contribution      =    5250.34433322 Ry
     xc contribution           =    -360.79025367 Ry
     ewald contribution        =    4071.01139230 Ry
     electric field correction =       0.00000000 Ry
     smearing contrib. (-TS)   =      -0.12539761 Ry

     convergence has been achieved in  20 iterations
 
 BEEF-vdW xc energy contributions
           1 :   -316.076020611197     
           2 :    288.706609684607     
           3 :   -242.292557014604     
           4 :    189.332583724699     
           5 :   -140.986740437571     
           6 :    103.220351226057     
           7 :   -76.2598690273373     
           8 :    56.7676618758584     
           9 :   -40.8773962350205     
          10 :    26.2865736086424     
          11 :   -12.6863566172224     
          12 :   0.901253021997888     
          13 :    8.28494884126928     
          14 :   -14.7878777053329     
          15 :    19.1040591318098     
          16 :   -21.7848089878804     
          17 :    23.0689685109666     
          18 :   -22.9714880988928     
          19 :    21.6348965044002     
          20 :   -19.5349690466782     
          21 :    17.3057765767585     
          22 :   -15.3405579939050     
          23 :    13.5269043632771     
          24 :   -11.3644626133467     
          25 :    8.38848963146620     
          26 :   -4.58527116630302     
          27 :   0.487672037987238     
          28 :    3.11699800477783     
          29 :   -5.65657877844495     
          30 :    7.08275696511970     
          31 :   -29.0849157003147     
          32 :   -21.0531704003793     

     Forces acting on atoms (Ry/au):


     negative rho (up, down):  1.735E-01 0.000E+00
     atom    1 type  1   force =    -0.00000052   -0.00637713    0.01355511
     atom    2 type  1   force =    -0.00552452    0.00318961    0.01355686
     atom    3 type  1   force =     0.00552512    0.00319077    0.01355401
     atom    4 type  2   force =     0.00001699   -0.00001295   -0.03622686
     atom    5 type  1   force =     0.00000344   -0.00000556    0.00005380
     atom    6 type  1   force =    -0.00000322    0.00000487    0.00005480
     atom    7 type  1   force =     0.00000568    0.00000211    0.00005208
     atom    8 type  2   force =    -0.00001501   -0.00000495    0.00005242
     atom    9 type  1   force =     0.00000284    0.00637707   -0.01352302
     atom   10 type  1   force =     0.00552488   -0.00318841   -0.01352151
     atom   11 type  1   force =    -0.00552248   -0.00319010   -0.01352381
     atom   12 type  2   force =    -0.00001319    0.00001468    0.03591612

     Total force =     0.062820     Total SCF correction =     0.002136


     entering subroutine stress ...


     negative rho (up, down):  1.735E-01 0.000E+00
          total   stress  (Ry/bohr**3)                   (kbar)     P=   -9.55
  -0.00008540   0.00000000  -0.00000000        -12.56      0.00     -0.00
   0.00000000  -0.00008540  -0.00000000          0.00    -12.56     -0.00
  -0.00000000  -0.00000000  -0.00002404         -0.00     -0.00     -3.54

 !ASE

     Writing output data file calc.save
 
     init_run     :     10.08s CPU     16.03s WALL (       1 calls)
     electrons    :    442.04s CPU    702.04s WALL (       1 calls)
     forces       :      2.58s CPU      3.01s WALL (       1 calls)
     stress       :      5.73s CPU      6.58s WALL (       1 calls)

     Called by init_run:
     wfcinit      :      7.84s CPU     13.18s WALL (       1 calls)
     potinit      :      1.22s CPU      1.60s WALL (       1 calls)

     Called by electrons:
     c_bands      :    324.51s CPU    520.11s WALL (      20 calls)
     sum_band     :     57.71s CPU     99.26s WALL (      20 calls)
     v_of_rho     :     21.56s CPU     29.71s WALL (      21 calls)
     newd         :      5.06s CPU      5.31s WALL (      21 calls)
     mix_rho      :      0.91s CPU      1.33s WALL (      20 calls)
     vdW_energy   :      1.70s CPU      1.73s WALL (      57 calls)
     vdW_ffts     :     35.86s CPU     53.20s WALL (     116 calls)
     vdW_v        :      6.85s CPU      8.94s WALL (      57 calls)

     Called by c_bands:
     init_us_2    :      0.45s CPU      0.49s WALL (     860 calls)
     cegterg      :    318.47s CPU    512.79s WALL (     400 calls)

     Called by *egterg:
     h_psi        :    225.92s CPU    408.15s WALL (    1451 calls)
     s_psi        :      5.66s CPU      5.68s WALL (    1451 calls)
     g_psi        :      0.32s CPU      0.31s WALL (    1031 calls)
     cdiaghg      :     52.10s CPU     54.79s WALL (    1431 calls)

     Called by h_psi:
     add_vuspsi   :      5.92s CPU      5.94s WALL (    1451 calls)

     General routines
     calbec       :     17.08s CPU     22.56s WALL (    1891 calls)
     fft          :     55.36s CPU     79.70s WALL (    3489 calls)
     ffts         :      0.13s CPU      0.24s WALL (      41 calls)
     fftw         :    246.96s CPU    463.68s WALL (  224666 calls)
     interpolate  :      0.75s CPU      1.14s WALL (      41 calls)
     davcio       :      0.00s CPU      0.02s WALL (      20 calls)
 
     Parallel routines
     fft_scatter  :    281.89s CPU    521.39s WALL (  228196 calls)
 
     PWSCF        :  7m41.27s CPU    12m 9.23s WALL

 
   This run was terminated on:   2: 7:46  28Dec2018            

=------------------------------------------------------------------------------=
   JOB DONE.
=------------------------------------------------------------------------------=
Job  /afs/slac/g/suncat/bin/suncat-tsmpirun -x LD_LIBRARY_PATH -wdir /scratch/qe111151_Q6X1I pw.x -in pw.inp

TID   HOST_NAME   COMMAND_LINE            STATUS            TERMINATION_TIME
===== ========== ================  =======================  ===================
00000 suncat0080 pw.x -in pw.inp   Done                     12/28/2018 02:07:46
00001 suncat0080 pw.x -in pw.inp   Done                     12/28/2018 02:07:46
00002 suncat0080 pw.x -in pw.inp   Done                     12/28/2018 02:07:46
00003 suncat0080 pw.x -in pw.inp   Done                     12/28/2018 02:07:46
00004 suncat0080 pw.x -in pw.inp   Done                     12/28/2018 02:07:46
00005 suncat0080 pw.x -in pw.inp   Done                     12/28/2018 02:07:46
00006 suncat0080 pw.x -in pw.inp   Done                     12/28/2018 02:07:46
00007 suncat0080 pw.x -in pw.inp   Done                     12/28/2018 02:07:46
00008 suncat0078 pw.x -in pw.inp   Done                     12/28/2018 02:07:46
00009 suncat0078 pw.x -in pw.inp   Done                     12/28/2018 02:07:46
00010 suncat0078 pw.x -in pw.inp   Done                     12/28/2018 02:07:46
00011 suncat0078 pw.x -in pw.inp   Done                     12/28/2018 02:07:46
00012 suncat0078 pw.x -in pw.inp   Done                     12/28/2018 02:07:46
00013 suncat0078 pw.x -in pw.inp   Done                     12/28/2018 02:07:46
00014 suncat0078 pw.x -in pw.inp   Done                     12/28/2018 02:07:46
00015 suncat0078 pw.x -in pw.inp   Done                     12/28/2018 02:07:46
00016 suncat0165 pw.x -in pw.inp   Done                     12/28/2018 02:07:46
00017 suncat0165 pw.x -in pw.inp   Done                     12/28/2018 02:07:46
00018 suncat0165 pw.x -in pw.inp   Done                     12/28/2018 02:07:46
00019 suncat0165 pw.x -in pw.inp   Done                     12/28/2018 02:07:46
00020 suncat0165 pw.x -in pw.inp   Done                     12/28/2018 02:07:46
00021 suncat0165 pw.x -in pw.inp   Done                     12/28/2018 02:07:46
00022 suncat0165 pw.x -in pw.inp   Done                     12/28/2018 02:07:46
00023 suncat0165 pw.x -in pw.inp   Done                     12/28/2018 02:07:46
00024 suncat0164 pw.x -in pw.inp   Done                     12/28/2018 02:07:46
00025 suncat0164 pw.x -in pw.inp   Done                     12/28/2018 02:07:46
00026 suncat0164 pw.x -in pw.inp   Done                     12/28/2018 02:07:46
00027 suncat0164 pw.x -in pw.inp   Done                     12/28/2018 02:07:46
00028 suncat0164 pw.x -in pw.inp   Done                     12/28/2018 02:07:46
00029 suncat0164 pw.x -in pw.inp   Done                     12/28/2018 02:07:46
00030 suncat0164 pw.x -in pw.inp   Done                     12/28/2018 02:07:46
00031 suncat0164 pw.x -in pw.inp   Done                     12/28/2018 02:07:46
00032 suncat0143 pw.x -in pw.inp   Done                     12/28/2018 02:07:46
00033 suncat0143 pw.x -in pw.inp   Done                     12/28/2018 02:07:46
00034 suncat0143 pw.x -in pw.inp   Done                     12/28/2018 02:07:46
00035 suncat0143 pw.x -in pw.inp   Done                     12/28/2018 02:07:46
00036 suncat0143 pw.x -in pw.inp   Done                     12/28/2018 02:07:46
00037 suncat0143 pw.x -in pw.inp   Done                     12/28/2018 02:07:46
00038 suncat0143 pw.x -in pw.inp   Done                     12/28/2018 02:07:46
00039 suncat0143 pw.x -in pw.inp   Done                     12/28/2018 02:07:46
00040 suncat0135 pw.x -in pw.inp   Done                     12/28/2018 02:07:46
00041 suncat0135 pw.x -in pw.inp   Done                     12/28/2018 02:07:46
00042 suncat0135 pw.x -in pw.inp   Done                     12/28/2018 02:07:46
00043 suncat0135 pw.x -in pw.inp   Done                     12/28/2018 02:07:46
00044 suncat0135 pw.x -in pw.inp   Done                     12/28/2018 02:07:46
00045 suncat0135 pw.x -in pw.inp   Done                     12/28/2018 02:07:46
00046 suncat0135 pw.x -in pw.inp   Done                     12/28/2018 02:07:46
00047 suncat0135 pw.x -in pw.inp   Done                     12/28/2018 02:07:46
00048 suncat0134 pw.x -in pw.inp   Done                     12/28/2018 02:07:46
00049 suncat0134 pw.x -in pw.inp   Done                     12/28/2018 02:07:46
00050 suncat0134 pw.x -in pw.inp   Done                     12/28/2018 02:07:46
00051 suncat0134 pw.x -in pw.inp   Done                     12/28/2018 02:07:46
00052 suncat0134 pw.x -in pw.inp   Done                     12/28/2018 02:07:46
00053 suncat0134 pw.x -in pw.inp   Done                     12/28/2018 02:07:46
00054 suncat0134 pw.x -in pw.inp   Done                     12/28/2018 02:07:46
00055 suncat0134 pw.x -in pw.inp   Done                     12/28/2018 02:07:46
00056 suncat0272 pw.x -in pw.inp   Done                     12/28/2018 02:07:46
00057 suncat0272 pw.x -in pw.inp   Done                     12/28/2018 02:07:46
00058 suncat0272 pw.x -in pw.inp   Done                     12/28/2018 02:07:46
00059 suncat0272 pw.x -in pw.inp   Done                     12/28/2018 02:07:46
00060 suncat0272 pw.x -in pw.inp   Done                     12/28/2018 02:07:46
00061 suncat0272 pw.x -in pw.inp   Done                     12/28/2018 02:07:46
00062 suncat0272 pw.x -in pw.inp   Done                     12/28/2018 02:07:46
00063 suncat0272 pw.x -in pw.inp   Done                     12/28/2018 02:07:46

     Program PWSCF v.5.1rc2 (svn rev. 11289) starts on 28Dec2018 at  2: 7:52 

     This program is part of the open-source Quantum ESPRESSO suite
     for quantum simulation of materials; please cite
         "P. Giannozzi et al., J. Phys.:Condens. Matter 21 395502 (2009);
          URL http://www.quantum-espresso.org", 
     in publications or presentations arising from this work. More details at
     http://www.quantum-espresso.org/quote

     Parallel version (MPI), running on    64 processors
     R & G space division:  proc/nbgrp/npool/nimage =      64
     Reading input from pw.inp
     Message from routine read_cards :
     DEPRECATED: no units specified in CELL_PARAMETERS card

     Current dimensions of program PWSCF are:
     Max number of different atomic species (ntypx) = 10
     Max number of k-points (npk) =  40000
     Max angular momentum in pseudopotentials (lmaxx) =  3
     Presently stress not available with electric field


     **************************************************************************
     Initializing libbeef V0.1.1 with the BEEF-vdW functional.
     Citation: Wellendorff et al., PRB 85, 235149 (2012).
     **************************************************************************


     IMPORTANT: XC functional enforced from input :
     Exchange-correlation      = BEEF-VDW ( 1  4 27 13 2)
     Any further DFT definition will be discarded
     Please, verify this is what you really want


     Subspace diagonalization in iterative solution of the eigenvalue problem:
     a serial algorithm will be used

 
     Parallelization info
     --------------------
     sticks:   dense  smooth     PW     G-vecs:    dense   smooth      PW
     Min          50      19      5                 9488     2386     371
     Max          51      20      6                 9502     2428     400
     Sum        3205    1273    379               607691   153949   25089
 


     bravais-lattice index     =            0
     lattice parameter (alat)  =       1.8897  a.u.
     unit-cell volume          =    5109.3294 (a.u.)^3
     number of atoms/cell      =           12
     number of atomic types    =            2
     number of electrons       =       147.00
     number of Kohn-Sham states=          103
     kinetic-energy cutoff     =      36.7493  Ry
     charge density cutoff     =     367.4932  Ry
     convergence threshold     =      1.0E-06
     mixing beta               =       0.1000
     number of iterations used =           10  plain     mixing
     Exchange-correlation      = BEEF-VDW ( 1  4 27 13 2)
     nstep                     =           50


     celldm(1)=   1.889726  celldm(2)=   0.000000  celldm(3)=   0.000000
     celldm(4)=   0.000000  celldm(5)=   0.000000  celldm(6)=   0.000000

     crystal axes: (cart. coord. in units of alat)
               a(1) = (   5.932139   0.000000   0.000000 )  
               a(2) = (  -2.966070   5.137383   0.000000 )  
               a(3) = (   0.000000   0.000000  24.843571 )  

     reciprocal axes: (cart. coord. in units 2 pi/alat)
               b(1) = (  0.168573  0.097326  0.000000 )  
               b(2) = (  0.000000  0.194652  0.000000 )  
               b(3) = (  0.000000  0.000000  0.040252 )  


     PseudoPot. # 1 for Ti read from file:
     /afs/slac.stanford.edu/u/if/mamunm/psp/gbrv1.5pbe/Ti.UPF
     MD5 check sum: 88a00a6731bd790ddea75d31a80cb452
     Pseudo is Ultrasoft + core correction, Zval = 12.0
     Generated by new atomic code, or converted to UPF format
     Using radial grid of  851 points,  6 beta functions with: 
                l(1) =   0
                l(2) =   0
                l(3) =   1
                l(4) =   1
                l(5) =   2
                l(6) =   2
     Q(r) pseudized with  6 coefficients,  rinner =    1.000   1.000   1.000
                                                       1.000   1.000

     PseudoPot. # 2 for Tl read from file:
     /afs/slac.stanford.edu/u/if/mamunm/psp/gbrv1.5pbe/Tl.UPF
     MD5 check sum: b76cf1f7e72655a2b2c53cf6385d7059
     Pseudo is Ultrasoft + core correction, Zval = 13.0
     Generated by new atomic code, or converted to UPF format
     Using radial grid of  899 points,  6 beta functions with: 
                l(1) =   0
                l(2) =   0
                l(3) =   1
                l(4) =   1
                l(5) =   2
                l(6) =   2
     Q(r) pseudized with  6 coefficients,  rinner =    1.100   1.100   1.100
                                                       1.100   1.100

     vdW kernel table read from file vdW_kernel_table
     MD5 check sum: 095c7af220d748ca6e76c0b4c6cfb241

     atomic species   valence    mass     pseudopotential
        Ti1           12.00    47.86700     Ti( 1.00)
        Tl1           13.00   204.38000     Tl( 1.00)

     No symmetry found



   Cartesian axes

     site n.     atom                  positions (alat units)
         1           Ti1 tau(   1) = (   0.0000000   0.0000000  10.0000000  )
         2           Ti1 tau(   2) = (  -1.4830348   2.5686916  10.0000000  )
         3           Ti1 tau(   3) = (   1.4830348   2.5686916  10.0000000  )
         4           Tl1 tau(   4) = (   2.9660695   0.0000000  10.0000000  )
         5           Ti1 tau(   5) = (   2.9660695   1.7124610  12.4217856  )
         6           Ti1 tau(   6) = (   1.4830348   4.2811526  12.4217856  )
         7           Ti1 tau(   7) = (  -1.4830348   4.2811526  12.4217856  )
         8           Tl1 tau(   8) = (   0.0000000   1.7124610  12.4217856  )
         9           Ti1 tau(   9) = (   0.0000073   3.4413182  14.8088022  )
        10           Ti1 tau(  10) = (   1.4972398   0.8480328  14.8088060  )
        11           Ti1 tau(  11) = (   4.4349054   0.8480284  14.8088001  )
        12           Tl1 tau(  12) = (   2.9660356   3.4249598  14.9359153  )

     number of k points=    20  Fermi-Dirac smearing, width (Ry)=  0.0110
                       cart. coord. in units 2pi/alat
        k(    1) = (   0.0000000   0.0000000   0.0000000), wk =   0.0555556
        k(    2) = (   0.0000000   0.0324419   0.0000000), wk =   0.1111111
        k(    3) = (   0.0000000   0.0648839   0.0000000), wk =   0.1111111
        k(    4) = (   0.0000000  -0.0973258   0.0000000), wk =   0.0555556
        k(    5) = (   0.0280955   0.0162210   0.0000000), wk =   0.1111111
        k(    6) = (   0.0280955   0.0486629   0.0000000), wk =   0.1111111
        k(    7) = (   0.0280955   0.0811048   0.0000000), wk =   0.1111111
        k(    8) = (   0.0280955  -0.0811048   0.0000000), wk =   0.1111111
        k(    9) = (   0.0280955  -0.0486629   0.0000000), wk =   0.1111111
        k(   10) = (   0.0280955  -0.0162210   0.0000000), wk =   0.1111111
        k(   11) = (   0.0561911   0.0324419   0.0000000), wk =   0.1111111
        k(   12) = (   0.0561911   0.0648839   0.0000000), wk =   0.1111111
        k(   13) = (   0.0561911   0.0973258   0.0000000), wk =   0.1111111
        k(   14) = (   0.0561911  -0.0648839   0.0000000), wk =   0.1111111
        k(   15) = (   0.0561911  -0.0324419   0.0000000), wk =   0.1111111
        k(   16) = (   0.0561911   0.0000000   0.0000000), wk =   0.1111111
        k(   17) = (  -0.0842866  -0.0486629   0.0000000), wk =   0.0555556
        k(   18) = (  -0.0842866  -0.0162210   0.0000000), wk =   0.1111111
        k(   19) = (  -0.0842866   0.0162210   0.0000000), wk =   0.1111111
        k(   20) = (  -0.0842866  -0.1459887   0.0000000), wk =   0.0555556

     Dense  grid:   607691 G-vectors     FFT dimensions: (  72,  72, 288)

     Smooth grid:   153949 G-vectors     FFT dimensions: (  45,  45, 192)

     Largest allocated arrays     est. size (Mb)     dimensions
        Kohn-Sham Wavefunctions         0.57 Mb     (     362,  103)
        NL pseudopotentials             1.19 Mb     (     362,  216)
        Each V/rho on FFT grid          0.40 Mb     (   25920)
        Each G-vector array             0.07 Mb     (    9492)
        G-vector shells                 0.04 Mb     (    4625)
     Largest temporary arrays     est. size (Mb)     dimensions
        Auxiliary wavefunctions         2.28 Mb     (     362,  412)
        Each subspace H/S matrix        2.59 Mb     (     412,  412)
        Each <psi_i|beta_j> matrix      0.34 Mb     (     216,  103)
        Arrays for rho mixing           3.96 Mb     (   25920,   10)

     Check: negative/imaginary core charge=   -0.000005    0.000000

     Initial potential from superposition of free atoms
     Check: negative starting charge=   -0.164051

     starting charge  137.98501, renormalised to  147.00000

     negative rho (up, down):  1.748E-01 0.000E+00


     ************************************************************************
     *
     * You are using vdW-DF for exchange-correlation in this calculation.
     * Please cite the following three references that made this development
     * possible:
     *
     *   M. Dion, H. Rydberg, E. Schroder, D. C. Langreth, and
     *   B. I. Lundqvist, Phys. Rev. Lett. 92, 246401 (2004).
     *
     *   T. Thonhauser, V. R. Cooper, S. Li, A. Puzder, P. Hyldgaard, and
     *   D. C. Langreth, Phys. Rev. B 76, 125112 (2007).
     *
     *   G. Roman-Perez and J. M. Soler, Phys. Rev. Lett. 103, 096102 (2009).
     *
     *
     * If you are using vdW-DF2, please also cite:
     *
     *   K. Lee, E. D. Murray, L. Kong, B. I. Lundqvist, and
     *   D. C. Langreth, Phys. Rev. B 82, 081101(R) (2010).
     *
     *
     * If you are calculating the stress with vdW-DF, please also cite:
     *
     *   R. Sabatini, E. Kucukbenli, B. Kolb, T. Thonhauser, and
     *   S. de Gironcoli, J. Phys.: Condens. Matter 24, 424209 (2012).
     *
     ************************************************************************

     Carrying out vdW-DF run using the following parameters:

     Nqs =      20    Nr_points =    1024   r_max =   100.000
     q_mesh =
               0.00001000     0.04494208     0.09755937     0.15916263
               0.23128650     0.31572767     0.41458969     0.53033537
               0.66584808     0.82450364     1.01025438     1.22772762
               1.48234092     1.78043706     2.12944203     2.53805004
               3.01644009     3.57652955     4.23227104     5.00000000

     Gradients computed in reciprocal space

     ************************************************************************


 
     Adding external electric field

     Computed dipole along edir(3) : 
        Dipole               -0.2028 Ry au,         -0.5154 Debye
        Dipole field         -0.0005 Ry au
 
        Potential amp.        0.0457 Ry
        Total length         45.7739 bohr
 
     Starting wfc are  117 randomized atomic wfcs

     total cpu time spent up to now is       14.5 secs

     per-process dynamical memory:    39.7 Mb

     Self-consistent Calculation

     iteration #  1     ecut=    36.75 Ry     beta=0.10
     Davidson diagonalization with overlap
     ethr =  1.00E-02,  avg # of iterations =  3.5

     negative rho (up, down):  1.723E-01 0.000E+00
 
     Adding external electric field

     Computed dipole along edir(3) : 
        Dipole                0.9242 Ry au,          2.3490 Debye
        Dipole field          0.0023 Ry au
 
        Potential amp.       -0.2081 Ry
        Total length         45.7739 bohr
 

     total cpu time spent up to now is       58.9 secs

     total energy              =   -1519.68854716 Ry
     Harris-Foulkes estimate   =   -1521.12331559 Ry
     estimated scf accuracy    <       8.28884724 Ry

     iteration #  2     ecut=    36.75 Ry     beta=0.10
     Davidson diagonalization with overlap
     ethr =  5.64E-03,  avg # of iterations =  1.4

     negative rho (up, down):  1.718E-01 0.000E+00
 
     Adding external electric field

     Computed dipole along edir(3) : 
        Dipole               -0.3355 Ry au,         -0.8528 Debye
        Dipole field         -0.0008 Ry au
 
        Potential amp.        0.0755 Ry
        Total length         45.7739 bohr
 

     total cpu time spent up to now is       88.8 secs

     total energy              =   -1518.84498647 Ry
     Harris-Foulkes estimate   =   -1521.18887757 Ry
     estimated scf accuracy    <      79.82026769 Ry

     iteration #  3     ecut=    36.75 Ry     beta=0.10
     Davidson diagonalization with overlap
     ethr =  5.64E-03,  avg # of iterations =  1.1

     negative rho (up, down):  1.707E-01 0.000E+00
 
     Adding external electric field

     Computed dipole along edir(3) : 
        Dipole                0.0700 Ry au,          0.1779 Debye
        Dipole field          0.0002 Ry au
 
        Potential amp.       -0.0158 Ry
        Total length         45.7739 bohr
 

     total cpu time spent up to now is      117.4 secs

     total energy              =   -1519.56538674 Ry
     Harris-Foulkes estimate   =   -1520.27434624 Ry
     estimated scf accuracy    <      14.46345272 Ry

     iteration #  4     ecut=    36.75 Ry     beta=0.10
     Davidson diagonalization with overlap
     ethr =  5.64E-03,  avg # of iterations =  1.0

     negative rho (up, down):  1.688E-01 0.000E+00
 
     Adding external electric field

     Computed dipole along edir(3) : 
        Dipole                0.0080 Ry au,          0.0203 Debye
        Dipole field          0.0000 Ry au
 
        Potential amp.       -0.0018 Ry
        Total length         45.7739 bohr
 

     total cpu time spent up to now is      145.6 secs

     total energy              =   -1519.01222127 Ry
     Harris-Foulkes estimate   =   -1519.88420881 Ry
     estimated scf accuracy    <       3.13422186 Ry

     iteration #  5     ecut=    36.75 Ry     beta=0.10
     Davidson diagonalization with overlap
     ethr =  2.13E-03,  avg # of iterations =  2.0

     negative rho (up, down):  1.691E-01 0.000E+00
 
     Adding external electric field

     Computed dipole along edir(3) : 
        Dipole               -0.0076 Ry au,         -0.0193 Debye
        Dipole field         -0.0000 Ry au
 
        Potential amp.        0.0017 Ry
        Total length         45.7739 bohr
 

     total cpu time spent up to now is      175.1 secs

     total energy              =   -1519.09992009 Ry
     Harris-Foulkes estimate   =   -1519.23582890 Ry
     estimated scf accuracy    <       0.31858176 Ry

     iteration #  6     ecut=    36.75 Ry     beta=0.10
     Davidson diagonalization with overlap
     ethr =  2.17E-04,  avg # of iterations =  3.6

     negative rho (up, down):  1.709E-01 0.000E+00
 
     Adding external electric field

     Computed dipole along edir(3) : 
        Dipole               -0.0351 Ry au,         -0.0893 Debye
        Dipole field         -0.0001 Ry au
 
        Potential amp.        0.0079 Ry
        Total length         45.7739 bohr
 

     total cpu time spent up to now is      215.6 secs

     total energy              =   -1519.19546552 Ry
     Harris-Foulkes estimate   =   -1519.23366622 Ry
     estimated scf accuracy    <       0.10087117 Ry

     iteration #  7     ecut=    36.75 Ry     beta=0.10
     Davidson diagonalization with overlap
     ethr =  6.86E-05,  avg # of iterations =  2.5

     negative rho (up, down):  1.717E-01 0.000E+00
 
     Adding external electric field

     Computed dipole along edir(3) : 
        Dipole               -0.0207 Ry au,         -0.0527 Debye
        Dipole field         -0.0001 Ry au
 
        Potential amp.        0.0047 Ry
        Total length         45.7739 bohr
 

     total cpu time spent up to now is      251.0 secs

     total energy              =   -1519.21256798 Ry
     Harris-Foulkes estimate   =   -1519.22004103 Ry
     estimated scf accuracy    <       0.04512068 Ry

     iteration #  8     ecut=    36.75 Ry     beta=0.10
     Davidson diagonalization with overlap
     ethr =  3.07E-05,  avg # of iterations =  6.2

     negative rho (up, down):  1.725E-01 0.000E+00
 
     Adding external electric field

     Computed dipole along edir(3) : 
        Dipole               -0.0223 Ry au,         -0.0568 Debye
        Dipole field         -0.0001 Ry au
 
        Potential amp.        0.0050 Ry
        Total length         45.7739 bohr
 

     total cpu time spent up to now is      291.2 secs

     total energy              =   -1519.21677968 Ry
     Harris-Foulkes estimate   =   -1519.21730280 Ry
     estimated scf accuracy    <       0.01533217 Ry

     iteration #  9     ecut=    36.75 Ry     beta=0.10
     Davidson diagonalization with overlap
     ethr =  1.04E-05,  avg # of iterations =  4.7

     negative rho (up, down):  1.729E-01 0.000E+00
 
     Adding external electric field

     Computed dipole along edir(3) : 
        Dipole               -0.0094 Ry au,         -0.0240 Debye
        Dipole field         -0.0000 Ry au
 
        Potential amp.        0.0021 Ry
        Total length         45.7739 bohr
 

     total cpu time spent up to now is      325.1 secs

     total energy              =   -1519.21793061 Ry
     Harris-Foulkes estimate   =   -1519.21856872 Ry
     estimated scf accuracy    <       0.02080121 Ry

     iteration # 10     ecut=    36.75 Ry     beta=0.10
     Davidson diagonalization with overlap
     ethr =  1.04E-05,  avg # of iterations =  1.0

     negative rho (up, down):  1.738E-01 0.000E+00
 
     Adding external electric field

     Computed dipole along edir(3) : 
        Dipole               -0.0181 Ry au,         -0.0461 Debye
        Dipole field         -0.0000 Ry au
 
        Potential amp.        0.0041 Ry
        Total length         45.7739 bohr
 

     total cpu time spent up to now is      354.6 secs

     total energy              =   -1519.21902844 Ry
     Harris-Foulkes estimate   =   -1519.21871810 Ry
     estimated scf accuracy    <       0.00860382 Ry

     iteration # 11     ecut=    36.75 Ry     beta=0.10
     Davidson diagonalization with overlap
     ethr =  5.85E-06,  avg # of iterations =  1.9

     negative rho (up, down):  1.740E-01 0.000E+00
 
     Adding external electric field

     Computed dipole along edir(3) : 
        Dipole               -0.0201 Ry au,         -0.0510 Debye
        Dipole field         -0.0000 Ry au
 
        Potential amp.        0.0045 Ry
        Total length         45.7739 bohr
 

     total cpu time spent up to now is      385.1 secs

     total energy              =   -1519.21939533 Ry
     Harris-Foulkes estimate   =   -1519.21933673 Ry
     estimated scf accuracy    <       0.00187833 Ry

     iteration # 12     ecut=    36.75 Ry     beta=0.10
     Davidson diagonalization with overlap
     ethr =  1.28E-06,  avg # of iterations =  3.2

     negative rho (up, down):  1.739E-01 0.000E+00
 
     Adding external electric field

     Computed dipole along edir(3) : 
        Dipole               -0.0155 Ry au,         -0.0394 Debye
        Dipole field         -0.0000 Ry au
 
        Potential amp.        0.0035 Ry
        Total length         45.7739 bohr
 

     total cpu time spent up to now is      416.4 secs

     total energy              =   -1519.21951701 Ry
     Harris-Foulkes estimate   =   -1519.21951968 Ry
     estimated scf accuracy    <       0.00093778 Ry

     iteration # 13     ecut=    36.75 Ry     beta=0.10
     Davidson diagonalization with overlap
     ethr =  6.38E-07,  avg # of iterations =  1.0

     negative rho (up, down):  1.741E-01 0.000E+00
 
     Adding external electric field

     Computed dipole along edir(3) : 
        Dipole               -0.0169 Ry au,         -0.0428 Debye
        Dipole field         -0.0000 Ry au
 
        Potential amp.        0.0038 Ry
        Total length         45.7739 bohr
 

     total cpu time spent up to now is      445.3 secs

     total energy              =   -1519.21960050 Ry
     Harris-Foulkes estimate   =   -1519.21954883 Ry
     estimated scf accuracy    <       0.00082806 Ry

     iteration # 14     ecut=    36.75 Ry     beta=0.10
     Davidson diagonalization with overlap
     ethr =  5.63E-07,  avg # of iterations =  2.0

     negative rho (up, down):  1.741E-01 0.000E+00
 
     Adding external electric field

     Computed dipole along edir(3) : 
        Dipole               -0.0158 Ry au,         -0.0403 Debye
        Dipole field         -0.0000 Ry au
 
        Potential amp.        0.0036 Ry
        Total length         45.7739 bohr
 

     total cpu time spent up to now is      476.9 secs

     total energy              =   -1519.21968348 Ry
     Harris-Foulkes estimate   =   -1519.21965243 Ry
     estimated scf accuracy    <       0.00068003 Ry

     iteration # 15     ecut=    36.75 Ry     beta=0.10
     Davidson diagonalization with overlap
     ethr =  4.63E-07,  avg # of iterations =  1.0

     negative rho (up, down):  1.741E-01 0.000E+00
 
     Adding external electric field

     Computed dipole along edir(3) : 
        Dipole               -0.0159 Ry au,         -0.0404 Debye
        Dipole field         -0.0000 Ry au
 
        Potential amp.        0.0036 Ry
        Total length         45.7739 bohr
 

     total cpu time spent up to now is      507.1 secs

     total energy              =   -1519.21969636 Ry
     Harris-Foulkes estimate   =   -1519.21969424 Ry
     estimated scf accuracy    <       0.00009855 Ry

     iteration # 16     ecut=    36.75 Ry     beta=0.10
     Davidson diagonalization with overlap
     ethr =  6.70E-08,  avg # of iterations =  3.4

     negative rho (up, down):  1.740E-01 0.000E+00
 
     Adding external electric field

     Computed dipole along edir(3) : 
        Dipole               -0.0169 Ry au,         -0.0430 Debye
[...]
   -10.2266 -10.1957 -10.1906  -6.4482  -5.7680  -5.4120  -2.6712  -2.2366
    -1.9062  -1.4913  -0.8949  -0.5605  -0.4347  -0.3117  -0.1635  -0.1131
    -0.0031   0.4040   0.4459   0.5159   0.5559   0.7103   0.8316   0.8804
     0.9231   0.9472   1.0856   1.1127   1.3197   1.3651   1.4488   1.5528
     1.6190   1.7422   1.8214   1.9225   2.1914   2.4137   2.4235   2.5419
     2.5828   2.6388   2.7082   2.8069   2.8624   2.8974   3.0075   3.0361
     3.0992   3.1994   3.2559   3.3541   3.4928   3.5854   3.7819

          k = 0.0562 0.0973 0.0000 ( 19209 PWs)   bands (ev):

   -56.1749 -56.1747 -56.1515 -56.0776 -56.0599 -56.0433 -55.8551 -55.8541
   -55.8324 -32.5390 -32.5367 -32.5112 -32.4705 -32.4347 -32.4333 -32.4191
   -32.4118 -32.3948 -32.3672 -32.3368 -32.3241 -32.2930 -32.2924 -32.2440
   -32.1911 -32.1911 -32.1893 -32.1551 -32.1290 -32.1005 -32.0859 -32.0754
   -32.0527 -31.9372 -31.9258 -31.8557 -10.6538 -10.6536 -10.6459 -10.6152
   -10.6043 -10.4994 -10.4968 -10.4654 -10.4367 -10.4225 -10.2859 -10.2812
   -10.2255 -10.1957 -10.1912  -6.2591  -5.7909  -5.4176  -2.5735  -2.4209
    -2.2180  -1.2606  -1.0140  -0.9607  -0.3850  -0.3072  -0.1081  -0.0851
    -0.0364   0.4505   0.5185   0.5800   0.6014   0.6740   0.7488   0.7565
     0.9898   0.9927   1.0636   1.1493   1.1791   1.4056   1.4989   1.5460
     1.5639   1.8190   2.0261   2.1039   2.1092   2.3411   2.3993   2.4224
     2.6625   2.6806   2.7103   2.7486   2.8461   2.8538   2.8553   2.9119
     3.0749   3.2060   3.3007   3.4020   3.4245   3.4597   3.8076

          k = 0.0562-0.0649 0.0000 ( 19225 PWs)   bands (ev):

   -56.1826 -56.1670 -56.1515 -56.0807 -56.0569 -56.0433 -55.8620 -55.8473
   -55.8324 -32.5478 -32.5301 -32.5104 -32.4816 -32.4447 -32.4347 -32.4211
   -32.4068 -32.3843 -32.3739 -32.3522 -32.3414 -32.3084 -32.2548 -32.2484
   -32.2306 -32.1820 -32.1547 -32.1486 -32.1204 -32.1131 -32.0863 -32.0624
   -32.0436 -31.9506 -31.9113 -31.8506 -10.6671 -10.6542 -10.6448 -10.6164
   -10.6086 -10.5144 -10.4941 -10.4652 -10.4349 -10.4227 -10.2958 -10.2792
   -10.2266 -10.1957 -10.1906  -6.4482  -5.7680  -5.4120  -2.6713  -2.2366
    -1.9061  -1.4913  -0.8949  -0.5605  -0.4347  -0.3117  -0.1635  -0.1131
    -0.0031   0.4040   0.4459   0.5160   0.5559   0.7103   0.8316   0.8804
     0.9231   0.9472   1.0856   1.1127   1.3197   1.3651   1.4488   1.5529
     1.6191   1.7422   1.8215   1.9225   2.1914   2.4137   2.4235   2.5419
     2.5829   2.6388   2.7081   2.8069   2.8624   2.8974   3.0075   3.0361
     3.0992   3.1994   3.2559   3.3541   3.4928   3.5853   3.7819

          k = 0.0562-0.0324 0.0000 ( 19229 PWs)   bands (ev):

   -56.1883 -56.1613 -56.1515 -56.0852 -56.0524 -56.0432 -55.8674 -55.8418
   -55.8323 -32.5559 -32.5252 -32.5100 -32.4906 -32.4524 -32.4458 -32.4207
   -32.4055 -32.3995 -32.3918 -32.3553 -32.3429 -32.3419 -32.2594 -32.2369
   -32.2118 -32.1785 -32.1609 -32.1284 -32.1232 -32.0862 -32.0789 -32.0516
   -32.0357 -31.9629 -31.8918 -31.8450 -10.6774 -10.6581 -10.6497 -10.6243
   -10.6181 -10.5247 -10.4999 -10.4713 -10.4318 -10.4235 -10.3041 -10.2850
   -10.2317 -10.1936 -10.1900  -6.7338  -5.7646  -5.4447  -2.5628  -1.8225
    -1.6535  -1.5658  -0.7326  -0.5758  -0.3940  -0.2621  -0.1398  -0.0308
     0.0315   0.2782   0.4365   0.4860   0.5278   0.6522   0.7795   0.8067
     1.0475   1.0908   1.0965   1.1684   1.2356   1.3421   1.4373   1.4983
     1.5822   1.6771   1.8088   1.9601   2.3057   2.3866   2.4023   2.6251
     2.6357   2.7043   2.7701   2.8897   2.9383   3.0152   3.0286   3.0758
     3.2053   3.2415   3.2965   3.3556   3.5439   3.6039   3.7569

          k = 0.0562 0.0000 0.0000 ( 19221 PWs)   bands (ev):

   -56.1904 -56.1593 -56.1514 -56.0870 -56.0505 -56.0432 -55.8694 -55.8398
   -55.8324 -32.5588 -32.5223 -32.5114 -32.4836 -32.4671 -32.4528 -32.4216
   -32.4092 -32.4044 -32.3844 -32.3799 -32.3492 -32.3377 -32.2676 -32.2297
   -32.2004 -32.1758 -32.1661 -32.1301 -32.1073 -32.0775 -32.0695 -32.0503
   -32.0362 -31.9671 -31.8798 -31.8459 -10.6714 -10.6683 -10.6540 -10.6280
   -10.6240 -10.5208 -10.5098 -10.4758 -10.4308 -10.4237 -10.3034 -10.2922
   -10.2347 -10.1925 -10.1898  -6.8519  -5.7826  -5.4613  -2.2398  -2.0924
    -1.4430  -1.4274  -0.7993  -0.5453  -0.3934  -0.2149  -0.1188  -0.0572
     0.1454   0.2217   0.4024   0.4491   0.5347   0.5585   0.6853   0.9676
     1.0215   1.1099   1.1273   1.2197   1.2497   1.3271   1.4350   1.4925
     1.5413   1.6862   1.7658   2.0771   2.2615   2.3829   2.4634   2.6065
     2.6821   2.7576   2.8066   2.8547   2.9425   3.0643   3.0747   3.1826
     3.2086   3.3228   3.4339   3.4952   3.5159   3.6235   3.7362

          k =-0.0843-0.0487 0.0000 ( 19232 PWs)   bands (ev):

   -56.1825 -56.1672 -56.1514 -56.0807 -56.0569 -56.0432 -55.8620 -55.8473
   -55.8323 -32.5479 -32.5317 -32.5086 -32.4915 -32.4453 -32.4231 -32.4175
   -32.4068 -32.3961 -32.3738 -32.3474 -32.3245 -32.3032 -32.2635 -32.2581
   -32.2394 -32.1792 -32.1451 -32.1444 -32.1178 -32.1131 -32.1093 -32.0560
   -32.0380 -31.9489 -31.9178 -31.8466 -10.6756 -10.6522 -10.6416 -10.6143
   -10.6070 -10.5236 -10.4888 -10.4625 -10.4343 -10.4227 -10.3009 -10.2749
   -10.2250 -10.1966 -10.1906  -6.4091  -5.8439  -5.3740  -2.8391  -1.9525
    -1.8819  -1.7260  -0.6765  -0.5095  -0.4936  -0.3149  -0.1203  -0.1047
    -0.0481   0.4102   0.4738   0.5282   0.5852   0.6822   0.8224   0.8749
     0.9346   0.9537   0.9977   1.1454   1.2131   1.2852   1.5484   1.5862
     1.6228   1.7599   1.7652   1.8385   2.1729   2.4846   2.5308   2.5354
     2.5665   2.6575   2.7036   2.7390   2.8516   2.9216   2.9305   2.9611
     3.0810   3.1515   3.2512   3.2628   3.5265   3.5886   3.8087

          k =-0.0843-0.0162 0.0000 ( 19225 PWs)   bands (ev):

   -56.1826 -56.1671 -56.1514 -56.0807 -56.0569 -56.0433 -55.8620 -55.8472
   -55.8324 -32.5477 -32.5302 -32.5103 -32.4815 -32.4447 -32.4348 -32.4211
   -32.4068 -32.3843 -32.3739 -32.3522 -32.3414 -32.3084 -32.2548 -32.2484
   -32.2307 -32.1820 -32.1547 -32.1485 -32.1203 -32.1131 -32.0863 -32.0624
   -32.0436 -31.9506 -31.9113 -31.8506 -10.6671 -10.6542 -10.6448 -10.6164
   -10.6086 -10.5144 -10.4941 -10.4652 -10.4349 -10.4227 -10.2958 -10.2792
   -10.2266 -10.1957 -10.1906  -6.4482  -5.7680  -5.4120  -2.6712  -2.2366
    -1.9062  -1.4913  -0.8949  -0.5605  -0.4347  -0.3117  -0.1635  -0.1131
    -0.0031   0.4040   0.4459   0.5160   0.5558   0.7103   0.8316   0.8804
     0.9231   0.9472   1.0856   1.1127   1.3197   1.3651   1.4488   1.5528
     1.6190   1.7422   1.8214   1.9225   2.1914   2.4137   2.4234   2.5419
     2.5828   2.6388   2.7081   2.8069   2.8624   2.8973   3.0075   3.0361
     3.0992   3.1994   3.2559   3.3541   3.4928   3.5854   3.7819

          k =-0.0843 0.0162 0.0000 ( 19225 PWs)   bands (ev):

   -56.1826 -56.1671 -56.1515 -56.0807 -56.0569 -56.0433 -55.8620 -55.8472
   -55.8324 -32.5478 -32.5302 -32.5103 -32.4816 -32.4447 -32.4347 -32.4211
   -32.4068 -32.3843 -32.3739 -32.3522 -32.3414 -32.3084 -32.2548 -32.2484
   -32.2306 -32.1820 -32.1547 -32.1485 -32.1203 -32.1131 -32.0863 -32.0624
   -32.0436 -31.9506 -31.9113 -31.8506 -10.6671 -10.6542 -10.6448 -10.6164
   -10.6086 -10.5144 -10.4941 -10.4652 -10.4349 -10.4227 -10.2958 -10.2792
   -10.2266 -10.1957 -10.1906  -6.4482  -5.7680  -5.4120  -2.6713  -2.2366
    -1.9061  -1.4913  -0.8949  -0.5605  -0.4347  -0.3117  -0.1635  -0.1131
    -0.0031   0.4040   0.4459   0.5160   0.5558   0.7103   0.8316   0.8804
     0.9231   0.9472   1.0855   1.1127   1.3197   1.3650   1.4488   1.5528
     1.6191   1.7422   1.8214   1.9225   2.1914   2.4137   2.4234   2.5419
     2.5829   2.6388   2.7081   2.8069   2.8624   2.8974   3.0075   3.0361
     3.0992   3.1994   3.2559   3.3541   3.4928   3.5853   3.7819

          k =-0.0843-0.1460 0.0000 ( 19232 PWs)   bands (ev):

   -56.1826 -56.1671 -56.1515 -56.0807 -56.0569 -56.0432 -55.8620 -55.8473
   -55.8323 -32.5479 -32.5316 -32.5087 -32.4916 -32.4453 -32.4231 -32.4174
   -32.4068 -32.3961 -32.3739 -32.3474 -32.3245 -32.3032 -32.2634 -32.2581
   -32.2394 -32.1792 -32.1452 -32.1445 -32.1178 -32.1131 -32.1093 -32.0561
   -32.0380 -31.9489 -31.9178 -31.8466 -10.6756 -10.6522 -10.6416 -10.6143
   -10.6070 -10.5236 -10.4888 -10.4625 -10.4343 -10.4227 -10.3009 -10.2749
   -10.2250 -10.1966 -10.1906  -6.4091  -5.8439  -5.3740  -2.8392  -1.9525
    -1.8818  -1.7260  -0.6765  -0.5095  -0.4936  -0.3149  -0.1203  -0.1047
    -0.0481   0.4102   0.4738   0.5282   0.5852   0.6822   0.8224   0.8749
     0.9346   0.9537   0.9977   1.1454   1.2132   1.2852   1.5484   1.5863
     1.6228   1.7599   1.7652   1.8385   2.1729   2.4846   2.5308   2.5355
     2.5665   2.6575   2.7035   2.7390   2.8516   2.9215   2.9305   2.9611
     3.0809   3.1516   3.2512   3.2629   3.5265   3.5886   3.8087

     the Fermi energy is     1.0204 ev

!    total energy              =   -1519.22678044 Ry
     Harris-Foulkes estimate   =   -1519.22678287 Ry
     estimated scf accuracy    <       0.00000040 Ry

     The total energy is the sum of the following terms:

     one-electron contribution =  -10479.63992229 Ry
     hartree contribution      =    5250.26748092 Ry
     xc contribution           =    -360.83045982 Ry
     ewald contribution        =    4071.10059136 Ry
     electric field correction =       0.00000669 Ry
     smearing contrib. (-TS)   =      -0.12447732 Ry

     convergence has been achieved in  22 iterations
 
 BEEF-vdW xc energy contributions
           1 :   -316.343299004654     
           2 :    288.965011633308     
           3 :   -242.534499633212     
           4 :    189.556928751176     
           5 :   -141.206622756768     
           6 :    103.463972071532     
           7 :   -76.5532683554429     
           8 :    57.1100769420644     
           9 :   -41.2315246566147     
          10 :    26.5960389612688     
          11 :   -12.9101671383118     
          12 :    1.04154682729239     
          13 :    8.18036405318998     
          14 :   -14.6493065538554     
          15 :    18.8782722545457     
          16 :   -21.4676865044495     
          17 :    22.7116696180302     
          18 :   -22.6527565355772     
          19 :    21.4139819782936     
          20 :   -19.4138104693855     
          21 :    17.2255502348038     
          22 :   -15.2167960897447     
          23 :    13.3024017545423     
          24 :   -11.0457799201004     
          25 :    8.04130839701742     
          26 :   -4.29107326873054     
          27 :   0.290030663134814     
          28 :    3.24007869599473     
          29 :   -5.77552862699832     
          30 :    7.26799696622265     
          31 :   -29.1011185646883     
          32 :   -21.0657055996350     

     Forces acting on atoms (Ry/au):


     negative rho (up, down):  1.741E-01 0.000E+00
     atom    1 type  1   force =     0.00000357   -0.00676640    0.01242665
     atom    2 type  1   force =    -0.00585839    0.00338826    0.01242835
     atom    3 type  1   force =     0.00586367    0.00338752    0.01243202
     atom    4 type  2   force =    -0.00000927   -0.00000707   -0.03831130
     atom    5 type  1   force =     0.00000360    0.00946527    0.00353926
     atom    6 type  1   force =     0.00819621   -0.00472417    0.00353639
     atom    7 type  1   force =    -0.00819433   -0.00472703    0.00353595
     atom    8 type  2   force =    -0.00002329   -0.00003384   -0.01230291
     atom    9 type  1   force =    -0.00000079   -0.00072883    0.00025754
     atom   10 type  1   force =    -0.00063845    0.00037000    0.00025719
     atom   11 type  1   force =     0.00063734    0.00037043    0.00025641
     atom   12 type  2   force =     0.00002014    0.00000586    0.00194447

     Total force =     0.050316     Total SCF correction =     0.001811


     entering subroutine stress ...


     negative rho (up, down):  1.741E-01 0.000E+00
          total   stress  (Ry/bohr**3)                   (kbar)     P=   -8.70
  -0.00008261  -0.00000000   0.00000000        -12.15     -0.00      0.00
  -0.00000000  -0.00008261  -0.00000000         -0.00    -12.15     -0.00
   0.00000000  -0.00000000  -0.00001226          0.00     -0.00     -1.80

 !ASE

     Writing output data file calc.save
 
     init_run     :      8.17s CPU     13.63s WALL (       1 calls)
     electrons    :    481.69s CPU    786.16s WALL (       1 calls)
     forces       :      2.62s CPU      3.36s WALL (       1 calls)
     stress       :      5.16s CPU      6.35s WALL (       1 calls)

     Called by init_run:
     wfcinit      :      6.27s CPU     11.08s WALL (       1 calls)
     potinit      :      1.02s CPU      1.49s WALL (       1 calls)

     Called by electrons:
     c_bands      :    359.41s CPU    587.71s WALL (      22 calls)
     sum_band     :     64.98s CPU    113.72s WALL (      22 calls)
     v_of_rho     :     21.19s CPU     32.58s WALL (      23 calls)
     newd         :      5.54s CPU      5.86s WALL (      23 calls)
     mix_rho      :      0.95s CPU      1.56s WALL (      22 calls)
     vdW_energy   :      1.85s CPU      1.85s WALL (      59 calls)
     vdW_ffts     :     34.00s CPU     53.80s WALL (     120 calls)
     vdW_v        :      6.08s CPU      9.01s WALL (      59 calls)

     Called by c_bands:
     init_us_2    :      0.49s CPU      0.53s WALL (     940 calls)
     cegterg      :    353.06s CPU    579.74s WALL (     440 calls)

     Called by *egterg:
     h_psi        :    253.78s CPU    466.52s WALL (    1431 calls)
     s_psi        :      6.27s CPU      6.28s WALL (    1431 calls)
     g_psi        :      0.35s CPU      0.35s WALL (     971 calls)
     cdiaghg      :     52.72s CPU     55.43s WALL (    1411 calls)

     Called by h_psi:
     add_vuspsi   :      6.56s CPU      6.61s WALL (    1431 calls)

     General routines
     calbec       :     19.04s CPU     24.74s WALL (    1911 calls)
     fft          :     51.33s CPU     81.25s WALL (    3621 calls)
     ffts         :      0.14s CPU      0.22s WALL (      45 calls)
     fftw         :    277.73s CPU    531.46s WALL (  249618 calls)
     interpolate  :      0.78s CPU      1.20s WALL (      45 calls)
     davcio       :      0.00s CPU      0.01s WALL (      20 calls)
 
     Parallel routines
     fft_scatter  :    306.39s CPU    587.76s WALL (  253284 calls)
 
     PWSCF        :  8m18.64s CPU    13m31.11s WALL

 
   This run was terminated on:   2:47: 5  28Dec2018            

=------------------------------------------------------------------------------=
   JOB DONE.
=------------------------------------------------------------------------------=
Job  /afs/slac/g/suncat/bin/suncat-tsmpirun -x LD_LIBRARY_PATH -wdir /scratch/qe111151_Q6X1I pw.x -in pw.inp

TID   HOST_NAME   COMMAND_LINE            STATUS            TERMINATION_TIME
===== ========== ================  =======================  ===================
00000 suncat0080 pw.x -in pw.inp   Done                     12/28/2018 02:47:05
00001 suncat0080 pw.x -in pw.inp   Done                     12/28/2018 02:47:05
00002 suncat0080 pw.x -in pw.inp   Done                     12/28/2018 02:47:05
00003 suncat0080 pw.x -in pw.inp   Done                     12/28/2018 02:47:05
00004 suncat0080 pw.x -in pw.inp   Done                     12/28/2018 02:47:05
00005 suncat0080 pw.x -in pw.inp   Done                     12/28/2018 02:47:05
00006 suncat0080 pw.x -in pw.inp   Done                     12/28/2018 02:47:05
00007 suncat0080 pw.x -in pw.inp   Done                     12/28/2018 02:47:05
00008 suncat0078 pw.x -in pw.inp   Done                     12/28/2018 02:47:05
00009 suncat0078 pw.x -in pw.inp   Done                     12/28/2018 02:47:05
00010 suncat0078 pw.x -in pw.inp   Done                     12/28/2018 02:47:05
00011 suncat0078 pw.x -in pw.inp   Done                     12/28/2018 02:47:05
00012 suncat0078 pw.x -in pw.inp   Done                     12/28/2018 02:47:05
00013 suncat0078 pw.x -in pw.inp   Done                     12/28/2018 02:47:05
00014 suncat0078 pw.x -in pw.inp   Done                     12/28/2018 02:47:05
00015 suncat0078 pw.x -in pw.inp   Done                     12/28/2018 02:47:05
00016 suncat0165 pw.x -in pw.inp   Done                     12/28/2018 02:47:05
00017 suncat0165 pw.x -in pw.inp   Done                     12/28/2018 02:47:05
00018 suncat0165 pw.x -in pw.inp   Done                     12/28/2018 02:47:05
00019 suncat0165 pw.x -in pw.inp   Done                     12/28/2018 02:47:05
00020 suncat0165 pw.x -in pw.inp   Done                     12/28/2018 02:47:05
00021 suncat0165 pw.x -in pw.inp   Done                     12/28/2018 02:47:05
00022 suncat0165 pw.x -in pw.inp   Done                     12/28/2018 02:47:05
00023 suncat0165 pw.x -in pw.inp   Done                     12/28/2018 02:47:05
00024 suncat0164 pw.x -in pw.inp   Done                     12/28/2018 02:47:05
00025 suncat0164 pw.x -in pw.inp   Done                     12/28/2018 02:47:05
00026 suncat0164 pw.x -in pw.inp   Done                     12/28/2018 02:47:05
00027 suncat0164 pw.x -in pw.inp   Done                     12/28/2018 02:47:05
00028 suncat0164 pw.x -in pw.inp   Done                     12/28/2018 02:47:05
00029 suncat0164 pw.x -in pw.inp   Done                     12/28/2018 02:47:05
00030 suncat0164 pw.x -in pw.inp   Done                     12/28/2018 02:47:05
00031 suncat0164 pw.x -in pw.inp   Done                     12/28/2018 02:47:05
00032 suncat0143 pw.x -in pw.inp   Done                     12/28/2018 02:47:05
00033 suncat0143 pw.x -in pw.inp   Done                     12/28/2018 02:47:05
00034 suncat0143 pw.x -in pw.inp   Done                     12/28/2018 02:47:05
00035 suncat0143 pw.x -in pw.inp   Done                     12/28/2018 02:47:05
00036 suncat0143 pw.x -in pw.inp   Done                     12/28/2018 02:47:05
00037 suncat0143 pw.x -in pw.inp   Done                     12/28/2018 02:47:05
00038 suncat0143 pw.x -in pw.inp   Done                     12/28/2018 02:47:05
00039 suncat0143 pw.x -in pw.inp   Done                     12/28/2018 02:47:05
00040 suncat0135 pw.x -in pw.inp   Done                     12/28/2018 02:47:05
00041 suncat0135 pw.x -in pw.inp   Done                     12/28/2018 02:47:05
00042 suncat0135 pw.x -in pw.inp   Done                     12/28/2018 02:47:05
00043 suncat0135 pw.x -in pw.inp   Done                     12/28/2018 02:47:05
00044 suncat0135 pw.x -in pw.inp   Done                     12/28/2018 02:47:05
00045 suncat0135 pw.x -in pw.inp   Done                     12/28/2018 02:47:05
00046 suncat0135 pw.x -in pw.inp   Done                     12/28/2018 02:47:05
00047 suncat0135 pw.x -in pw.inp   Done                     12/28/2018 02:47:05
00048 suncat0134 pw.x -in pw.inp   Done                     12/28/2018 02:47:05
00049 suncat0134 pw.x -in pw.inp   Done                     12/28/2018 02:47:05
00050 suncat0134 pw.x -in pw.inp   Done                     12/28/2018 02:47:05
00051 suncat0134 pw.x -in pw.inp   Done                     12/28/2018 02:47:05
00052 suncat0134 pw.x -in pw.inp   Done                     12/28/2018 02:47:05
00053 suncat0134 pw.x -in pw.inp   Done                     12/28/2018 02:47:05
00054 suncat0134 pw.x -in pw.inp   Done                     12/28/2018 02:47:05
00055 suncat0134 pw.x -in pw.inp   Done                     12/28/2018 02:47:05
00056 suncat0272 pw.x -in pw.inp   Done                     12/28/2018 02:47:05
00057 suncat0272 pw.x -in pw.inp   Done                     12/28/2018 02:47:05
00058 suncat0272 pw.x -in pw.inp   Done                     12/28/2018 02:47:05
00059 suncat0272 pw.x -in pw.inp   Done                     12/28/2018 02:47:05
00060 suncat0272 pw.x -in pw.inp   Done                     12/28/2018 02:47:05
00061 suncat0272 pw.x -in pw.inp   Done                     12/28/2018 02:47:05
00062 suncat0272 pw.x -in pw.inp   Done                     12/28/2018 02:47:05
00063 suncat0272 pw.x -in pw.inp   Done                     12/28/2018 02:47:05
