  python dir          : /u/if/mamunm/src/espresso
  espresso dir        : /nfs/slac/g/suncatfs/sw/espv18/espresso-dynpy-beef/bin
  pseudo dir          : /afs/slac.stanford.edu/u/if/mamunm/psp/gbrv1.5pbe
  ase-espresso py git : GITVERSION



     Program PWSCF v.5.1rc2 (svn rev. 11289) starts on 25Dec2018 at 16:30:23 

     This program is part of the open-source Quantum ESPRESSO suite
     for quantum simulation of materials; please cite
         "P. Giannozzi et al., J. Phys.:Condens. Matter 21 395502 (2009);
          URL http://www.quantum-espresso.org", 
     in publications or presentations arising from this work. More details at
     http://www.quantum-espresso.org/quote

     Parallel version (MPI), running on    64 processors
     R & G space division:  proc/nbgrp/npool/nimage =      64
     Reading input from pw.inp
     Message from routine read_cards :
     DEPRECATED: no units specified in CELL_PARAMETERS card

     Current dimensions of program PWSCF are:
     Max number of different atomic species (ntypx) = 10
     Max number of k-points (npk) =  40000
     Max angular momentum in pseudopotentials (lmaxx) =  3
     Presently stress not available with electric field


     **************************************************************************
     Initializing libbeef V0.1.1 with the BEEF-vdW functional.
     Citation: Wellendorff et al., PRB 85, 235149 (2012).
     **************************************************************************


     IMPORTANT: XC functional enforced from input :
     Exchange-correlation      = BEEF-VDW ( 1  4 27 13 2)
     Any further DFT definition will be discarded
     Please, verify this is what you really want


     Subspace diagonalization in iterative solution of the eigenvalue problem:
     a serial algorithm will be used

 
     Parallelization info
     --------------------
     sticks:   dense  smooth     PW     G-vecs:    dense   smooth      PW
     Min          53      21      6                10139     2557     408
     Max          54      22      7                10155     2582     421
     Sum        3403    1357    397               649459   164199   26463
 


     bravais-lattice index     =            0
     lattice parameter (alat)  =       1.8897  a.u.
     unit-cell volume          =    5457.5463 (a.u.)^3
     number of atoms/cell      =           12
     number of atomic types    =            2
     number of electrons       =       204.00
     number of Kohn-Sham states=          132
     kinetic-energy cutoff     =      36.7493  Ry
     charge density cutoff     =     367.4932  Ry
     convergence threshold     =      1.0E-06
     mixing beta               =       0.1000
     number of iterations used =           10  plain     mixing
     Exchange-correlation      = BEEF-VDW ( 1  4 27 13 2)
     nstep                     =           50


     celldm(1)=   1.889726  celldm(2)=   0.000000  celldm(3)=   0.000000
     celldm(4)=   0.000000  celldm(5)=   0.000000  celldm(6)=   0.000000

     crystal axes: (cart. coord. in units of alat)
               a(1) = (   6.112831   0.000000   0.000000 )  
               a(2) = (  -3.056415   5.293867   0.000000 )  
               a(3) = (   0.000000   0.000000  24.991105 )  

     reciprocal axes: (cart. coord. in units 2 pi/alat)
               b(1) = (  0.163590  0.094449  0.000000 )  
               b(2) = (  0.000000  0.188898  0.000000 )  
               b(3) = (  0.000000  0.000000  0.040014 )  


     PseudoPot. # 1 for Cu read from file:
     /afs/slac.stanford.edu/u/if/mamunm/psp/gbrv1.5pbe/Cu.UPF
     MD5 check sum: 6e991ff952a84172a2a52a1c1e996048
     Pseudo is Ultrasoft + core correction, Zval = 19.0
     Generated by new atomic code, or converted to UPF format
     Using radial grid of  867 points,  6 beta functions with: 
                l(1) =   0
                l(2) =   0
                l(3) =   1
                l(4) =   1
                l(5) =   2
                l(6) =   2
     Q(r) pseudized with  8 coefficients,  rinner =    1.150   1.150   1.150
                                                       1.150   1.150

     PseudoPot. # 2 for La read from file:
     /afs/slac.stanford.edu/u/if/mamunm/psp/gbrv1.5pbe/La.UPF
     MD5 check sum: 5937b0c7494ba0601a847275249473aa
     Pseudo is Ultrasoft + core correction, Zval = 11.0
     Generated by new atomic code, or converted to UPF format
     Using radial grid of  995 points,  8 beta functions with: 
                l(1) =   0
                l(2) =   0
                l(3) =   1
                l(4) =   1
                l(5) =   2
                l(6) =   2
                l(7) =   3
                l(8) =   3
     Q(r) pseudized with  8 coefficients,  rinner =    1.700   1.700   1.700
                                                       1.700   1.700   1.700
                                                       1.700

     vdW kernel table read from file vdW_kernel_table
     MD5 check sum: 095c7af220d748ca6e76c0b4c6cfb241

     atomic species   valence    mass     pseudopotential
        Cu1           19.00    63.54600     Cu( 1.00)
        La1           11.00   138.90547     La( 1.00)

     No symmetry found



   Cartesian axes

     site n.     atom                  positions (alat units)
         1           Cu1 tau(   1) = (   0.0000000   0.0000000  10.0000000  )
         2           Cu1 tau(   2) = (  -1.5282077   2.6469333  10.0000000  )
         3           Cu1 tau(   3) = (   1.5282077   2.6469333  10.0000000  )
         4           La1 tau(   4) = (   3.0564153   0.0000000  10.0000000  )
         5           Cu1 tau(   5) = (   3.0564153   1.7646222  12.4955527  )
         6           Cu1 tau(   6) = (   1.5282077   4.4115556  12.4955527  )
         7           Cu1 tau(   7) = (  -1.5282077   4.4115556  12.4955527  )
         8           La1 tau(   8) = (   0.0000000   1.7646222  12.4955527  )
         9           Cu1 tau(   9) = (  -0.0000000   3.5292444  14.9911054  )
        10           Cu1 tau(  10) = (   1.5282077   0.8823111  14.9911054  )
        11           Cu1 tau(  11) = (   4.5846230   0.8823111  14.9911054  )
        12           La1 tau(  12) = (   3.0564153   3.5292444  14.9911054  )

     number of k points=    20  Fermi-Dirac smearing, width (Ry)=  0.0110
                       cart. coord. in units 2pi/alat
        k(    1) = (   0.0000000   0.0000000   0.0000000), wk =   0.0555556
        k(    2) = (   0.0000000   0.0314830   0.0000000), wk =   0.1111111
        k(    3) = (   0.0000000   0.0629659   0.0000000), wk =   0.1111111
        k(    4) = (   0.0000000  -0.0944489   0.0000000), wk =   0.0555556
        k(    5) = (   0.0272651   0.0157415   0.0000000), wk =   0.1111111
        k(    6) = (   0.0272651   0.0472245   0.0000000), wk =   0.1111111
        k(    7) = (   0.0272651   0.0787074   0.0000000), wk =   0.1111111
        k(    8) = (   0.0272651  -0.0787074   0.0000000), wk =   0.1111111
        k(    9) = (   0.0272651  -0.0472245   0.0000000), wk =   0.1111111
        k(   10) = (   0.0272651  -0.0157415   0.0000000), wk =   0.1111111
        k(   11) = (   0.0545301   0.0314830   0.0000000), wk =   0.1111111
        k(   12) = (   0.0545301   0.0629659   0.0000000), wk =   0.1111111
        k(   13) = (   0.0545301   0.0944489   0.0000000), wk =   0.1111111
        k(   14) = (   0.0545301  -0.0629659   0.0000000), wk =   0.1111111
        k(   15) = (   0.0545301  -0.0314830   0.0000000), wk =   0.1111111
        k(   16) = (   0.0545301   0.0000000   0.0000000), wk =   0.1111111
        k(   17) = (  -0.0817952  -0.0472245   0.0000000), wk =   0.0555556
        k(   18) = (  -0.0817952  -0.0157415   0.0000000), wk =   0.1111111
        k(   19) = (  -0.0817952   0.0157415   0.0000000), wk =   0.1111111
        k(   20) = (  -0.0817952  -0.1416734   0.0000000), wk =   0.0555556

     Dense  grid:   649459 G-vectors     FFT dimensions: (  72,  72, 300)

     Smooth grid:   164199 G-vectors     FFT dimensions: (  45,  45, 192)

     Largest allocated arrays     est. size (Mb)     dimensions
        Kohn-Sham Wavefunctions         0.70 Mb     (     347,  132)
        NL pseudopotentials             1.37 Mb     (     347,  258)
        Each V/rho on FFT grid          0.40 Mb     (   25920)
        Each G-vector array             0.08 Mb     (   10149)
        G-vector shells                 0.04 Mb     (    4903)
     Largest temporary arrays     est. size (Mb)     dimensions
        Auxiliary wavefunctions         2.80 Mb     (     347,  528)
        Each subspace H/S matrix        4.25 Mb     (     528,  528)
        Each <psi_i|beta_j> matrix      0.52 Mb     (     258,  132)
        Arrays for rho mixing           3.96 Mb     (   25920,   10)

     Initial potential from superposition of free atoms
     Check: negative starting charge=   -0.213628

     starting charge  194.90378, renormalised to  204.00000

     negative rho (up, down):  2.236E-01 0.000E+00


     ************************************************************************
     *
     * You are using vdW-DF for exchange-correlation in this calculation.
     * Please cite the following three references that made this development
     * possible:
     *
     *   M. Dion, H. Rydberg, E. Schroder, D. C. Langreth, and
     *   B. I. Lundqvist, Phys. Rev. Lett. 92, 246401 (2004).
     *
     *   T. Thonhauser, V. R. Cooper, S. Li, A. Puzder, P. Hyldgaard, and
     *   D. C. Langreth, Phys. Rev. B 76, 125112 (2007).
     *
     *   G. Roman-Perez and J. M. Soler, Phys. Rev. Lett. 103, 096102 (2009).
     *
     *
     * If you are using vdW-DF2, please also cite:
     *
     *   K. Lee, E. D. Murray, L. Kong, B. I. Lundqvist, and
     *   D. C. Langreth, Phys. Rev. B 82, 081101(R) (2010).
     *
     *
     * If you are calculating the stress with vdW-DF, please also cite:
     *
     *   R. Sabatini, E. Kucukbenli, B. Kolb, T. Thonhauser, and
     *   S. de Gironcoli, J. Phys.: Condens. Matter 24, 424209 (2012).
     *
     ************************************************************************

     Carrying out vdW-DF run using the following parameters:

     Nqs =      20    Nr_points =    1024   r_max =   100.000
     q_mesh =
               0.00001000     0.04494208     0.09755937     0.15916263
               0.23128650     0.31572767     0.41458969     0.53033537
               0.66584808     0.82450364     1.01025438     1.22772762
               1.48234092     1.78043706     2.12944203     2.53805004
               3.01644009     3.57652955     4.23227104     5.00000000

     Gradients computed in reciprocal space

     ************************************************************************


 
     Adding external electric field

     Computed dipole along edir(3) : 
        Dipole               -0.0000 Ry au,         -0.0000 Debye
        Dipole field         -0.0000 Ry au
 
        Potential amp.        0.0000 Ry
        Total length         46.0457 bohr
 
     Starting wfc are  177 randomized atomic wfcs

     total cpu time spent up to now is       46.3 secs

     per-process dynamical memory:    45.1 Mb

     Self-consistent Calculation

     iteration #  1     ecut=    36.75 Ry     beta=0.10
     Davidson diagonalization with overlap
     ethr =  1.00E-02,  avg # of iterations =  3.0

     negative rho (up, down):  1.396E-01 0.000E+00
 
     Adding external electric field

     Computed dipole along edir(3) : 
        Dipole               -0.0008 Ry au,         -0.0021 Debye
        Dipole field         -0.0000 Ry au
 
        Potential amp.        0.0002 Ry
        Total length         46.0457 bohr
 

     total cpu time spent up to now is      183.5 secs

     total energy              =   -3945.79964963 Ry
     Harris-Foulkes estimate   =   -3962.42431898 Ry
     estimated scf accuracy    <      92.60705450 Ry

     iteration #  2     ecut=    36.75 Ry     beta=0.10
     Davidson diagonalization with overlap
     ethr =  1.00E-02,  avg # of iterations =  4.0

     negative rho (up, down):  1.438E-01 0.000E+00
 
     Adding external electric field

     Computed dipole along edir(3) : 
        Dipole                0.0005 Ry au,          0.0014 Debye
        Dipole field          0.0000 Ry au
 
        Potential amp.       -0.0001 Ry
        Total length         46.0457 bohr
 

     total cpu time spent up to now is      325.8 secs

     total energy              =   -3957.02685004 Ry
     Harris-Foulkes estimate   =   -3957.46272993 Ry
     estimated scf accuracy    <       2.78841718 Ry

     iteration #  3     ecut=    36.75 Ry     beta=0.10
     Davidson diagonalization with overlap
     ethr =  1.37E-03,  avg # of iterations =  1.2

     negative rho (up, down):  1.655E-01 0.000E+00
 
     Adding external electric field

     Computed dipole along edir(3) : 
        Dipole               -0.0067 Ry au,         -0.0169 Debye
        Dipole field         -0.0000 Ry au
 
        Potential amp.        0.0014 Ry
        Total length         46.0457 bohr
 

     total cpu time spent up to now is      418.9 secs

     total energy              =   -3955.91358768 Ry
     Harris-Foulkes estimate   =   -3957.05883383 Ry
     estimated scf accuracy    <       1.78523231 Ry

     iteration #  4     ecut=    36.75 Ry     beta=0.10
     Davidson diagonalization with overlap
     ethr =  8.75E-04,  avg # of iterations =  5.0

     negative rho (up, down):  1.527E-01 0.000E+00
 
     Adding external electric field

     Computed dipole along edir(3) : 
        Dipole                0.0084 Ry au,          0.0214 Debye
        Dipole field          0.0000 Ry au
 
        Potential amp.       -0.0018 Ry
        Total length         46.0457 bohr
 

     total cpu time spent up to now is      561.2 secs

     total energy              =   -3956.21740410 Ry
     Harris-Foulkes estimate   =   -3956.72521422 Ry
     estimated scf accuracy    <       6.32431276 Ry

     iteration #  5     ecut=    36.75 Ry     beta=0.10
     Davidson diagonalization with overlap
     ethr =  8.75E-04,  avg # of iterations =  2.1

     negative rho (up, down):  1.351E-01 0.000E+00
 
     Adding external electric field

     Computed dipole along edir(3) : 
        Dipole               -0.0607 Ry au,         -0.1543 Debye
        Dipole field         -0.0001 Ry au
 
        Potential amp.        0.0129 Ry
        Total length         46.0457 bohr
 

     total cpu time spent up to now is      656.1 secs

     total energy              =   -3956.16486564 Ry
     Harris-Foulkes estimate   =   -3956.47273417 Ry
     estimated scf accuracy    <       0.66873082 Ry

     iteration #  6     ecut=    36.75 Ry     beta=0.10
     Davidson diagonalization with overlap
     ethr =  3.28E-04,  avg # of iterations =  4.0

     negative rho (up, down):  1.407E-01 0.000E+00
 
     Adding external electric field

     Computed dipole along edir(3) : 
        Dipole                0.0181 Ry au,          0.0460 Debye
        Dipole field          0.0000 Ry au
 
        Potential amp.       -0.0038 Ry
        Total length         46.0457 bohr
 

     total cpu time spent up to now is      807.5 secs

     total energy              =   -3956.41998879 Ry
     Harris-Foulkes estimate   =   -3956.79746459 Ry
     estimated scf accuracy    <       1.69829060 Ry

     iteration #  7     ecut=    36.75 Ry     beta=0.10
     Davidson diagonalization with overlap
     ethr =  3.28E-04,  avg # of iterations =  3.8

     negative rho (up, down):  1.415E-01 0.000E+00
 
     Adding external electric field

     Computed dipole along edir(3) : 
        Dipole               -0.0118 Ry au,         -0.0299 Debye
        Dipole field         -0.0000 Ry au
 
        Potential amp.        0.0025 Ry
        Total length         46.0457 bohr
 

     total cpu time spent up to now is      931.9 secs

     total energy              =   -3956.44900902 Ry
     Harris-Foulkes estimate   =   -3956.48431447 Ry
     estimated scf accuracy    <       0.48836695 Ry

     iteration #  8     ecut=    36.75 Ry     beta=0.10
     Davidson diagonalization with overlap
     ethr =  2.39E-04,  avg # of iterations =  1.1

     negative rho (up, down):  1.462E-01 0.000E+00
 
     Adding external electric field

     Computed dipole along edir(3) : 
        Dipole                0.0329 Ry au,          0.0837 Debye
        Dipole field          0.0001 Ry au
 
        Potential amp.       -0.0070 Ry
        Total length         46.0457 bohr
 

     total cpu time spent up to now is     1018.8 secs

     total energy              =   -3956.30171512 Ry
     Harris-Foulkes estimate   =   -3956.45553635 Ry
     estimated scf accuracy    <       0.32437922 Ry

     iteration #  9     ecut=    36.75 Ry     beta=0.10
     Davidson diagonalization with overlap
     ethr =  1.59E-04,  avg # of iterations =  5.0

     negative rho (up, down):  1.457E-01 0.000E+00
 
     Adding external electric field

     Computed dipole along edir(3) : 
        Dipole                0.0287 Ry au,          0.0729 Debye
        Dipole field          0.0001 Ry au
 
        Potential amp.       -0.0061 Ry
        Total length         46.0457 bohr
 

     total cpu time spent up to now is     1154.2 secs

     total energy              =   -3956.43330376 Ry
     Harris-Foulkes estimate   =   -3956.44390097 Ry
     estimated scf accuracy    <       0.42578845 Ry

     iteration # 10     ecut=    36.75 Ry     beta=0.10
     Davidson diagonalization with overlap
     ethr =  1.59E-04,  avg # of iterations =  1.0

     negative rho (up, down):  1.434E-01 0.000E+00
 
     Adding external electric field

     Computed dipole along edir(3) : 
        Dipole                0.0212 Ry au,          0.0538 Debye
        Dipole field          0.0000 Ry au
 
        Potential amp.       -0.0045 Ry
        Total length         46.0457 bohr
 

     total cpu time spent up to now is     1240.3 secs

     total energy              =   -3956.37315397 Ry
     Harris-Foulkes estimate   =   -3956.43406434 Ry
     estimated scf accuracy    <       0.32790592 Ry

     iteration # 11     ecut=    36.75 Ry     beta=0.10
     Davidson diagonalization with overlap
     ethr =  1.59E-04,  avg # of iterations =  2.0

     negative rho (up, down):  1.440E-01 0.000E+00
 
     Adding external electric field

     Computed dipole along edir(3) : 
        Dipole               -0.0022 Ry au,         -0.0055 Debye
        Dipole field         -0.0000 Ry au
 
        Potential amp.        0.0005 Ry
        Total length         46.0457 bohr
 

     total cpu time spent up to now is     1319.4 secs

     total energy              =   -3956.39957777 Ry
     Harris-Foulkes estimate   =   -3956.39898253 Ry
     estimated scf accuracy    <       0.01795404 Ry

     iteration # 12     ecut=    36.75 Ry     beta=0.10
     Davidson diagonalization with overlap
     ethr =  8.80E-06,  avg # of iterations =  5.8

     negative rho (up, down):  1.438E-01 0.000E+00
 
     Adding external electric field

     Computed dipole along edir(3) : 
        Dipole               -0.0042 Ry au,         -0.0106 Debye
        Dipole field         -0.0000 Ry au
 
        Potential amp.        0.0009 Ry
        Total length         46.0457 bohr
 

     total cpu time spent up to now is     1451.4 secs

     total energy              =   -3956.40237692 Ry
     Harris-Foulkes estimate   =   -3956.40365478 Ry
     estimated scf accuracy    <       0.00817767 Ry

     iteration # 13     ecut=    36.75 Ry     beta=0.10
     Davidson diagonalization with overlap
     ethr =  4.01E-06,  avg # of iterations =  2.2

     negative rho (up, down):  1.448E-01 0.000E+00
 
     Adding external electric field

     Computed dipole along edir(3) : 
        Dipole               -0.0034 Ry au,         -0.0086 Debye
        Dipole field         -0.0000 Ry au
 
        Potential amp.        0.0007 Ry
        Total length         46.0457 bohr
 

     total cpu time spent up to now is     1541.1 secs

     total energy              =   -3956.40267677 Ry
     Harris-Foulkes estimate   =   -3956.40291999 Ry
     estimated scf accuracy    <       0.00228496 Ry

     iteration # 14     ecut=    36.75 Ry     beta=0.10
     Davidson diagonalization with overlap
     ethr =  1.12E-06,  avg # of iterations =  6.2

     negative rho (up, down):  1.452E-01 0.000E+00
 
     Adding external electric field

     Computed dipole along edir(3) : 
        Dipole               -0.0036 Ry au,         -0.0092 Debye
        Dipole field         -0.0000 Ry au
 
        Potential amp.        0.0008 Ry
        Total length         46.0457 bohr
 

     total cpu time spent up to now is     1690.1 secs

     total energy              =   -3956.40323094 Ry
     Harris-Foulkes estimate   =   -3956.40369774 Ry
     estimated scf accuracy    <       0.00681913 Ry

     iteration # 15     ecut=    36.75 Ry     beta=0.10
     Davidson diagonalization with overlap
     ethr =  1.12E-06,  avg # of iterations =  1.0

     negative rho (up, down):  1.473E-01 0.000E+00
 
     Adding external electric field

     Computed dipole along edir(3) : 
        Dipole                0.0002 Ry au,          0.0004 Debye
        Dipole field          0.0000 Ry au
 
        Potential amp.       -0.0000 Ry
        Total length         46.0457 bohr
 

     total cpu time spent up to now is     1774.7 secs

     total energy              =   -3956.40200488 Ry
     Harris-Foulkes estimate   =   -3956.40328271 Ry
     estimated scf accuracy    <       0.00431565 Ry

     iteration # 16     ecut=    36.75 Ry     beta=0.10
     Davidson diagonalization with overlap
     ethr =  1.12E-06,  avg # of iterations =  4.0

     negative rho (up, down):  1.481E-01 0.000E+00
 
     Adding external electric field

     Computed dipole along edir(3) : 
        Dipole                0.0021 Ry au,          0.0053 Debye
        Dipole field          0.0000 Ry au
 
        Potential amp.       -0.0004 Ry
        Total length         46.0457 bohr
 

     total cpu time spent up to now is     1899.2 secs

     total energy              =   -3956.40259902 Ry
     Harris-Foulkes estimate   =   -3956.40286672 Ry
     estimated scf accuracy    <       0.00086243 Ry

     iteration # 17     ecut=    36.75 Ry     beta=0.10
     Davidson diagonalization with overlap
     ethr =  4.23E-07,  avg # of iterations =  3.0

     negative rho (up, down):  1.498E-01 0.000E+00
 
     Adding external electric field

     Computed dipole along edir(3) : 
        Dipole               -0.0013 Ry au,         -0.0032 Debye
        Dipole field         -0.0000 Ry au
 
        Potential amp.        0.0003 Ry
        Total length         46.0457 bohr
 

     total cpu time spent up to now is     1993.2 secs

     total energy              =   -3956.39807473 Ry
     Harris-Foulkes estimate   =   -3956.40273733 Ry
     estimated scf accuracy    <       0.00031328 Ry

     iteration # 18     ecut=    36.75 Ry     beta=0.10
     Davidson diagonalization with overlap
     ethr =  1.54E-07,  avg # of iterations =  3.3

     negative rho (up, down):  1.499E-01 0.000E+00
 
     Adding external electric field

     Computed dipole along edir(3) : 
        Dipole               -0.0008 Ry au,         -0.0020 Debye
        Dipole field         -0.0000 Ry au
 
        Potential amp.        0.0002 Ry
        Total length         46.0457 bohr
 

     total cpu time spent up to now is     2102.4 secs

     total energy              =   -3956.39809751 Ry
     Harris-Foulkes estimate   =   -3956.39817465 Ry
     estimated scf accuracy    <       0.00020151 Ry

     iteration # 19     ecut=    36.75 Ry     beta=0.10
     Davidson diagonalization with overlap
     ethr =  9.88E-08,  avg # of iterations =  3.0

     negative rho (up, down):  1.504E-01 0.000E+00
 
     Adding external electric field

     Computed dipole along edir(3) : 
        Dipole               -0.0003 Ry au,         -0.0009 Debye
        Dipole field         -0.0000 Ry au
 
        Potential amp.        0.0001 Ry
        Total length         46.0457 bohr
 

     total cpu time spent up to now is     2215.9 secs

     total energy              =   -3956.39816105 Ry
     Harris-Foulkes estimate   =   -3956.39816424 Ry
     estimated scf accuracy    <       0.00012671 Ry

     iteration # 20     ecut=    36.75 Ry     beta=0.10
     Davidson diagonalization with overlap
     ethr =  6.21E-08,  avg # of iterations =  1.0

     negative rho (up, down):  1.512E-01 0.000E+00
 
     Adding external electric field

     Computed dipole along edir(3) : 
        Dipole                0.0004 Ry au,          0.0009 Debye
        Dipole field          0.0000 Ry au
 
        Potential amp.       -0.0001 Ry
        Total length         46.0457 bohr
 

     total cpu time spent up to now is     2308.6 secs

     total energy              =   -3956.39813615 Ry
     Harris-Foulkes estimate   =   -3956.39816187 Ry
     estimated scf accuracy    <       0.00011728 Ry

     iteration # 21     ecut=    36.75 Ry     beta=0.10
     Davidson diagonalization with overlap
     ethr =  5.75E-08,  avg # of iterations =  1.6

     negative rho (up, down):  1.512E-01 0.000E+00
 
     Adding external electric field

     Computed dipole along edir(3) : 
        Dipole                0.0001 Ry au,          0.0004 Debye
        Dipole field          0.0000 Ry au
 
        Potential amp.       -0.0000 Ry
        Total length         46.0457 bohr
 

     total cpu time spent up to now is     2405.0 secs

     total energy              =   -3956.39814373 Ry
     Harris-Foulkes estimate   =   -3956.39814417 Ry
     estimated scf accuracy    <       0.00000847 Ry

     iteration # 22     ecut=    36.75 Ry     beta=0.10
     Davidson diagonalization with overlap
     ethr =  4.15E-09,  avg # of iterations =  3.9

     negative rho (up, down):  1.514E-01 0.000E+00
 
     Adding external electric field

     Computed dipole along edir(3) : 
        Dipole                0.0001 Ry au,          0.0002 Debye
        Dipole field          0.0000 Ry au
 
        Potential amp.       -0.0000 Ry
        Total length         46.0457 bohr
 

     total cpu time spent up to now is     2535.5 secs

     total energy              =   -3956.39814553 Ry
     Harris-Foulkes estimate   =   -3956.39814556 Ry
     estimated scf accuracy    <       0.00000131 Ry

     iteration # 23     ecut=    36.75 Ry     beta=0.10
     Davidson diagonalization with overlap
     ethr =  6.41E-10,  avg # of iterations =  2.0

     negative rho (up, down):  1.518E-01 0.000E+00

     negative rho (up, down):  1.518E-01 0.000E+00

     negative rho (up, down):  1.518E-01 0.000E+00

     negative rho (up, down):  1.518E-01 0.000E+00

     negative rho (up, down):  1.518E-01 0.000E+00

     negative rho (up, down):  1.518E-01 0.000E+00

     negative rho (up, down):  1.518E-01 0.000E+00

     negative rho (up, down):  1.518E-01 0.000E+00

     negative rho (up, down):  1.518E-01 0.000E+00

     negative rho (up, down):  1.518E-01 0.000E+00

     negative rho (up, down):  1.518E-01 0.000E+00

     negative rho (up, down):  1.518E-01 0.000E+00

     negative rho (up, down):  1.518E-01 0.000E+00

     negative rho (up, down):  1.518E-01 0.000E+00

     negative rho (up, down):  1.518E-01 0.000E+00

     negative rho (up, down):  1.518E-01 0.000E+00

     negative rho (up, down):  1.518E-01 0.000E+00

     negative rho (up, down):  1.518E-01 0.000E+00

     negative rho (up, down):  1.518E-01 0.000E+00

     negative rho (up, down):  1.518E-01 0.000E+00

     negative rho (up, down):  1.518E-01 0.000E+00

     negative rho (up, down):  1.518E-01 0.000E+00

     negative rho (up, down):  1.518E-01 0.000E+00

     negative rho (up, down):  1.518E-01 0.000E+00

     negative rho (up, down):  1.518E-01 0.000E+00

     negative rho (up, down):  1.518E-01 0.000E+00

     negative rho (up, down):  1.518E-01 0.000E+00

     negative rho (up, down):  1.518E-01 0.000E+00

     negative rho (up, down):  1.518E-01 0.000E+00

     negative rho (up, down):  1.518E-01 0.000E+00

     negative rho (up, down):  1.518E-01 0.000E+00

     negative rho (up, down):  1.518E-01 0.000E+00

     negative rho (up, down):  1.518E-01 0.000E+00

     negative rho (up, down):  1.518E-01 0.000E+00

     negative rho (up, down):  1.518E-01 0.000E+00
 
     Adding external electric field

     Computed dipole along edir(3) : 
        Dipole                0.0013 Ry au,          0.0032 Debye
        Dipole field          0.0000 Ry au
 
        Potential amp.       -0.0003 Ry
        Total length         46.0457 bohr
 

     total cpu time spent up to now is     2705.0 secs

     End of self-consistent calculation

          k = 0.0000 0.0000 0.0000 ( 20515 PWs)   bands (ev):

  -111.6062-111.6058-111.6058-111.3777-111.3774-111.3774-111.3773-111.3769
  -111.3769 -69.0801 -69.0772 -69.0772 -69.0482 -69.0482 -69.0455 -68.8923
   -68.8923 -68.8919 -68.8919 -68.8896 -68.8891 -68.8816 -68.8771 -68.8771
   -68.7693 -68.7689 -68.7665 -68.7665 -68.7661 -68.7661 -68.6789 -68.6785
   -68.6746 -68.6746 -68.6741 -68.6741 -32.5241 -32.5232 -31.7669 -16.2098
   -16.1962 -16.1037 -16.1037 -16.1026 -16.1026 -15.4563 -15.4563 -15.4430
    -4.6365  -3.4451  -2.9451  -2.7428  -2.7428  -2.6819  -2.6819  -2.3250
    -2.3250  -2.2841  -2.2555  -2.2555  -2.1267  -2.0744  -1.9958  -1.8421
    -1.8421  -1.8413  -1.8413  -1.7520  -1.7302  -1.7302  -1.7258  -1.6731
    -1.5758  -1.5758  -1.5582  -1.5365  -1.5365  -1.5059  -1.4973  -1.4973
    -1.4033  -1.3255  -1.3255  -1.2775  -1.2685  -1.2685  -1.2008  -1.2008
    -1.1912  -1.1912  -1.1483  -1.0539  -1.0539  -1.0136  -1.0029  -0.7315
     0.3726   0.3726   0.4952   0.7205   0.7205   1.0859   1.1001   1.1001
     1.4595   1.7932   1.9733   1.9733   2.1021   2.2748   2.2748   2.2800
     2.2800   2.3105   2.3105   2.3338   2.3589   2.3697   2.3697   2.3785
     2.3977   2.8056   2.8174   2.9454   2.9454   3.0490   3.1898   3.1898
     3.2000   3.2304   3.2304   3.4441

          k = 0.0000 0.0315 0.0000 ( 20475 PWs)   bands (ev):

  -111.6062-111.6058-111.6058-111.3777-111.3774-111.3774-111.3773-111.3769
  -111.3769 -69.0799 -69.0774 -69.0772 -69.0482 -69.0480 -69.0457 -68.8923
   -68.8921 -68.8919 -68.8917 -68.8897 -68.8893 -68.8813 -68.8774 -68.8771
   -68.7692 -68.7688 -68.7667 -68.7665 -68.7662 -68.7661 -68.6787 -68.6782
   -68.6748 -68.6746 -68.6744 -68.6741 -32.5239 -32.5231 -31.7668 -16.2113
   -16.1963 -16.1142 -16.1095 -16.1077 -16.1024 -15.4622 -15.4576 -15.4409
    -4.4438  -3.2812  -2.8200  -2.7117  -2.6421  -2.6141  -2.5943  -2.2946
    -2.2389  -2.2286  -2.2152  -2.2112  -2.0964  -2.0480  -1.9565  -1.8604
    -1.8459  -1.8187  -1.8187  -1.7609  -1.7368  -1.7187  -1.7181  -1.6690
    -1.5972  -1.5585  -1.5544  -1.5457  -1.5320  -1.5235  -1.4900  -1.4883
    -1.4215  -1.3622  -1.3542  -1.3086  -1.3076  -1.2765  -1.2381  -1.2176
    -1.2175  -1.1964  -1.1512  -1.0988  -1.0763  -1.0650  -1.0402  -0.7535
    -0.4782  -0.0251   0.3624   0.4911   0.7126   1.1449   1.3618   1.4513
     1.5464   1.8487   1.8910   1.9894   2.1927   2.2613   2.2718   2.2877
     2.3052   2.3164   2.3283   2.3336   2.3593   2.3820   2.3873   2.3893
     2.3957   2.7048   2.8662   2.8829   2.9320   3.0021   3.0227   3.0545
     3.1277   3.1939   3.2442   3.2972

          k = 0.0000 0.0630 0.0000 ( 20527 PWs)   bands (ev):

  -111.6061-111.6059-111.6058-111.3777-111.3775-111.3774-111.3772-111.3770
  -111.3769 -69.0795 -69.0778 -69.0772 -69.0482 -69.0476 -69.0461 -68.8923
   -68.8919 -68.8917 -68.8913 -68.8901 -68.8897 -68.8806 -68.8781 -68.8771
   -68.7687 -68.7683 -68.7671 -68.7667 -68.7665 -68.7661 -68.6780 -68.6776
   -68.6755 -68.6751 -68.6746 -68.6741 -32.5234 -32.5227 -31.7664 -16.2141
   -16.1971 -16.1315 -16.1211 -16.1179 -16.1053 -15.4738 -15.4602 -15.4370
    -3.9187  -2.9130  -2.7010  -2.5369  -2.4406  -2.4269  -2.3627  -2.2359
    -2.1394  -2.1137  -2.1115  -2.0279  -1.9915  -1.9785  -1.8995  -1.8800
    -1.8402  -1.8127  -1.7631  -1.7470  -1.7151  -1.7043  -1.7032  -1.6902
    -1.6181  -1.6040  -1.5679  -1.5479  -1.5252  -1.5075  -1.5019  -1.4858
    -1.4619  -1.4473  -1.4437  -1.4267  -1.3810  -1.3470  -1.3203  -1.2826
    -1.2665  -1.2398  -1.2283  -1.1952  -1.1851  -1.1524  -1.1019  -1.0533
    -0.9358  -0.3880  -0.0790   0.3609   0.7103   0.7217   1.1209   1.2894
     1.4977   1.7708   1.8204   1.9568   2.0744   2.2325   2.2497   2.3047
     2.3382   2.3417   2.3643   2.3783   2.3941   2.4012   2.4176   2.4232
     2.4371   2.6193   2.6612   2.6991   2.7167   2.8288   2.9393   3.1176
     3.1393   3.1418   3.1815   3.2434

          k = 0.0000-0.0944 0.0000 ( 20540 PWs)   bands (ev):

  -111.6061-111.6059-111.6058-111.3776-111.3775-111.3774-111.3772-111.3770
  -111.3769 -69.0791 -69.0781 -69.0772 -69.0482 -69.0473 -69.0464 -68.8923
   -68.8919 -68.8914 -68.8909 -68.8905 -68.8901 -68.8801 -68.8786 -68.8771
   -68.7684 -68.7680 -68.7674 -68.7670 -68.7665 -68.7661 -68.6775 -68.6770
   -68.6761 -68.6756 -68.6746 -68.6741 -32.5231 -32.5226 -31.7663 -16.2154
   -16.1978 -16.1396 -16.1281 -16.1217 -16.1071 -15.4795 -15.4615 -15.4352
    -3.2536  -3.2268  -2.5396  -2.3974  -2.2837  -2.2479  -2.2253  -2.2146
    -2.0779  -2.0439  -2.0257  -1.9976  -1.9959  -1.9284  -1.9204  -1.8247
    -1.8007  -1.7857  -1.7817  -1.7220  -1.6847  -1.6743  -1.6509  -1.6484
    -1.6314  -1.6218  -1.5852  -1.5758  -1.5587  -1.5585  -1.5539  -1.5241
    -1.4812  -1.4741  -1.4695  -1.4673  -1.4380  -1.4307  -1.3913  -1.3881
    -1.3575  -1.3546  -1.3441  -1.2530  -1.2245  -1.1867  -1.0904  -1.0611
    -0.9313  -0.6615   0.0808   0.1626   0.3706   0.6499   0.7424   1.2952
     1.5638   1.6453   1.6695   1.8079   1.9776   1.9972   2.3125   2.3313
     2.3525   2.3573   2.3842   2.3967   2.4114   2.4254   2.4278   2.4582
     2.4734   2.5680   2.5689   2.5714   2.7734   2.8380   2.8596   3.1118
     3.1415   3.1602   3.1685   3.2428

          k = 0.0273 0.0157 0.0000 ( 20475 PWs)   bands (ev):

  -111.6062-111.6058-111.6058-111.3777-111.3774-111.3774-111.3773-111.3769
  -111.3769 -69.0799 -69.0774 -69.0772 -69.0482 -69.0480 -69.0457 -68.8923
   -68.8921 -68.8919 -68.8917 -68.8897 -68.8893 -68.8813 -68.8774 -68.8771
   -68.7692 -68.7688 -68.7666 -68.7665 -68.7662 -68.7661 -68.6787 -68.6782
   -68.6748 -68.6746 -68.6744 -68.6741 -32.5239 -32.5231 -31.7668 -16.2113
   -16.1963 -16.1142 -16.1095 -16.1077 -16.1024 -15.4622 -15.4576 -15.4409
    -4.4438  -3.2812  -2.8200  -2.7117  -2.6421  -2.6141  -2.5943  -2.2946
    -2.2389  -2.2286  -2.2152  -2.2112  -2.0964  -2.0480  -1.9565  -1.8604
    -1.8459  -1.8187  -1.8187  -1.7609  -1.7368  -1.7187  -1.7181  -1.6690
    -1.5972  -1.5585  -1.5544  -1.5457  -1.5320  -1.5235  -1.4900  -1.4883
    -1.4215  -1.3622  -1.3542  -1.3086  -1.3076  -1.2765  -1.2381  -1.2176
    -1.2175  -1.1964  -1.1512  -1.0988  -1.0763  -1.0650  -1.0402  -0.7535
    -0.4782  -0.0251   0.3624   0.4911   0.7126   1.1449   1.3618   1.4513
     1.5464   1.8487   1.8910   1.9894   2.1927   2.2613   2.2718   2.2877
     2.3052   2.3164   2.3283   2.3336   2.3593   2.3820   2.3873   2.3893
     2.3957   2.7048   2.8662   2.8829   2.9320   3.0021   3.0227   3.0545
     3.1277   3.1939   3.2442   3.2972

          k = 0.0273 0.0472 0.0000 ( 20489 PWs)   bands (ev):

  -111.6061-111.6059-111.6058-111.3777-111.3774-111.3774-111.3772-111.3770
  -111.3769 -69.0796 -69.0777 -69.0772 -69.0482 -69.0477 -69.0460 -68.8923
   -68.8919 -68.8918 -68.8914 -68.8900 -68.8896 -68.8808 -68.8779 -68.8771
   -68.7689 -68.7684 -68.7670 -68.7665 -68.7665 -68.7661 -68.6782 -68.6778
   -68.6753 -68.6749 -68.6746 -68.6741 -32.5235 -32.5228 -31.7665 -16.2129
   -16.1974 -16.1274 -16.1175 -16.1106 -16.1099 -15.4696 -15.4608 -15.4379
    -4.0831  -2.9974  -2.6467  -2.6087  -2.5012  -2.4883  -2.4543  -2.2300
    -2.1667  -2.1572  -2.1302  -2.0709  -2.0425  -1.9961  -1.9216  -1.8776
    -1.8449  -1.7989  -1.7877  -1.7688  -1.7162  -1.7023  -1.7003  -1.6867
    -1.6238  -1.5803  -1.5760  -1.5351  -1.5224  -1.5172  -1.4990  -1.4768
    -1.4545  -1.4399  -1.4165  -1.3997  -1.3411  -1.3169  -1.3119  -1.2630
    -1.2316  -1.2211  -1.2067  -1.1591  -1.1372  -1.1258  -1.0640  -0.9623
    -0.8991  -0.3582  -0.0589   0.2985   0.8356   0.8378   1.1826   1.3120
     1.7294   1.7687   1.8153   1.9696   2.1801   2.2746   2.2781   2.3129
     2.3133   2.3216   2.3583   2.3755   2.3903   2.3920   2.3996   2.4123
     2.4204   2.6046   2.7408   2.7645   2.8346   2.8518   3.0086   3.0527
     3.0943   3.1604   3.2149   3.2489

          k = 0.0273 0.0787 0.0000 ( 20561 PWs)   bands (ev):

  -111.6061-111.6059-111.6058-111.3776-111.3775-111.3774-111.3772-111.3770
  -111.3769 -69.0791 -69.0782 -69.0772 -69.0482 -69.0473 -69.0464 -68.8923
   -68.8919 -68.8914 -68.8909 -68.8905 -68.8900 -68.8801 -68.8786 -68.8771
   -68.7684 -68.7680 -68.7674 -68.7670 -68.7665 -68.7661 -68.6775 -68.6770
   -68.6760 -68.6756 -68.6746 -68.6741 -32.5231 -32.5226 -31.7663 -16.2134
   -16.2005 -16.1361 -16.1255 -16.1210 -16.1134 -15.4763 -15.4646 -15.4352
    -3.4668  -2.8893  -2.5165  -2.3712  -2.3227  -2.2859  -2.2442  -2.1620
    -2.0729  -2.0566  -2.0235  -2.0142  -1.9841  -1.9185  -1.8946  -1.8904
    -1.8280  -1.8115  -1.7452  -1.7303  -1.7223  -1.6978  -1.6710  -1.6541
    -1.6330  -1.6287  -1.6097  -1.5821  -1.5664  -1.5433  -1.5297  -1.5116
    -1.5033  -1.4853  -1.4722  -1.4501  -1.4333  -1.4245  -1.3978  -1.3733
    -1.3409  -1.3107  -1.2991  -1.2496  -1.2081  -1.1973  -1.1172  -1.0869
    -0.9734  -0.5936  -0.2377  -0.1242   0.3505   0.7213   1.0162   1.3484
     1.4853   1.7627   1.8082   1.9337   2.0534   2.2180   2.3066   2.3247
     2.3327   2.3495   2.3596   2.3892   2.4045   2.4215   2.4323   2.4615
     2.4696   2.5320   2.5508   2.6410   2.7544   2.8620   2.9245   3.0739
     3.1528   3.1626   3.1658   3.2320

          k = 0.0273-0.0787 0.0000 ( 20561 PWs)   bands (ev):

  -111.6061-111.6059-111.6058-111.3776-111.3775-111.3774-111.3772-111.3770
  -111.3769 -69.0791 -69.0782 -69.0772 -69.0482 -69.0473 -69.0464 -68.8923
   -68.8919 -68.8914 -68.8909 -68.8905 -68.8900 -68.8801 -68.8786 -68.8771
   -68.7684 -68.7680 -68.7674 -68.7670 -68.7665 -68.7661 -68.6775 -68.6770
   -68.6761 -68.6756 -68.6746 -68.6741 -32.5231 -32.5226 -31.7663 -16.2134
   -16.2005 -16.1361 -16.1255 -16.1210 -16.1134 -15.4763 -15.4646 -15.4352
    -3.4668  -2.8893  -2.5165  -2.3712  -2.3227  -2.2859  -2.2442  -2.1620
    -2.0729  -2.0566  -2.0235  -2.0142  -1.9841  -1.9185  -1.8946  -1.8904
    -1.8280  -1.8115  -1.7452  -1.7303  -1.7223  -1.6978  -1.6710  -1.6541
    -1.6330  -1.6287  -1.6097  -1.5821  -1.5664  -1.5433  -1.5297  -1.5116
    -1.5033  -1.4853  -1.4722  -1.4501  -1.4333  -1.4245  -1.3978  -1.3733
    -1.3409  -1.3107  -1.2991  -1.2496  -1.2081  -1.1973  -1.1172  -1.0869
    -0.9734  -0.5936  -0.2377  -0.1242   0.3505   0.7213   1.0162   1.3484
     1.4853   1.7627   1.8082   1.9337   2.0534   2.2180   2.3066   2.3247
     2.3327   2.3495   2.3596   2.3892   2.4045   2.4215   2.4323   2.4615
     2.4696   2.5320   2.5508   2.6410   2.7544   2.8620   2.9245   3.0739
     3.1528   3.1626   3.1658   3.2320

          k = 0.0273-0.0472 0.0000 ( 20489 PWs)   bands (ev):

  -111.6061-111.6059-111.6058-111.3777-111.3774-111.3774-111.3772-111.3770
  -111.3769 -69.0796 -69.0777 -69.0772 -69.0482 -69.0477 -69.0460 -68.8923
   -68.8919 -68.8918 -68.8914 -68.8900 -68.8896 -68.8808 -68.8779 -68.8771
   -68.7689 -68.7684 -68.7670 -68.7665 -68.7665 -68.7661 -68.6782 -68.6778
   -68.6753 -68.6749 -68.6746 -68.6741 -32.5235 -32.5228 -31.7665 -16.2129
   -16.1974 -16.1274 -16.1175 -16.1106 -16.1099 -15.4696 -15.4608 -15.4379
    -4.0831  -2.9974  -2.6467  -2.6087  -2.5012  -2.4883  -2.4543  -2.2300
    -2.1667  -2.1572  -2.1302  -2.0709  -2.0425  -1.9961  -1.9216  -1.8776
    -1.8449  -1.7989  -1.7877  -1.7688  -1.7162  -1.7023  -1.7003  -1.6867
    -1.6238  -1.5803  -1.5760  -1.5351  -1.5224  -1.5172  -1.4990  -1.4768
    -1.4545  -1.4399  -1.4165  -1.3997  -1.3411  -1.3169  -1.3119  -1.2630
    -1.2316  -1.2211  -1.2067  -1.1591  -1.1372  -1.1258  -1.0640  -0.9623
    -0.8991  -0.3582  -0.0589   0.2985   0.8356   0.8378   1.1826   1.3120
     1.7294   1.7687   1.8153   1.9696   2.1801   2.2746   2.2781   2.3129
     2.3133   2.3216   2.3583   2.3755   2.3903   2.3920   2.3996   2.4123
     2.4204   2.6046   2.7408   2.7645   2.8346   2.8518   3.0086   3.0527
     3.0943   3.1604   3.2149   3.2489

          k = 0.0273-0.0157 0.0000 ( 20475 PWs)   bands (ev):

  -111.6062-111.6058-111.6058-111.3777-111.3774-111.3774-111.3773-111.3769
  -111.3769 -69.0799 -69.0774 -69.0772 -69.0482 -69.0480 -69.0457 -68.8923
   -68.8921 -68.8919 -68.8917 -68.8897 -68.8893 -68.8813 -68.8774 -68.8771
   -68.7692 -68.7688 -68.7666 -68.7665 -68.7662 -68.7661 -68.6787 -68.6782
   -68.6748 -68.6746 -68.6744 -68.6741 -32.5239 -32.5231 -31.7668 -16.2113
   -16.1963 -16.1142 -16.1095 -16.1077 -16.1024 -15.4622 -15.4576 -15.4409
    -4.4438  -3.2812  -2.8200  -2.7117  -2.6421  -2.6141  -2.5943  -2.2946
    -2.2389  -2.2286  -2.2152  -2.2112  -2.0964  -2.0480  -1.9565  -1.8604
    -1.8459  -1.8187  -1.8187  -1.7609  -1.7368  -1.7187  -1.7181  -1.6690
    -1.5972  -1.5585  -1.5544  -1.5457  -1.5320  -1.5235  -1.4900  -1.4883
    -1.4215  -1.3622  -1.3542  -1.3086  -1.3076  -1.2765  -1.2381  -1.2176
    -1.2175  -1.1964  -1.1512  -1.0988  -1.0763  -1.0650  -1.0402  -0.7535
    -0.4782  -0.0251   0.3624   0.4911   0.7126   1.1449   1.3618   1.4513
     1.5464   1.8487   1.8910   1.9894   2.1927   2.2613   2.2718   2.2877
     2.3052   2.3164   2.3283   2.3336   2.3593   2.3820   2.3873   2.3893
     2.3957   2.7048   2.8662   2.8829   2.9320   3.0021   3.0227   3.0545
     3.1277   3.1939   3.2442   3.2972

          k = 0.0545 0.0315 0.0000 ( 20527 PWs)   bands (ev):

  -111.6061-111.6059-111.6058-111.3777-111.3774-111.3774-111.3772-111.3770
  -111.3769 -69.0795 -69.0778 -69.0772 -69.0482 -69.0476 -69.0461 -68.8923
   -68.8919 -68.8917 -68.8913 -68.8901 -68.8897 -68.8806 -68.8781 -68.8771
   -68.7687 -68.7683 -68.7671 -68.7667 -68.7665 -68.7661 -68.6780 -68.6776
   -68.6755 -68.6751 -68.6746 -68.6741 -32.5234 -32.5227 -31.7664 -16.2141
   -16.1971 -16.1315 -16.1211 -16.1179 -16.1053 -15.4738 -15.4602 -15.4370
    -3.9187  -2.9130  -2.7010  -2.5369  -2.4406  -2.4269  -2.3627  -2.2359
    -2.1394  -2.1137  -2.1115  -2.0279  -1.9915  -1.9785  -1.8995  -1.8800
    -1.8402  -1.8127  -1.7631  -1.7470  -1.7151  -1.7043  -1.7032  -1.6902
    -1.6181  -1.6040  -1.5679  -1.5479  -1.5252  -1.5075  -1.5019  -1.4858
    -1.4619  -1.4473  -1.4437  -1.4267  -1.3810  -1.3470  -1.3203  -1.2826
    -1.2665  -1.2398  -1.2283  -1.1952  -1.1851  -1.1524  -1.1019  -1.0533
    -0.9358  -0.3880  -0.0790   0.3609   0.7103   0.7217   1.1209   1.2894
     1.4977   1.7708   1.8204   1.9568   2.0744   2.2325   2.2497   2.3047
     2.3382   2.3417   2.3643   2.3783   2.3941   2.4012   2.4176   2.4232
     2.4371   2.6193   2.6612   2.6991   2.7167   2.8288   2.9393   3.1176
     3.1393   3.1418   3.1815   3.2434

          k = 0.0545 0.0630 0.0000 ( 20561 PWs)   bands (ev):

  -111.6061-111.6059-111.6058-111.3776-111.3775-111.3774-111.3772-111.3770
  -111.3769 -69.0791 -69.0782 -69.0772 -69.0482 -69.0473 -69.0464 -68.8923
   -68.8919 -68.8914 -68.8910 -68.8905 -68.8900 -68.8801 -68.8786 -68.8771
   -68.7684 -68.7680 -68.7674 -68.7670 -68.7665 -68.7661 -68.6775 -68.6770
   -68.6760 -68.6756 -68.6746 -68.6741 -32.5231 -32.5226 -31.7663 -16.2134
   -16.2005 -16.1361 -16.1255 -16.1210 -16.1134 -15.4763 -15.4646 -15.4352
    -3.4668  -2.8893  -2.5165  -2.3712  -2.3227  -2.2859  -2.2442  -2.1620
    -2.0729  -2.0566  -2.0235  -2.0142  -1.9841  -1.9185  -1.8946  -1.8904
    -1.8280  -1.8115  -1.7452  -1.7303  -1.7223  -1.6978  -1.6710  -1.6541
    -1.6330  -1.6287  -1.6097  -1.5821  -1.5664  -1.5433  -1.5297  -1.5116
    -1.5033  -1.4853  -1.4722  -1.4501  -1.4333  -1.4245  -1.3978  -1.3733
    -1.3409  -1.3107  -1.2991  -1.2496  -1.2081  -1.1973  -1.1172  -1.0869
    -0.9734  -0.5936  -0.2377  -0.1242   0.3505   0.7213   1.0162   1.3484
     1.4853   1.7627   1.8082   1.9337   2.0534   2.2180   2.3066   2.3247
     2.3327   2.3495   2.3596   2.3892   2.4045   2.4215   2.4323   2.4615
     2.4696   2.5320   2.5508   2.6410   2.7544   2.8620   2.9245   3.0739
     3.1528   3.1626   3.1658   3.2320

          k = 0.0545 0.0944 0.0000 ( 20553 PWs)   bands (ev):

  -111.6060-111.6060-111.6058-111.3776-111.3775-111.3774-111.3771-111.3771
  -111.3769 -69.0786 -69.0786 -69.0772 -69.0482 -69.0469 -69.0469 -68.8923
   -68.8919 -68.8910 -68.8909 -68.8905 -68.8905 -68.8794 -68.8793 -68.8771
   -68.7679 -68.7679 -68.7675 -68.7674 -68.7665 -68.7661 -68.6768 -68.6768
   -68.6763 -68.6763 -68.6746 -68.6741 -32.5230 -32.5225 -31.7662 -16.2082
   -16.2077 -16.1306 -16.1262 -16.1258 -16.1228 -15.4722 -15.4722 -15.4344
    -2.9606  -2.9605  -2.6574  -2.2152  -2.1815  -2.1815  -2.1114  -2.1114
    -2.0567  -2.0415  -2.0045  -2.0045  -1.9249  -1.9132  -1.9131  -1.8337
    -1.8336  -1.7715  -1.7704  -1.7704  -1.7058  -1.7056  -1.7002  -1.6490
    -1.6489  -1.6470  -1.6349  -1.6252  -1.6251  -1.5941  -1.5518  -1.5517
    -1.5286  -1.4568  -1.4541  -1.4539  -1.4285  -1.4283  -1.4241  -1.4240
    -1.4019  -1.3991  -1.3774  -1.2541  -1.2539  -1.1918  -1.1292  -1.1290
    -0.8121  -0.7470  -0.7469  -0.1831   0.2997   0.2998   1.2794   1.2794
     1.6656   1.9325   1.9856   1.9857   2.1294   2.1295   2.1746   2.3083
     2.3420   2.3420   2.3807   2.3934   2.3939   2.4382   2.4470   2.4476
     2.4523   2.4819   2.4825   2.7037   2.7038   2.9290   3.0136   3.0136
     3.1511   3.1512   3.1733   3.2184

          k = 0.0545-0.0630 0.0000 ( 20561 PWs)   bands (ev):

  -111.6061-111.6059-111.6058-111.3776-111.3775-111.3774-111.3772-111.3770
  -111.3769 -69.0791 -69.0782 -69.0772 -69.0482 -69.0473 -69.0464 -68.8923
   -68.8919 -68.8914 -68.8909 -68.8905 -68.8900 -68.8801 -68.8786 -68.8771
   -68.7684 -68.7680 -68.7674 -68.7670 -68.7665 -68.7661 -68.6775 -68.6770
   -68.6760 -68.6756 -68.6746 -68.6741 -32.5231 -32.5226 -31.7663 -16.2134
   -16.2005 -16.1361 -16.1255 -16.1210 -16.1134 -15.4763 -15.4646 -15.4352
    -3.4668  -2.8893  -2.5165  -2.3712  -2.3227  -2.2859  -2.2442  -2.1620
    -2.0729  -2.0566  -2.0235  -2.0142  -1.9841  -1.9185  -1.8946  -1.8904
    -1.8280  -1.8115  -1.7452  -1.7303  -1.7223  -1.6978  -1.6710  -1.6541
    -1.6330  -1.6287  -1.6097  -1.5821  -1.5664  -1.5433  -1.5297  -1.5116
    -1.5033  -1.4853  -1.4722  -1.4501  -1.4333  -1.4245  -1.3978  -1.3733
    -1.3409  -1.3107  -1.2991  -1.2496  -1.2081  -1.1973  -1.1172  -1.0869
    -0.9734  -0.5936  -0.2377  -0.1242   0.3505   0.7213   1.0162   1.3484
     1.4853   1.7627   1.8082   1.9337   2.0534   2.2180   2.3066   2.3247
     2.3327   2.3495   2.3596   2.3892   2.4045   2.4215   2.4323   2.4615
     2.4696   2.5320   2.5508   2.6410   2.7544   2.8620   2.9245   3.0739
     3.1528   3.1626   3.1658   3.2320

          k = 0.0545-0.0315 0.0000 ( 20527 PWs)   bands (ev):

  -111.6061-111.6059-111.6058-111.3777-111.3774-111.3774-111.3772-111.3770
  -111.3769 -69.0795 -69.0778 -69.0772 -69.0482 -69.0476 -69.0461 -68.8923
   -68.8919 -68.8917 -68.8913 -68.8901 -68.8897 -68.8806 -68.8781 -68.8771
   -68.7687 -68.7683 -68.7671 -68.7667 -68.7665 -68.7661 -68.6780 -68.6776
   -68.6755 -68.6751 -68.6746 -68.6741 -32.5234 -32.5227 -31.7664 -16.2141
   -16.1971 -16.1315 -16.1211 -16.1179 -16.1053 -15.4738 -15.4602 -15.4370
    -3.9187  -2.9130  -2.7010  -2.5369  -2.4406  -2.4269  -2.3627  -2.2359
    -2.1394  -2.1137  -2.1115  -2.0279  -1.9915  -1.9785  -1.8995  -1.8800
    -1.8402  -1.8127  -1.7631  -1.7470  -1.7151  -1.7043  -1.7032  -1.6902
    -1.6181  -1.6040  -1.5679  -1.5479  -1.5252  -1.5075  -1.5019  -1.4858
    -1.4619  -1.4473  -1.4437  -1.4267  -1.3810  -1.3470  -1.3203  -1.2826
    -1.2665  -1.2398  -1.2283  -1.1952  -1.1851  -1.1524  -1.1019  -1.0533
    -0.9358  -0.3880  -0.0790   0.3609   0.7103   0.7217   1.1209   1.2894
     1.4977   1.7708   1.8204   1.9568   2.0744   2.2325   2.2497   2.3047
     2.3382   2.3417   2.3643   2.3783   2.3941   2.4012   2.4176   2.4232
     2.4371   2.6193   2.6612   2.6991   2.7167   2.8288   2.9393   3.1176
     3.1393   3.1418   3.1815   3.2434

          k = 0.0545 0.0000 0.0000 ( 20489 PWs)   bands (ev):

  -111.6061-111.6059-111.6058-111.3777-111.3774-111.3774-111.3772-111.3770
  -111.3769 -69.0796 -69.0777 -69.0772 -69.0482 -69.0477 -69.0460 -68.8923
   -68.8919 -68.8918 -68.8914 -68.8900 -68.8896 -68.8808 -68.8779 -68.8771
   -68.7689 -68.7684 -68.7669 -68.7665 -68.7665 -68.7661 -68.6782 -68.6778
   -68.6753 -68.6749 -68.6746 -68.6741 -32.5235 -32.5228 -31.7665 -16.2129
   -16.1974 -16.1274 -16.1175 -16.1106 -16.1099 -15.4696 -15.4608 -15.4379
    -4.0831  -2.9974  -2.6467  -2.6087  -2.5012  -2.4883  -2.4543  -2.2300
    -2.1667  -2.1572  -2.1302  -2.0709  -2.0425  -1.9961  -1.9216  -1.8776
    -1.8449  -1.7989  -1.7877  -1.7688  -1.7162  -1.7023  -1.7003  -1.6867
    -1.6238  -1.5803  -1.5760  -1.5351  -1.5224  -1.5172  -1.4990  -1.4768
    -1.4545  -1.4399  -1.4165  -1.3997  -1.3411  -1.3169  -1.3119  -1.2630
    -1.2316  -1.2211  -1.2067  -1.1591  -1.1372  -1.1258  -1.0640  -0.9623
    -0.8991  -0.3582  -0.0589   0.2985   0.8356   0.8378   1.1826   1.3120
     1.7294   1.7687   1.8153   1.9696   2.1801   2.2746   2.2781   2.3129
     2.3133   2.3216   2.3583   2.3755   2.3903   2.3920   2.3996   2.4123
     2.4204   2.6046   2.7408   2.7645   2.8346   2.8518   3.0086   3.0527
     3.0943   3.1604   3.2149   3.2489

          k =-0.0818-0.0472 0.0000 ( 20540 PWs)   bands (ev):

  -111.6061-111.6059-111.6058-111.3776-111.3775-111.3774-111.3772-111.3770
  -111.3769 -69.0791 -69.0781 -69.0772 -69.0482 -69.0473 -69.0464 -68.8923
   -68.8919 -68.8914 -68.8910 -68.8905 -68.8900 -68.8801 -68.8786 -68.8771
   -68.7684 -68.7680 -68.7674 -68.7670 -68.7665 -68.7661 -68.6775 -68.6770
   -68.6760 -68.6756 -68.6746 -68.6741 -32.5231 -32.5226 -31.7663 -16.2154
   -16.1978 -16.1396 -16.1281 -16.1217 -16.1071 -15.4795 -15.4615 -15.4352
    -3.2536  -3.2268  -2.5396  -2.3974  -2.2837  -2.2479  -2.2253  -2.2146
    -2.0779  -2.0439  -2.0257  -1.9976  -1.9959  -1.9284  -1.9204  -1.8247
    -1.8007  -1.7857  -1.7817  -1.7220  -1.6847  -1.6743  -1.6509  -1.6484
    -1.6314  -1.6218  -1.5852  -1.5758  -1.5587  -1.5585  -1.5539  -1.5241
    -1.4812  -1.4741  -1.4695  -1.4673  -1.4380  -1.4307  -1.3913  -1.3881
    -1.3575  -1.3546  -1.3441  -1.2530  -1.2245  -1.1867  -1.0904  -1.0611
    -0.9313  -0.6615   0.0808   0.1626   0.3706   0.6499   0.7424   1.2952
     1.5638   1.6453   1.6695   1.8079   1.9776   1.9972   2.3125   2.3313
     2.3525   2.3573   2.3842   2.3967   2.4114   2.4254   2.4278   2.4582
     2.4734   2.5680   2.5689   2.5714   2.7734   2.8380   2.8596   3.1118
     3.1415   3.1602   3.1685   3.2428

          k =-0.0818-0.0157 0.0000 ( 20561 PWs)   bands (ev):

  -111.6061-111.6059-111.6058-111.3776-111.3775-111.3774-111.3772-111.3770
  -111.3769 -69.0791 -69.0782 -69.0772 -69.0482 -69.0473 -69.0464 -68.8923
   -68.8919 -68.8914 -68.8910 -68.8905 -68.8900 -68.8801 -68.8786 -68.8771
   -68.7684 -68.7680 -68.7674 -68.7670 -68.7665 -68.7661 -68.6775 -68.6770
   -68.6760 -68.6756 -68.6746 -68.6741 -32.5231 -32.5226 -31.7663 -16.2134
   -16.2005 -16.1361 -16.1255 -16.1210 -16.1134 -15.4763 -15.4646 -15.4352
    -3.4668  -2.8893  -2.5165  -2.3712  -2.3227  -2.2859  -2.2442  -2.1620
    -2.0729  -2.0566  -2.0235  -2.0142  -1.9841  -1.9185  -1.8946  -1.8904
    -1.8280  -1.8115  -1.7452  -1.7303  -1.7223  -1.6978  -1.6710  -1.6541
    -1.6330  -1.6287  -1.6097  -1.5821  -1.5664  -1.5433  -1.5297  -1.5116
    -1.5033  -1.4853  -1.4722  -1.4501  -1.4333  -1.4245  -1.3978  -1.3733
    -1.3409  -1.3107  -1.2991  -1.2496  -1.2081  -1.1973  -1.1172  -1.0869
    -0.9734  -0.5936  -0.2377  -0.1242   0.3505   0.7213   1.0162   1.3484
     1.4853   1.7627   1.8082   1.9337   2.0534   2.2180   2.3066   2.3247
     2.3327   2.3495   2.3596   2.3892   2.4045   2.4215   2.4323   2.4615
     2.4696   2.5320   2.5508   2.6410   2.7544   2.8620   2.9245   3.0739
     3.1528   3.1626   3.1658   3.2320

          k =-0.0818 0.0157 0.0000 ( 20561 PWs)   bands (ev):

  -111.6061-111.6059-111.6058-111.3776-111.3775-111.3774-111.3772-111.3770
  -111.3769 -69.0791 -69.0782 -69.0772 -69.0482 -69.0473 -69.0464 -68.8923
   -68.8919 -68.8914 -68.8910 -68.8905 -68.8900 -68.8801 -68.8786 -68.8771
   -68.7684 -68.7680 -68.7674 -68.7670 -68.7665 -68.7661 -68.6775 -68.6770
   -68.6760 -68.6756 -68.6746 -68.6741 -32.5231 -32.5226 -31.7663 -16.2134
   -16.2005 -16.1361 -16.1255 -16.1210 -16.1134 -15.4763 -15.4646 -15.4352
    -3.4668  -2.8893  -2.5165  -2.3712  -2.3227  -2.2859  -2.2442  -2.1620
    -2.0729  -2.0566  -2.0235  -2.0142  -1.9841  -1.9185  -1.8946  -1.8904
    -1.8280  -1.8115  -1.7452  -1.7303  -1.7223  -1.6978  -1.6710  -1.6541
    -1.6330  -1.6287  -1.6097  -1.5821  -1.5664  -1.5433  -1.5297  -1.5116
    -1.5033  -1.4853  -1.4722  -1.4501  -1.4333  -1.4245  -1.3978  -1.3733
    -1.3409  -1.3107  -1.2991  -1.2496  -1.2081  -1.1973  -1.1172  -1.0869
    -0.9734  -0.5936  -0.2377  -0.1242   0.3505   0.7213   1.0162   1.3484
     1.4853   1.7627   1.8082   1.9337   2.0534   2.2180   2.3066   2.3247
     2.3327   2.3495   2.3596   2.3892   2.4045   2.4215   2.4323   2.4615
     2.4696   2.5320   2.5508   2.6410   2.7544   2.8620   2.9245   3.0739
     3.1528   3.1626   3.1658   3.2320

          k =-0.0818-0.1417 0.0000 ( 20540 PWs)   bands (ev):

  -111.6061-111.6059-111.6058-111.3776-111.3775-111.3774-111.3772-111.3770
  -111.3769 -69.0791 -69.0781 -69.0772 -69.0482 -69.0473 -69.0464 -68.8923
   -68.8919 -68.8914 -68.8909 -68.8905 -68.8900 -68.8801 -68.8786 -68.8771
   -68.7684 -68.7680 -68.7674 -68.7670 -68.7665 -68.7661 -68.6775 -68.6770
   -68.6760 -68.6756 -68.6746 -68.6741 -32.5231 -32.5226 -31.7663 -16.2154
   -16.1978 -16.1396 -16.1281 -16.1217 -16.1071 -15.4795 -15.4615 -15.4352
    -3.2536  -3.2268  -2.5396  -2.3974  -2.2837  -2.2479  -2.2253  -2.2146
    -2.0779  -2.0439  -2.0257  -1.9976  -1.9959  -1.9284  -1.9204  -1.8247
    -1.8007  -1.7857  -1.7817  -1.7220  -1.6847  -1.6743  -1.6509  -1.6484
    -1.6314  -1.6218  -1.5852  -1.5758  -1.5587  -1.5585  -1.5539  -1.5241
    -1.4812  -1.4741  -1.4695  -1.4673  -1.4380  -1.4307  -1.3913  -1.3881
    -1.3575  -1.3546  -1.3441  -1.2530  -1.2245  -1.1867  -1.0904  -1.0611
    -0.9313  -0.6615   0.0808   0.1626   0.3706   0.6499   0.7424   1.2952
     1.5638   1.6453   1.6695   1.8079   1.9776   1.9972   2.3125   2.3313
     2.3525   2.3573   2.3842   2.3967   2.4114   2.4254   2.4278   2.4582
     2.4734   2.5680   2.5689   2.5714   2.7734   2.8380   2.8596   3.1118
     3.1415   3.1602   3.1685   3.2428

     the Fermi energy is     0.9651 ev

!    total energy              =   -3956.39814373 Ry
     Harris-Foulkes estimate   =   -3956.39814562 Ry
     estimated scf accuracy    <       0.00000053 Ry

     The total energy is the sum of the following terms:

     one-electron contribution =  -21263.09172625 Ry
     hartree contribution      =   10647.30934062 Ry
     xc contribution           =    -511.74881737 Ry
     ewald contribution        =    7171.17391353 Ry
     electric field correction =       0.00000000 Ry
     smearing contrib. (-TS)   =      -0.04085426 Ry

     convergence has been achieved in  23 iterations
 
 BEEF-vdW xc energy contributions
           1 :   -453.371331768412     
           2 :    412.262237253332     
           3 :   -342.008479198486     
           4 :    261.039191870301     
           5 :   -186.578173787853     
           6 :    128.782177748888     
           7 :   -89.1360871121973     
           8 :    63.0107525296108     
           9 :   -44.2258989035108     
          10 :    28.7879944913838     
          11 :   -15.9799531681599     
          12 :    6.90238516886575     
          13 :   -2.13826252015417     
          14 :   0.431990123865376     
          15 :   0.789943849036774     
          16 :   -3.69576907721762     
          17 :    8.56183717491137     
          18 :   -13.6553417075453     
          19 :    16.5307422748560     
          20 :   -15.7708424970961     
          21 :    11.9546121659666     
          22 :   -7.25550245848785     
          23 :    4.03833906718523     
          24 :   -3.45727795928309     
          25 :    4.95857973678176     
          26 :   -6.90678701572892     
          27 :    7.78850985089895     
          28 :   -7.13660020904217     
          29 :    5.61153164319785     
          30 :   -4.31819224158176     
          31 :   -36.7250013788541     
          32 :   -25.2963767941450     

     Forces acting on atoms (Ry/au):


     negative rho (up, down):  1.518E-01 0.000E+00
     atom    1 type  1   force =     0.00000031   -0.01137813    0.01237991
     atom    2 type  1   force =    -0.00985285    0.00569066    0.01238178
     atom    3 type  1   force =     0.00985339    0.00569053    0.01238299
     atom    4 type  2   force =     0.00000024    0.00000034   -0.01281849
     atom    5 type  1   force =    -0.00000203    0.00051977    0.00042540
     atom    6 type  1   force =     0.00044537   -0.00026377    0.00042619
     atom    7 type  1   force =    -0.00044556   -0.00026168    0.00042657
     atom    8 type  2   force =    -0.00000011   -0.00000095   -0.00021256
     atom    9 type  1   force =     0.00000003    0.01147296   -0.01267664
     atom   10 type  1   force =     0.00993437   -0.00573550   -0.01267411
     atom   11 type  1   force =    -0.00993298   -0.00573469   -0.01267356
     atom   12 type  2   force =    -0.00000016    0.00000046    0.01263251

     Total force =     0.045280     Total SCF correction =     0.003000


     entering subroutine stress ...


     negative rho (up, down):  1.518E-01 0.000E+00
          total   stress  (Ry/bohr**3)                   (kbar)     P=  -16.39
  -0.00012365   0.00000000   0.00000000        -18.19      0.00      0.00
   0.00000000  -0.00012365   0.00000000          0.00    -18.19      0.00
   0.00000000   0.00000000  -0.00008695          0.00      0.00    -12.79

 !ASE

     Writing output data file calc.save
 
     init_run     :     26.85s CPU     45.75s WALL (       1 calls)
     electrons    :   1712.81s CPU   2658.97s WALL (       1 calls)
     forces       :      3.87s CPU      4.79s WALL (       1 calls)
     stress       :      9.21s CPU     10.36s WALL (       1 calls)

     Called by init_run:
     wfcinit      :     24.15s CPU     41.94s WALL (       1 calls)
     potinit      :      1.50s CPU      2.34s WALL (       1 calls)

     Called by electrons:
     c_bands      :   1400.30s CPU   2175.52s WALL (      23 calls)
     sum_band     :    221.73s CPU    358.85s WALL (      23 calls)
     v_of_rho     :     28.41s CPU     44.70s WALL (      24 calls)
     newd         :     10.47s CPU     10.94s WALL (      24 calls)
     mix_rho      :      1.30s CPU      2.07s WALL (      23 calls)
     vdW_energy   :      1.63s CPU      1.63s WALL (      60 calls)
     vdW_ffts     :     55.04s CPU     79.23s WALL (     122 calls)
     vdW_v        :      9.23s CPU     12.74s WALL (      60 calls)

     Called by c_bands:
     init_us_2    :      0.66s CPU      0.70s WALL (     980 calls)
     cegterg      :   1386.19s CPU   2157.70s WALL (     460 calls)

     Called by *egterg:
     h_psi        :   1036.51s CPU   1725.78s WALL (    1864 calls)
     s_psi        :     11.79s CPU     11.96s WALL (    1864 calls)
     g_psi        :      0.59s CPU      0.60s WALL (    1384 calls)
     cdiaghg      :    237.37s CPU    287.79s WALL (    1844 calls)

     Called by h_psi:
     add_vuspsi   :     12.22s CPU     12.39s WALL (    1864 calls)

     General routines
     calbec       :     36.76s CPU     49.47s WALL (    2364 calls)
     fft          :     83.30s CPU    120.24s WALL (    3687 calls)
     ffts         :      0.26s CPU      0.43s WALL (      47 calls)
     fftw         :   1186.24s CPU   1997.34s WALL (  365278 calls)
     interpolate  :      1.16s CPU      1.88s WALL (      47 calls)
     davcio       :      0.00s CPU      0.02s WALL (      20 calls)
 
     Parallel routines
     fft_scatter  :   1237.42s CPU   2082.71s WALL (  369012 calls)
 
     PWSCF        : 29m13.94s CPU    45m21.85s WALL

 
   This run was terminated on:  17:15:45  25Dec2018            

=------------------------------------------------------------------------------=
   JOB DONE.
=------------------------------------------------------------------------------=
Job  /afs/slac/g/suncat/bin/suncat-tsmpirun -x LD_LIBRARY_PATH -wdir /scratch/qe109572_UwZf0 pw.x -in pw.inp

TID   HOST_NAME   COMMAND_LINE            STATUS            TERMINATION_TIME
===== ========== ================  =======================  ===================
00000 suncat0108 pw.x -in pw.inp   Done                     12/25/2018 17:15:45
00001 suncat0108 pw.x -in pw.inp   Done                     12/25/2018 17:15:45
00002 suncat0108 pw.x -in pw.inp   Done                     12/25/2018 17:15:45
00003 suncat0108 pw.x -in pw.inp   Done                     12/25/2018 17:15:45
00004 suncat0108 pw.x -in pw.inp   Done                     12/25/2018 17:15:45
00005 suncat0108 pw.x -in pw.inp   Done                     12/25/2018 17:15:45
00006 suncat0108 pw.x -in pw.inp   Done                     12/25/2018 17:15:45
00007 suncat0108 pw.x -in pw.inp   Done                     12/25/2018 17:15:45
00008 suncat0107 pw.x -in pw.inp   Done                     12/25/2018 17:15:45
00009 suncat0107 pw.x -in pw.inp   Done                     12/25/2018 17:15:45
00010 suncat0107 pw.x -in pw.inp   Done                     12/25/2018 17:15:45
00011 suncat0107 pw.x -in pw.inp   Done                     12/25/2018 17:15:45
00012 suncat0107 pw.x -in pw.inp   Done                     12/25/2018 17:15:45
00013 suncat0107 pw.x -in pw.inp   Done                     12/25/2018 17:15:45
00014 suncat0107 pw.x -in pw.inp   Done                     12/25/2018 17:15:45
00015 suncat0107 pw.x -in pw.inp   Done                     12/25/2018 17:15:45
00016 suncat0106 pw.x -in pw.inp   Done                     12/25/2018 17:15:45
00017 suncat0106 pw.x -in pw.inp   Done                     12/25/2018 17:15:45
00018 suncat0106 pw.x -in pw.inp   Done                     12/25/2018 17:15:45
00019 suncat0106 pw.x -in pw.inp   Done                     12/25/2018 17:15:45
00020 suncat0106 pw.x -in pw.inp   Done                     12/25/2018 17:15:45
00021 suncat0106 pw.x -in pw.inp   Done                     12/25/2018 17:15:45
00022 suncat0106 pw.x -in pw.inp   Done                     12/25/2018 17:15:45
00023 suncat0106 pw.x -in pw.inp   Done                     12/25/2018 17:15:45
00024 suncat0105 pw.x -in pw.inp   Done                     12/25/2018 17:15:45
00025 suncat0105 pw.x -in pw.inp   Done                     12/25/2018 17:15:45
00026 suncat0105 pw.x -in pw.inp   Done                     12/25/2018 17:15:45
00027 suncat0105 pw.x -in pw.inp   Done                     12/25/2018 17:15:45
00028 suncat0105 pw.x -in pw.inp   Done                     12/25/2018 17:15:45
00029 suncat0105 pw.x -in pw.inp   Done                     12/25/2018 17:15:45
00030 suncat0105 pw.x -in pw.inp   Done                     12/25/2018 17:15:45
00031 suncat0105 pw.x -in pw.inp   Done                     12/25/2018 17:15:45
00032 suncat0238 pw.x -in pw.inp   Done                     12/25/2018 17:15:45
00033 suncat0238 pw.x -in pw.inp   Done                     12/25/2018 17:15:45
00034 suncat0238 pw.x -in pw.inp   Done                     12/25/2018 17:15:45
00035 suncat0238 pw.x -in pw.inp   Done                     12/25/2018 17:15:45
00036 suncat0238 pw.x -in pw.inp   Done                     12/25/2018 17:15:45
00037 suncat0238 pw.x -in pw.inp   Done                     12/25/2018 17:15:45
00038 suncat0238 pw.x -in pw.inp   Done                     12/25/2018 17:15:45
00039 suncat0238 pw.x -in pw.inp   Done                     12/25/2018 17:15:45
00040 suncat0237 pw.x -in pw.inp   Done                     12/25/2018 17:15:45
00041 suncat0237 pw.x -in pw.inp   Done                     12/25/2018 17:15:45
00042 suncat0237 pw.x -in pw.inp   Done                     12/25/2018 17:15:45
00043 suncat0237 pw.x -in pw.inp   Done                     12/25/2018 17:15:45
00044 suncat0237 pw.x -in pw.inp   Done                     12/25/2018 17:15:45
00045 suncat0237 pw.x -in pw.inp   Done                     12/25/2018 17:15:45
00046 suncat0237 pw.x -in pw.inp   Done                     12/25/2018 17:15:45
00047 suncat0237 pw.x -in pw.inp   Done                     12/25/2018 17:15:45
00048 suncat0236 pw.x -in pw.inp   Done                     12/25/2018 17:15:45
00049 suncat0236 pw.x -in pw.inp   Done                     12/25/2018 17:15:45
00050 suncat0236 pw.x -in pw.inp   Done                     12/25/2018 17:15:45
00051 suncat0236 pw.x -in pw.inp   Done                     12/25/2018 17:15:45
00052 suncat0236 pw.x -in pw.inp   Done                     12/25/2018 17:15:45
00053 suncat0236 pw.x -in pw.inp   Done                     12/25/2018 17:15:45
00054 suncat0236 pw.x -in pw.inp   Done                     12/25/2018 17:15:45
00055 suncat0236 pw.x -in pw.inp   Done                     12/25/2018 17:15:45
00056 suncat0235 pw.x -in pw.inp   Done                     12/25/2018 17:15:45
00057 suncat0235 pw.x -in pw.inp   Done                     12/25/2018 17:15:45
00058 suncat0235 pw.x -in pw.inp   Done                     12/25/2018 17:15:45
00059 suncat0235 pw.x -in pw.inp   Done                     12/25/2018 17:15:45
00060 suncat0235 pw.x -in pw.inp   Done                     12/25/2018 17:15:45
00061 suncat0235 pw.x -in pw.inp   Done                     12/25/2018 17:15:45
00062 suncat0235 pw.x -in pw.inp   Done                     12/25/2018 17:15:45
00063 suncat0235 pw.x -in pw.inp   Done                     12/25/2018 17:15:45

     Program PWSCF v.5.1rc2 (svn rev. 11289) starts on 25Dec2018 at 17:15:52 

     This program is part of the open-source Quantum ESPRESSO suite
     for quantum simulation of materials; please cite
         "P. Giannozzi et al., J. Phys.:Condens. Matter 21 395502 (2009);
          URL http://www.quantum-espresso.org", 
     in publications or presentations arising from this work. More details at
     http://www.quantum-espresso.org/quote

     Parallel version (MPI), running on    64 processors
     R & G space division:  proc/nbgrp/npool/nimage =      64
     Reading input from pw.inp
     Message from routine read_cards :
     DEPRECATED: no units specified in CELL_PARAMETERS card

     Current dimensions of program PWSCF are:
     Max number of different atomic species (ntypx) = 10
     Max number of k-points (npk) =  40000
     Max angular momentum in pseudopotentials (lmaxx) =  3
     Presently stress not available with electric field


     **************************************************************************
     Initializing libbeef V0.1.1 with the BEEF-vdW functional.
     Citation: Wellendorff et al., PRB 85, 235149 (2012).
     **************************************************************************


     IMPORTANT: XC functional enforced from input :
     Exchange-correlation      = BEEF-VDW ( 1  4 27 13 2)
     Any further DFT definition will be discarded
     Please, verify this is what you really want


     Subspace diagonalization in iterative solution of the eigenvalue problem:
     a serial algorithm will be used

 
     Parallelization info
     --------------------
     sticks:   dense  smooth     PW     G-vecs:    dense   smooth      PW
     Min          53      21      6                10139     2557     408
     Max          54      22      7                10155     2582     421
     Sum        3403    1357    397               649459   164199   26463
 


     bravais-lattice index     =            0
     lattice parameter (alat)  =       1.8897  a.u.
     unit-cell volume          =    5457.5463 (a.u.)^3
     number of atoms/cell      =           12
     number of atomic types    =            2
     number of electrons       =       204.00
     number of Kohn-Sham states=          132
     kinetic-energy cutoff     =      36.7493  Ry
     charge density cutoff     =     367.4932  Ry
     convergence threshold     =      1.0E-06
     mixing beta               =       0.1000
     number of iterations used =           10  plain     mixing
     Exchange-correlation      = BEEF-VDW ( 1  4 27 13 2)
     nstep                     =           50


     celldm(1)=   1.889726  celldm(2)=   0.000000  celldm(3)=   0.000000
     celldm(4)=   0.000000  celldm(5)=   0.000000  celldm(6)=   0.000000

     crystal axes: (cart. coord. in units of alat)
               a(1) = (   6.112831   0.000000   0.000000 )  
               a(2) = (  -3.056415   5.293867   0.000000 )  
               a(3) = (   0.000000   0.000000  24.991105 )  

     reciprocal axes: (cart. coord. in units 2 pi/alat)
               b(1) = (  0.163590  0.094449  0.000000 )  
               b(2) = (  0.000000  0.188898  0.000000 )  
               b(3) = (  0.000000  0.000000  0.040014 )  


     PseudoPot. # 1 for Cu read from file:
     /afs/slac.stanford.edu/u/if/mamunm/psp/gbrv1.5pbe/Cu.UPF
     MD5 check sum: 6e991ff952a84172a2a52a1c1e996048
     Pseudo is Ultrasoft + core correction, Zval = 19.0
     Generated by new atomic code, or converted to UPF format
     Using radial grid of  867 points,  6 beta functions with: 
                l(1) =   0
                l(2) =   0
                l(3) =   1
                l(4) =   1
                l(5) =   2
                l(6) =   2
     Q(r) pseudized with  8 coefficients,  rinner =    1.150   1.150   1.150
                                                       1.150   1.150

     PseudoPot. # 2 for La read from file:
     /afs/slac.stanford.edu/u/if/mamunm/psp/gbrv1.5pbe/La.UPF
     MD5 check sum: 5937b0c7494ba0601a847275249473aa
     Pseudo is Ultrasoft + core correction, Zval = 11.0
     Generated by new atomic code, or converted to UPF format
     Using radial grid of  995 points,  8 beta functions with: 
                l(1) =   0
                l(2) =   0
                l(3) =   1
                l(4) =   1
                l(5) =   2
                l(6) =   2
                l(7) =   3
                l(8) =   3
     Q(r) pseudized with  8 coefficients,  rinner =    1.700   1.700   1.700
                                                       1.700   1.700   1.700
                                                       1.700

     vdW kernel table read from file vdW_kernel_table
     MD5 check sum: 095c7af220d748ca6e76c0b4c6cfb241

     atomic species   valence    mass     pseudopotential
        Cu1           19.00    63.54600     Cu( 1.00)
        La1           11.00   138.90547     La( 1.00)

     No symmetry found



   Cartesian axes

     site n.     atom                  positions (alat units)
         1           Cu1 tau(   1) = (   0.0000000   0.0000000  10.0000000  )
         2           Cu1 tau(   2) = (  -1.5282077   2.6469333  10.0000000  )
         3           Cu1 tau(   3) = (   1.5282077   2.6469333  10.0000000  )
         4           La1 tau(   4) = (   3.0564153   0.0000000  10.0000000  )
         5           Cu1 tau(   5) = (   3.0564153   1.7646222  12.4955527  )
         6           Cu1 tau(   6) = (   1.5282077   4.4115556  12.4955527  )
         7           Cu1 tau(   7) = (  -1.5282077   4.4115556  12.4955527  )
         8           La1 tau(   8) = (   0.0000000   1.7646222  12.4955527  )
         9           Cu1 tau(   9) = (   0.0000001   3.5587426  14.9585124  )
        10           Cu1 tau(  10) = (   1.5537500   0.8675645  14.9585189  )
        11           Cu1 tau(  11) = (   4.5590843   0.8675666  14.9585203  )
        12           La1 tau(  12) = (   3.0564149   3.5292456  15.0235848  )

     number of k points=    20  Fermi-Dirac smearing, width (Ry)=  0.0110
                       cart. coord. in units 2pi/alat
        k(    1) = (   0.0000000   0.0000000   0.0000000), wk =   0.0555556
        k(    2) = (   0.0000000   0.0314830   0.0000000), wk =   0.1111111
        k(    3) = (   0.0000000   0.0629659   0.0000000), wk =   0.1111111
        k(    4) = (   0.0000000  -0.0944489   0.0000000), wk =   0.0555556
        k(    5) = (   0.0272651   0.0157415   0.0000000), wk =   0.1111111
        k(    6) = (   0.0272651   0.0472245   0.0000000), wk =   0.1111111
        k(    7) = (   0.0272651   0.0787074   0.0000000), wk =   0.1111111
        k(    8) = (   0.0272651  -0.0787074   0.0000000), wk =   0.1111111
        k(    9) = (   0.0272651  -0.0472245   0.0000000), wk =   0.1111111
        k(   10) = (   0.0272651  -0.0157415   0.0000000), wk =   0.1111111
        k(   11) = (   0.0545301   0.0314830   0.0000000), wk =   0.1111111
        k(   12) = (   0.0545301   0.0629659   0.0000000), wk =   0.1111111
        k(   13) = (   0.0545301   0.0944489   0.0000000), wk =   0.1111111
        k(   14) = (   0.0545301  -0.0629659   0.0000000), wk =   0.1111111
        k(   15) = (   0.0545301  -0.0314830   0.0000000), wk =   0.1111111
        k(   16) = (   0.0545301   0.0000000   0.0000000), wk =   0.1111111
        k(   17) = (  -0.0817952  -0.0472245   0.0000000), wk =   0.0555556
        k(   18) = (  -0.0817952  -0.0157415   0.0000000), wk =   0.1111111
        k(   19) = (  -0.0817952   0.0157415   0.0000000), wk =   0.1111111
        k(   20) = (  -0.0817952  -0.1416734   0.0000000), wk =   0.0555556

     Dense  grid:   649459 G-vectors     FFT dimensions: (  72,  72, 300)

     Smooth grid:   164199 G-vectors     FFT dimensions: (  45,  45, 192)

     Largest allocated arrays     est. size (Mb)     dimensions
        Kohn-Sham Wavefunctions         0.70 Mb     (     347,  132)
        NL pseudopotentials             1.37 Mb     (     347,  258)
        Each V/rho on FFT grid          0.40 Mb     (   25920)
        Each G-vector array             0.08 Mb     (   10149)
        G-vector shells                 0.04 Mb     (    4903)
     Largest temporary arrays     est. size (Mb)     dimensions
        Auxiliary wavefunctions         2.80 Mb     (     347,  528)
        Each subspace H/S matrix        4.25 Mb     (     528,  528)
        Each <psi_i|beta_j> matrix      0.52 Mb     (     258,  132)
        Arrays for rho mixing           3.96 Mb     (   25920,   10)

     Initial potential from superposition of free atoms
     Check: negative starting charge=   -0.213216

     starting charge  194.90378, renormalised to  204.00000

     negative rho (up, down):  2.232E-01 0.000E+00


     ************************************************************************
     *
     * You are using vdW-DF for exchange-correlation in this calculation.
     * Please cite the following three references that made this development
     * possible:
     *
     *   M. Dion, H. Rydberg, E. Schroder, D. C. Langreth, and
     *   B. I. Lundqvist, Phys. Rev. Lett. 92, 246401 (2004).
     *
     *   T. Thonhauser, V. R. Cooper, S. Li, A. Puzder, P. Hyldgaard, and
     *   D. C. Langreth, Phys. Rev. B 76, 125112 (2007).
     *
     *   G. Roman-Perez and J. M. Soler, Phys. Rev. Lett. 103, 096102 (2009).
     *
     *
     * If you are using vdW-DF2, please also cite:
     *
     *   K. Lee, E. D. Murray, L. Kong, B. I. Lundqvist, and
     *   D. C. Langreth, Phys. Rev. B 82, 081101(R) (2010).
     *
     *
     * If you are calculating the stress with vdW-DF, please also cite:
     *
     *   R. Sabatini, E. Kucukbenli, B. Kolb, T. Thonhauser, and
     *   S. de Gironcoli, J. Phys.: Condens. Matter 24, 424209 (2012).
     *
     ************************************************************************

     Carrying out vdW-DF run using the following parameters:

     Nqs =      20    Nr_points =    1024   r_max =   100.000
     q_mesh =
               0.00001000     0.04494208     0.09755937     0.15916263
               0.23128650     0.31572767     0.41458969     0.53033537
               0.66584808     0.82450364     1.01025438     1.22772762
               1.48234092     1.78043706     2.12944203     2.53805004
               3.01644009     3.57652955     4.23227104     5.00000000

     Gradients computed in reciprocal space

     ************************************************************************


 
     Adding external electric field

     Computed dipole along edir(3) : 
        Dipole               -0.0590 Ry au,         -0.1500 Debye
        Dipole field         -0.0001 Ry au
 
        Potential amp.        0.0125 Ry
        Total length         46.0457 bohr
 
     Starting wfc are  177 randomized atomic wfcs

     total cpu time spent up to now is       46.9 secs

     per-process dynamical memory:    45.4 Mb

     Self-consistent Calculation

     iteration #  1     ecut=    36.75 Ry     beta=0.10
     Davidson diagonalization with overlap
     ethr =  1.00E-02,  avg # of iterations =  3.0

     negative rho (up, down):  1.395E-01 0.000E+00
 
     Adding external electric field

     Computed dipole along edir(3) : 
        Dipole                0.3210 Ry au,          0.8158 Debye
        Dipole field          0.0007 Ry au
 
        Potential amp.       -0.0681 Ry
        Total length         46.0457 bohr
 

     total cpu time spent up to now is      184.6 secs

     total energy              =   -3945.76600659 Ry
     Harris-Foulkes estimate   =   -3962.44218313 Ry
     estimated scf accuracy    <      92.78921526 Ry

     iteration #  2     ecut=    36.75 Ry     beta=0.10
     Davidson diagonalization with overlap
     ethr =  1.00E-02,  avg # of iterations =  4.0

     negative rho (up, down):  1.436E-01 0.000E+00
 
     Adding external electric field

     Computed dipole along edir(3) : 
        Dipole               -0.3444 Ry au,         -0.8755 Debye
        Dipole field         -0.0008 Ry au
 
        Potential amp.        0.0730 Ry
        Total length         46.0457 bohr
 

     total cpu time spent up to now is      322.5 secs

     total energy              =   -3956.98061634 Ry
     Harris-Foulkes estimate   =   -3957.50687097 Ry
     estimated scf accuracy    <       3.33979799 Ry

     iteration #  3     ecut=    36.75 Ry     beta=0.10
     Davidson diagonalization with overlap
     ethr =  1.64E-03,  avg # of iterations =  2.1

     negative rho (up, down):  1.459E-01 0.000E+00
 
     Adding external electric field

     Computed dipole along edir(3) : 
        Dipole                0.0862 Ry au,          0.2192 Debye
        Dipole field          0.0002 Ry au
 
        Potential amp.       -0.0183 Ry
        Total length         46.0457 bohr
 

     total cpu time spent up to now is      420.0 secs

     total energy              =   -3956.87463527 Ry
     Harris-Foulkes estimate   =   -3957.09180421 Ry
     estimated scf accuracy    <       2.18622398 Ry

     iteration #  4     ecut=    36.75 Ry     beta=0.10
     Davidson diagonalization with overlap
     ethr =  1.07E-03,  avg # of iterations =  3.0

     negative rho (up, down):  1.656E-01 0.000E+00
 
     Adding external electric field

     Computed dipole along edir(3) : 
        Dipole               -0.0551 Ry au,         -0.1400 Debye
        Dipole field         -0.0001 Ry au
 
        Potential amp.        0.0117 Ry
        Total length         46.0457 bohr
 

     total cpu time spent up to now is      510.6 secs

     total energy              =   -3956.05165047 Ry
     Harris-Foulkes estimate   =   -3956.92018755 Ry
     estimated scf accuracy    <       1.41296081 Ry

     iteration #  5     ecut=    36.75 Ry     beta=0.10
     Davidson diagonalization with overlap
     ethr =  6.93E-04,  avg # of iterations =  5.0

     negative rho (up, down):  1.592E-01 0.000E+00
 
     Adding external electric field

     Computed dipole along edir(3) : 
[...]
   -68.5982 -68.5100 -68.5085 -68.5070 -32.5299 -32.3363 -31.5457 -16.2052
   -16.0698 -16.0595 -16.0205 -15.9454 -15.9324 -15.2888 -15.2761 -15.2139
    -4.0156  -3.1473  -2.6165  -2.4935  -2.3416  -2.3010  -2.2577  -2.2083
    -2.1531  -2.1294  -2.0982  -2.0377  -1.9666  -1.9518  -1.9009  -1.8673
    -1.7815  -1.7717  -1.7514  -1.7114  -1.6557  -1.6257  -1.6062  -1.5582
    -1.5435  -1.4957  -1.4550  -1.4453  -1.4083  -1.3794  -1.3671  -1.3525
    -1.3371  -1.3202  -1.2834  -1.2702  -1.2576  -1.2360  -1.2059  -1.1394
    -1.1276  -1.1024  -1.0944  -1.0458  -1.0259  -1.0072  -0.9050  -0.8863
    -0.7258  -0.2680  -0.0405   0.2483   0.5973   0.9108   1.1991   1.4718
     1.7083   1.9178   2.0699   2.1487   2.2713   2.3190   2.3352   2.3461
     2.3643   2.4305   2.4510   2.4546   2.5113   2.5268   2.5529   2.5927
     2.6376   2.6965   2.7438   2.8290   2.9239   2.9709   3.1727   3.2850
     3.3643   3.3683   3.3900   3.4564

          k = 0.0545-0.0315 0.0000 ( 20527 PWs)   bands (ev):

  -111.4734-111.4731-111.4731-111.3886-111.3831-111.3831-111.2106-111.2103
  -111.2102 -68.9195 -68.9183 -68.9178 -68.9163 -68.9158 -68.9145 -68.8482
   -68.8482 -68.8264 -68.8261 -68.7940 -68.7939 -68.7748 -68.7702 -68.7690
   -68.7257 -68.7252 -68.7236 -68.7085 -68.6883 -68.6882 -68.6003 -68.5987
   -68.5982 -68.5106 -68.5079 -68.5070 -32.5300 -32.3365 -31.5459 -16.2052
   -16.0663 -16.0553 -16.0202 -15.9410 -15.9262 -15.2858 -15.2711 -15.2153
    -4.2989  -3.2012  -2.6847  -2.5759  -2.4778  -2.4369  -2.3418  -2.3291
    -2.2283  -2.1913  -2.1867  -2.0860  -2.0248  -1.9441  -1.8710  -1.8616
    -1.7549  -1.7543  -1.7370  -1.7166  -1.6559  -1.6234  -1.5942  -1.5520
    -1.5015  -1.4743  -1.4628  -1.4024  -1.4022  -1.3784  -1.3530  -1.3191
    -1.3079  -1.2969  -1.2744  -1.2508  -1.2027  -1.1933  -1.1208  -1.0984
    -1.0865  -1.0445  -1.0232  -1.0151  -0.9887  -0.9470  -0.8913  -0.8561
    -0.6911  -0.0514   0.2370   0.3666   0.8196   0.8226   1.3604   1.5516
     1.7023   1.8860   1.9951   2.1940   2.2546   2.3097   2.3380   2.3454
     2.3745   2.3967   2.4223   2.4284   2.4942   2.5233   2.5579   2.5757
     2.6008   2.7428   2.8336   2.8345   2.9664   3.0321   3.2450   3.2917
     3.3382   3.3577   3.4252   3.4652

          k = 0.0545 0.0000 0.0000 ( 20489 PWs)   bands (ev):

  -111.4734-111.4731-111.4731-111.3886-111.3831-111.3831-111.2106-111.2103
  -111.2102 -68.9195 -68.9183 -68.9179 -68.9163 -68.9158 -68.9144 -68.8482
   -68.8482 -68.8264 -68.8261 -68.7940 -68.7939 -68.7750 -68.7699 -68.7690
   -68.7257 -68.7253 -68.7235 -68.7085 -68.6882 -68.6882 -68.6004 -68.5986
   -68.5982 -68.5107 -68.5077 -68.5070 -32.5301 -32.3366 -31.5460 -16.2052
   -16.0626 -16.0554 -16.0197 -15.9359 -15.9262 -15.2813 -15.2715 -15.2159
    -4.4242  -3.2074  -2.6914  -2.6571  -2.5492  -2.4562  -2.4117  -2.3491
    -2.2477  -2.2332  -2.1988  -2.1017  -2.0413  -1.9862  -1.8582  -1.8303
    -1.8144  -1.7427  -1.7264  -1.7162  -1.6621  -1.6358  -1.5670  -1.5566
    -1.4971  -1.4764  -1.4582  -1.4120  -1.3875  -1.3722  -1.3561  -1.3159
    -1.2985  -1.2866  -1.2557  -1.2379  -1.1707  -1.1612  -1.1151  -1.0799
    -1.0545  -1.0357  -1.0301  -0.9743  -0.9427  -0.9030  -0.8691  -0.7354
    -0.6973  -0.1573   0.2770   0.3894   0.9479   1.0333   1.3208   1.4633
     1.7643   1.9210   2.0701   2.2145   2.2839   2.3112   2.3304   2.3505
     2.3658   2.4072   2.4397   2.4617   2.4838   2.5186   2.5293   2.5654
     2.5816   2.7551   2.8893   2.9520   3.0168   3.1333   3.1911   3.2573
     3.3633   3.3840   3.4162   3.4693

          k =-0.0818-0.0472 0.0000 ( 20540 PWs)   bands (ev):

  -111.4733-111.4732-111.4730-111.3886-111.3831-111.3831-111.2105-111.2104
  -111.2102 -68.9193 -68.9182 -68.9176 -68.9166 -68.9158 -68.9147 -68.8482
   -68.8481 -68.8264 -68.8260 -68.7941 -68.7939 -68.7742 -68.7708 -68.7690
   -68.7257 -68.7248 -68.7239 -68.7085 -68.6883 -68.6882 -68.5999 -68.5990
   -68.5982 -68.5100 -68.5085 -68.5070 -32.5299 -32.3363 -31.5457 -16.2053
   -16.0718 -16.0571 -16.0209 -15.9486 -15.9290 -15.2921 -15.2728 -15.2139
    -3.9798  -3.2506  -2.5874  -2.4807  -2.3750  -2.2976  -2.2721  -2.1970
    -2.1706  -2.1379  -2.0678  -2.0441  -1.9864  -1.9594  -1.9318  -1.8735
    -1.7850  -1.7701  -1.7168  -1.6832  -1.6396  -1.6318  -1.6065  -1.5145
    -1.5013  -1.5012  -1.4746  -1.4003  -1.4000  -1.3923  -1.3883  -1.3554
    -1.3415  -1.3216  -1.2970  -1.2948  -1.2472  -1.2276  -1.2083  -1.1804
    -1.1311  -1.1199  -1.1084  -1.0671  -1.0154  -1.0073  -0.8817  -0.8641
    -0.6657  -0.2030   0.2253   0.3651   0.4741   0.8204   1.0115   1.5186
     1.8079   1.9279   1.9542   2.0496   2.0837   2.2615   2.3363   2.3418
     2.3555   2.4288   2.4288   2.4452   2.5079   2.5344   2.5841   2.5844
     2.6423   2.6854   2.7338   2.7533   2.8909   3.0522   3.0627   3.3310
     3.3411   3.3697   3.4128   3.4612

          k =-0.0818-0.0157 0.0000 ( 20561 PWs)   bands (ev):

  -111.4733-111.4732-111.4730-111.3886-111.3831-111.3831-111.2105-111.2104
  -111.2102 -68.9192 -68.9184 -68.9176 -68.9166 -68.9157 -68.9148 -68.8482
   -68.8481 -68.8264 -68.8260 -68.7940 -68.7939 -68.7742 -68.7708 -68.7690
   -68.7257 -68.7248 -68.7239 -68.7085 -68.6883 -68.6882 -68.5999 -68.5990
   -68.5982 -68.5100 -68.5085 -68.5070 -32.5299 -32.3363 -31.5457 -16.2052
   -16.0698 -16.0595 -16.0205 -15.9454 -15.9324 -15.2888 -15.2761 -15.2139
    -4.0156  -3.1473  -2.6165  -2.4935  -2.3416  -2.3010  -2.2577  -2.2083
    -2.1531  -2.1294  -2.0982  -2.0377  -1.9666  -1.9518  -1.9009  -1.8673
    -1.7816  -1.7717  -1.7514  -1.7114  -1.6557  -1.6257  -1.6062  -1.5582
    -1.5435  -1.4957  -1.4550  -1.4454  -1.4083  -1.3794  -1.3671  -1.3525
    -1.3370  -1.3202  -1.2834  -1.2702  -1.2576  -1.2360  -1.2059  -1.1394
    -1.1276  -1.1024  -1.0944  -1.0458  -1.0259  -1.0072  -0.9050  -0.8863
    -0.7258  -0.2680  -0.0405   0.2483   0.5973   0.9108   1.1991   1.4718
     1.7083   1.9178   2.0699   2.1487   2.2713   2.3190   2.3352   2.3461
     2.3643   2.4305   2.4510   2.4546   2.5113   2.5268   2.5529   2.5927
     2.6376   2.6965   2.7438   2.8290   2.9239   2.9709   3.1727   3.2850
     3.3643   3.3683   3.3900   3.4564

          k =-0.0818 0.0157 0.0000 ( 20561 PWs)   bands (ev):

  -111.4733-111.4732-111.4730-111.3886-111.3831-111.3831-111.2105-111.2104
  -111.2102 -68.9192 -68.9184 -68.9176 -68.9166 -68.9157 -68.9148 -68.8482
   -68.8481 -68.8264 -68.8260 -68.7940 -68.7939 -68.7742 -68.7708 -68.7690
   -68.7257 -68.7248 -68.7239 -68.7085 -68.6883 -68.6882 -68.5999 -68.5990
   -68.5982 -68.5100 -68.5085 -68.5070 -32.5299 -32.3363 -31.5457 -16.2052
   -16.0698 -16.0595 -16.0205 -15.9454 -15.9324 -15.2888 -15.2761 -15.2139
    -4.0156  -3.1473  -2.6165  -2.4935  -2.3416  -2.3010  -2.2577  -2.2083
    -2.1531  -2.1294  -2.0982  -2.0377  -1.9666  -1.9518  -1.9009  -1.8673
    -1.7816  -1.7717  -1.7514  -1.7114  -1.6557  -1.6257  -1.6062  -1.5582
    -1.5435  -1.4957  -1.4550  -1.4454  -1.4083  -1.3794  -1.3671  -1.3525
    -1.3370  -1.3202  -1.2834  -1.2702  -1.2576  -1.2360  -1.2059  -1.1394
    -1.1276  -1.1024  -1.0944  -1.0458  -1.0259  -1.0072  -0.9050  -0.8863
    -0.7258  -0.2680  -0.0405   0.2483   0.5973   0.9108   1.1991   1.4717
     1.7083   1.9178   2.0699   2.1487   2.2713   2.3190   2.3352   2.3461
     2.3643   2.4305   2.4510   2.4546   2.5113   2.5268   2.5529   2.5927
     2.6376   2.6965   2.7438   2.8290   2.9239   2.9709   3.1727   3.2850
     3.3643   3.3683   3.3901   3.4564

          k =-0.0818-0.1417 0.0000 ( 20540 PWs)   bands (ev):

  -111.4733-111.4732-111.4731-111.3886-111.3831-111.3831-111.2105-111.2104
  -111.2102 -68.9193 -68.9182 -68.9176 -68.9166 -68.9158 -68.9147 -68.8482
   -68.8481 -68.8264 -68.8260 -68.7941 -68.7939 -68.7742 -68.7708 -68.7690
   -68.7257 -68.7248 -68.7239 -68.7085 -68.6883 -68.6882 -68.5999 -68.5990
   -68.5982 -68.5100 -68.5085 -68.5070 -32.5299 -32.3363 -31.5457 -16.2053
   -16.0718 -16.0571 -16.0209 -15.9486 -15.9290 -15.2921 -15.2728 -15.2139
    -3.9798  -3.2506  -2.5875  -2.4807  -2.3750  -2.2976  -2.2721  -2.1970
    -2.1706  -2.1379  -2.0678  -2.0441  -1.9864  -1.9594  -1.9318  -1.8735
    -1.7850  -1.7701  -1.7168  -1.6832  -1.6396  -1.6318  -1.6065  -1.5145
    -1.5013  -1.5012  -1.4746  -1.4003  -1.4000  -1.3923  -1.3883  -1.3554
    -1.3415  -1.3216  -1.2970  -1.2948  -1.2472  -1.2276  -1.2083  -1.1804
    -1.1311  -1.1199  -1.1084  -1.0671  -1.0154  -1.0072  -0.8817  -0.8641
    -0.6657  -0.2030   0.2253   0.3651   0.4741   0.8204   1.0115   1.5186
     1.8079   1.9279   1.9542   2.0496   2.0837   2.2615   2.3363   2.3418
     2.3555   2.4288   2.4288   2.4452   2.5079   2.5344   2.5841   2.5844
     2.6423   2.6854   2.7338   2.7533   2.8909   3.0522   3.0627   3.3310
     3.3411   3.3697   3.4128   3.4612

     the Fermi energy is     1.1317 ev

!    total energy              =   -3956.45308873 Ry
     Harris-Foulkes estimate   =   -3956.45308750 Ry
     estimated scf accuracy    <       0.00000026 Ry

     The total energy is the sum of the following terms:

     one-electron contribution =  -22135.12092339 Ry
     hartree contribution      =   11084.05804729 Ry
     xc contribution           =    -511.84536957 Ry
     ewald contribution        =    7606.49660634 Ry
     electric field correction =       0.00008471 Ry
     smearing contrib. (-TS)   =      -0.04153411 Ry

     convergence has been achieved in  21 iterations
 
 BEEF-vdW xc energy contributions
           1 :   -453.631972550199     
           2 :    412.680726217043     
           3 :   -342.598347325778     
           4 :    261.640666586277     
           5 :   -186.969202704592     
           6 :    128.850566056193     
           7 :   -88.9766322879869     
           8 :    62.8590129547745     
           9 :   -44.2766293065667     
          10 :    29.0472258645153     
          11 :   -16.2703271817453     
          12 :    7.01432292171864     
          13 :   -2.00580870170950     
          14 :   0.194136577434222     
          15 :   0.892627735535029     
          16 :   -3.50867316816675     
          17 :    8.13936235589711     
          18 :   -13.2215499050351     
          19 :    16.3081575594936     
          20 :   -15.8113151123887     
          21 :    12.1029090180315     
          22 :   -7.27136602324748     
          23 :    3.78105553425712     
          24 :   -2.99185869926004     
          25 :    4.50541999112829     
          26 :   -6.67580508245334     
          27 :    7.82335331111915     
          28 :   -7.28417167768669     
          29 :    5.63761678512952     
          30 :   -4.08121793195335     
          31 :   -36.7464575492688     
          32 :   -25.3523336170782     

     Forces acting on atoms (Ry/au):


     negative rho (up, down):  1.519E-01 0.000E+00
     atom    1 type  1   force =     0.00000032   -0.01218323    0.01429321
     atom    2 type  1   force =    -0.01055022    0.00609252    0.01429424
     atom    3 type  1   force =     0.01055084    0.00609153    0.01429366
     atom    4 type  2   force =    -0.00000024    0.00000059   -0.01545167
     atom    5 type  1   force =    -0.00000025    0.00999961   -0.00252692
     atom    6 type  1   force =     0.00865896   -0.00499918   -0.00252772
     atom    7 type  1   force =    -0.00865832   -0.00499965   -0.00252730
     atom    8 type  2   force =    -0.00000027   -0.00000014   -0.01348709
     atom    9 type  1   force =    -0.00000072    0.00040483   -0.00154679
     atom   10 type  1   force =     0.00035219   -0.00020336   -0.00154771
     atom   11 type  1   force =    -0.00035250   -0.00020293   -0.00154982
     atom   12 type  2   force =     0.00000021   -0.00000058   -0.00171609

     Total force =     0.042527     Total SCF correction =     0.002708


     entering subroutine stress ...


     negative rho (up, down):  1.519E-01 0.000E+00
          total   stress  (Ry/bohr**3)                   (kbar)     P=  -12.55
  -0.00009283  -0.00000000  -0.00000000        -13.66     -0.00     -0.00
  -0.00000000  -0.00009283  -0.00000000         -0.00    -13.66     -0.00
  -0.00000000  -0.00000000  -0.00007038         -0.00     -0.00    -10.35

 !ASE

     Writing output data file calc.save
 
     init_run     :     24.81s CPU     37.82s WALL (       1 calls)
     electrons    :   1289.16s CPU   2044.59s WALL (       1 calls)
     forces       :      3.45s CPU      4.20s WALL (       1 calls)
     stress       :      8.97s CPU     10.53s WALL (       1 calls)

     Called by init_run:
     wfcinit      :     22.24s CPU     34.25s WALL (       1 calls)
     potinit      :      1.41s CPU      2.24s WALL (       1 calls)

     Called by electrons:
     c_bands      :   1049.67s CPU   1656.62s WALL (      21 calls)
     sum_band     :    166.49s CPU    278.17s WALL (      21 calls)
     v_of_rho     :     25.94s CPU     40.77s WALL (      22 calls)
     newd         :      9.68s CPU     10.13s WALL (      22 calls)
     mix_rho      :      1.23s CPU      1.92s WALL (      21 calls)
     vdW_energy   :      2.15s CPU      2.16s WALL (      58 calls)
     vdW_ffts     :     42.06s CPU     68.05s WALL (     118 calls)
     vdW_v        :      7.04s CPU     10.97s WALL (      58 calls)

     Called by c_bands:
     init_us_2    :      0.63s CPU      0.68s WALL (     900 calls)
     cegterg      :   1038.34s CPU   1641.26s WALL (     420 calls)

     Called by *egterg:
     h_psi        :    692.30s CPU   1220.06s WALL (    2077 calls)
     s_psi        :     10.78s CPU     10.96s WALL (    2077 calls)
     g_psi        :      0.53s CPU      0.52s WALL (    1637 calls)
     cdiaghg      :    250.42s CPU    292.20s WALL (    2057 calls)

     Called by h_psi:
     add_vuspsi   :     11.13s CPU     11.24s WALL (    2077 calls)

     General routines
     calbec       :     34.86s CPU     47.56s WALL (    2537 calls)
     fft          :     64.43s CPU    104.46s WALL (    3555 calls)
     ffts         :      0.24s CPU      0.41s WALL (      43 calls)
     fftw         :    790.87s CPU   1414.93s WALL (  327542 calls)
     interpolate  :      1.07s CPU      1.75s WALL (      43 calls)
     davcio       :      0.00s CPU      0.02s WALL (      20 calls)
 
     Parallel routines
     fft_scatter  :    826.31s CPU   1488.00s WALL (  331140 calls)
 
     PWSCF        : 22m 7.53s CPU    34m59.10s WALL

 
   This run was terminated on:   6:46:29  26Dec2018            

=------------------------------------------------------------------------------=
   JOB DONE.
=------------------------------------------------------------------------------=
Job  /afs/slac/g/suncat/bin/suncat-tsmpirun -x LD_LIBRARY_PATH -wdir /scratch/qe109572_UwZf0 pw.x -in pw.inp

TID   HOST_NAME   COMMAND_LINE            STATUS            TERMINATION_TIME
===== ========== ================  =======================  ===================
00000 suncat0108 pw.x -in pw.inp   Done                     12/26/2018 06:46:29
00001 suncat0108 pw.x -in pw.inp   Done                     12/26/2018 06:46:29
00002 suncat0108 pw.x -in pw.inp   Done                     12/26/2018 06:46:29
00003 suncat0108 pw.x -in pw.inp   Done                     12/26/2018 06:46:29
00004 suncat0108 pw.x -in pw.inp   Done                     12/26/2018 06:46:29
00005 suncat0108 pw.x -in pw.inp   Done                     12/26/2018 06:46:29
00006 suncat0108 pw.x -in pw.inp   Done                     12/26/2018 06:46:29
00007 suncat0108 pw.x -in pw.inp   Done                     12/26/2018 06:46:29
00008 suncat0107 pw.x -in pw.inp   Done                     12/26/2018 06:46:29
00009 suncat0107 pw.x -in pw.inp   Done                     12/26/2018 06:46:29
00010 suncat0107 pw.x -in pw.inp   Done                     12/26/2018 06:46:29
00011 suncat0107 pw.x -in pw.inp   Done                     12/26/2018 06:46:29
00012 suncat0107 pw.x -in pw.inp   Done                     12/26/2018 06:46:29
00013 suncat0107 pw.x -in pw.inp   Done                     12/26/2018 06:46:29
00014 suncat0107 pw.x -in pw.inp   Done                     12/26/2018 06:46:29
00015 suncat0107 pw.x -in pw.inp   Done                     12/26/2018 06:46:29
00016 suncat0106 pw.x -in pw.inp   Done                     12/26/2018 06:46:29
00017 suncat0106 pw.x -in pw.inp   Done                     12/26/2018 06:46:29
00018 suncat0106 pw.x -in pw.inp   Done                     12/26/2018 06:46:29
00019 suncat0106 pw.x -in pw.inp   Done                     12/26/2018 06:46:29
00020 suncat0106 pw.x -in pw.inp   Done                     12/26/2018 06:46:29
00021 suncat0106 pw.x -in pw.inp   Done                     12/26/2018 06:46:29
00022 suncat0106 pw.x -in pw.inp   Done                     12/26/2018 06:46:29
00023 suncat0106 pw.x -in pw.inp   Done                     12/26/2018 06:46:29
00024 suncat0105 pw.x -in pw.inp   Done                     12/26/2018 06:46:29
00025 suncat0105 pw.x -in pw.inp   Done                     12/26/2018 06:46:29
00026 suncat0105 pw.x -in pw.inp   Done                     12/26/2018 06:46:29
00027 suncat0105 pw.x -in pw.inp   Done                     12/26/2018 06:46:29
00028 suncat0105 pw.x -in pw.inp   Done                     12/26/2018 06:46:29
00029 suncat0105 pw.x -in pw.inp   Done                     12/26/2018 06:46:29
00030 suncat0105 pw.x -in pw.inp   Done                     12/26/2018 06:46:29
00031 suncat0105 pw.x -in pw.inp   Done                     12/26/2018 06:46:29
00032 suncat0238 pw.x -in pw.inp   Done                     12/26/2018 06:46:29
00033 suncat0238 pw.x -in pw.inp   Done                     12/26/2018 06:46:29
00034 suncat0238 pw.x -in pw.inp   Done                     12/26/2018 06:46:29
00035 suncat0238 pw.x -in pw.inp   Done                     12/26/2018 06:46:29
00036 suncat0238 pw.x -in pw.inp   Done                     12/26/2018 06:46:29
00037 suncat0238 pw.x -in pw.inp   Done                     12/26/2018 06:46:29
00038 suncat0238 pw.x -in pw.inp   Done                     12/26/2018 06:46:29
00039 suncat0238 pw.x -in pw.inp   Done                     12/26/2018 06:46:29
00040 suncat0237 pw.x -in pw.inp   Done                     12/26/2018 06:46:29
00041 suncat0237 pw.x -in pw.inp   Done                     12/26/2018 06:46:29
00042 suncat0237 pw.x -in pw.inp   Done                     12/26/2018 06:46:29
00043 suncat0237 pw.x -in pw.inp   Done                     12/26/2018 06:46:29
00044 suncat0237 pw.x -in pw.inp   Done                     12/26/2018 06:46:29
00045 suncat0237 pw.x -in pw.inp   Done                     12/26/2018 06:46:29
00046 suncat0237 pw.x -in pw.inp   Done                     12/26/2018 06:46:29
00047 suncat0237 pw.x -in pw.inp   Done                     12/26/2018 06:46:29
00048 suncat0236 pw.x -in pw.inp   Done                     12/26/2018 06:46:29
00049 suncat0236 pw.x -in pw.inp   Done                     12/26/2018 06:46:29
00050 suncat0236 pw.x -in pw.inp   Done                     12/26/2018 06:46:29
00051 suncat0236 pw.x -in pw.inp   Done                     12/26/2018 06:46:29
00052 suncat0236 pw.x -in pw.inp   Done                     12/26/2018 06:46:29
00053 suncat0236 pw.x -in pw.inp   Done                     12/26/2018 06:46:29
00054 suncat0236 pw.x -in pw.inp   Done                     12/26/2018 06:46:29
00055 suncat0236 pw.x -in pw.inp   Done                     12/26/2018 06:46:29
00056 suncat0235 pw.x -in pw.inp   Done                     12/26/2018 06:46:29
00057 suncat0235 pw.x -in pw.inp   Done                     12/26/2018 06:46:29
00058 suncat0235 pw.x -in pw.inp   Done                     12/26/2018 06:46:29
00059 suncat0235 pw.x -in pw.inp   Done                     12/26/2018 06:46:29
00060 suncat0235 pw.x -in pw.inp   Done                     12/26/2018 06:46:29
00061 suncat0235 pw.x -in pw.inp   Done                     12/26/2018 06:46:29
00062 suncat0235 pw.x -in pw.inp   Done                     12/26/2018 06:46:29
00063 suncat0235 pw.x -in pw.inp   Done                     12/26/2018 06:46:29
