  python dir          : /u/if/mamunm/src/espresso
  espresso dir        : /nfs/slac/g/suncatfs/sw/espv18/espresso-dynpy-beef/bin
  pseudo dir          : /afs/slac.stanford.edu/u/if/mamunm/psp/gbrv1.5pbe
  ase-espresso py git : GITVERSION



     Program PWSCF v.5.1rc2 (svn rev. 11289) starts on 27Dec2018 at  4:18:49 

     This program is part of the open-source Quantum ESPRESSO suite
     for quantum simulation of materials; please cite
         "P. Giannozzi et al., J. Phys.:Condens. Matter 21 395502 (2009);
          URL http://www.quantum-espresso.org", 
     in publications or presentations arising from this work. More details at
     http://www.quantum-espresso.org/quote

     Parallel version (MPI), running on    64 processors
     R & G space division:  proc/nbgrp/npool/nimage =      64
     Reading input from pw.inp
     Message from routine read_cards :
     DEPRECATED: no units specified in CELL_PARAMETERS card

     Current dimensions of program PWSCF are:
     Max number of different atomic species (ntypx) = 10
     Max number of k-points (npk) =  40000
     Max angular momentum in pseudopotentials (lmaxx) =  3
     Presently stress not available with electric field


     **************************************************************************
     Initializing libbeef V0.1.1 with the BEEF-vdW functional.
     Citation: Wellendorff et al., PRB 85, 235149 (2012).
     **************************************************************************


     IMPORTANT: XC functional enforced from input :
     Exchange-correlation      = BEEF-VDW ( 1  4 27 13 2)
     Any further DFT definition will be discarded
     Please, verify this is what you really want


     Subspace diagonalization in iterative solution of the eigenvalue problem:
     a serial algorithm will be used

 
     Parallelization info
     --------------------
     sticks:   dense  smooth     PW     G-vecs:    dense   smooth      PW
     Min          46      18      5                 8866     2220     359
     Max          47      19      6                 8891     2275     384
     Sum        3001    1189    361               568413   143737   23787
 


     bravais-lattice index     =            0
     lattice parameter (alat)  =       1.8897  a.u.
     unit-cell volume          =    4778.3177 (a.u.)^3
     number of atoms/cell      =           12
     number of atomic types    =            2
     number of electrons       =       165.00
     number of Kohn-Sham states=          112
     kinetic-energy cutoff     =      36.7493  Ry
     charge density cutoff     =     367.4932  Ry
     convergence threshold     =      1.0E-06
     mixing beta               =       0.1000
     number of iterations used =           10  plain     mixing
     Exchange-correlation      = BEEF-VDW ( 1  4 27 13 2)
     nstep                     =           50


     celldm(1)=   1.889726  celldm(2)=   0.000000  celldm(3)=   0.000000
     celldm(4)=   0.000000  celldm(5)=   0.000000  celldm(6)=   0.000000

     crystal axes: (cart. coord. in units of alat)
               a(1) = (   5.753662   0.000000   0.000000 )  
               a(2) = (  -2.876831   4.982818   0.000000 )  
               a(3) = (   0.000000   0.000000  24.697845 )  

     reciprocal axes: (cart. coord. in units 2 pi/alat)
               b(1) = (  0.173802  0.100345  0.000000 )  
               b(2) = (  0.000000  0.200690  0.000000 )  
               b(3) = (  0.000000  0.000000  0.040489 )  


     PseudoPot. # 1 for Mo read from file:
     /afs/slac.stanford.edu/u/if/mamunm/psp/gbrv1.5pbe/Mo.UPF
     MD5 check sum: 30c4dcd161f5d35cd49bb5239c51a633
     Pseudo is Ultrasoft + core correction, Zval = 14.0
     Generated by new atomic code, or converted to UPF format
     Using radial grid of  889 points,  6 beta functions with: 
                l(1) =   0
                l(2) =   0
                l(3) =   1
                l(4) =   1
                l(5) =   2
                l(6) =   2
     Q(r) pseudized with  6 coefficients,  rinner =    1.000   1.000   1.000
                                                       1.000   1.000

     PseudoPot. # 2 for Ta read from file:
     /afs/slac.stanford.edu/u/if/mamunm/psp/gbrv1.5pbe/Ta.UPF
     MD5 check sum: f8bbe9446314a3b8ea5d9f3e3836c939
     Pseudo is Ultrasoft + core correction, Zval = 13.0
     Generated by new atomic code, or converted to UPF format
     Using radial grid of  921 points,  7 beta functions with: 
                l(1) =   0
                l(2) =   0
                l(3) =   1
                l(4) =   1
                l(5) =   2
                l(6) =   2
                l(7) =   3
     Q(r) pseudized with  6 coefficients,  rinner =    1.300   1.300   1.300
                                                       1.300   1.300   1.300
                                                       1.300

     vdW kernel table read from file vdW_kernel_table
     MD5 check sum: 095c7af220d748ca6e76c0b4c6cfb241

     atomic species   valence    mass     pseudopotential
        Mo1           14.00    95.95000     Mo( 1.00)
        Ta1           13.00   180.94788     Ta( 1.00)

     No symmetry found



   Cartesian axes

     site n.     atom                  positions (alat units)
         1           Mo1 tau(   1) = (   0.0000000   0.0000000  10.0000000  )
         2           Mo1 tau(   2) = (  -1.4384155   2.4914088  10.0000000  )
         3           Mo1 tau(   3) = (   1.4384155   2.4914088  10.0000000  )
         4           Ta1 tau(   4) = (   2.8768311   0.0000000  10.0000000  )
         5           Mo1 tau(   5) = (   2.8768311   1.6609392  12.3489227  )
         6           Mo1 tau(   6) = (   1.4384155   4.1523480  12.3489227  )
         7           Mo1 tau(   7) = (  -1.4384155   4.1523480  12.3489227  )
         8           Ta1 tau(   8) = (   0.0000000   1.6609392  12.3489227  )
         9           Mo1 tau(   9) = (  -0.0000000   3.3218784  14.6978455  )
        10           Mo1 tau(  10) = (   1.4384155   0.8304696  14.6978455  )
        11           Mo1 tau(  11) = (   4.3152466   0.8304696  14.6978455  )
        12           Ta1 tau(  12) = (   2.8768311   3.3218784  14.6978455  )

     number of k points=    20  Fermi-Dirac smearing, width (Ry)=  0.0110
                       cart. coord. in units 2pi/alat
        k(    1) = (   0.0000000   0.0000000   0.0000000), wk =   0.0555556
        k(    2) = (   0.0000000   0.0334483   0.0000000), wk =   0.1111111
        k(    3) = (   0.0000000   0.0668966   0.0000000), wk =   0.1111111
        k(    4) = (   0.0000000  -0.1003448   0.0000000), wk =   0.0555556
        k(    5) = (   0.0289671   0.0167241   0.0000000), wk =   0.1111111
        k(    6) = (   0.0289671   0.0501724   0.0000000), wk =   0.1111111
        k(    7) = (   0.0289671   0.0836207   0.0000000), wk =   0.1111111
        k(    8) = (   0.0289671  -0.0836207   0.0000000), wk =   0.1111111
        k(    9) = (   0.0289671  -0.0501724   0.0000000), wk =   0.1111111
        k(   10) = (   0.0289671  -0.0167241   0.0000000), wk =   0.1111111
        k(   11) = (   0.0579341   0.0334483   0.0000000), wk =   0.1111111
        k(   12) = (   0.0579341   0.0668966   0.0000000), wk =   0.1111111
        k(   13) = (   0.0579341   0.1003448   0.0000000), wk =   0.1111111
        k(   14) = (   0.0579341  -0.0668966   0.0000000), wk =   0.1111111
        k(   15) = (   0.0579341  -0.0334483   0.0000000), wk =   0.1111111
        k(   16) = (   0.0579341   0.0000000   0.0000000), wk =   0.1111111
        k(   17) = (  -0.0869012  -0.0501724   0.0000000), wk =   0.0555556
        k(   18) = (  -0.0869012  -0.0167241   0.0000000), wk =   0.1111111
        k(   19) = (  -0.0869012   0.0167241   0.0000000), wk =   0.1111111
        k(   20) = (  -0.0869012  -0.1505172   0.0000000), wk =   0.0555556

     Dense  grid:   568413 G-vectors     FFT dimensions: (  72,  72, 288)

     Smooth grid:   143737 G-vectors     FFT dimensions: (  45,  45, 192)

     Largest allocated arrays     est. size (Mb)     dimensions
        Kohn-Sham Wavefunctions         0.52 Mb     (     305,  112)
        NL pseudopotentials             1.10 Mb     (     305,  237)
        Each V/rho on FFT grid          0.40 Mb     (   25920)
        Each G-vector array             0.07 Mb     (    8885)
        G-vector shells                 0.03 Mb     (    4466)
     Largest temporary arrays     est. size (Mb)     dimensions
        Auxiliary wavefunctions         2.08 Mb     (     305,  448)
        Each subspace H/S matrix        3.06 Mb     (     448,  448)
        Each <psi_i|beta_j> matrix      0.41 Mb     (     237,  112)
        Arrays for rho mixing           3.96 Mb     (   25920,   10)

     Initial potential from superposition of free atoms
     Check: negative starting charge=   -0.283371

     starting charge  164.98709, renormalised to  165.00000

     negative rho (up, down):  2.834E-01 0.000E+00


     ************************************************************************
     *
     * You are using vdW-DF for exchange-correlation in this calculation.
     * Please cite the following three references that made this development
     * possible:
     *
     *   M. Dion, H. Rydberg, E. Schroder, D. C. Langreth, and
     *   B. I. Lundqvist, Phys. Rev. Lett. 92, 246401 (2004).
     *
     *   T. Thonhauser, V. R. Cooper, S. Li, A. Puzder, P. Hyldgaard, and
     *   D. C. Langreth, Phys. Rev. B 76, 125112 (2007).
     *
     *   G. Roman-Perez and J. M. Soler, Phys. Rev. Lett. 103, 096102 (2009).
     *
     *
     * If you are using vdW-DF2, please also cite:
     *
     *   K. Lee, E. D. Murray, L. Kong, B. I. Lundqvist, and
     *   D. C. Langreth, Phys. Rev. B 82, 081101(R) (2010).
     *
     *
     * If you are calculating the stress with vdW-DF, please also cite:
     *
     *   R. Sabatini, E. Kucukbenli, B. Kolb, T. Thonhauser, and
     *   S. de Gironcoli, J. Phys.: Condens. Matter 24, 424209 (2012).
     *
     ************************************************************************

     Carrying out vdW-DF run using the following parameters:

     Nqs =      20    Nr_points =    1024   r_max =   100.000
     q_mesh =
               0.00001000     0.04494208     0.09755937     0.15916263
               0.23128650     0.31572767     0.41458969     0.53033537
               0.66584808     0.82450364     1.01025438     1.22772762
               1.48234092     1.78043706     2.12944203     2.53805004
               3.01644009     3.57652955     4.23227104     5.00000000

     Gradients computed in reciprocal space

     ************************************************************************


 
     Adding external electric field

     Computed dipole along edir(3) : 
        Dipole               -0.0000 Ry au,         -0.0000 Debye
        Dipole field         -0.0000 Ry au
 
        Potential amp.        0.0000 Ry
        Total length         45.5054 bohr
 
     Starting wfc are  156 randomized atomic wfcs

     total cpu time spent up to now is       16.0 secs

     per-process dynamical memory:    40.7 Mb

     Self-consistent Calculation

     iteration #  1     ecut=    36.75 Ry     beta=0.10
     Davidson diagonalization with overlap
     ethr =  1.00E-02,  avg # of iterations =  2.0

     negative rho (up, down):  2.846E-01 0.000E+00
 
     Adding external electric field

     Computed dipole along edir(3) : 
        Dipole               -0.0000 Ry au,         -0.0000 Debye
        Dipole field         -0.0000 Ry au
 
        Potential amp.        0.0000 Ry
        Total length         45.5054 bohr
 

     total cpu time spent up to now is       45.6 secs

     total energy              =   -1688.31947189 Ry
     Harris-Foulkes estimate   =   -1689.61160772 Ry
     estimated scf accuracy    <       7.23925106 Ry

     iteration #  2     ecut=    36.75 Ry     beta=0.10
     Davidson diagonalization with overlap
     ethr =  4.39E-03,  avg # of iterations =  1.6

     negative rho (up, down):  2.852E-01 0.000E+00
 
     Adding external electric field

     Computed dipole along edir(3) : 
        Dipole               -0.0006 Ry au,         -0.0015 Debye
        Dipole field         -0.0000 Ry au
 
        Potential amp.        0.0001 Ry
        Total length         45.5054 bohr
 

     total cpu time spent up to now is       73.8 secs

     total energy              =   -1688.75336894 Ry
     Harris-Foulkes estimate   =   -1689.36597078 Ry
     estimated scf accuracy    <       6.40288083 Ry

     iteration #  3     ecut=    36.75 Ry     beta=0.10
     Davidson diagonalization with overlap
     ethr =  3.88E-03,  avg # of iterations =  1.3

     negative rho (up, down):  2.869E-01 0.000E+00
 
     Adding external electric field

     Computed dipole along edir(3) : 
        Dipole                0.0050 Ry au,          0.0127 Debye
        Dipole field          0.0000 Ry au
 
        Potential amp.       -0.0012 Ry
        Total length         45.5054 bohr
 

     total cpu time spent up to now is      100.9 secs

     total energy              =   -1688.93972225 Ry
     Harris-Foulkes estimate   =   -1689.05445666 Ry
     estimated scf accuracy    <       0.56409601 Ry

     iteration #  4     ecut=    36.75 Ry     beta=0.10
     Davidson diagonalization with overlap
     ethr =  3.42E-04,  avg # of iterations =  2.5

     negative rho (up, down):  2.888E-01 0.000E+00
 
     Adding external electric field

     Computed dipole along edir(3) : 
        Dipole               -0.0956 Ry au,         -0.2430 Debye
        Dipole field         -0.0003 Ry au
 
        Potential amp.        0.0229 Ry
        Total length         45.5054 bohr
 

     total cpu time spent up to now is      130.3 secs

     total energy              =   -1688.94719351 Ry
     Harris-Foulkes estimate   =   -1688.97793623 Ry
     estimated scf accuracy    <       0.16720112 Ry

     iteration #  5     ecut=    36.75 Ry     beta=0.10
     Davidson diagonalization with overlap
     ethr =  1.01E-04,  avg # of iterations =  5.0

     negative rho (up, down):  2.890E-01 0.000E+00
 
     Adding external electric field

     Computed dipole along edir(3) : 
        Dipole                0.0064 Ry au,          0.0162 Debye
        Dipole field          0.0000 Ry au
 
        Potential amp.       -0.0015 Ry
        Total length         45.5054 bohr
 

     total cpu time spent up to now is      163.8 secs

     total energy              =   -1688.94735601 Ry
     Harris-Foulkes estimate   =   -1688.96867036 Ry
     estimated scf accuracy    <       0.98905952 Ry

     iteration #  6     ecut=    36.75 Ry     beta=0.10
     Davidson diagonalization with overlap
     ethr =  1.01E-04,  avg # of iterations =  1.0

     negative rho (up, down):  2.905E-01 0.000E+00
 
     Adding external electric field

     Computed dipole along edir(3) : 
        Dipole                0.0003 Ry au,          0.0007 Debye
        Dipole field          0.0000 Ry au
 
        Potential amp.       -0.0001 Ry
        Total length         45.5054 bohr
 

     total cpu time spent up to now is      190.7 secs

     total energy              =   -1688.94941468 Ry
     Harris-Foulkes estimate   =   -1688.95856198 Ry
     estimated scf accuracy    <       0.06757297 Ry

     iteration #  7     ecut=    36.75 Ry     beta=0.10
     Davidson diagonalization with overlap
     ethr =  4.10E-05,  avg # of iterations =  1.4

     negative rho (up, down):  2.950E-01 0.000E+00
 
     Adding external electric field

     Computed dipole along edir(3) : 
        Dipole               -0.0000 Ry au,         -0.0001 Debye
        Dipole field         -0.0000 Ry au
 
        Potential amp.        0.0000 Ry
        Total length         45.5054 bohr
 

     total cpu time spent up to now is      219.0 secs

     total energy              =   -1688.94603153 Ry
     Harris-Foulkes estimate   =   -1688.95230766 Ry
     estimated scf accuracy    <       0.03085142 Ry

     iteration #  8     ecut=    36.75 Ry     beta=0.10
     Davidson diagonalization with overlap
     ethr =  1.87E-05,  avg # of iterations =  5.5

     negative rho (up, down):  2.950E-01 0.000E+00
 
     Adding external electric field

     Computed dipole along edir(3) : 
        Dipole                0.0006 Ry au,          0.0016 Debye
        Dipole field          0.0000 Ry au
 
        Potential amp.       -0.0001 Ry
        Total length         45.5054 bohr
 

     total cpu time spent up to now is      258.6 secs

     total energy              =   -1688.94847508 Ry
     Harris-Foulkes estimate   =   -1688.95163184 Ry
     estimated scf accuracy    <       0.01321537 Ry

     iteration #  9     ecut=    36.75 Ry     beta=0.10
     Davidson diagonalization with overlap
     ethr =  8.01E-06,  avg # of iterations =  2.9

     negative rho (up, down):  2.962E-01 0.000E+00
 
     Adding external electric field

     Computed dipole along edir(3) : 
        Dipole               -0.0007 Ry au,         -0.0017 Debye
        Dipole field         -0.0000 Ry au
 
        Potential amp.        0.0002 Ry
        Total length         45.5054 bohr
 

     total cpu time spent up to now is      288.7 secs

     total energy              =   -1688.94984803 Ry
     Harris-Foulkes estimate   =   -1688.94996552 Ry
     estimated scf accuracy    <       0.00231052 Ry

     iteration # 10     ecut=    36.75 Ry     beta=0.10
     Davidson diagonalization with overlap
     ethr =  1.40E-06,  avg # of iterations =  5.8

     negative rho (up, down):  2.972E-01 0.000E+00
 
     Adding external electric field

     Computed dipole along edir(3) : 
        Dipole                0.0005 Ry au,          0.0012 Debye
        Dipole field          0.0000 Ry au
 
        Potential amp.       -0.0001 Ry
        Total length         45.5054 bohr
 

     total cpu time spent up to now is      328.6 secs

     total energy              =   -1688.95011943 Ry
     Harris-Foulkes estimate   =   -1688.95026233 Ry
     estimated scf accuracy    <       0.00202581 Ry

     iteration # 11     ecut=    36.75 Ry     beta=0.10
     Davidson diagonalization with overlap
     ethr =  1.23E-06,  avg # of iterations =  2.0

     negative rho (up, down):  2.976E-01 0.000E+00
 
     Adding external electric field

     Computed dipole along edir(3) : 
        Dipole               -0.0000 Ry au,         -0.0000 Debye
        Dipole field         -0.0000 Ry au
 
        Potential amp.        0.0000 Ry
        Total length         45.5054 bohr
 

     total cpu time spent up to now is      357.0 secs

     total energy              =   -1688.95030237 Ry
     Harris-Foulkes estimate   =   -1688.95029723 Ry
     estimated scf accuracy    <       0.00027330 Ry

     iteration # 12     ecut=    36.75 Ry     beta=0.10
     Davidson diagonalization with overlap
     ethr =  1.66E-07,  avg # of iterations =  2.6

     negative rho (up, down):  2.976E-01 0.000E+00
 
     Adding external electric field

     Computed dipole along edir(3) : 
        Dipole               -0.0002 Ry au,         -0.0006 Debye
        Dipole field         -0.0000 Ry au
 
        Potential amp.        0.0001 Ry
        Total length         45.5054 bohr
 

     total cpu time spent up to now is      390.0 secs

     total energy              =   -1688.94935269 Ry
     Harris-Foulkes estimate   =   -1688.95034833 Ry
     estimated scf accuracy    <       0.00012274 Ry

     iteration # 13     ecut=    36.75 Ry     beta=0.10
     Davidson diagonalization with overlap
     ethr =  7.44E-08,  avg # of iterations =  2.4

     negative rho (up, down):  2.977E-01 0.000E+00
 
     Adding external electric field

     Computed dipole along edir(3) : 
        Dipole               -0.0000 Ry au,         -0.0001 Debye
        Dipole field         -0.0000 Ry au
 
        Potential amp.        0.0000 Ry
        Total length         45.5054 bohr
 

     total cpu time spent up to now is      421.1 secs

     total energy              =   -1688.94936719 Ry
     Harris-Foulkes estimate   =   -1688.94937454 Ry
     estimated scf accuracy    <       0.00004665 Ry

     iteration # 14     ecut=    36.75 Ry     beta=0.10
     Davidson diagonalization with overlap
     ethr =  2.83E-08,  avg # of iterations =  2.2

     negative rho (up, down):  2.977E-01 0.000E+00
 
     Adding external electric field

     Computed dipole along edir(3) : 
        Dipole                0.0000 Ry au,          0.0000 Debye
        Dipole field          0.0000 Ry au
 
        Potential amp.       -0.0000 Ry
        Total length         45.5054 bohr
 

     total cpu time spent up to now is      450.8 secs

     total energy              =   -1688.94937137 Ry
     Harris-Foulkes estimate   =   -1688.94937168 Ry
     estimated scf accuracy    <       0.00000521 Ry

     iteration # 15     ecut=    36.75 Ry     beta=0.10
     Davidson diagonalization with overlap
     ethr =  3.16E-09,  avg # of iterations =  3.1

     negative rho (up, down):  2.977E-01 0.000E+00
 
     Adding external electric field

     Computed dipole along edir(3) : 
        Dipole                0.0000 Ry au,          0.0001 Debye
        Dipole field          0.0000 Ry au
 
        Potential amp.       -0.0000 Ry
        Total length         45.5054 bohr
 

     total cpu time spent up to now is      486.4 secs

     total energy              =   -1688.94705426 Ry
     Harris-Foulkes estimate   =   -1688.94937253 Ry
     estimated scf accuracy    <       0.00000579 Ry

     iteration # 16     ecut=    36.75 Ry     beta=0.10
     Davidson diagonalization with overlap
     ethr =  3.16E-09,  avg # of iterations =  2.0

     negative rho (up, down):  2.977E-01 0.000E+00
 
     Adding external electric field

     Computed dipole along edir(3) : 
        Dipole                0.0000 Ry au,          0.0001 Debye
        Dipole field          0.0000 Ry au
 
        Potential amp.       -0.0000 Ry
        Total length         45.5054 bohr
 

     total cpu time spent up to now is      516.5 secs

     total energy              =   -1688.94705489 Ry
     Harris-Foulkes estimate   =   -1688.94705483 Ry
     estimated scf accuracy    <       0.00000122 Ry

     iteration # 17     ecut=    36.75 Ry     beta=0.10
     Davidson diagonalization with overlap
     ethr =  7.40E-10,  avg # of iterations =  2.2

     negative rho (up, down):  2.977E-01 0.000E+00

     negative rho (up, down):  2.977E-01 0.000E+00

     negative rho (up, down):  2.977E-01 0.000E+00

     negative rho (up, down):  2.977E-01 0.000E+00

     negative rho (up, down):  2.977E-01 0.000E+00

     negative rho (up, down):  2.977E-01 0.000E+00

     negative rho (up, down):  2.977E-01 0.000E+00

     negative rho (up, down):  2.977E-01 0.000E+00

     negative rho (up, down):  2.977E-01 0.000E+00

     negative rho (up, down):  2.977E-01 0.000E+00

     negative rho (up, down):  2.977E-01 0.000E+00

     negative rho (up, down):  2.977E-01 0.000E+00

     negative rho (up, down):  2.977E-01 0.000E+00

     negative rho (up, down):  2.977E-01 0.000E+00

     negative rho (up, down):  2.977E-01 0.000E+00

     negative rho (up, down):  2.977E-01 0.000E+00

     negative rho (up, down):  2.977E-01 0.000E+00

     negative rho (up, down):  2.977E-01 0.000E+00

     negative rho (up, down):  2.977E-01 0.000E+00

     negative rho (up, down):  2.977E-01 0.000E+00

     negative rho (up, down):  2.977E-01 0.000E+00

     negative rho (up, down):  2.977E-01 0.000E+00

     negative rho (up, down):  2.977E-01 0.000E+00

     negative rho (up, down):  2.977E-01 0.000E+00

     negative rho (up, down):  2.977E-01 0.000E+00

     negative rho (up, down):  2.977E-01 0.000E+00

     negative rho (up, down):  2.977E-01 0.000E+00

     negative rho (up, down):  2.977E-01 0.000E+00

     negative rho (up, down):  2.977E-01 0.000E+00

     negative rho (up, down):  2.977E-01 0.000E+00

     negative rho (up, down):  2.977E-01 0.000E+00

     negative rho (up, down):  2.977E-01 0.000E+00

     negative rho (up, down):  2.977E-01 0.000E+00

     negative rho (up, down):  2.977E-01 0.000E+00

     negative rho (up, down):  2.977E-01 0.000E+00
 
     Adding external electric field

     Computed dipole along edir(3) : 
        Dipole               -0.0007 Ry au,         -0.0018 Debye
        Dipole field         -0.0000 Ry au
 
        Potential amp.        0.0002 Ry
        Total length         45.5054 bohr
 

     total cpu time spent up to now is      585.4 secs

     End of self-consistent calculation

          k = 0.0000 0.0000 0.0000 ( 18043 PWs)   bands (ev):

   -66.1864 -66.1863 -65.9620 -58.8680 -58.7684 -58.7684 -58.7528 -58.7373
   -58.6645 -58.6645 -58.6604 -58.6604 -33.3588 -33.2792 -33.2792 -33.2540
   -33.1992 -33.1992 -33.1942 -33.1508 -33.0922 -33.0922 -32.8592 -32.7604
   -32.7604 -32.7527 -32.7527 -32.6768 -32.6634 -32.6061 -32.5882 -32.5882
   -32.5685 -32.5685 -32.4964 -32.4582 -32.4582 -32.4543 -32.4479 -32.4479
   -32.4226 -32.1924 -32.1811 -32.1811 -32.1704 -32.1704 -32.0951 -32.0951
    -4.2819  -2.8558  -2.4895  -2.1198  -2.0704  -2.0704  -1.8885  -1.6589
    -1.6589  -1.3836  -1.3727  -1.3727  -1.3042  -1.1584  -1.1584  -0.0650
    -0.0070  -0.0070   0.9444   0.9444   0.9793   0.9848   1.2864   1.6970
     1.6970   1.8080   1.9335   1.9335   1.9559   2.0191   2.0191   2.1455
     2.1455   2.1602   2.1602   2.3038   3.0151   3.0797   3.0797   3.3215
     3.3956   3.6210   3.6210   4.0260   4.0260   4.4046   4.4046   4.5744
     4.6184   4.6184   4.8566   4.8566   5.0299   5.1660   5.8039   5.8145
     5.8145   6.0016   6.0268   6.0268   6.0934   6.1096   6.2974   6.6428

          k = 0.0000 0.0334 0.0000 ( 18038 PWs)   bands (ev):

   -66.1863 -66.1863 -65.9619 -58.8623 -58.7753 -58.7685 -58.7467 -58.7330
   -58.6696 -58.6651 -58.6645 -58.6603 -33.3229 -33.2466 -33.2376 -33.2342
   -33.1741 -33.1726 -33.1586 -33.1157 -33.0598 -33.0448 -32.8603 -32.7954
   -32.7881 -32.7604 -32.7423 -32.6775 -32.6553 -32.6336 -32.5989 -32.5961
   -32.5771 -32.5471 -32.5056 -32.4928 -32.4841 -32.4834 -32.4560 -32.4451
   -32.4316 -32.2323 -32.2227 -32.1943 -32.1833 -32.1820 -32.1354 -32.1038
    -4.0450  -2.6206  -2.2945  -1.9896  -1.9068  -1.8810  -1.7430  -1.5585
    -1.4787  -1.2644  -1.2384  -1.2258  -1.1191  -0.9736  -0.9127  -0.0169
     0.0395   0.0650   0.8377   0.9856   1.0424   1.0740   1.2804   1.4526
     1.5275   1.6782   1.7972   1.8451   1.8731   1.9271   1.9946   2.0340
     2.0762   2.2079   2.2920   2.3439   2.6749   2.7628   2.8473   2.9695
     3.2177   3.5218   3.5478   3.7355   3.8184   3.8303   3.8742   3.9552
     4.5105   4.5712   4.7936   4.8966   4.9453   5.1427   5.2256   5.5144
     5.6208   5.7045   5.8204   5.9183   5.9908   6.0302   6.0598   6.3995

          k = 0.0000 0.0669 0.0000 ( 17988 PWs)   bands (ev):

   -66.1863 -66.1862 -65.9619 -58.8471 -58.7916 -58.7686 -58.7324 -58.7216
   -58.6831 -58.6772 -58.6645 -58.6603 -33.2449 -33.1849 -33.1620 -33.1302
   -33.1183 -33.1116 -33.0774 -33.0402 -32.9799 -32.9079 -32.8713 -32.8551
   -32.8222 -32.8143 -32.7274 -32.6786 -32.6723 -32.6501 -32.6465 -32.6307
   -32.5922 -32.5724 -32.5692 -32.5675 -32.5232 -32.5120 -32.4593 -32.4407
   -32.4330 -32.3527 -32.3281 -32.2233 -32.2224 -32.2054 -32.1738 -32.1220
    -3.4076  -2.1796  -1.9441  -1.6824  -1.4732  -1.4179  -1.4064  -1.1638
    -1.0556  -0.9694  -0.8178  -0.7789  -0.7434  -0.3804  -0.2946   0.0656
     0.1551   0.2696   0.4283   0.7238   0.9330   0.9620   1.0264   1.1712
     1.3342   1.3798   1.5626   1.6221   1.6430   1.6456   1.7852   1.9748
     2.0155   2.0849   2.2075   2.2668   2.3877   2.4409   2.4584   2.5039
     2.6094   2.6935   2.9291   2.9935   3.3406   3.4720   3.5931   3.8220
     4.0648   4.1596   4.2225   4.3524   4.4817   4.6188   4.9453   5.0202
     5.1493   5.1900   5.2338   5.3920   5.5482   5.5957   6.0636   6.1507

          k = 0.0000-0.1003 0.0000 ( 17948 PWs)   bands (ev):

   -66.1863 -66.1862 -65.9619 -58.8343 -58.8049 -58.7686 -58.7206 -58.7128
   -58.6940 -58.6870 -58.6645 -58.6603 -33.1987 -33.1378 -33.1249 -33.0901
   -33.0791 -33.0452 -32.9924 -32.9904 -32.9440 -32.9296 -32.9099 -32.8456
   -32.7615 -32.7379 -32.7328 -32.7327 -32.7006 -32.6886 -32.6866 -32.6647
   -32.6391 -32.6373 -32.5910 -32.5654 -32.5390 -32.5284 -32.4932 -32.4355
   -32.4212 -32.3973 -32.3907 -32.2684 -32.2400 -32.2169 -32.1703 -32.1317
    -2.7126  -2.5114  -1.5470  -1.4755  -1.1556  -1.1188  -1.0343  -0.9137
    -0.8200  -0.8129  -0.4318  -0.2649  -0.2420  -0.1427  -0.0697  -0.0661
     0.3293   0.4226   0.4340   0.4840   0.5379   0.7048   0.9070   1.1447
     1.2365   1.2757   1.3389   1.3810   1.3891   1.4483   1.4783   1.5506
     1.6621   1.8115   1.8271   1.8561   1.9076   2.0946   2.4221   2.5453
     2.7391   2.9457   2.9913   3.2083   3.2695   3.3455   3.5138   3.6031
     3.6987   3.9072   3.9613   4.0422   4.1753   4.1940   4.4120   4.6732
     4.7843   4.9112   5.1260   5.2630   5.5624   5.8901   6.0754   6.1152

          k = 0.0290 0.0167 0.0000 ( 18038 PWs)   bands (ev):

   -66.1863 -66.1863 -65.9619 -58.8623 -58.7753 -58.7685 -58.7467 -58.7330
   -58.6696 -58.6651 -58.6645 -58.6603 -33.3229 -33.2466 -33.2376 -33.2342
   -33.1741 -33.1726 -33.1586 -33.1157 -33.0598 -33.0448 -32.8603 -32.7954
   -32.7881 -32.7604 -32.7423 -32.6775 -32.6553 -32.6336 -32.5989 -32.5961
   -32.5771 -32.5471 -32.5056 -32.4928 -32.4841 -32.4834 -32.4560 -32.4451
   -32.4316 -32.2323 -32.2227 -32.1943 -32.1833 -32.1820 -32.1354 -32.1038
    -4.0450  -2.6206  -2.2945  -1.9896  -1.9068  -1.8810  -1.7430  -1.5585
    -1.4787  -1.2644  -1.2384  -1.2258  -1.1191  -0.9736  -0.9127  -0.0169
     0.0395   0.0650   0.8377   0.9856   1.0424   1.0740   1.2804   1.4526
     1.5275   1.6782   1.7972   1.8451   1.8731   1.9271   1.9946   2.0340
     2.0762   2.2079   2.2920   2.3439   2.6749   2.7628   2.8473   2.9695
     3.2177   3.5218   3.5478   3.7355   3.8184   3.8303   3.8742   3.9552
     4.5105   4.5712   4.7936   4.8966   4.9453   5.1427   5.2256   5.5143
     5.6208   5.7045   5.8204   5.9183   5.9908   6.0302   6.0598   6.2916

          k = 0.0290 0.0502 0.0000 ( 17995 PWs)   bands (ev):

   -66.1863 -66.1862 -65.9619 -58.8516 -58.7863 -58.7691 -58.7366 -58.7249
   -58.6776 -58.6756 -58.6630 -58.6614 -33.2646 -33.1996 -33.1731 -33.1730
   -33.1335 -33.1292 -33.0983 -33.0618 -32.9819 -32.9706 -32.8679 -32.8272
   -32.8204 -32.8141 -32.7256 -32.6817 -32.6592 -32.6554 -32.6381 -32.6058
   -32.5904 -32.5797 -32.5441 -32.5186 -32.5018 -32.4867 -32.4706 -32.4636
   -32.4489 -32.3057 -32.2949 -32.2220 -32.2096 -32.1863 -32.1756 -32.1257
    -3.6034  -2.2087  -2.0282  -1.7091  -1.7005  -1.5341  -1.4511  -1.4241
    -1.1064  -1.0270  -1.0057  -0.8884  -0.7825  -0.6921  -0.4382   0.0459
     0.1454   0.1574   0.5748   0.8885   1.0456   1.0907   1.1217   1.1326
     1.1957   1.4965   1.5360   1.6294   1.7399   1.8339   1.8877   2.0020
     2.0420   2.2423   2.2728   2.3266   2.3691   2.4829   2.4943   2.7567
     2.8214   2.8274   3.0632   3.0642   3.3372   3.5666   3.5913   3.8967
     4.1943   4.3984   4.4253   4.4612   4.5662   4.9643   4.9817   5.0791
     5.1608   5.3784   5.4635   5.5656   5.9639   6.0212   6.1785   6.2581

          k = 0.0290 0.0836 0.0000 ( 17933 PWs)   bands (ev):

   -66.1863 -66.1862 -65.9619 -58.8348 -58.8033 -58.7700 -58.7212 -58.7126
   -58.6918 -58.6884 -58.6635 -58.6614 -33.1859 -33.1461 -33.1094 -33.0901
   -33.0755 -33.0414 -33.0325 -32.9897 -32.9447 -32.8958 -32.8762 -32.8471
   -32.8260 -32.8087 -32.7582 -32.7293 -32.6880 -32.6817 -32.6738 -32.6407
   -32.6216 -32.6034 -32.5895 -32.5809 -32.5342 -32.5147 -32.4882 -32.4572
   -32.4508 -32.3689 -32.3497 -32.2564 -32.2462 -32.2347 -32.1693 -32.1521
    -2.8644  -2.1432  -1.6524  -1.3858  -1.2822  -1.1287  -1.0750  -0.9080
    -0.7219  -0.6654  -0.5420  -0.3387  -0.3216  -0.2537  -0.0967   0.1476
     0.2392   0.2778   0.3752   0.5235   0.6392   0.7144   0.7509   0.9211
     1.0890   1.2354   1.2796   1.3183   1.3553   1.4209   1.4896   1.5831
     1.7265   1.8168   1.8556   2.0384   2.0889   2.3023   2.3917   2.5264
     2.6078   2.9126   3.0054   3.1858   3.3092   3.3553   3.3839   3.6811
     3.6947   3.8627   3.9651   4.3362   4.4225   4.5580   4.8188   4.9118
     5.0131   5.0376   5.1110   5.2587   5.4595   5.5935   5.8604   6.1229

          k = 0.0290-0.0836 0.0000 ( 17933 PWs)   bands (ev):

   -66.1863 -66.1862 -65.9619 -58.8348 -58.8033 -58.7700 -58.7212 -58.7126
   -58.6918 -58.6884 -58.6635 -58.6614 -33.1859 -33.1461 -33.1094 -33.0901
   -33.0755 -33.0414 -33.0325 -32.9897 -32.9447 -32.8958 -32.8762 -32.8471
   -32.8260 -32.8087 -32.7582 -32.7293 -32.6880 -32.6817 -32.6738 -32.6407
   -32.6216 -32.6034 -32.5895 -32.5809 -32.5342 -32.5147 -32.4882 -32.4572
   -32.4508 -32.3689 -32.3497 -32.2564 -32.2462 -32.2347 -32.1693 -32.1521
    -2.8644  -2.1432  -1.6524  -1.3858  -1.2822  -1.1287  -1.0750  -0.9080
    -0.7219  -0.6654  -0.5420  -0.3387  -0.3216  -0.2537  -0.0967   0.1476
     0.2392   0.2778   0.3751   0.5235   0.6392   0.7144   0.7509   0.9211
     1.0890   1.2354   1.2796   1.3183   1.3553   1.4209   1.4896   1.5831
     1.7265   1.8168   1.8556   2.0384   2.0889   2.3023   2.3917   2.5264
     2.6078   2.9126   3.0054   3.1858   3.3092   3.3553   3.3839   3.6811
     3.6947   3.8627   3.9651   4.3362   4.4225   4.5580   4.8188   4.9118
     5.0131   5.0376   5.1110   5.2587   5.4595   5.5935   5.8604   6.1230

          k = 0.0290-0.0502 0.0000 ( 17995 PWs)   bands (ev):

   -66.1863 -66.1862 -65.9619 -58.8516 -58.7863 -58.7691 -58.7366 -58.7249
   -58.6776 -58.6756 -58.6630 -58.6614 -33.2646 -33.1996 -33.1731 -33.1730
   -33.1335 -33.1292 -33.0983 -33.0618 -32.9819 -32.9706 -32.8679 -32.8272
   -32.8204 -32.8141 -32.7256 -32.6817 -32.6592 -32.6554 -32.6381 -32.6058
   -32.5904 -32.5798 -32.5441 -32.5186 -32.5018 -32.4866 -32.4706 -32.4636
   -32.4489 -32.3057 -32.2949 -32.2220 -32.2096 -32.1863 -32.1756 -32.1257
    -3.6034  -2.2087  -2.0282  -1.7091  -1.7005  -1.5341  -1.4511  -1.4241
    -1.1064  -1.0270  -1.0057  -0.8884  -0.7825  -0.6921  -0.4382   0.0459
     0.1454   0.1574   0.5748   0.8885   1.0456   1.0907   1.1217   1.1326
     1.1957   1.4965   1.5360   1.6294   1.7399   1.8340   1.8877   2.0020
     2.0420   2.2423   2.2728   2.3266   2.3692   2.4829   2.4943   2.7567
     2.8214   2.8274   3.0632   3.0642   3.3372   3.5666   3.5913   3.8967
     4.1943   4.3984   4.4253   4.4612   4.5662   4.9643   4.9817   5.0791
     5.1608   5.3784   5.4635   5.5656   5.9639   6.0212   6.1785   6.2581

          k = 0.0290-0.0167 0.0000 ( 18038 PWs)   bands (ev):

   -66.1863 -66.1863 -65.9619 -58.8623 -58.7753 -58.7685 -58.7467 -58.7330
   -58.6697 -58.6651 -58.6645 -58.6603 -33.3229 -33.2466 -33.2376 -33.2342
   -33.1741 -33.1726 -33.1586 -33.1157 -33.0598 -33.0448 -32.8603 -32.7954
   -32.7881 -32.7604 -32.7423 -32.6775 -32.6553 -32.6336 -32.5989 -32.5961
   -32.5771 -32.5471 -32.5056 -32.4928 -32.4841 -32.4834 -32.4560 -32.4451
   -32.4316 -32.2323 -32.2227 -32.1943 -32.1833 -32.1820 -32.1354 -32.1038
    -4.0450  -2.6206  -2.2945  -1.9896  -1.9068  -1.8810  -1.7430  -1.5585
    -1.4787  -1.2644  -1.2384  -1.2258  -1.1191  -0.9736  -0.9127  -0.0169
     0.0395   0.0650   0.8377   0.9856   1.0424   1.0740   1.2804   1.4526
     1.5275   1.6782   1.7972   1.8451   1.8731   1.9271   1.9946   2.0340
     2.0762   2.2079   2.2919   2.3439   2.6750   2.7628   2.8473   2.9695
     3.2177   3.5218   3.5478   3.7355   3.8184   3.8303   3.8742   3.9552
     4.5105   4.5712   4.7936   4.8966   4.9453   5.1427   5.2256   5.5143
     5.6208   5.7045   5.8204   5.9183   5.9909   6.0302   6.0598   6.2916

          k = 0.0579 0.0334 0.0000 ( 17988 PWs)   bands (ev):

   -66.1863 -66.1862 -65.9619 -58.8471 -58.7916 -58.7686 -58.7324 -58.7216
   -58.6831 -58.6772 -58.6645 -58.6603 -33.2449 -33.1849 -33.1620 -33.1302
   -33.1183 -33.1116 -33.0774 -33.0402 -32.9799 -32.9079 -32.8713 -32.8551
   -32.8222 -32.8143 -32.7274 -32.6786 -32.6723 -32.6501 -32.6465 -32.6307
   -32.5922 -32.5724 -32.5692 -32.5675 -32.5232 -32.5120 -32.4593 -32.4407
   -32.4330 -32.3527 -32.3281 -32.2233 -32.2224 -32.2054 -32.1738 -32.1220
    -3.4076  -2.1796  -1.9441  -1.6824  -1.4732  -1.4179  -1.4064  -1.1638
    -1.0556  -0.9694  -0.8178  -0.7789  -0.7434  -0.3804  -0.2946   0.0656
     0.1551   0.2696   0.4283   0.7238   0.9330   0.9620   1.0264   1.1712
     1.3342   1.3798   1.5626   1.6221   1.6430   1.6456   1.7852   1.9748
     2.0155   2.0849   2.2075   2.2668   2.3877   2.4409   2.4584   2.5039
     2.6094   2.6935   2.9291   2.9935   3.3406   3.4720   3.5931   3.8220
     4.0648   4.1596   4.2225   4.3524   4.4817   4.6188   4.9453   5.0202
     5.1493   5.1900   5.2338   5.3920   5.5482   5.5957   6.0636   6.1507

          k = 0.0579 0.0669 0.0000 ( 17933 PWs)   bands (ev):

   -66.1863 -66.1862 -65.9619 -58.8348 -58.8033 -58.7700 -58.7212 -58.7126
   -58.6918 -58.6884 -58.6635 -58.6614 -33.1859 -33.1461 -33.1094 -33.0901
   -33.0755 -33.0414 -33.0325 -32.9897 -32.9447 -32.8958 -32.8762 -32.8471
   -32.8260 -32.8087 -32.7582 -32.7293 -32.6880 -32.6817 -32.6738 -32.6407
   -32.6216 -32.6034 -32.5895 -32.5809 -32.5342 -32.5146 -32.4882 -32.4572
   -32.4508 -32.3689 -32.3497 -32.2564 -32.2462 -32.2347 -32.1693 -32.1521
    -2.8644  -2.1432  -1.6524  -1.3858  -1.2822  -1.1287  -1.0750  -0.9080
    -0.7219  -0.6654  -0.5420  -0.3387  -0.3216  -0.2537  -0.0967   0.1476
     0.2392   0.2778   0.3752   0.5235   0.6392   0.7144   0.7509   0.9211
     1.0890   1.2354   1.2796   1.3183   1.3553   1.4209   1.4896   1.5831
     1.7265   1.8168   1.8556   2.0384   2.0889   2.3023   2.3917   2.5264
     2.6078   2.9126   3.0054   3.1858   3.3092   3.3553   3.3839   3.6811
     3.6947   3.8627   3.9651   4.3362   4.4225   4.5580   4.8188   4.9118
     5.0131   5.0376   5.1110   5.2587   5.4595   5.5935   5.8604   6.1229

          k = 0.0579 0.1003 0.0000 ( 17970 PWs)   bands (ev):

   -66.1863 -66.1862 -65.9619 -58.8187 -58.8187 -58.7713 -58.7092 -58.7019
   -58.7012 -58.7011 -58.6627 -58.6627 -33.1131 -33.1131 -33.0840 -33.0840
   -33.0588 -33.0396 -32.9884 -32.9522 -32.9522 -32.8814 -32.8626 -32.8626
   -32.7938 -32.7938 -32.7857 -32.7417 -32.7416 -32.7351 -32.6832 -32.6393
   -32.6393 -32.6063 -32.6058 -32.6058 -32.5496 -32.5042 -32.5042 -32.4619
   -32.4619 -32.3253 -32.3128 -32.3070 -32.3069 -32.2064 -32.2064 -32.1667
    -2.2863  -2.0157  -2.0156  -1.0667  -1.0667  -0.9504  -0.6578  -0.6577
    -0.5179  -0.3420  -0.3420  -0.2320  -0.2049  -0.1178  -0.1178   0.2091
     0.2091   0.3324   0.3324   0.3643   0.4553   0.4553   0.5955   0.8403
     0.8403   0.8603   0.8905   0.8905   0.9057   1.3073   1.4990   1.5251
     1.5347   1.5347   1.9917   2.0898   2.0898   2.3636   2.3636   2.4463
     2.7038   2.8262   2.8262   3.2034   3.2450   3.2450   3.4788   3.4788
     3.8794   4.1305   4.1305   4.5744   4.5744   4.7399   4.7399   4.9880
     5.0410   5.1162   5.1162   5.1745   5.3289   5.4219   5.4219   5.6636

          k = 0.0579-0.0669 0.0000 ( 17933 PWs)   bands (ev):

   -66.1863 -66.1862 -65.9619 -58.8348 -58.8033 -58.7700 -58.7212 -58.7126
   -58.6918 -58.6884 -58.6635 -58.6614 -33.1859 -33.1461 -33.1094 -33.0901
   -33.0755 -33.0414 -33.0325 -32.9897 -32.9447 -32.8958 -32.8762 -32.8471
   -32.8260 -32.8087 -32.7582 -32.7293 -32.6880 -32.6817 -32.6738 -32.6407
   -32.6216 -32.6034 -32.5896 -32.5809 -32.5342 -32.5146 -32.4882 -32.4572
   -32.4508 -32.3689 -32.3497 -32.2564 -32.2462 -32.2347 -32.1693 -32.1521
    -2.8644  -2.1432  -1.6524  -1.3858  -1.2822  -1.1287  -1.0750  -0.9080
    -0.7219  -0.6654  -0.5420  -0.3387  -0.3216  -0.2537  -0.0967   0.1476
     0.2392   0.2778   0.3752   0.5235   0.6392   0.7144   0.7509   0.9211
     1.0890   1.2354   1.2796   1.3183   1.3553   1.4209   1.4896   1.5831
     1.7265   1.8168   1.8556   2.0384   2.0889   2.3023   2.3917   2.5264
     2.6078   2.9126   3.0054   3.1858   3.3092   3.3553   3.3839   3.6811
     3.6947   3.8627   3.9651   4.3362   4.4225   4.5580   4.8188   4.9118
     5.0131   5.0376   5.1110   5.2587   5.4595   5.5935   5.8604   6.1230

          k = 0.0579-0.0334 0.0000 ( 17988 PWs)   bands (ev):

   -66.1863 -66.1862 -65.9619 -58.8471 -58.7916 -58.7686 -58.7324 -58.7216
   -58.6832 -58.6772 -58.6645 -58.6603 -33.2449 -33.1849 -33.1620 -33.1302
   -33.1183 -33.1116 -33.0774 -33.0402 -32.9799 -32.9079 -32.8713 -32.8551
   -32.8222 -32.8143 -32.7274 -32.6786 -32.6723 -32.6501 -32.6465 -32.6307
   -32.5922 -32.5724 -32.5692 -32.5675 -32.5232 -32.5120 -32.4593 -32.4407
   -32.4330 -32.3527 -32.3281 -32.2233 -32.2224 -32.2054 -32.1738 -32.1220
    -3.4076  -2.1796  -1.9441  -1.6824  -1.4732  -1.4179  -1.4064  -1.1638
    -1.0556  -0.9694  -0.8178  -0.7789  -0.7434  -0.3804  -0.2946   0.0656
     0.1551   0.2696   0.4283   0.7238   0.9330   0.9620   1.0264   1.1712
     1.3342   1.3798   1.5626   1.6221   1.6430   1.6456   1.7852   1.9748
     2.0155   2.0849   2.2075   2.2668   2.3877   2.4409   2.4584   2.5039
     2.6094   2.6935   2.9291   2.9935   3.3406   3.4720   3.5931   3.8220
     4.0648   4.1596   4.2225   4.3524   4.4817   4.6188   4.9453   5.0202
     5.1493   5.1900   5.2338   5.3920   5.5482   5.5957   6.0636   6.1507

          k = 0.0579 0.0000 0.0000 ( 17995 PWs)   bands (ev):

   -66.1863 -66.1862 -65.9619 -58.8516 -58.7863 -58.7691 -58.7366 -58.7249
   -58.6776 -58.6756 -58.6630 -58.6614 -33.2646 -33.1996 -33.1731 -33.1730
   -33.1335 -33.1292 -33.0983 -33.0618 -32.9819 -32.9706 -32.8679 -32.8272
   -32.8204 -32.8141 -32.7256 -32.6817 -32.6592 -32.6554 -32.6381 -32.6058
   -32.5904 -32.5798 -32.5441 -32.5186 -32.5018 -32.4866 -32.4706 -32.4636
   -32.4489 -32.3057 -32.2949 -32.2220 -32.2096 -32.1863 -32.1756 -32.1257
    -3.6034  -2.2087  -2.0282  -1.7091  -1.7005  -1.5341  -1.4511  -1.4241
    -1.1064  -1.0270  -1.0057  -0.8884  -0.7825  -0.6921  -0.4382   0.0459
     0.1454   0.1574   0.5748   0.8885   1.0456   1.0907   1.1217   1.1326
     1.1957   1.4965   1.5360   1.6294   1.7399   1.8340   1.8877   2.0020
     2.0420   2.2423   2.2728   2.3266   2.3692   2.4829   2.4943   2.7567
     2.8214   2.8274   3.0632   3.0642   3.3372   3.5666   3.5913   3.8967
     4.1943   4.3984   4.4253   4.4612   4.5662   4.9643   4.9817   5.0791
     5.1608   5.3784   5.4635   5.5656   5.9639   6.0212   6.1785   6.2581

          k =-0.0869-0.0502 0.0000 ( 17948 PWs)   bands (ev):

   -66.1863 -66.1862 -65.9619 -58.8343 -58.8049 -58.7686 -58.7206 -58.7128
   -58.6940 -58.6870 -58.6645 -58.6603 -33.1987 -33.1378 -33.1249 -33.0901
   -33.0791 -33.0452 -32.9924 -32.9904 -32.9440 -32.9296 -32.9099 -32.8456
   -32.7615 -32.7379 -32.7328 -32.7327 -32.7006 -32.6886 -32.6866 -32.6647
   -32.6391 -32.6373 -32.5910 -32.5654 -32.5390 -32.5284 -32.4932 -32.4355
   -32.4212 -32.3973 -32.3907 -32.2684 -32.2400 -32.2169 -32.1703 -32.1317
    -2.7126  -2.5114  -1.5470  -1.4755  -1.1556  -1.1188  -1.0343  -0.9137
    -0.8200  -0.8129  -0.4318  -0.2649  -0.2420  -0.1427  -0.0697  -0.0661
     0.3293   0.4226   0.4340   0.4840   0.5379   0.7048   0.9070   1.1447
     1.2365   1.2757   1.3389   1.3810   1.3891   1.4483   1.4783   1.5506
     1.6621   1.8115   1.8271   1.8561   1.9076   2.0946   2.4221   2.5453
     2.7391   2.9457   2.9913   3.2083   3.2695   3.3455   3.5138   3.6031
     3.6987   3.9072   3.9613   4.0422   4.1753   4.1940   4.4120   4.6732
     4.7843   4.9112   5.1260   5.2630   5.5624   5.8901   5.9210   6.0754

          k =-0.0869-0.0167 0.0000 ( 17933 PWs)   bands (ev):

   -66.1863 -66.1862 -65.9619 -58.8348 -58.8033 -58.7700 -58.7212 -58.7126
   -58.6918 -58.6884 -58.6635 -58.6614 -33.1859 -33.1461 -33.1094 -33.0901
   -33.0755 -33.0414 -33.0325 -32.9897 -32.9447 -32.8958 -32.8762 -32.8471
   -32.8260 -32.8087 -32.7582 -32.7293 -32.6880 -32.6817 -32.6738 -32.6407
   -32.6216 -32.6034 -32.5895 -32.5809 -32.5342 -32.5147 -32.4882 -32.4572
   -32.4508 -32.3689 -32.3497 -32.2564 -32.2462 -32.2347 -32.1693 -32.1521
    -2.8644  -2.1432  -1.6524  -1.3858  -1.2822  -1.1287  -1.0750  -0.9080
    -0.7219  -0.6654  -0.5420  -0.3387  -0.3216  -0.2537  -0.0967   0.1476
     0.2392   0.2778   0.3751   0.5235   0.6392   0.7144   0.7509   0.9211
     1.0890   1.2354   1.2796   1.3183   1.3553   1.4209   1.4896   1.5831
     1.7265   1.8168   1.8556   2.0384   2.0889   2.3023   2.3917   2.5264
     2.6078   2.9126   3.0054   3.1858   3.3092   3.3553   3.3839   3.6811
     3.6947   3.8627   3.9651   4.3362   4.4225   4.5580   4.8188   4.9118
     5.0131   5.0376   5.1110   5.2587   5.4595   5.5935   5.8604   6.1229

          k =-0.0869 0.0167 0.0000 ( 17933 PWs)   bands (ev):

   -66.1863 -66.1862 -65.9619 -58.8348 -58.8033 -58.7700 -58.7212 -58.7126
   -58.6918 -58.6884 -58.6635 -58.6614 -33.1859 -33.1461 -33.1094 -33.0901
   -33.0755 -33.0414 -33.0325 -32.9897 -32.9447 -32.8958 -32.8762 -32.8471
   -32.8260 -32.8087 -32.7582 -32.7293 -32.6880 -32.6817 -32.6738 -32.6407
   -32.6216 -32.6034 -32.5896 -32.5809 -32.5342 -32.5146 -32.4882 -32.4572
   -32.4508 -32.3689 -32.3497 -32.2564 -32.2462 -32.2347 -32.1693 -32.1521
    -2.8644  -2.1432  -1.6524  -1.3858  -1.2822  -1.1287  -1.0750  -0.9080
    -0.7219  -0.6654  -0.5420  -0.3387  -0.3216  -0.2537  -0.0967   0.1476
     0.2392   0.2778   0.3752   0.5235   0.6392   0.7144   0.7509   0.9211
     1.0890   1.2354   1.2796   1.3183   1.3553   1.4209   1.4896   1.5831
     1.7265   1.8168   1.8556   2.0384   2.0889   2.3023   2.3917   2.5264
     2.6078   2.9126   3.0054   3.1858   3.3092   3.3553   3.3839   3.6811
     3.6947   3.8627   3.9651   4.3362   4.4225   4.5580   4.8188   4.9118
     5.0131   5.0376   5.1110   5.2587   5.4595   5.5935   5.8604   6.1229

          k =-0.0869-0.1505 0.0000 ( 17948 PWs)   bands (ev):

   -66.1863 -66.1862 -65.9619 -58.8343 -58.8049 -58.7686 -58.7206 -58.7128
   -58.6941 -58.6870 -58.6645 -58.6603 -33.1987 -33.1378 -33.1249 -33.0901
   -33.0791 -33.0452 -32.9924 -32.9904 -32.9440 -32.9296 -32.9099 -32.8456
   -32.7615 -32.7379 -32.7328 -32.7327 -32.7006 -32.6886 -32.6866 -32.6647
   -32.6391 -32.6373 -32.5910 -32.5654 -32.5390 -32.5284 -32.4932 -32.4355
   -32.4212 -32.3973 -32.3907 -32.2684 -32.2400 -32.2169 -32.1703 -32.1317
    -2.7126  -2.5114  -1.5470  -1.4755  -1.1556  -1.1188  -1.0343  -0.9137
    -0.8200  -0.8129  -0.4318  -0.2649  -0.2420  -0.1427  -0.0697  -0.0661
     0.3293   0.4226   0.4340   0.4840   0.5379   0.7047   0.9070   1.1446
     1.2365   1.2757   1.3389   1.3810   1.3891   1.4483   1.4783   1.5506
     1.6621   1.8115   1.8271   1.8561   1.9076   2.0946   2.4221   2.5453
     2.7391   2.9457   2.9913   3.2083   3.2695   3.3455   3.5138   3.6031
     3.6987   3.9072   3.9613   4.0422   4.1753   4.1940   4.4120   4.6732
     4.7843   4.9112   5.1260   5.2630   5.5624   5.8901   5.9210   6.0754

     the Fermi energy is     2.1172 ev

!    total energy              =   -1688.94705506 Ry
     Harris-Foulkes estimate   =   -1688.94705500 Ry
     estimated scf accuracy    <       0.00000034 Ry

     The total energy is the sum of the following terms:

     one-electron contribution =  -13900.62636314 Ry
     hartree contribution      =    6940.81996288 Ry
     xc contribution           =    -310.49305585 Ry
     ewald contribution        =    5581.46298732 Ry
     electric field correction =       0.00000000 Ry
     smearing contrib. (-TS)   =      -0.11058626 Ry

     convergence has been achieved in  17 iterations
 
 BEEF-vdW xc energy contributions
           1 :   -269.419207136822     
           2 :    247.180646738422     
           3 :   -208.791196152745     
           4 :    163.928064688510     
           5 :   -122.311912528416     
           6 :    90.5919281122690     
           7 :   -70.8609713689041     
           8 :    61.0870876398856     
           9 :   -56.9611770292657     
          10 :    54.1304062872196     
          11 :   -49.8605822124984     
          12 :    43.5828312501546     
          13 :   -36.3895396001317     
          14 :    29.9497968407218     
          15 :   -25.4627585731022     
          16 :    23.0925279220626     
          17 :   -22.0403157793668     
          18 :    21.0874281036142     
          19 :   -19.2705822932759     
          20 :    16.3300182987620     
          21 :   -12.7406482044638     
          22 :    9.35830600855218     
          23 :   -6.91542591926810     
          24 :    5.64367346107861     
          25 :   -5.20555909000126     
          26 :    4.92680192805364     
          27 :   -4.17226927148658     
          28 :    2.65180221547047     
          29 :  -0.515348921265229     
          30 :   -1.77925871188614     
          31 :   -27.8494710161627     
          32 :   -21.0860487187344     

     Forces acting on atoms (Ry/au):


     negative rho (up, down):  2.977E-01 0.000E+00
     atom    1 type  1   force =     0.00000013   -0.00874346    0.00027765
     atom    2 type  1   force =    -0.00757205    0.00437204    0.00027528
     atom    3 type  1   force =     0.00757191    0.00437193    0.00027576
     atom    4 type  2   force =     0.00000146    0.00000046   -0.01109320
     atom    5 type  1   force =    -0.00000014    0.00000085   -0.00000404
     atom    6 type  1   force =     0.00000007   -0.00000060   -0.00000367
     atom    7 type  1   force =    -0.00000072   -0.00000031   -0.00000387
     atom    8 type  2   force =    -0.00000101   -0.00000001    0.00001135
     atom    9 type  1   force =     0.00000029    0.00874426   -0.00029143
     atom   10 type  1   force =     0.00757178   -0.00437231   -0.00029239
     atom   11 type  1   force =    -0.00757213   -0.00437249   -0.00029235
     atom   12 type  2   force =     0.00000040   -0.00000034    0.01114091

     Total force =     0.026578     Total SCF correction =     0.001941


     entering subroutine stress ...


     negative rho (up, down):  2.977E-01 0.000E+00
          total   stress  (Ry/bohr**3)                   (kbar)     P=  -33.22
  -0.00034171  -0.00000000  -0.00000000        -50.27     -0.00     -0.00
  -0.00000000  -0.00034172   0.00000000         -0.00    -50.27      0.00
  -0.00000000   0.00000000   0.00000590         -0.00      0.00      0.87

 !ASE

     Writing output data file calc.save
 
     init_run     :      9.18s CPU     15.50s WALL (       1 calls)
     electrons    :    350.70s CPU    569.64s WALL (       1 calls)
     forces       :      2.46s CPU      3.00s WALL (       1 calls)
     stress       :      5.84s CPU      6.90s WALL (       1 calls)

     Called by init_run:
     wfcinit      :      7.41s CPU     13.15s WALL (       1 calls)
     potinit      :      0.83s CPU      1.25s WALL (       1 calls)

     Called by electrons:
     c_bands      :    263.02s CPU    425.68s WALL (      17 calls)
     sum_band     :     44.17s CPU     78.75s WALL (      17 calls)
     v_of_rho     :     13.14s CPU     20.35s WALL (      18 calls)
     newd         :      5.50s CPU      5.98s WALL (      18 calls)
     mix_rho      :      0.54s CPU      0.86s WALL (      17 calls)
     vdW_energy   :      1.63s CPU      1.64s WALL (      54 calls)
     vdW_ffts     :     24.25s CPU     39.54s WALL (     110 calls)
     vdW_v        :      4.84s CPU      7.28s WALL (      54 calls)

     Called by c_bands:
     init_us_2    :      0.44s CPU      0.45s WALL (     740 calls)
     cegterg      :    257.88s CPU    419.62s WALL (     340 calls)

     Called by *egterg:
     h_psi        :    164.66s CPU    315.77s WALL (    1274 calls)
     s_psi        :      5.61s CPU      5.63s WALL (    1274 calls)
     g_psi        :      0.26s CPU      0.26s WALL (     914 calls)
     cdiaghg      :     56.40s CPU     59.44s WALL (    1254 calls)

     Called by h_psi:
     add_vuspsi   :      5.86s CPU      5.88s WALL (    1274 calls)

     General routines
     calbec       :     15.41s CPU     20.12s WALL (    1654 calls)
     fft          :     36.68s CPU     59.91s WALL (    3291 calls)
     ffts         :      0.12s CPU      0.21s WALL (      35 calls)
     fftw         :    174.15s CPU    353.96s WALL (  208014 calls)
     interpolate  :      0.47s CPU      0.79s WALL (      35 calls)
     davcio       :      0.00s CPU      0.02s WALL (      20 calls)
 
     Parallel routines
     fft_scatter  :    191.89s CPU    394.01s WALL (  211340 calls)
 
     PWSCF        :  6m 9.10s CPU     9m56.59s WALL

 
   This run was terminated on:   4:28:45  27Dec2018            

=------------------------------------------------------------------------------=
   JOB DONE.
=------------------------------------------------------------------------------=
Job  /afs/slac/g/suncat/bin/suncat-tsmpirun -x LD_LIBRARY_PATH -wdir /scratch/qe110153_2E0ea pw.x -in pw.inp

TID   HOST_NAME   COMMAND_LINE            STATUS            TERMINATION_TIME
===== ========== ================  =======================  ===================
00000 suncat0277 pw.x -in pw.inp   Done                     12/27/2018 04:28:45
00001 suncat0277 pw.x -in pw.inp   Done                     12/27/2018 04:28:45
00002 suncat0277 pw.x -in pw.inp   Done                     12/27/2018 04:28:45
00003 suncat0277 pw.x -in pw.inp   Done                     12/27/2018 04:28:45
00004 suncat0277 pw.x -in pw.inp   Done                     12/27/2018 04:28:45
00005 suncat0277 pw.x -in pw.inp   Done                     12/27/2018 04:28:45
00006 suncat0277 pw.x -in pw.inp   Done                     12/27/2018 04:28:45
00007 suncat0277 pw.x -in pw.inp   Done                     12/27/2018 04:28:45
00008 suncat0276 pw.x -in pw.inp   Done                     12/27/2018 04:28:45
00009 suncat0276 pw.x -in pw.inp   Done                     12/27/2018 04:28:45
00010 suncat0276 pw.x -in pw.inp   Done                     12/27/2018 04:28:45
00011 suncat0276 pw.x -in pw.inp   Done                     12/27/2018 04:28:45
00012 suncat0276 pw.x -in pw.inp   Done                     12/27/2018 04:28:45
00013 suncat0276 pw.x -in pw.inp   Done                     12/27/2018 04:28:45
00014 suncat0276 pw.x -in pw.inp   Done                     12/27/2018 04:28:45
00015 suncat0276 pw.x -in pw.inp   Done                     12/27/2018 04:28:45
00016 suncat0274 pw.x -in pw.inp   Done                     12/27/2018 04:28:45
00017 suncat0274 pw.x -in pw.inp   Done                     12/27/2018 04:28:45
00018 suncat0274 pw.x -in pw.inp   Done                     12/27/2018 04:28:45
00019 suncat0274 pw.x -in pw.inp   Done                     12/27/2018 04:28:45
00020 suncat0274 pw.x -in pw.inp   Done                     12/27/2018 04:28:45
00021 suncat0274 pw.x -in pw.inp   Done                     12/27/2018 04:28:45
00022 suncat0274 pw.x -in pw.inp   Done                     12/27/2018 04:28:45
00023 suncat0274 pw.x -in pw.inp   Done                     12/27/2018 04:28:45
00024 suncat0273 pw.x -in pw.inp   Done                     12/27/2018 04:28:45
00025 suncat0273 pw.x -in pw.inp   Done                     12/27/2018 04:28:45
00026 suncat0273 pw.x -in pw.inp   Done                     12/27/2018 04:28:45
00027 suncat0273 pw.x -in pw.inp   Done                     12/27/2018 04:28:45
00028 suncat0273 pw.x -in pw.inp   Done                     12/27/2018 04:28:45
00029 suncat0273 pw.x -in pw.inp   Done                     12/27/2018 04:28:45
00030 suncat0273 pw.x -in pw.inp   Done                     12/27/2018 04:28:45
00031 suncat0273 pw.x -in pw.inp   Done                     12/27/2018 04:28:45
00032 suncat0230 pw.x -in pw.inp   Done                     12/27/2018 04:28:45
00033 suncat0230 pw.x -in pw.inp   Done                     12/27/2018 04:28:45
00034 suncat0230 pw.x -in pw.inp   Done                     12/27/2018 04:28:45
00035 suncat0230 pw.x -in pw.inp   Done                     12/27/2018 04:28:45
00036 suncat0230 pw.x -in pw.inp   Done                     12/27/2018 04:28:45
00037 suncat0230 pw.x -in pw.inp   Done                     12/27/2018 04:28:45
00038 suncat0230 pw.x -in pw.inp   Done                     12/27/2018 04:28:45
00039 suncat0230 pw.x -in pw.inp   Done                     12/27/2018 04:28:45
00040 suncat0229 pw.x -in pw.inp   Done                     12/27/2018 04:28:45
00041 suncat0229 pw.x -in pw.inp   Done                     12/27/2018 04:28:45
00042 suncat0229 pw.x -in pw.inp   Done                     12/27/2018 04:28:45
00043 suncat0229 pw.x -in pw.inp   Done                     12/27/2018 04:28:45
00044 suncat0229 pw.x -in pw.inp   Done                     12/27/2018 04:28:45
00045 suncat0229 pw.x -in pw.inp   Done                     12/27/2018 04:28:45
00046 suncat0229 pw.x -in pw.inp   Done                     12/27/2018 04:28:45
00047 suncat0229 pw.x -in pw.inp   Done                     12/27/2018 04:28:45
00048 suncat0205 pw.x -in pw.inp   Done                     12/27/2018 04:28:45
00049 suncat0205 pw.x -in pw.inp   Done                     12/27/2018 04:28:45
00050 suncat0205 pw.x -in pw.inp   Done                     12/27/2018 04:28:45
00051 suncat0205 pw.x -in pw.inp   Done                     12/27/2018 04:28:45
00052 suncat0205 pw.x -in pw.inp   Done                     12/27/2018 04:28:45
00053 suncat0205 pw.x -in pw.inp   Done                     12/27/2018 04:28:45
00054 suncat0205 pw.x -in pw.inp   Done                     12/27/2018 04:28:45
00055 suncat0205 pw.x -in pw.inp   Done                     12/27/2018 04:28:45
00056 suncat0204 pw.x -in pw.inp   Done                     12/27/2018 04:28:45
00057 suncat0204 pw.x -in pw.inp   Done                     12/27/2018 04:28:45
00058 suncat0204 pw.x -in pw.inp   Done                     12/27/2018 04:28:45
00059 suncat0204 pw.x -in pw.inp   Done                     12/27/2018 04:28:45
00060 suncat0204 pw.x -in pw.inp   Done                     12/27/2018 04:28:45
00061 suncat0204 pw.x -in pw.inp   Done                     12/27/2018 04:28:45
00062 suncat0204 pw.x -in pw.inp   Done                     12/27/2018 04:28:45
00063 suncat0204 pw.x -in pw.inp   Done                     12/27/2018 04:28:45

     Program PWSCF v.5.1rc2 (svn rev. 11289) starts on 27Dec2018 at  4:28:52 

     This program is part of the open-source Quantum ESPRESSO suite
     for quantum simulation of materials; please cite
         "P. Giannozzi et al., J. Phys.:Condens. Matter 21 395502 (2009);
          URL http://www.quantum-espresso.org", 
     in publications or presentations arising from this work. More details at
     http://www.quantum-espresso.org/quote

     Parallel version (MPI), running on    64 processors
     R & G space division:  proc/nbgrp/npool/nimage =      64
     Reading input from pw.inp
     Message from routine read_cards :
     DEPRECATED: no units specified in CELL_PARAMETERS card

     Current dimensions of program PWSCF are:
     Max number of different atomic species (ntypx) = 10
     Max number of k-points (npk) =  40000
     Max angular momentum in pseudopotentials (lmaxx) =  3
     Presently stress not available with electric field


     **************************************************************************
     Initializing libbeef V0.1.1 with the BEEF-vdW functional.
     Citation: Wellendorff et al., PRB 85, 235149 (2012).
     **************************************************************************


     IMPORTANT: XC functional enforced from input :
     Exchange-correlation      = BEEF-VDW ( 1  4 27 13 2)
     Any further DFT definition will be discarded
     Please, verify this is what you really want


     Subspace diagonalization in iterative solution of the eigenvalue problem:
     a serial algorithm will be used

 
     Parallelization info
     --------------------
     sticks:   dense  smooth     PW     G-vecs:    dense   smooth      PW
     Min          46      18      5                 8866     2220     359
     Max          47      19      6                 8891     2275     384
     Sum        3001    1189    361               568413   143737   23787
 


     bravais-lattice index     =            0
     lattice parameter (alat)  =       1.8897  a.u.
     unit-cell volume          =    4778.3177 (a.u.)^3
     number of atoms/cell      =           12
     number of atomic types    =            2
     number of electrons       =       165.00
     number of Kohn-Sham states=          112
     kinetic-energy cutoff     =      36.7493  Ry
     charge density cutoff     =     367.4932  Ry
     convergence threshold     =      1.0E-06
     mixing beta               =       0.1000
     number of iterations used =           10  plain     mixing
     Exchange-correlation      = BEEF-VDW ( 1  4 27 13 2)
     nstep                     =           50


     celldm(1)=   1.889726  celldm(2)=   0.000000  celldm(3)=   0.000000
     celldm(4)=   0.000000  celldm(5)=   0.000000  celldm(6)=   0.000000

     crystal axes: (cart. coord. in units of alat)
               a(1) = (   5.753662   0.000000   0.000000 )  
               a(2) = (  -2.876831   4.982818   0.000000 )  
               a(3) = (   0.000000   0.000000  24.697845 )  

     reciprocal axes: (cart. coord. in units 2 pi/alat)
               b(1) = (  0.173802  0.100345  0.000000 )  
               b(2) = (  0.000000  0.200690  0.000000 )  
               b(3) = (  0.000000  0.000000  0.040489 )  


     PseudoPot. # 1 for Mo read from file:
     /afs/slac.stanford.edu/u/if/mamunm/psp/gbrv1.5pbe/Mo.UPF
     MD5 check sum: 30c4dcd161f5d35cd49bb5239c51a633
     Pseudo is Ultrasoft + core correction, Zval = 14.0
     Generated by new atomic code, or converted to UPF format
     Using radial grid of  889 points,  6 beta functions with: 
                l(1) =   0
                l(2) =   0
                l(3) =   1
                l(4) =   1
                l(5) =   2
                l(6) =   2
     Q(r) pseudized with  6 coefficients,  rinner =    1.000   1.000   1.000
                                                       1.000   1.000

     PseudoPot. # 2 for Ta read from file:
     /afs/slac.stanford.edu/u/if/mamunm/psp/gbrv1.5pbe/Ta.UPF
     MD5 check sum: f8bbe9446314a3b8ea5d9f3e3836c939
     Pseudo is Ultrasoft + core correction, Zval = 13.0
     Generated by new atomic code, or converted to UPF format
     Using radial grid of  921 points,  7 beta functions with: 
                l(1) =   0
                l(2) =   0
                l(3) =   1
                l(4) =   1
                l(5) =   2
                l(6) =   2
                l(7) =   3
     Q(r) pseudized with  6 coefficients,  rinner =    1.300   1.300   1.300
                                                       1.300   1.300   1.300
                                                       1.300

     vdW kernel table read from file vdW_kernel_table
     MD5 check sum: 095c7af220d748ca6e76c0b4c6cfb241

     atomic species   valence    mass     pseudopotential
        Mo1           14.00    95.95000     Mo( 1.00)
        Ta1           13.00   180.94788     Ta( 1.00)

     No symmetry found



   Cartesian axes

     site n.     atom                  positions (alat units)
         1           Mo1 tau(   1) = (   0.0000000   0.0000000  10.0000000  )
         2           Mo1 tau(   2) = (  -1.4384155   2.4914088  10.0000000  )
         3           Mo1 tau(   3) = (   1.4384155   2.4914088  10.0000000  )
         4           Ta1 tau(   4) = (   2.8768311   0.0000000  10.0000000  )
         5           Mo1 tau(   5) = (   2.8768311   1.6609392  12.3489227  )
         6           Mo1 tau(   6) = (   1.4384155   4.1523480  12.3489227  )
         7           Mo1 tau(   7) = (  -1.4384155   4.1523480  12.3489227  )
         8           Ta1 tau(   8) = (   0.0000000   1.6609392  12.3489227  )
         9           Mo1 tau(   9) = (   0.0000007   3.3443608  14.6970962  )
        10           Mo1 tau(  10) = (   1.4578834   0.8192279  14.6970937  )
        11           Mo1 tau(  11) = (   4.2957779   0.8192275  14.6970938  )
        12           Ta1 tau(  12) = (   2.8768321   3.3218775  14.7264899  )

     number of k points=    20  Fermi-Dirac smearing, width (Ry)=  0.0110
                       cart. coord. in units 2pi/alat
        k(    1) = (   0.0000000   0.0000000   0.0000000), wk =   0.0555556
        k(    2) = (   0.0000000   0.0334483   0.0000000), wk =   0.1111111
        k(    3) = (   0.0000000   0.0668966   0.0000000), wk =   0.1111111
        k(    4) = (   0.0000000  -0.1003448   0.0000000), wk =   0.0555556
        k(    5) = (   0.0289671   0.0167241   0.0000000), wk =   0.1111111
        k(    6) = (   0.0289671   0.0501724   0.0000000), wk =   0.1111111
        k(    7) = (   0.0289671   0.0836207   0.0000000), wk =   0.1111111
        k(    8) = (   0.0289671  -0.0836207   0.0000000), wk =   0.1111111
        k(    9) = (   0.0289671  -0.0501724   0.0000000), wk =   0.1111111
        k(   10) = (   0.0289671  -0.0167241   0.0000000), wk =   0.1111111
        k(   11) = (   0.0579341   0.0334483   0.0000000), wk =   0.1111111
        k(   12) = (   0.0579341   0.0668966   0.0000000), wk =   0.1111111
        k(   13) = (   0.0579341   0.1003448   0.0000000), wk =   0.1111111
        k(   14) = (   0.0579341  -0.0668966   0.0000000), wk =   0.1111111
        k(   15) = (   0.0579341  -0.0334483   0.0000000), wk =   0.1111111
        k(   16) = (   0.0579341   0.0000000   0.0000000), wk =   0.1111111
        k(   17) = (  -0.0869012  -0.0501724   0.0000000), wk =   0.0555556
        k(   18) = (  -0.0869012  -0.0167241   0.0000000), wk =   0.1111111
        k(   19) = (  -0.0869012   0.0167241   0.0000000), wk =   0.1111111
        k(   20) = (  -0.0869012  -0.1505172   0.0000000), wk =   0.0555556

     Dense  grid:   568413 G-vectors     FFT dimensions: (  72,  72, 288)

     Smooth grid:   143737 G-vectors     FFT dimensions: (  45,  45, 192)

     Largest allocated arrays     est. size (Mb)     dimensions
        Kohn-Sham Wavefunctions         0.52 Mb     (     305,  112)
        NL pseudopotentials             1.10 Mb     (     305,  237)
        Each V/rho on FFT grid          0.40 Mb     (   25920)
        Each G-vector array             0.07 Mb     (    8885)
        G-vector shells                 0.03 Mb     (    4466)
     Largest temporary arrays     est. size (Mb)     dimensions
        Auxiliary wavefunctions         2.08 Mb     (     305,  448)
        Each subspace H/S matrix        3.06 Mb     (     448,  448)
        Each <psi_i|beta_j> matrix      0.41 Mb     (     237,  112)
        Arrays for rho mixing           3.96 Mb     (   25920,   10)

     Initial potential from superposition of free atoms
     Check: negative starting charge=   -0.283375

     starting charge  164.98709, renormalised to  165.00000

     negative rho (up, down):  2.834E-01 0.000E+00


     ************************************************************************
     *
     * You are using vdW-DF for exchange-correlation in this calculation.
     * Please cite the following three references that made this development
     * possible:
     *
     *   M. Dion, H. Rydberg, E. Schroder, D. C. Langreth, and
     *   B. I. Lundqvist, Phys. Rev. Lett. 92, 246401 (2004).
     *
     *   T. Thonhauser, V. R. Cooper, S. Li, A. Puzder, P. Hyldgaard, and
     *   D. C. Langreth, Phys. Rev. B 76, 125112 (2007).
     *
     *   G. Roman-Perez and J. M. Soler, Phys. Rev. Lett. 103, 096102 (2009).
     *
     *
     * If you are using vdW-DF2, please also cite:
     *
     *   K. Lee, E. D. Murray, L. Kong, B. I. Lundqvist, and
     *   D. C. Langreth, Phys. Rev. B 82, 081101(R) (2010).
     *
     *
     * If you are calculating the stress with vdW-DF, please also cite:
     *
     *   R. Sabatini, E. Kucukbenli, B. Kolb, T. Thonhauser, and
     *   S. de Gironcoli, J. Phys.: Condens. Matter 24, 424209 (2012).
     *
     ************************************************************************

     Carrying out vdW-DF run using the following parameters:

     Nqs =      20    Nr_points =    1024   r_max =   100.000
     q_mesh =
               0.00001000     0.04494208     0.09755937     0.15916263
               0.23128650     0.31572767     0.41458969     0.53033537
               0.66584808     0.82450364     1.01025438     1.22772762
               1.48234092     1.78043706     2.12944203     2.53805004
               3.01644009     3.57652955     4.23227104     5.00000000

     Gradients computed in reciprocal space

     ************************************************************************


 
     Adding external electric field

     Computed dipole along edir(3) : 
        Dipole                0.0000 Ry au,          0.0000 Debye
        Dipole field          0.0000 Ry au
 
        Potential amp.       -0.0000 Ry
        Total length         45.5054 bohr
 
     Starting wfc are  156 randomized atomic wfcs

     total cpu time spent up to now is       16.4 secs

     per-process dynamical memory:    40.5 Mb

     Self-consistent Calculation

     iteration #  1     ecut=    36.75 Ry     beta=0.10
     Davidson diagonalization with overlap
     ethr =  1.00E-02,  avg # of iterations =  2.0

     negative rho (up, down):  2.846E-01 0.000E+00
 
     Adding external electric field

     Computed dipole along edir(3) : 
        Dipole                0.0275 Ry au,          0.0698 Debye
        Dipole field          0.0001 Ry au
 
        Potential amp.       -0.0066 Ry
        Total length         45.5054 bohr
 

     total cpu time spent up to now is       47.7 secs

     total energy              =   -1688.32760320 Ry
     Harris-Foulkes estimate   =   -1689.61851339 Ry
     estimated scf accuracy    <       7.21478864 Ry

     iteration #  2     ecut=    36.75 Ry     beta=0.10
     Davidson diagonalization with overlap
     ethr =  4.37E-03,  avg # of iterations =  1.8

     negative rho (up, down):  2.852E-01 0.000E+00
 
     Adding external electric field

     Computed dipole along edir(3) : 
        Dipole               -0.0717 Ry au,         -0.1821 Debye
        Dipole field         -0.0002 Ry au
 
        Potential amp.        0.0172 Ry
        Total length         45.5054 bohr
 

     total cpu time spent up to now is       76.5 secs

     total energy              =   -1688.75496672 Ry
     Harris-Foulkes estimate   =   -1689.36269509 Ry
     estimated scf accuracy    <       6.33953731 Ry

     iteration #  3     ecut=    36.75 Ry     beta=0.10
     Davidson diagonalization with overlap
     ethr =  3.84E-03,  avg # of iterations =  1.4

     negative rho (up, down):  2.860E-01 0.000E+00
 
     Adding external electric field

     Computed dipole along edir(3) : 
        Dipole                0.3856 Ry au,          0.9801 Debye
        Dipole field          0.0010 Ry au
 
        Potential amp.       -0.0923 Ry
        Total length         45.5054 bohr
 

     total cpu time spent up to now is      103.8 secs

     total energy              =   -1688.93983758 Ry
     Harris-Foulkes estimate   =   -1689.06082815 Ry
     estimated scf accuracy    <       1.10549821 Ry

     iteration #  4     ecut=    36.75 Ry     beta=0.10
     Davidson diagonalization with overlap
     ethr =  6.70E-04,  avg # of iterations =  1.2

     negative rho (up, down):  2.871E-01 0.000E+00
 
     Adding external electric field

     Computed dipole along edir(3) : 
        Dipole               -0.0186 Ry au,         -0.0472 Debye
        Dipole field         -0.0000 Ry au
 
        Potential amp.        0.0044 Ry
        Total length         45.5054 bohr
 

     total cpu time spent up to now is      131.1 secs

     total energy              =   -1688.80498481 Ry
     Harris-Foulkes estimate   =   -1689.16329883 Ry
     estimated scf accuracy    <      14.56531519 Ry

     iteration #  5     ecut=    36.75 Ry     beta=0.10
     Davidson diagonalization with overlap
     ethr =  6.70E-04,  avg # of iterations =  1.0

     negative rho (up, down):  2.890E-01 0.000E+00
 
     Adding external electric field

     Computed dipole along edir(3) : 
        Dipole                0.0046 Ry au,          0.0116 Debye
        Dipole field          0.0000 Ry au
 
        Potential amp.       -0.0011 Ry
        Total length         45.5054 bohr
 

     total cpu time spent up to now is      158.2 secs

     total energy              =   -1688.94892638 Ry
     Harris-Foulkes estimate   =   -1688.97868153 Ry
     estimated scf accuracy    <       0.18401137 Ry

     iteration #  6     ecut=    36.75 Ry     beta=0.10
     Davidson diagonalization with overlap
     ethr =  1.12E-04,  avg # of iterations =  4.1

     negative rho (up, down):  2.907E-01 0.000E+00
 
     Adding external electric field

     Computed dipole along edir(3) : 
        Dipole                0.0023 Ry au,          0.0060 Debye
        Dipole field          0.0000 Ry au
 
        Potential amp.       -0.0006 Ry
        Total length         45.5054 bohr
 

     total cpu time spent up to now is      189.8 secs

     total energy              =   -1688.94798056 Ry
     Harris-Foulkes estimate   =   -1688.96015232 Ry
     estimated scf accuracy    <       0.07148279 Ry

     iteration #  7     ecut=    36.75 Ry     beta=0.10
     Davidson diagonalization with overlap
     ethr =  4.33E-05,  avg # of iterations =  5.8

     negative rho (up, down):  2.945E-01 0.000E+00
 
     Adding external electric field

     Computed dipole along edir(3) : 
        Dipole               -0.0062 Ry au,         -0.0157 Debye
        Dipole field         -0.0000 Ry au
 
        Potential amp.        0.0015 Ry
        Total length         45.5054 bohr
 

     total cpu time spent up to now is      225.7 secs

     total energy              =   -1688.94680332 Ry
     Harris-Foulkes estimate   =   -1688.95397287 Ry
     estimated scf accuracy    <       0.03162674 Ry

     iteration #  8     ecut=    36.75 Ry     beta=0.10
     Davidson diagonalization with overlap
     ethr =  1.92E-05,  avg # of iterations =  3.6

     negative rho (up, down):  2.949E-01 0.000E+00
 
     Adding external electric field

     Computed dipole along edir(3) : 
        Dipole               -0.0018 Ry au,         -0.0046 Debye
        Dipole field         -0.0000 Ry au
 
        Potential amp.        0.0004 Ry
        Total length         45.5054 bohr
 

     total cpu time spent up to now is      260.8 secs

     total energy              =   -1688.95063933 Ry
     Harris-Foulkes estimate   =   -1688.95178797 Ry
     estimated scf accuracy    <       0.01036529 Ry

     iteration #  9     ecut=    36.75 Ry     beta=0.10
     Davidson diagonalization with overlap
     ethr =  6.28E-06,  avg # of iterations =  4.0

     negative rho (up, down):  2.959E-01 0.000E+00
 
     Adding external electric field

     Computed dipole along edir(3) : 
        Dipole                0.0022 Ry au,          0.0056 Debye
        Dipole field          0.0000 Ry au
 
        Potential amp.       -0.0005 Ry
        Total length         45.5054 bohr
 

     total cpu time spent up to now is      293.4 secs

     total energy              =   -1688.95082541 Ry
     Harris-Foulkes estimate   =   -1688.95136463 Ry
     estimated scf accuracy    <       0.00248252 Ry

     iteration # 10     ecut=    36.75 Ry     beta=0.10
     Davidson diagonalization with overlap
     ethr =  1.50E-06,  avg # of iterations =  5.0

     negative rho (up, down):  2.969E-01 0.000E+00
 
     Adding external electric field

     Computed dipole along edir(3) : 
        Dipole                0.0007 Ry au,          0.0017 Debye
        Dipole field          0.0000 Ry au
 
        Potential amp.       -0.0002 Ry
        Total length         45.5054 bohr
 

     total cpu time spent up to now is      332.0 secs

     total energy              =   -1688.95158160 Ry
     Harris-Foulkes estimate   =   -1688.95150636 Ry
     estimated scf accuracy    <       0.00241625 Ry

     iteration # 11     ecut=    36.75 Ry     beta=0.10
     Davidson diagonalization with overlap
     ethr =  1.46E-06,  avg # of iterations =  1.0

     negative rho (up, down):  2.975E-01 0.000E+00
 
     Adding external electric field

     Computed dipole along edir(3) : 
        Dipole               -0.0012 Ry au,         -0.0030 Debye
        Dipole field         -0.0000 Ry au
 
        Potential amp.        0.0003 Ry
        Total length         45.5054 bohr
 

     total cpu time spent up to now is      359.0 secs

     total energy              =   -1688.95138612 Ry
     Harris-Foulkes estimate   =   -1688.95163274 Ry
     estimated scf accuracy    <       0.00115375 Ry

     iteration # 12     ecut=    36.75 Ry     beta=0.10
     Davidson diagonalization with overlap
     ethr =  6.99E-07,  avg # of iterations =  3.2

     negative rho (up, down):  2.975E-01 0.000E+00
 
     Adding external electric field

     Computed dipole along edir(3) : 
        Dipole               -0.0008 Ry au,         -0.0021 Debye
        Dipole field         -0.0000 Ry au
 
        Potential amp.        0.0002 Ry
        Total length         45.5054 bohr
 

     total cpu time spent up to now is      391.8 secs

     total energy              =   -1688.95156680 Ry
     Harris-Foulkes estimate   =   -1688.95157643 Ry
     estimated scf accuracy    <       0.00010108 Ry

     iteration # 13     ecut=    36.75 Ry     beta=0.10
     Davidson diagonalization with overlap
     ethr =  6.13E-08,  avg # of iterations =  2.0

     negative rho (up, down):  2.976E-01 0.000E+00
 
     Adding external electric field

     Computed dipole along edir(3) : 
        Dipole               -0.0011 Ry au,         -0.0028 Debye
        Dipole field         -0.0000 Ry au
 
        Potential amp.        0.0003 Ry
        Total length         45.5054 bohr
 

     total cpu time spent up to now is      420.8 secs

     total energy              =   -1688.95156704 Ry
     Harris-Foulkes estimate   =   -1688.95157341 Ry
     estimated scf accuracy    <       0.00004955 Ry

     iteration # 14     ecut=    36.75 Ry     beta=0.10
     Davidson diagonalization with overlap
     ethr =  3.00E-08,  avg # of iterations =  2.2

     negative rho (up, down):  2.976E-01 0.000E+00
 
     Adding external electric field

     Computed dipole along edir(3) : 
        Dipole               -0.0013 Ry au,         -0.0034 Debye
        Dipole field         -0.0000 Ry au
 
        Potential amp.        0.0003 Ry
        Total length         45.5054 bohr
 

     total cpu time spent up to now is      451.3 secs

     total energy              =   -1688.95157235 Ry
     Harris-Foulkes estimate   =   -1688.95157256 Ry
     estimated scf accuracy    <       0.00001608 Ry

     iteration # 15     ecut=    36.75 Ry     beta=0.10
     Davidson diagonalization with overlap
     ethr =  9.74E-09,  avg # of iterations =  2.5

     negative rho (up, down):  2.976E-01 0.000E+00
 
     Adding external electric field

     Computed dipole along edir(3) : 
        Dipole               -0.0009 Ry au,         -0.0022 Debye
        Dipole field         -0.0000 Ry au
 
        Potential amp.        0.0002 Ry
        Total length         45.5054 bohr
 

     total cpu time spent up to now is      483.1 secs

     total energy              =   -1688.95157541 Ry
     Harris-Foulkes estimate   =   -1688.95157607 Ry
     estimated scf accuracy    <       0.00000861 Ry

     iteration # 16     ecut=    36.75 Ry     beta=0.10
     Davidson diagonalization with overlap
     ethr =  5.22E-09,  avg # of iterations =  1.4

     negative rho (up, down):  2.977E-01 0.000E+00
 
     Adding external electric field

     Computed dipole along edir(3) : 
        Dipole               -0.0006 Ry au,         -0.0016 Debye
        Dipole field         -0.0000 Ry au
 
        Potential amp.        0.0002 Ry
        Total length         45.5054 bohr
 

     total cpu time spent up to now is      510.2 secs

     total energy              =   -1688.95157698 Ry
     Harris-Foulkes estimate   =   -1688.95157621 Ry
     estimated scf accuracy    <       0.00000131 Ry

[...]
   -33.0658 -33.0401 -32.9687 -32.9541 -32.9509 -32.9079 -32.8752 -32.8581
   -32.7943 -32.7902 -32.7753 -32.7498 -32.7378 -32.7238 -32.6781 -32.6388
   -32.6376 -32.6281 -32.6072 -32.6038 -32.5546 -32.5185 -32.4997 -32.4947
   -32.4602 -32.3560 -32.3425 -32.3151 -32.3068 -32.2144 -32.2132 -32.1758
    -2.2711  -2.0119  -1.9995  -1.0873  -1.0728  -0.9386  -0.6543  -0.6491
    -0.5313  -0.3577  -0.3366  -0.2058  -0.1880  -0.1379  -0.0669   0.1664
     0.2021   0.2963   0.3314   0.4094   0.4405   0.4611   0.6521   0.7482
     0.8262   0.8632   0.8940   0.9071   0.9970   1.3075   1.4766   1.5188
     1.5389   1.5516   2.0152   2.0564   2.0809   2.3603   2.3715   2.4853
     2.7407   2.7875   2.8433   3.2093   3.2368   3.3136   3.4501   3.4760
     3.8674   4.0630   4.1246   4.5809   4.5922   4.6986   4.7346   4.8497
     5.0321   5.1128   5.1483   5.1750   5.3101   5.4178   5.5030   5.6487

          k = 0.0579-0.0669 0.0000 ( 17933 PWs)   bands (ev):

   -66.2577 -66.1822 -65.9730 -58.8409 -58.8090 -58.7751 -58.7198 -58.7108
   -58.6866 -58.6840 -58.6599 -58.6570 -33.1931 -33.1509 -33.1193 -33.0920
   -33.0825 -33.0420 -33.0227 -32.9942 -32.9453 -32.9010 -32.8829 -32.8526
   -32.8300 -32.8085 -32.7469 -32.7261 -32.6823 -32.6785 -32.6692 -32.6370
   -32.6336 -32.6055 -32.5930 -32.5855 -32.5417 -32.5335 -32.4969 -32.4705
   -32.4519 -32.3949 -32.3599 -32.2860 -32.2518 -32.2402 -32.1788 -32.1587
    -2.8536  -2.1322  -1.6407  -1.3949  -1.2941  -1.1275  -1.0535  -0.9078
    -0.7178  -0.6595  -0.5308  -0.3561  -0.3165  -0.2482  -0.0823   0.1455
     0.2315   0.2832   0.3946   0.5229   0.6236   0.7150   0.7322   0.9345
     1.1026   1.2293   1.2569   1.3214   1.3639   1.4349   1.4897   1.5859
     1.7139   1.8214   1.8628   2.0323   2.0874   2.3260   2.4033   2.5349
     2.6306   2.9330   3.0139   3.1902   3.3136   3.3523   3.3949   3.6260
     3.6792   3.8600   3.9769   4.3112   4.4158   4.5370   4.8041   4.9084
     4.9801   5.0130   5.1098   5.2646   5.4535   5.5714   5.8443   6.1099

          k = 0.0579-0.0334 0.0000 ( 17988 PWs)   bands (ev):

   -66.2578 -66.1823 -65.9731 -58.8530 -58.7972 -58.7741 -58.7305 -58.7191
   -58.6787 -58.6731 -58.6607 -58.6561 -33.2504 -33.1898 -33.1627 -33.1371
   -33.1198 -33.1193 -33.0727 -33.0440 -32.9844 -32.9137 -32.8726 -32.8574
   -32.8244 -32.8092 -32.7291 -32.6745 -32.6698 -32.6537 -32.6414 -32.6269
   -32.5974 -32.5776 -32.5761 -32.5636 -32.5417 -32.5232 -32.4761 -32.4382
   -32.4291 -32.3862 -32.3392 -32.2504 -32.2306 -32.2092 -32.1840 -32.1283
    -3.3977  -2.1684  -1.9462  -1.6880  -1.4842  -1.4011  -1.3906  -1.1404
    -1.0553  -0.9709  -0.8052  -0.7844  -0.7418  -0.3855  -0.2754   0.0476
     0.1680   0.2653   0.4273   0.7305   0.9230   0.9602   1.0177   1.1773
     1.2944   1.4177   1.5769   1.6139   1.6357   1.6368   1.8025   1.9543
     2.0182   2.0761   2.2266   2.2697   2.3977   2.4410   2.4726   2.5174
     2.6169   2.7028   2.9346   2.9993   3.3386   3.4642   3.6034   3.8551
     4.0414   4.1558   4.2224   4.3224   4.4825   4.5827   4.9316   4.9968
     5.1150   5.1768   5.2225   5.3865   5.5554   5.5973   6.0339   6.1429

          k = 0.0579 0.0000 0.0000 ( 17995 PWs)   bands (ev):

   -66.2578 -66.1823 -65.9731 -58.8575 -58.7921 -58.7745 -58.7346 -58.7224
   -58.6736 -58.6712 -58.6594 -58.6569 -33.2699 -33.2041 -33.1746 -33.1738
   -33.1399 -33.1364 -33.0950 -33.0657 -32.9873 -32.9739 -32.8692 -32.8277
   -32.8182 -32.8165 -32.7224 -32.6797 -32.6639 -32.6571 -32.6345 -32.6080
   -32.5959 -32.5789 -32.5523 -32.5423 -32.4979 -32.4814 -32.4745 -32.4688
   -32.4620 -32.3408 -32.2986 -32.2504 -32.2138 -32.1925 -32.1858 -32.1321
    -3.5937  -2.2047  -2.0255  -1.7194  -1.6960  -1.5187  -1.4362  -1.4117
    -1.0978  -1.0318  -0.9946  -0.8843  -0.7990  -0.6755  -0.4299   0.0311
     0.1412   0.1703   0.5734   0.9021   1.0272   1.0713   1.1054   1.1462
     1.1944   1.5163   1.5390   1.6358   1.7230   1.8330   1.8797   1.9972
     2.0425   2.2373   2.3006   2.3305   2.3900   2.4841   2.5146   2.7426
     2.8193   2.8375   3.0565   3.0801   3.3241   3.5613   3.6270   3.9143
     4.1774   4.3692   4.4204   4.4387   4.5848   4.9345   4.9860   5.0563
     5.1395   5.3535   5.4370   5.5582   5.9282   6.0177   6.1860   6.2685

          k =-0.0869-0.0502 0.0000 ( 17948 PWs)   bands (ev):

   -66.2577 -66.1822 -65.9730 -58.8405 -58.8103 -58.7742 -58.7190 -58.7114
   -58.6881 -58.6830 -58.6607 -58.6561 -33.2044 -33.1453 -33.1337 -33.0911
   -33.0864 -33.0346 -32.9972 -32.9911 -32.9467 -32.9313 -32.9184 -32.8433
   -32.7896 -32.7429 -32.7305 -32.6990 -32.6903 -32.6870 -32.6817 -32.6540
   -32.6443 -32.6293 -32.6114 -32.5703 -32.5644 -32.5296 -32.5243 -32.4322
   -32.4251 -32.4160 -32.4096 -32.2774 -32.2668 -32.2222 -32.1801 -32.1380
    -2.6993  -2.5035  -1.5414  -1.4841  -1.1535  -1.1318  -1.0047  -0.9136
    -0.8165  -0.8025  -0.4247  -0.2651  -0.2362  -0.1888  -0.0468  -0.0392
     0.3215   0.4315   0.4617   0.4877   0.5257   0.6909   0.8754   1.1544
     1.2468   1.2551   1.3584   1.3769   1.3860   1.4440   1.5096   1.5509
     1.6068   1.8029   1.8295   1.8398   1.9599   2.1407   2.4286   2.5683
     2.7371   2.9806   3.0024   3.2018   3.2768   3.3614   3.4941   3.6093
     3.6425   3.8688   3.9436   4.0331   4.1781   4.2031   4.4248   4.6565
     4.7635   4.9206   5.0836   5.2371   5.5626   5.8545   6.0305   6.1267

          k =-0.0869-0.0167 0.0000 ( 17933 PWs)   bands (ev):

   -66.2577 -66.1822 -65.9730 -58.8409 -58.8090 -58.7751 -58.7198 -58.7108
   -58.6866 -58.6840 -58.6599 -58.6570 -33.1931 -33.1509 -33.1193 -33.0920
   -33.0825 -33.0420 -33.0227 -32.9942 -32.9453 -32.9010 -32.8829 -32.8526
   -32.8300 -32.8085 -32.7469 -32.7261 -32.6823 -32.6785 -32.6692 -32.6370
   -32.6336 -32.6055 -32.5930 -32.5855 -32.5417 -32.5335 -32.4969 -32.4705
   -32.4519 -32.3949 -32.3599 -32.2860 -32.2518 -32.2402 -32.1788 -32.1587
    -2.8536  -2.1322  -1.6407  -1.3949  -1.2941  -1.1275  -1.0535  -0.9078
    -0.7178  -0.6595  -0.5308  -0.3561  -0.3165  -0.2482  -0.0823   0.1455
     0.2315   0.2832   0.3946   0.5229   0.6236   0.7150   0.7322   0.9345
     1.1026   1.2293   1.2569   1.3214   1.3639   1.4349   1.4897   1.5859
     1.7139   1.8214   1.8628   2.0323   2.0874   2.3260   2.4033   2.5349
     2.6306   2.9330   3.0139   3.1902   3.3136   3.3523   3.3949   3.6260
     3.6792   3.8600   3.9769   4.3112   4.4158   4.5370   4.8041   4.9084
     4.9801   5.0130   5.1098   5.2646   5.4535   5.5714   5.8443   6.1099

          k =-0.0869 0.0167 0.0000 ( 17933 PWs)   bands (ev):

   -66.2577 -66.1822 -65.9730 -58.8409 -58.8090 -58.7751 -58.7198 -58.7108
   -58.6866 -58.6840 -58.6599 -58.6570 -33.1931 -33.1509 -33.1193 -33.0920
   -33.0825 -33.0420 -33.0227 -32.9942 -32.9453 -32.9010 -32.8829 -32.8526
   -32.8300 -32.8085 -32.7469 -32.7261 -32.6823 -32.6785 -32.6692 -32.6370
   -32.6336 -32.6055 -32.5930 -32.5855 -32.5417 -32.5335 -32.4969 -32.4705
   -32.4519 -32.3949 -32.3599 -32.2860 -32.2518 -32.2402 -32.1788 -32.1587
    -2.8536  -2.1322  -1.6407  -1.3949  -1.2941  -1.1275  -1.0535  -0.9078
    -0.7178  -0.6595  -0.5308  -0.3561  -0.3165  -0.2482  -0.0823   0.1455
     0.2315   0.2832   0.3946   0.5229   0.6236   0.7150   0.7322   0.9345
     1.1026   1.2293   1.2569   1.3214   1.3639   1.4349   1.4897   1.5859
     1.7139   1.8214   1.8628   2.0323   2.0874   2.3260   2.4033   2.5349
     2.6306   2.9330   3.0139   3.1902   3.3136   3.3523   3.3949   3.6260
     3.6792   3.8600   3.9769   4.3112   4.4158   4.5370   4.8041   4.9084
     4.9801   5.0130   5.1098   5.2646   5.4535   5.5714   5.8443   6.1099

          k =-0.0869-0.1505 0.0000 ( 17948 PWs)   bands (ev):

   -66.2577 -66.1822 -65.9730 -58.8405 -58.8103 -58.7742 -58.7190 -58.7113
   -58.6881 -58.6830 -58.6607 -58.6561 -33.2044 -33.1453 -33.1337 -33.0911
   -33.0864 -33.0346 -32.9972 -32.9911 -32.9467 -32.9313 -32.9184 -32.8433
   -32.7896 -32.7429 -32.7305 -32.6989 -32.6903 -32.6870 -32.6817 -32.6540
   -32.6443 -32.6293 -32.6114 -32.5703 -32.5644 -32.5296 -32.5243 -32.4322
   -32.4251 -32.4160 -32.4096 -32.2774 -32.2668 -32.2222 -32.1801 -32.1380
    -2.6993  -2.5035  -1.5414  -1.4841  -1.1535  -1.1318  -1.0047  -0.9136
    -0.8165  -0.8025  -0.4247  -0.2651  -0.2362  -0.1888  -0.0468  -0.0392
     0.3215   0.4315   0.4617   0.4877   0.5257   0.6909   0.8754   1.1544
     1.2468   1.2551   1.3584   1.3769   1.3860   1.4440   1.5096   1.5509
     1.6068   1.8029   1.8295   1.8398   1.9599   2.1407   2.4286   2.5683
     2.7371   2.9806   3.0024   3.2018   3.2768   3.3614   3.4941   3.6093
     3.6425   3.8688   3.9436   4.0331   4.1781   4.2031   4.4248   4.6565
     4.7635   4.9206   5.0836   5.2371   5.5626   5.8545   5.9303   6.0306

     the Fermi energy is     2.1220 ev

!    total energy              =   -1688.95198336 Ry
     Harris-Foulkes estimate   =   -1688.95198321 Ry
     estimated scf accuracy    <       0.00000029 Ry

     The total energy is the sum of the following terms:

     one-electron contribution =  -13881.75032648 Ry
     hartree contribution      =    6931.34559521 Ry
     xc contribution           =    -310.47085246 Ry
     ewald contribution        =    5572.03233918 Ry
     electric field correction =       0.00000001 Ry
     smearing contrib. (-TS)   =      -0.10873881 Ry

     convergence has been achieved in  18 iterations
 
 BEEF-vdW xc energy contributions
           1 :   -269.491944737764     
           2 :    247.247791817270     
           3 :   -208.851650456697     
           4 :    163.986874911044     
           5 :   -122.377470640121     
           6 :    90.6701329297359     
           7 :   -70.9503157621663     
           8 :    61.1787535000884     
           9 :   -57.0443490494231     
          10 :    54.1996215920334     
          11 :   -49.9195783465535     
          12 :    43.6419290402914     
          13 :   -36.4589365024360     
          14 :    30.0331639561313     
          15 :   -25.5552273029688     
          16 :    23.1847624949860     
          17 :   -22.1250273246648     
          18 :    21.1637528846932     
          19 :   -19.3441807059805     
          20 :    16.4095349682535     
          21 :   -12.8327765505485     
          22 :    9.46435022413982     
          23 :   -7.03078652192096     
          24 :    5.75978504175140     
          25 :   -5.31332809868150     
          26 :    5.02003932458274     
          27 :   -4.24942777980164     
          28 :    2.71513295307136     
          29 :  -0.568496798197032     
          30 :   -1.73444978708409     
          31 :   -27.8544540609632     
          32 :   -21.0899196207070     

     Forces acting on atoms (Ry/au):


     negative rho (up, down):  2.972E-01 0.000E+00
     atom    1 type  1   force =     0.00000017   -0.00910982   -0.00000668
     atom    2 type  1   force =    -0.00788922    0.00455479   -0.00000655
     atom    3 type  1   force =     0.00788913    0.00455480   -0.00000609
     atom    4 type  2   force =     0.00000001    0.00000053   -0.01317858
     atom    5 type  1   force =    -0.00000004    0.00558397    0.00354866
     atom    6 type  1   force =     0.00483609   -0.00279216    0.00354840
     atom    7 type  1   force =    -0.00483604   -0.00279207    0.00354830
     atom    8 type  2   force =    -0.00000101    0.00000012    0.00514901
     atom    9 type  1   force =    -0.00000012   -0.00100051   -0.00134517
     atom   10 type  1   force =    -0.00086613    0.00050006   -0.00134505
     atom   11 type  1   force =     0.00086609    0.00050036   -0.00134550
     atom   12 type  2   force =     0.00000108   -0.00000006    0.00143926

     Total force =     0.024310     Total SCF correction =     0.002244


     entering subroutine stress ...


     negative rho (up, down):  2.972E-01 0.000E+00
          total   stress  (Ry/bohr**3)                   (kbar)     P=  -34.18
  -0.00034674  -0.00000000   0.00000000        -51.01     -0.00      0.00
  -0.00000000  -0.00034674   0.00000000         -0.00    -51.01      0.00
   0.00000000   0.00000000  -0.00000357          0.00      0.00     -0.52

 !ASE

     Writing output data file calc.save
 
     init_run     :     23.69s CPU     37.40s WALL (       1 calls)
     electrons    :    366.27s CPU    602.69s WALL (       1 calls)
     forces       :      2.54s CPU      3.22s WALL (       1 calls)
     stress       :      5.72s CPU      6.67s WALL (       1 calls)

     Called by init_run:
     wfcinit      :     21.29s CPU     33.82s WALL (       1 calls)
     potinit      :      1.18s CPU      1.96s WALL (       1 calls)

     Called by electrons:
     c_bands      :    272.08s CPU    445.09s WALL (      18 calls)
     sum_band     :     50.01s CPU     89.96s WALL (      18 calls)
     v_of_rho     :     14.33s CPU     23.45s WALL (      19 calls)
     newd         :      5.70s CPU      6.25s WALL (      19 calls)
     mix_rho      :      0.62s CPU      0.98s WALL (      18 calls)
     vdW_energy   :      1.45s CPU      1.45s WALL (      55 calls)
     vdW_ffts     :     25.56s CPU     42.46s WALL (     112 calls)
     vdW_v        :      4.58s CPU      7.15s WALL (      55 calls)

     Called by c_bands:
     init_us_2    :      0.42s CPU      0.44s WALL (     780 calls)
     cegterg      :    266.77s CPU    438.60s WALL (     360 calls)

     Called by *egterg:
     h_psi        :    185.08s CPU    350.84s WALL (    1298 calls)
     s_psi        :      5.59s CPU      5.61s WALL (    1298 calls)
     g_psi        :      0.26s CPU      0.26s WALL (     918 calls)
     cdiaghg      :     56.40s CPU     59.68s WALL (    1278 calls)

     Called by h_psi:
     add_vuspsi   :      6.01s CPU      6.01s WALL (    1298 calls)

     General routines
     calbec       :     17.58s CPU     24.18s WALL (    1698 calls)
     fft          :     38.74s CPU     64.45s WALL (    3357 calls)
     ffts         :      0.10s CPU      0.15s WALL (      37 calls)
     fftw         :    197.91s CPU    395.19s WALL (  216896 calls)
     interpolate  :      0.48s CPU      0.88s WALL (      37 calls)
     davcio       :      0.00s CPU      0.01s WALL (      20 calls)
 
     Parallel routines
     fft_scatter  :    217.07s CPU    438.43s WALL (  220290 calls)
 
     PWSCF        :  6m39.23s CPU    10m51.62s WALL

 
   This run was terminated on:   4:50:40  27Dec2018            

=------------------------------------------------------------------------------=
   JOB DONE.
=------------------------------------------------------------------------------=
Job  /afs/slac/g/suncat/bin/suncat-tsmpirun -x LD_LIBRARY_PATH -wdir /scratch/qe110153_2E0ea pw.x -in pw.inp

TID   HOST_NAME   COMMAND_LINE            STATUS            TERMINATION_TIME
===== ========== ================  =======================  ===================
00000 suncat0277 pw.x -in pw.inp   Done                     12/27/2018 04:50:40
00001 suncat0277 pw.x -in pw.inp   Done                     12/27/2018 04:50:40
00002 suncat0277 pw.x -in pw.inp   Done                     12/27/2018 04:50:40
00003 suncat0277 pw.x -in pw.inp   Done                     12/27/2018 04:50:40
00004 suncat0277 pw.x -in pw.inp   Done                     12/27/2018 04:50:40
00005 suncat0277 pw.x -in pw.inp   Done                     12/27/2018 04:50:40
00006 suncat0277 pw.x -in pw.inp   Done                     12/27/2018 04:50:40
00007 suncat0277 pw.x -in pw.inp   Done                     12/27/2018 04:50:40
00008 suncat0276 pw.x -in pw.inp   Done                     12/27/2018 04:50:40
00009 suncat0276 pw.x -in pw.inp   Done                     12/27/2018 04:50:40
00010 suncat0276 pw.x -in pw.inp   Done                     12/27/2018 04:50:40
00011 suncat0276 pw.x -in pw.inp   Done                     12/27/2018 04:50:40
00012 suncat0276 pw.x -in pw.inp   Done                     12/27/2018 04:50:40
00013 suncat0276 pw.x -in pw.inp   Done                     12/27/2018 04:50:40
00014 suncat0276 pw.x -in pw.inp   Done                     12/27/2018 04:50:40
00015 suncat0276 pw.x -in pw.inp   Done                     12/27/2018 04:50:40
00016 suncat0274 pw.x -in pw.inp   Done                     12/27/2018 04:50:40
00017 suncat0274 pw.x -in pw.inp   Done                     12/27/2018 04:50:40
00018 suncat0274 pw.x -in pw.inp   Done                     12/27/2018 04:50:40
00019 suncat0274 pw.x -in pw.inp   Done                     12/27/2018 04:50:40
00020 suncat0274 pw.x -in pw.inp   Done                     12/27/2018 04:50:40
00021 suncat0274 pw.x -in pw.inp   Done                     12/27/2018 04:50:40
00022 suncat0274 pw.x -in pw.inp   Done                     12/27/2018 04:50:40
00023 suncat0274 pw.x -in pw.inp   Done                     12/27/2018 04:50:40
00024 suncat0273 pw.x -in pw.inp   Done                     12/27/2018 04:50:40
00025 suncat0273 pw.x -in pw.inp   Done                     12/27/2018 04:50:40
00026 suncat0273 pw.x -in pw.inp   Done                     12/27/2018 04:50:40
00027 suncat0273 pw.x -in pw.inp   Done                     12/27/2018 04:50:40
00028 suncat0273 pw.x -in pw.inp   Done                     12/27/2018 04:50:40
00029 suncat0273 pw.x -in pw.inp   Done                     12/27/2018 04:50:40
00030 suncat0273 pw.x -in pw.inp   Done                     12/27/2018 04:50:40
00031 suncat0273 pw.x -in pw.inp   Done                     12/27/2018 04:50:40
00032 suncat0230 pw.x -in pw.inp   Done                     12/27/2018 04:50:40
00033 suncat0230 pw.x -in pw.inp   Done                     12/27/2018 04:50:40
00034 suncat0230 pw.x -in pw.inp   Done                     12/27/2018 04:50:40
00035 suncat0230 pw.x -in pw.inp   Done                     12/27/2018 04:50:40
00036 suncat0230 pw.x -in pw.inp   Done                     12/27/2018 04:50:40
00037 suncat0230 pw.x -in pw.inp   Done                     12/27/2018 04:50:40
00038 suncat0230 pw.x -in pw.inp   Done                     12/27/2018 04:50:40
00039 suncat0230 pw.x -in pw.inp   Done                     12/27/2018 04:50:40
00040 suncat0229 pw.x -in pw.inp   Done                     12/27/2018 04:50:40
00041 suncat0229 pw.x -in pw.inp   Done                     12/27/2018 04:50:40
00042 suncat0229 pw.x -in pw.inp   Done                     12/27/2018 04:50:40
00043 suncat0229 pw.x -in pw.inp   Done                     12/27/2018 04:50:40
00044 suncat0229 pw.x -in pw.inp   Done                     12/27/2018 04:50:40
00045 suncat0229 pw.x -in pw.inp   Done                     12/27/2018 04:50:40
00046 suncat0229 pw.x -in pw.inp   Done                     12/27/2018 04:50:40
00047 suncat0229 pw.x -in pw.inp   Done                     12/27/2018 04:50:40
00048 suncat0205 pw.x -in pw.inp   Done                     12/27/2018 04:50:40
00049 suncat0205 pw.x -in pw.inp   Done                     12/27/2018 04:50:40
00050 suncat0205 pw.x -in pw.inp   Done                     12/27/2018 04:50:40
00051 suncat0205 pw.x -in pw.inp   Done                     12/27/2018 04:50:40
00052 suncat0205 pw.x -in pw.inp   Done                     12/27/2018 04:50:40
00053 suncat0205 pw.x -in pw.inp   Done                     12/27/2018 04:50:40
00054 suncat0205 pw.x -in pw.inp   Done                     12/27/2018 04:50:40
00055 suncat0205 pw.x -in pw.inp   Done                     12/27/2018 04:50:40
00056 suncat0204 pw.x -in pw.inp   Done                     12/27/2018 04:50:40
00057 suncat0204 pw.x -in pw.inp   Done                     12/27/2018 04:50:40
00058 suncat0204 pw.x -in pw.inp   Done                     12/27/2018 04:50:40
00059 suncat0204 pw.x -in pw.inp   Done                     12/27/2018 04:50:40
00060 suncat0204 pw.x -in pw.inp   Done                     12/27/2018 04:50:40
00061 suncat0204 pw.x -in pw.inp   Done                     12/27/2018 04:50:40
00062 suncat0204 pw.x -in pw.inp   Done                     12/27/2018 04:50:40
00063 suncat0204 pw.x -in pw.inp   Done                     12/27/2018 04:50:40
