  python dir          : /u/if/mamunm/src/espresso
  espresso dir        : /nfs/slac/g/suncatfs/sw/espv18/espresso-dynpy-beef/bin
  pseudo dir          : /afs/slac.stanford.edu/u/if/mamunm/psp/gbrv1.5pbe
  ase-espresso py git : GITVERSION



     Program PWSCF v.5.1rc2 (svn rev. 11289) starts on 27Dec2018 at  6:40:35 

     This program is part of the open-source Quantum ESPRESSO suite
     for quantum simulation of materials; please cite
         "P. Giannozzi et al., J. Phys.:Condens. Matter 21 395502 (2009);
          URL http://www.quantum-espresso.org", 
     in publications or presentations arising from this work. More details at
     http://www.quantum-espresso.org/quote

     Parallel version (MPI), running on    64 processors
     R & G space division:  proc/nbgrp/npool/nimage =      64
     Reading input from pw.inp
     Message from routine read_cards :
     DEPRECATED: no units specified in CELL_PARAMETERS card

     Current dimensions of program PWSCF are:
     Max number of different atomic species (ntypx) = 10
     Max number of k-points (npk) =  40000
     Max angular momentum in pseudopotentials (lmaxx) =  3
     Presently stress not available with electric field


     **************************************************************************
     Initializing libbeef V0.1.1 with the BEEF-vdW functional.
     Citation: Wellendorff et al., PRB 85, 235149 (2012).
     **************************************************************************


     IMPORTANT: XC functional enforced from input :
     Exchange-correlation      = BEEF-VDW ( 1  4 27 13 2)
     Any further DFT definition will be discarded
     Please, verify this is what you really want


     Subspace diagonalization in iterative solution of the eigenvalue problem:
     a serial algorithm will be used

 
     Parallelization info
     --------------------
     sticks:   dense  smooth     PW     G-vecs:    dense   smooth      PW
     Min          47      19      5                 9075     2285     363
     Max          48      20      6                 9108     2319     388
     Sum        3055    1237    367               582051   147313   24165
 


     bravais-lattice index     =            0
     lattice parameter (alat)  =       1.8897  a.u.
     unit-cell volume          =    4892.7611 (a.u.)^3
     number of atoms/cell      =           12
     number of atomic types    =            2
     number of electrons       =       165.00
     number of Kohn-Sham states=          112
     kinetic-energy cutoff     =      36.7493  Ry
     charge density cutoff     =     367.4932  Ry
     convergence threshold     =      1.0E-06
     mixing beta               =       0.1000
     number of iterations used =           10  plain     mixing
     Exchange-correlation      = BEEF-VDW ( 1  4 27 13 2)
     nstep                     =           50


     celldm(1)=   1.889726  celldm(2)=   0.000000  celldm(3)=   0.000000
     celldm(4)=   0.000000  celldm(5)=   0.000000  celldm(6)=   0.000000

     crystal axes: (cart. coord. in units of alat)
               a(1) = (   5.816152   0.000000   0.000000 )  
               a(2) = (  -2.908076   5.036935   0.000000 )  
               a(3) = (   0.000000   0.000000  24.748868 )  

     reciprocal axes: (cart. coord. in units 2 pi/alat)
               b(1) = (  0.171935  0.099267  0.000000 )  
               b(2) = (  0.000000  0.198533  0.000000 )  
               b(3) = (  0.000000  0.000000  0.040406 )  


     PseudoPot. # 1 for Nb read from file:
     /afs/slac.stanford.edu/u/if/mamunm/psp/gbrv1.5pbe/Nb.UPF
     MD5 check sum: 573aab8a2fa660278ed4a62cd769473f
     Pseudo is Ultrasoft + core correction, Zval = 13.0
     Generated by new atomic code, or converted to UPF format
     Using radial grid of  887 points,  6 beta functions with: 
                l(1) =   0
                l(2) =   0
                l(3) =   1
                l(4) =   1
                l(5) =   2
                l(6) =   2
     Q(r) pseudized with  6 coefficients,  rinner =    1.000   1.000   1.000
                                                       1.000   1.000

     PseudoPot. # 2 for Ru read from file:
     /afs/slac.stanford.edu/u/if/mamunm/psp/gbrv1.5pbe/Ru.UPF
     MD5 check sum: 7158a806dd851261a58e6920c40ebe78
     Pseudo is Ultrasoft + core correction, Zval = 16.0
     Generated by new atomic code, or converted to UPF format
     Using radial grid of  967 points,  6 beta functions with: 
                l(1) =   0
                l(2) =   0
                l(3) =   1
                l(4) =   1
                l(5) =   2
                l(6) =   2
     Q(r) pseudized with  8 coefficients,  rinner =    1.300   1.300   1.300
                                                       1.300   1.300

     vdW kernel table read from file vdW_kernel_table
     MD5 check sum: 095c7af220d748ca6e76c0b4c6cfb241

     atomic species   valence    mass     pseudopotential
        Nb1           13.00    92.90637     Nb( 1.00)
        Ru1           16.00   101.07000     Ru( 1.00)

     No symmetry found



   Cartesian axes

     site n.     atom                  positions (alat units)
         1           Nb1 tau(   1) = (   0.0000000   0.0000000  10.0000000  )
         2           Nb1 tau(   2) = (  -1.4540379   2.5184675  10.0000000  )
         3           Nb1 tau(   3) = (   1.4540379   2.5184675  10.0000000  )
         4           Ru1 tau(   4) = (   2.9080758   0.0000000  10.0000000  )
         5           Nb1 tau(   5) = (   2.9080758   1.6789784  12.3744340  )
         6           Nb1 tau(   6) = (   1.4540379   4.1974459  12.3744340  )
         7           Nb1 tau(   7) = (  -1.4540379   4.1974459  12.3744340  )
         8           Ru1 tau(   8) = (   0.0000000   1.6789784  12.3744340  )
         9           Nb1 tau(   9) = (  -0.0000000   3.3579567  14.7488679  )
        10           Nb1 tau(  10) = (   1.4540379   0.8394892  14.7488679  )
        11           Nb1 tau(  11) = (   4.3621137   0.8394892  14.7488679  )
        12           Ru1 tau(  12) = (   2.9080758   3.3579567  14.7488679  )

     number of k points=    20  Fermi-Dirac smearing, width (Ry)=  0.0110
                       cart. coord. in units 2pi/alat
        k(    1) = (   0.0000000   0.0000000   0.0000000), wk =   0.0555556
        k(    2) = (   0.0000000   0.0330889   0.0000000), wk =   0.1111111
        k(    3) = (   0.0000000   0.0661778   0.0000000), wk =   0.1111111
        k(    4) = (   0.0000000  -0.0992667   0.0000000), wk =   0.0555556
        k(    5) = (   0.0286558   0.0165445   0.0000000), wk =   0.1111111
        k(    6) = (   0.0286558   0.0496334   0.0000000), wk =   0.1111111
        k(    7) = (   0.0286558   0.0827223   0.0000000), wk =   0.1111111
        k(    8) = (   0.0286558  -0.0827223   0.0000000), wk =   0.1111111
        k(    9) = (   0.0286558  -0.0496334   0.0000000), wk =   0.1111111
        k(   10) = (   0.0286558  -0.0165445   0.0000000), wk =   0.1111111
        k(   11) = (   0.0573117   0.0330889   0.0000000), wk =   0.1111111
        k(   12) = (   0.0573117   0.0661778   0.0000000), wk =   0.1111111
        k(   13) = (   0.0573117   0.0992667   0.0000000), wk =   0.1111111
        k(   14) = (   0.0573117  -0.0661778   0.0000000), wk =   0.1111111
        k(   15) = (   0.0573117  -0.0330889   0.0000000), wk =   0.1111111
        k(   16) = (   0.0573117   0.0000000   0.0000000), wk =   0.1111111
        k(   17) = (  -0.0859675  -0.0496334   0.0000000), wk =   0.0555556
        k(   18) = (  -0.0859675  -0.0165445   0.0000000), wk =   0.1111111
        k(   19) = (  -0.0859675   0.0165445   0.0000000), wk =   0.1111111
        k(   20) = (  -0.0859675  -0.1489001   0.0000000), wk =   0.0555556

     Dense  grid:   582051 G-vectors     FFT dimensions: (  72,  72, 288)

     Smooth grid:   147313 G-vectors     FFT dimensions: (  45,  45, 192)

     Largest allocated arrays     est. size (Mb)     dimensions
        Kohn-Sham Wavefunctions         0.52 Mb     (     307,  112)
        NL pseudopotentials             1.01 Mb     (     307,  216)
        Each V/rho on FFT grid          0.40 Mb     (   25920)
        Each G-vector array             0.07 Mb     (    9090)
        G-vector shells                 0.03 Mb     (    4037)
     Largest temporary arrays     est. size (Mb)     dimensions
        Auxiliary wavefunctions         2.10 Mb     (     307,  448)
        Each subspace H/S matrix        3.06 Mb     (     448,  448)
        Each <psi_i|beta_j> matrix      0.37 Mb     (     216,  112)
        Arrays for rho mixing           3.96 Mb     (   25920,   10)

     Initial potential from superposition of free atoms
     Check: negative starting charge=   -0.225850

     starting charge  161.97535, renormalised to  165.00000

     negative rho (up, down):  2.301E-01 0.000E+00


     ************************************************************************
     *
     * You are using vdW-DF for exchange-correlation in this calculation.
     * Please cite the following three references that made this development
     * possible:
     *
     *   M. Dion, H. Rydberg, E. Schroder, D. C. Langreth, and
     *   B. I. Lundqvist, Phys. Rev. Lett. 92, 246401 (2004).
     *
     *   T. Thonhauser, V. R. Cooper, S. Li, A. Puzder, P. Hyldgaard, and
     *   D. C. Langreth, Phys. Rev. B 76, 125112 (2007).
     *
     *   G. Roman-Perez and J. M. Soler, Phys. Rev. Lett. 103, 096102 (2009).
     *
     *
     * If you are using vdW-DF2, please also cite:
     *
     *   K. Lee, E. D. Murray, L. Kong, B. I. Lundqvist, and
     *   D. C. Langreth, Phys. Rev. B 82, 081101(R) (2010).
     *
     *
     * If you are calculating the stress with vdW-DF, please also cite:
     *
     *   R. Sabatini, E. Kucukbenli, B. Kolb, T. Thonhauser, and
     *   S. de Gironcoli, J. Phys.: Condens. Matter 24, 424209 (2012).
     *
     ************************************************************************

     Carrying out vdW-DF run using the following parameters:

     Nqs =      20    Nr_points =    1024   r_max =   100.000
     q_mesh =
               0.00001000     0.04494208     0.09755937     0.15916263
               0.23128650     0.31572767     0.41458969     0.53033537
               0.66584808     0.82450364     1.01025438     1.22772762
               1.48234092     1.78043706     2.12944203     2.53805004
               3.01644009     3.57652955     4.23227104     5.00000000

     Gradients computed in reciprocal space

     ************************************************************************


 
     Adding external electric field

     Computed dipole along edir(3) : 
        Dipole                0.0000 Ry au,          0.0000 Debye
        Dipole field          0.0000 Ry au
 
        Potential amp.       -0.0000 Ry
        Total length         45.5994 bohr
 
     Starting wfc are  156 randomized atomic wfcs

     total cpu time spent up to now is       17.1 secs

     per-process dynamical memory:    39.4 Mb

     Self-consistent Calculation

     iteration #  1     ecut=    36.75 Ry     beta=0.10
     Davidson diagonalization with overlap
     ethr =  1.00E-02,  avg # of iterations =  2.0

     negative rho (up, down):  2.287E-01 0.000E+00
 
     Adding external electric field

     Computed dipole along edir(3) : 
        Dipole               -0.0002 Ry au,         -0.0004 Debye
        Dipole field         -0.0000 Ry au
 
        Potential amp.        0.0000 Ry
        Total length         45.5994 bohr
 

     total cpu time spent up to now is       51.2 secs

     total energy              =   -1651.72366445 Ry
     Harris-Foulkes estimate   =   -1653.61105009 Ry
     estimated scf accuracy    <      10.96308145 Ry

     iteration #  2     ecut=    36.75 Ry     beta=0.10
     Davidson diagonalization with overlap
     ethr =  6.64E-03,  avg # of iterations =  1.0

     negative rho (up, down):  2.286E-01 0.000E+00
 
     Adding external electric field

     Computed dipole along edir(3) : 
        Dipole                0.0001 Ry au,          0.0003 Debye
        Dipole field          0.0000 Ry au
 
        Potential amp.       -0.0000 Ry
        Total length         45.5994 bohr
 

     total cpu time spent up to now is       80.3 secs

     total energy              =   -1652.18750304 Ry
     Harris-Foulkes estimate   =   -1652.62326182 Ry
     estimated scf accuracy    <       3.61261898 Ry

     iteration #  3     ecut=    36.75 Ry     beta=0.10
     Davidson diagonalization with overlap
     ethr =  2.19E-03,  avg # of iterations =  1.0

     negative rho (up, down):  2.287E-01 0.000E+00
 
     Adding external electric field

     Computed dipole along edir(3) : 
        Dipole               -0.0024 Ry au,         -0.0061 Debye
        Dipole field         -0.0000 Ry au
 
        Potential amp.        0.0006 Ry
        Total length         45.5994 bohr
 

     total cpu time spent up to now is      109.0 secs

     total energy              =   -1652.20344285 Ry
     Harris-Foulkes estimate   =   -1652.39851470 Ry
     estimated scf accuracy    <       1.59218671 Ry

     iteration #  4     ecut=    36.75 Ry     beta=0.10
     Davidson diagonalization with overlap
     ethr =  9.65E-04,  avg # of iterations =  1.0

     negative rho (up, down):  2.297E-01 0.000E+00
 
     Adding external electric field

     Computed dipole along edir(3) : 
        Dipole                0.0571 Ry au,          0.1452 Debye
        Dipole field          0.0001 Ry au
 
        Potential amp.       -0.0134 Ry
        Total length         45.5994 bohr
 

     total cpu time spent up to now is      136.8 secs

     total energy              =   -1651.94351107 Ry
     Harris-Foulkes estimate   =   -1652.24135380 Ry
     estimated scf accuracy    <       0.84496642 Ry

     iteration #  5     ecut=    36.75 Ry     beta=0.10
     Davidson diagonalization with overlap
     ethr =  5.12E-04,  avg # of iterations =  2.4

     negative rho (up, down):  2.301E-01 0.000E+00
 
     Adding external electric field

     Computed dipole along edir(3) : 
        Dipole               -0.2412 Ry au,         -0.6131 Debye
        Dipole field         -0.0006 Ry au
 
        Potential amp.        0.0565 Ry
        Total length         45.5994 bohr
 

     total cpu time spent up to now is      170.6 secs

     total energy              =   -1651.96796318 Ry
     Harris-Foulkes estimate   =   -1652.02105114 Ry
     estimated scf accuracy    <       0.46861464 Ry

     iteration #  6     ecut=    36.75 Ry     beta=0.10
     Davidson diagonalization with overlap
     ethr =  2.84E-04,  avg # of iterations =  4.4

     negative rho (up, down):  2.306E-01 0.000E+00
 
     Adding external electric field

     Computed dipole along edir(3) : 
        Dipole               -0.0008 Ry au,         -0.0019 Debye
        Dipole field         -0.0000 Ry au
 
        Potential amp.        0.0002 Ry
        Total length         45.5994 bohr
 

     total cpu time spent up to now is      204.5 secs

     total energy              =   -1651.93423569 Ry
     Harris-Foulkes estimate   =   -1652.06134192 Ry
     estimated scf accuracy    <       5.82741367 Ry

     iteration #  7     ecut=    36.75 Ry     beta=0.10
     Davidson diagonalization with overlap
     ethr =  2.84E-04,  avg # of iterations =  1.1

     negative rho (up, down):  2.317E-01 0.000E+00
 
     Adding external electric field

     Computed dipole along edir(3) : 
        Dipole                0.0055 Ry au,          0.0139 Debye
        Dipole field          0.0000 Ry au
 
        Potential amp.       -0.0013 Ry
        Total length         45.5994 bohr
 

     total cpu time spent up to now is      233.3 secs

     total energy              =   -1651.99504102 Ry
     Harris-Foulkes estimate   =   -1651.99607705 Ry
     estimated scf accuracy    <       0.02565778 Ry

     iteration #  8     ecut=    36.75 Ry     beta=0.10
     Davidson diagonalization with overlap
     ethr =  1.56E-05,  avg # of iterations =  6.5

     negative rho (up, down):  2.326E-01 0.000E+00
 
     Adding external electric field

     Computed dipole along edir(3) : 
        Dipole               -0.0065 Ry au,         -0.0166 Debye
        Dipole field         -0.0000 Ry au
 
        Potential amp.        0.0015 Ry
        Total length         45.5994 bohr
 

     total cpu time spent up to now is      274.9 secs

     total energy              =   -1651.99571195 Ry
     Harris-Foulkes estimate   =   -1651.99751577 Ry
     estimated scf accuracy    <       0.01670770 Ry

     iteration #  9     ecut=    36.75 Ry     beta=0.10
     Davidson diagonalization with overlap
     ethr =  1.01E-05,  avg # of iterations =  2.0

     negative rho (up, down):  2.333E-01 0.000E+00
 
     Adding external electric field

     Computed dipole along edir(3) : 
        Dipole               -0.0035 Ry au,         -0.0089 Debye
        Dipole field         -0.0000 Ry au
 
        Potential amp.        0.0008 Ry
        Total length         45.5994 bohr
 

     total cpu time spent up to now is      305.8 secs

     total energy              =   -1651.99343484 Ry
     Harris-Foulkes estimate   =   -1651.99933866 Ry
     estimated scf accuracy    <       0.02993966 Ry

     iteration # 10     ecut=    36.75 Ry     beta=0.10
     Davidson diagonalization with overlap
     ethr =  1.01E-05,  avg # of iterations =  2.5

     negative rho (up, down):  2.333E-01 0.000E+00
 
     Adding external electric field

     Computed dipole along edir(3) : 
        Dipole               -0.0029 Ry au,         -0.0075 Debye
        Dipole field         -0.0000 Ry au
 
        Potential amp.        0.0007 Ry
        Total length         45.5994 bohr
 

     total cpu time spent up to now is      340.5 secs

     total energy              =   -1651.99939867 Ry
     Harris-Foulkes estimate   =   -1652.00072707 Ry
     estimated scf accuracy    <       0.03744511 Ry

     iteration # 11     ecut=    36.75 Ry     beta=0.10
     Davidson diagonalization with overlap
     ethr =  1.01E-05,  avg # of iterations =  1.0

     negative rho (up, down):  2.334E-01 0.000E+00
 
     Adding external electric field

     Computed dipole along edir(3) : 
        Dipole                0.0009 Ry au,          0.0023 Debye
        Dipole field          0.0000 Ry au
 
        Potential amp.       -0.0002 Ry
        Total length         45.5994 bohr
 

     total cpu time spent up to now is      370.3 secs

     total energy              =   -1651.99760169 Ry
     Harris-Foulkes estimate   =   -1651.99956659 Ry
     estimated scf accuracy    <       0.02193851 Ry

     iteration # 12     ecut=    36.75 Ry     beta=0.10
     Davidson diagonalization with overlap
     ethr =  1.01E-05,  avg # of iterations =  1.0

     negative rho (up, down):  2.335E-01 0.000E+00
 
     Adding external electric field

     Computed dipole along edir(3) : 
        Dipole                0.0012 Ry au,          0.0030 Debye
        Dipole field          0.0000 Ry au
 
        Potential amp.       -0.0003 Ry
        Total length         45.5994 bohr
 

     total cpu time spent up to now is      400.1 secs

     total energy              =   -1651.99770735 Ry
     Harris-Foulkes estimate   =   -1651.99818009 Ry
     estimated scf accuracy    <       0.00382240 Ry

     iteration # 13     ecut=    36.75 Ry     beta=0.10
     Davidson diagonalization with overlap
     ethr =  2.32E-06,  avg # of iterations =  1.1

     negative rho (up, down):  2.335E-01 0.000E+00
 
     Adding external electric field

     Computed dipole along edir(3) : 
        Dipole                0.0003 Ry au,          0.0007 Debye
        Dipole field          0.0000 Ry au
 
        Potential amp.       -0.0001 Ry
        Total length         45.5994 bohr
 

     total cpu time spent up to now is      430.3 secs

     total energy              =   -1651.99795360 Ry
     Harris-Foulkes estimate   =   -1651.99795382 Ry
     estimated scf accuracy    <       0.00011031 Ry

     iteration # 14     ecut=    36.75 Ry     beta=0.10
     Davidson diagonalization with overlap
     ethr =  6.69E-08,  avg # of iterations =  4.0

     negative rho (up, down):  2.335E-01 0.000E+00
 
     Adding external electric field

     Computed dipole along edir(3) : 
        Dipole               -0.0003 Ry au,         -0.0007 Debye
        Dipole field         -0.0000 Ry au
 
        Potential amp.        0.0001 Ry
        Total length         45.5994 bohr
 

     total cpu time spent up to now is      469.8 secs

     total energy              =   -1651.99796937 Ry
     Harris-Foulkes estimate   =   -1651.99797518 Ry
     estimated scf accuracy    <       0.00008981 Ry

     iteration # 15     ecut=    36.75 Ry     beta=0.10
     Davidson diagonalization with overlap
     ethr =  5.44E-08,  avg # of iterations =  1.0

     negative rho (up, down):  2.335E-01 0.000E+00
 
     Adding external electric field

     Computed dipole along edir(3) : 
        Dipole               -0.0002 Ry au,         -0.0006 Debye
        Dipole field         -0.0000 Ry au
 
        Potential amp.        0.0001 Ry
        Total length         45.5994 bohr
 

     total cpu time spent up to now is      500.0 secs

     total energy              =   -1651.99797488 Ry
     Harris-Foulkes estimate   =   -1651.99797469 Ry
     estimated scf accuracy    <       0.00001122 Ry

     iteration # 16     ecut=    36.75 Ry     beta=0.10
     Davidson diagonalization with overlap
     ethr =  6.80E-09,  avg # of iterations =  1.5

     negative rho (up, down):  2.334E-01 0.000E+00
 
     Adding external electric field

     Computed dipole along edir(3) : 
        Dipole                0.0000 Ry au,          0.0000 Debye
        Dipole field          0.0000 Ry au
 
        Potential amp.       -0.0000 Ry
        Total length         45.5994 bohr
 

     total cpu time spent up to now is      530.5 secs

     total energy              =   -1651.99797588 Ry
     Harris-Foulkes estimate   =   -1651.99797546 Ry
     estimated scf accuracy    <       0.00000390 Ry

     iteration # 17     ecut=    36.75 Ry     beta=0.10
     Davidson diagonalization with overlap
     ethr =  2.37E-09,  avg # of iterations =  2.0

     negative rho (up, down):  2.334E-01 0.000E+00
 
     Adding external electric field

     Computed dipole along edir(3) : 
        Dipole                0.0003 Ry au,          0.0008 Debye
        Dipole field          0.0000 Ry au
 
        Potential amp.       -0.0001 Ry
        Total length         45.5994 bohr
 

     total cpu time spent up to now is      561.5 secs

     total energy              =   -1651.99797718 Ry
     Harris-Foulkes estimate   =   -1651.99797634 Ry
     estimated scf accuracy    <       0.00000312 Ry

     iteration # 18     ecut=    36.75 Ry     beta=0.10
     Davidson diagonalization with overlap
     ethr =  1.89E-09,  avg # of iterations =  1.9

     negative rho (up, down):  2.334E-01 0.000E+00
 
     Adding external electric field

     Computed dipole along edir(3) : 
        Dipole                0.0001 Ry au,          0.0004 Debye
        Dipole field          0.0000 Ry au
 
        Potential amp.       -0.0000 Ry
        Total length         45.5994 bohr
 

     total cpu time spent up to now is      592.9 secs

     total energy              =   -1651.99797781 Ry
     Harris-Foulkes estimate   =   -1651.99797731 Ry
     estimated scf accuracy    <       0.00000476 Ry

     iteration # 19     ecut=    36.75 Ry     beta=0.10
     Davidson diagonalization with overlap
     ethr =  1.89E-09,  avg # of iterations =  2.0

     negative rho (up, down):  2.334E-01 0.000E+00

     negative rho (up, down):  2.334E-01 0.000E+00

     negative rho (up, down):  2.334E-01 0.000E+00

     negative rho (up, down):  2.334E-01 0.000E+00

     negative rho (up, down):  2.334E-01 0.000E+00

     negative rho (up, down):  2.334E-01 0.000E+00

     negative rho (up, down):  2.334E-01 0.000E+00

     negative rho (up, down):  2.334E-01 0.000E+00

     negative rho (up, down):  2.334E-01 0.000E+00

     negative rho (up, down):  2.334E-01 0.000E+00

     negative rho (up, down):  2.334E-01 0.000E+00

     negative rho (up, down):  2.334E-01 0.000E+00

     negative rho (up, down):  2.334E-01 0.000E+00

     negative rho (up, down):  2.334E-01 0.000E+00

     negative rho (up, down):  2.334E-01 0.000E+00

     negative rho (up, down):  2.334E-01 0.000E+00

     negative rho (up, down):  2.334E-01 0.000E+00

     negative rho (up, down):  2.334E-01 0.000E+00

     negative rho (up, down):  2.334E-01 0.000E+00

     negative rho (up, down):  2.334E-01 0.000E+00

     negative rho (up, down):  2.334E-01 0.000E+00

     negative rho (up, down):  2.334E-01 0.000E+00

     negative rho (up, down):  2.334E-01 0.000E+00

     negative rho (up, down):  2.334E-01 0.000E+00

     negative rho (up, down):  2.334E-01 0.000E+00

     negative rho (up, down):  2.334E-01 0.000E+00

     negative rho (up, down):  2.334E-01 0.000E+00

     negative rho (up, down):  2.334E-01 0.000E+00

     negative rho (up, down):  2.334E-01 0.000E+00

     negative rho (up, down):  2.334E-01 0.000E+00

     negative rho (up, down):  2.334E-01 0.000E+00

     negative rho (up, down):  2.334E-01 0.000E+00

     negative rho (up, down):  2.334E-01 0.000E+00

     negative rho (up, down):  2.334E-01 0.000E+00

     negative rho (up, down):  2.334E-01 0.000E+00
 
     Adding external electric field

     Computed dipole along edir(3) : 
        Dipole               -0.0006 Ry au,         -0.0015 Debye
        Dipole field         -0.0000 Ry au
 
        Potential amp.        0.0001 Ry
        Total length         45.5994 bohr
 

     total cpu time spent up to now is      665.6 secs

     End of self-consistent calculation

          k = 0.0000 0.0000 0.0000 ( 18451 PWs)   bands (ev):

   -70.4846 -70.1680 -70.1680 -53.0948 -53.0713 -52.9532 -52.9532 -52.9470
   -52.9470 -52.9247 -52.8163 -52.8163 -40.4692 -40.4203 -40.4203 -40.1350
   -40.1330 -40.1330 -40.1324 -40.1323 -40.1323 -29.6575 -29.5290 -29.4532
   -29.3559 -29.3559 -29.3541 -29.3095 -29.3095 -29.2165 -29.2165 -29.1879
   -29.0608 -29.0608 -28.9410 -28.9410 -28.8177 -28.7383 -28.6937 -28.6751
   -28.6751 -28.5787 -28.5438 -28.5438 -28.5370 -28.5370 -28.4731 -28.4731
    -3.6079  -2.3109  -2.0062  -1.9118  -1.9118  -1.8856  -1.5927  -1.5484
    -1.5484  -1.2956  -1.2956  -1.2765  -1.1170  -1.1170  -1.0458  -0.1189
    -0.1189   0.1345   0.5575   0.5575   0.7871   0.8307   1.1700   1.6047
     1.6047   1.7730   1.7730   1.7889   1.8735   1.8735   1.9570   1.9570
     1.9584   2.3459   2.3459   2.5253   2.9384   2.9561   2.9561   3.0709
     3.1825   3.1825   3.5170   3.5170   4.0577   4.0929   4.4940   4.4940
     4.5810   4.7503   4.7503   4.8800   4.8800   5.4542   5.4542   5.5092
     5.5092   5.8491   5.8604   5.8604   5.8760   5.8760   6.1244   6.1244

          k = 0.0000 0.0331 0.0000 ( 18443 PWs)   bands (ev):

   -70.4846 -70.1680 -70.1680 -53.0864 -53.0644 -52.9620 -52.9552 -52.9533
   -52.9470 -52.9173 -52.8229 -52.8163 -40.4692 -40.4200 -40.4194 -40.1349
   -40.1327 -40.1326 -40.1320 -40.1318 -40.1313 -29.6138 -29.4826 -29.4141
   -29.3549 -29.3360 -29.3327 -29.3079 -29.2809 -29.2072 -29.1831 -29.1801
   -29.0735 -29.0720 -28.9423 -28.9257 -28.8359 -28.7806 -28.7028 -28.6809
   -28.6596 -28.6050 -28.6004 -28.5954 -28.5573 -28.5471 -28.5264 -28.4800
    -3.3805  -2.0810  -1.8158  -1.7774  -1.7433  -1.6997  -1.5211  -1.3994
    -1.3888  -1.1829  -1.1629  -1.1465  -0.9933  -0.9039  -0.8200  -0.0952
    -0.0524   0.1847   0.5877   0.6147   0.7013   0.8950   1.1943   1.2950
     1.5340   1.6144   1.7022   1.7670   1.8519   1.8754   1.9085   1.9659
     2.0912   2.1437   2.1880   2.4339   2.6624   2.7436   2.8078   2.9298
     2.9703   3.0156   3.3285   3.4453   3.7100   3.8321   3.9471   3.9632
     4.1513   4.5763   4.6485   4.7534   4.8896   5.1207   5.3106   5.3889
     5.3980   5.5554   5.5818   5.7468   5.7901   5.8297   5.9401   6.0049

          k = 0.0000 0.0662 0.0000 ( 18394 PWs)   bands (ev):

   -70.4846 -70.1680 -70.1680 -53.0641 -53.0471 -52.9851 -52.9739 -52.9536
   -52.9470 -52.8995 -52.8402 -52.8162 -40.4691 -40.4193 -40.4175 -40.1345
   -40.1330 -40.1320 -40.1313 -40.1298 -40.1295 -29.5174 -29.4135 -29.3697
   -29.3297 -29.2762 -29.2726 -29.2426 -29.2103 -29.1587 -29.1553 -29.1037
   -29.0933 -29.0859 -28.9434 -28.9069 -28.8711 -28.8673 -28.8121 -28.7659
   -28.7253 -28.6920 -28.6584 -28.6399 -28.6210 -28.5805 -28.5609 -28.4903
    -2.7718  -1.6833  -1.5093  -1.3988  -1.3500  -1.2361  -1.2153  -1.0007
    -0.9880  -0.8838  -0.7891  -0.7338  -0.6917  -0.3803  -0.2197  -0.0314
     0.1013   0.2203   0.4613   0.5346   0.7434   0.7460   0.9006   1.1104
     1.2268   1.2389   1.4077   1.5256   1.6473   1.6808   1.8001   1.8462
     1.9724   1.9813   2.1523   2.1830   2.2610   2.3684   2.5144   2.5490
     2.7043   2.7082   2.7564   2.8919   3.0880   3.2088   3.5570   3.6700
     3.8882   4.0313   4.2235   4.3848   4.4658   4.6914   4.8087   4.8642
     4.9840   5.0451   5.1353   5.2543   5.3347   5.4311   5.7951   5.9089

          k = 0.0000-0.0993 0.0000 ( 18364 PWs)   bands (ev):

   -70.4845 -70.1680 -70.1680 -53.0403 -53.0397 -53.0024 -52.9887 -52.9537
   -52.9470 -52.8845 -52.8551 -52.8161 -40.4691 -40.4190 -40.4165 -40.1342
   -40.1333 -40.1316 -40.1310 -40.1288 -40.1286 -29.4475 -29.4391 -29.3491
   -29.3043 -29.2368 -29.2350 -29.1754 -29.1605 -29.1008 -29.0933 -29.0536
   -29.0522 -28.9882 -28.9728 -28.9688 -28.9582 -28.9570 -28.9074 -28.8269
   -28.7951 -28.7942 -28.6677 -28.6362 -28.6357 -28.5893 -28.5675 -28.4943
    -2.0894  -2.0020  -1.2140  -1.1791  -1.0838  -0.8671  -0.8490  -0.8032
    -0.7754  -0.5983  -0.4836  -0.4153  -0.1565  -0.1340  -0.1214   0.0424
     0.1362   0.2587   0.3690   0.4735   0.7117   0.7473   0.8102   0.8460
     0.8808   0.9359   1.2683   1.3370   1.3875   1.5168   1.6473   1.6633
     1.7200   1.7332   1.8098   1.8456   1.9026   2.0438   2.2852   2.4656
     2.6012   2.7780   2.8834   2.9895   3.2353   3.3239   3.3292   3.4488
     3.6159   3.8649   3.8916   4.0459   4.2076   4.2498   4.3804   4.5857
     4.6932   4.7533   4.9062   5.1405   5.2986   5.6310   5.8262   5.8667

          k = 0.0287 0.0165 0.0000 ( 18443 PWs)   bands (ev):

   -70.4846 -70.1680 -70.1680 -53.0864 -53.0644 -52.9620 -52.9552 -52.9533
   -52.9470 -52.9173 -52.8229 -52.8163 -40.4692 -40.4200 -40.4194 -40.1349
   -40.1327 -40.1326 -40.1320 -40.1318 -40.1313 -29.6138 -29.4826 -29.4141
   -29.3549 -29.3360 -29.3327 -29.3079 -29.2809 -29.2072 -29.1832 -29.1801
   -29.0735 -29.0720 -28.9423 -28.9257 -28.8359 -28.7806 -28.7028 -28.6809
   -28.6596 -28.6050 -28.6004 -28.5954 -28.5573 -28.5471 -28.5264 -28.4799
    -3.3805  -2.0810  -1.8158  -1.7774  -1.7433  -1.6997  -1.5211  -1.3994
    -1.3888  -1.1829  -1.1629  -1.1465  -0.9933  -0.9039  -0.8200  -0.0952
    -0.0524   0.1847   0.5877   0.6147   0.7013   0.8950   1.1943   1.2950
     1.5340   1.6144   1.7022   1.7670   1.8519   1.8754   1.9085   1.9659
     2.0912   2.1437   2.1880   2.4339   2.6624   2.7436   2.8078   2.9298
     2.9703   3.0156   3.3285   3.4453   3.7100   3.8321   3.9471   3.9632
     4.1513   4.5763   4.6485   4.7534   4.8896   5.1207   5.3106   5.3889
     5.3980   5.5554   5.5818   5.7468   5.7901   5.8297   5.9401   6.0049

          k = 0.0287 0.0496 0.0000 ( 18413 PWs)   bands (ev):

   -70.4846 -70.1680 -70.1680 -53.0710 -53.0519 -52.9748 -52.9728 -52.9512
   -52.9488 -52.9047 -52.8345 -52.8166 -40.4691 -40.4194 -40.4181 -40.1346
   -40.1329 -40.1319 -40.1314 -40.1304 -40.1301 -29.5411 -29.4083 -29.3570
   -29.3527 -29.3121 -29.3117 -29.2657 -29.2173 -29.1894 -29.1711 -29.1150
   -29.0887 -29.0867 -28.9535 -28.8918 -28.8744 -28.8547 -28.7459 -28.7238
   -28.6926 -28.6540 -28.6510 -28.6375 -28.6085 -28.5752 -28.5585 -28.5042
    -2.9578  -1.6700  -1.5581  -1.5483  -1.4217  -1.3687  -1.3180  -1.2977
    -1.0267  -0.9657  -0.9243  -0.8415  -0.6907  -0.6504  -0.3784  -0.0459
     0.0455   0.2253   0.5375   0.5734   0.6949   0.9366   0.9433   1.1145
     1.2340   1.3197   1.5529   1.5813   1.6969   1.7038   1.8577   1.8852
     2.0120   2.1018   2.1591   2.2697   2.3924   2.4563   2.5174   2.7661
     2.7768   2.8644   2.8737   3.0416   3.0863   3.3390   3.4436   3.7157
     4.1261   4.2637   4.3494   4.4487   4.5447   4.7885   4.8722   4.9541
     5.0801   5.1964   5.3511   5.5303   5.6427   5.8140   5.9517   5.9833

          k = 0.0287 0.0827 0.0000 ( 18385 PWs)   bands (ev):

   -70.4846 -70.1680 -70.1680 -53.0454 -53.0344 -52.9989 -52.9920 -52.9525
   -52.9492 -52.8855 -52.8527 -52.8171 -40.4691 -40.4186 -40.4170 -40.1342
   -40.1333 -40.1311 -40.1306 -40.1292 -40.1290 -29.4493 -29.3939 -29.3202
   -29.2983 -29.2794 -29.2348 -29.2004 -29.1496 -29.1429 -29.1232 -29.1119
   -29.0557 -29.0192 -28.9914 -28.9820 -28.9333 -28.8692 -28.8609 -28.8126
   -28.7930 -28.7084 -28.6789 -28.6461 -28.6403 -28.5955 -28.5925 -28.5238
    -2.2553  -1.6350  -1.1884  -1.1184  -1.0915  -1.0321  -0.8900  -0.8224
    -0.6264  -0.6027  -0.5524  -0.3647  -0.3200  -0.2488  -0.0798   0.1148
     0.1469   0.2827   0.3275   0.4558   0.5631   0.6439   0.7232   0.8789
     0.9478   1.1004   1.1716   1.2537   1.2906   1.3711   1.4749   1.5798
     1.7458   1.7881   1.8582   1.9568   2.1151   2.2043   2.2672   2.4517
     2.5141   2.6801   2.9208   3.0734   3.1380   3.2836   3.3578   3.4914
     3.6589   3.8776   3.9310   4.2337   4.4170   4.5040   4.6758   4.7432
     4.8261   4.9344   4.9508   5.2025   5.3410   5.3803   5.5702   5.8861

          k = 0.0287-0.0827 0.0000 ( 18385 PWs)   bands (ev):

   -70.4846 -70.1680 -70.1680 -53.0454 -53.0344 -52.9989 -52.9920 -52.9525
   -52.9492 -52.8855 -52.8527 -52.8171 -40.4691 -40.4186 -40.4170 -40.1342
   -40.1333 -40.1311 -40.1306 -40.1292 -40.1290 -29.4493 -29.3939 -29.3202
   -29.2983 -29.2794 -29.2349 -29.2004 -29.1496 -29.1429 -29.1232 -29.1119
   -29.0557 -29.0192 -28.9914 -28.9820 -28.9333 -28.8692 -28.8609 -28.8126
   -28.7930 -28.7084 -28.6789 -28.6461 -28.6403 -28.5955 -28.5925 -28.5238
    -2.2553  -1.6350  -1.1884  -1.1184  -1.0915  -1.0321  -0.8900  -0.8224
    -0.6264  -0.6027  -0.5524  -0.3647  -0.3200  -0.2488  -0.0798   0.1148
     0.1469   0.2827   0.3275   0.4558   0.5631   0.6439   0.7232   0.8789
     0.9478   1.1004   1.1716   1.2537   1.2906   1.3711   1.4749   1.5798
     1.7458   1.7881   1.8582   1.9568   2.1151   2.2043   2.2672   2.4517
     2.5141   2.6801   2.9208   3.0734   3.1380   3.2836   3.3578   3.4914
     3.6589   3.8776   3.9310   4.2337   4.4170   4.5040   4.6758   4.7432
     4.8261   4.9344   4.9508   5.2025   5.3410   5.3803   5.5702   5.8861

          k = 0.0287-0.0496 0.0000 ( 18413 PWs)   bands (ev):

   -70.4846 -70.1680 -70.1680 -53.0710 -53.0519 -52.9748 -52.9728 -52.9512
   -52.9488 -52.9047 -52.8345 -52.8166 -40.4691 -40.4194 -40.4181 -40.1346
   -40.1329 -40.1319 -40.1314 -40.1304 -40.1301 -29.5411 -29.4083 -29.3570
   -29.3527 -29.3121 -29.3117 -29.2657 -29.2173 -29.1894 -29.1711 -29.1150
   -29.0887 -29.0867 -28.9535 -28.8918 -28.8744 -28.8547 -28.7459 -28.7238
   -28.6926 -28.6540 -28.6510 -28.6375 -28.6085 -28.5752 -28.5585 -28.5042
    -2.9578  -1.6700  -1.5581  -1.5483  -1.4217  -1.3687  -1.3180  -1.2977
    -1.0267  -0.9657  -0.9243  -0.8415  -0.6907  -0.6504  -0.3784  -0.0459
     0.0455   0.2253   0.5375   0.5734   0.6949   0.9366   0.9433   1.1145
     1.2340   1.3197   1.5529   1.5813   1.6969   1.7038   1.8577   1.8852
     2.0120   2.1018   2.1591   2.2697   2.3924   2.4563   2.5174   2.7661
     2.7768   2.8644   2.8737   3.0416   3.0863   3.3390   3.4436   3.7157
     4.1261   4.2637   4.3494   4.4487   4.5447   4.7885   4.8722   4.9541
     5.0801   5.1964   5.3511   5.5303   5.6427   5.8140   5.9516   5.9831

          k = 0.0287-0.0165 0.0000 ( 18443 PWs)   bands (ev):

   -70.4846 -70.1680 -70.1680 -53.0864 -53.0644 -52.9620 -52.9552 -52.9533
   -52.9470 -52.9173 -52.8229 -52.8163 -40.4692 -40.4200 -40.4194 -40.1349
   -40.1327 -40.1326 -40.1320 -40.1318 -40.1313 -29.6138 -29.4826 -29.4141
   -29.3549 -29.3360 -29.3327 -29.3079 -29.2809 -29.2072 -29.1832 -29.1801
   -29.0735 -29.0720 -28.9423 -28.9257 -28.8359 -28.7806 -28.7028 -28.6809
   -28.6596 -28.6050 -28.6004 -28.5954 -28.5573 -28.5471 -28.5264 -28.4800
    -3.3805  -2.0810  -1.8158  -1.7774  -1.7433  -1.6997  -1.5211  -1.3994
    -1.3888  -1.1829  -1.1629  -1.1465  -0.9933  -0.9039  -0.8200  -0.0952
    -0.0524   0.1847   0.5877   0.6147   0.7013   0.8950   1.1943   1.2950
     1.5340   1.6144   1.7022   1.7670   1.8519   1.8754   1.9085   1.9659
     2.0912   2.1437   2.1880   2.4339   2.6624   2.7436   2.8078   2.9298
     2.9703   3.0156   3.3285   3.4453   3.7100   3.8321   3.9471   3.9632
     4.1513   4.5763   4.6485   4.7534   4.8896   5.1207   5.3106   5.3889
     5.3980   5.5554   5.5818   5.7468   5.7901   5.8297   5.9401   6.0049

          k = 0.0573 0.0331 0.0000 ( 18394 PWs)   bands (ev):

   -70.4846 -70.1680 -70.1680 -53.0641 -53.0471 -52.9852 -52.9739 -52.9536
   -52.9470 -52.8995 -52.8402 -52.8162 -40.4691 -40.4193 -40.4175 -40.1345
   -40.1330 -40.1320 -40.1313 -40.1298 -40.1295 -29.5174 -29.4134 -29.3697
   -29.3297 -29.2762 -29.2726 -29.2426 -29.2103 -29.1587 -29.1553 -29.1037
   -29.0933 -29.0859 -28.9434 -28.9069 -28.8711 -28.8673 -28.8121 -28.7659
   -28.7253 -28.6920 -28.6584 -28.6399 -28.6210 -28.5805 -28.5609 -28.4903
    -2.7718  -1.6833  -1.5093  -1.3988  -1.3500  -1.2361  -1.2153  -1.0007
    -0.9880  -0.8838  -0.7891  -0.7338  -0.6917  -0.3803  -0.2197  -0.0314
     0.1013   0.2203   0.4613   0.5346   0.7434   0.7460   0.9006   1.1104
     1.2268   1.2390   1.4077   1.5256   1.6473   1.6808   1.8001   1.8462
     1.9724   1.9813   2.1523   2.1830   2.2610   2.3684   2.5144   2.5490
     2.7043   2.7082   2.7564   2.8919   3.0880   3.2088   3.5570   3.6699
     3.8882   4.0313   4.2235   4.3848   4.4658   4.6914   4.8087   4.8642
     4.9840   5.0451   5.1353   5.2543   5.3347   5.4311   5.7951   5.9089

          k = 0.0573 0.0662 0.0000 ( 18385 PWs)   bands (ev):

   -70.4846 -70.1680 -70.1680 -53.0454 -53.0344 -52.9989 -52.9920 -52.9525
   -52.9492 -52.8855 -52.8527 -52.8171 -40.4691 -40.4186 -40.4170 -40.1342
   -40.1333 -40.1311 -40.1306 -40.1292 -40.1290 -29.4493 -29.3939 -29.3202
   -29.2983 -29.2794 -29.2348 -29.2004 -29.1496 -29.1429 -29.1232 -29.1119
   -29.0557 -29.0192 -28.9914 -28.9820 -28.9333 -28.8692 -28.8609 -28.8126
   -28.7930 -28.7084 -28.6789 -28.6461 -28.6403 -28.5955 -28.5925 -28.5238
    -2.2553  -1.6350  -1.1884  -1.1184  -1.0915  -1.0321  -0.8900  -0.8224
    -0.6264  -0.6027  -0.5524  -0.3647  -0.3200  -0.2488  -0.0798   0.1148
     0.1469   0.2827   0.3275   0.4558   0.5631   0.6439   0.7232   0.8789
     0.9478   1.1004   1.1716   1.2537   1.2906   1.3711   1.4749   1.5798
     1.7458   1.7881   1.8582   1.9568   2.1151   2.2043   2.2672   2.4517
     2.5141   2.6801   2.9208   3.0734   3.1380   3.2836   3.3578   3.4914
     3.6589   3.8776   3.9310   4.2337   4.4170   4.5040   4.6758   4.7432
     4.8261   4.9344   4.9508   5.2025   5.3410   5.3803   5.5702   5.8861

          k = 0.0573 0.0993 0.0000 ( 18444 PWs)   bands (ev):

   -70.4846 -70.1680 -70.1680 -53.0233 -53.0232 -53.0140 -53.0096 -52.9516
   -52.9515 -52.8683 -52.8683 -52.8181 -40.4691 -40.4175 -40.4175 -40.1338
   -40.1337 -40.1300 -40.1296 -40.1296 -40.1294 -29.3842 -29.3842 -29.3057
   -29.2856 -29.2051 -29.2051 -29.1701 -29.1521 -29.1520 -29.1436 -29.1165
   -29.1165 -29.0372 -29.0371 -28.9357 -28.9138 -28.8992 -28.8991 -28.8149
   -28.7234 -28.7234 -28.6819 -28.6819 -28.6802 -28.6102 -28.6102 -28.5594
    -1.6501  -1.5319  -1.5319  -0.8770  -0.8769  -0.7602  -0.5432  -0.5431
    -0.5271  -0.3654  -0.3654  -0.3325  -0.1933  -0.1933   0.0954   0.0954
     0.1683   0.3517   0.3744   0.3744   0.4498   0.5113   0.5603   0.5604
     0.5931   0.9089   0.9089   1.0212   1.0213   1.3117   1.4341   1.5201
     1.5326   1.5326   1.6990   1.6990   2.1688   2.3083   2.3083   2.3216
     2.5483   2.5483   2.8193   2.9574   2.9575   3.3631   3.4443   3.4443
     3.8723   4.2104   4.2104   4.3323   4.5795   4.5795   4.5940   4.7144
     4.7144   4.8940   4.8940   5.0150   5.3001   5.3002   5.4693   5.5015

          k = 0.0573-0.0662 0.0000 ( 18385 PWs)   bands (ev):

   -70.4846 -70.1680 -70.1680 -53.0454 -53.0344 -52.9989 -52.9920 -52.9525
   -52.9492 -52.8855 -52.8527 -52.8171 -40.4691 -40.4186 -40.4170 -40.1342
   -40.1333 -40.1311 -40.1306 -40.1292 -40.1290 -29.4493 -29.3939 -29.3202
   -29.2983 -29.2794 -29.2349 -29.2004 -29.1496 -29.1429 -29.1232 -29.1119
   -29.0557 -29.0192 -28.9914 -28.9820 -28.9333 -28.8692 -28.8609 -28.8126
   -28.7930 -28.7084 -28.6789 -28.6461 -28.6403 -28.5955 -28.5925 -28.5238
    -2.2553  -1.6350  -1.1884  -1.1184  -1.0915  -1.0321  -0.8900  -0.8224
    -0.6264  -0.6027  -0.5524  -0.3647  -0.3200  -0.2488  -0.0798   0.1148
     0.1469   0.2827   0.3275   0.4558   0.5631   0.6439   0.7232   0.8789
     0.9478   1.1004   1.1716   1.2537   1.2906   1.3711   1.4749   1.5798
     1.7458   1.7881   1.8582   1.9568   2.1151   2.2043   2.2672   2.4517
     2.5141   2.6801   2.9208   3.0734   3.1380   3.2836   3.3578   3.4914
     3.6589   3.8776   3.9310   4.2337   4.4170   4.5040   4.6758   4.7432
     4.8261   4.9344   4.9508   5.2025   5.3410   5.3803   5.5702   5.8861

          k = 0.0573-0.0331 0.0000 ( 18394 PWs)   bands (ev):

   -70.4846 -70.1680 -70.1680 -53.0641 -53.0471 -52.9852 -52.9739 -52.9536
   -52.9470 -52.8995 -52.8402 -52.8162 -40.4691 -40.4193 -40.4175 -40.1345
   -40.1330 -40.1320 -40.1313 -40.1298 -40.1295 -29.5174 -29.4135 -29.3697
   -29.3297 -29.2762 -29.2726 -29.2426 -29.2103 -29.1587 -29.1553 -29.1037
   -29.0933 -29.0859 -28.9434 -28.9069 -28.8711 -28.8673 -28.8121 -28.7659
   -28.7253 -28.6920 -28.6584 -28.6399 -28.6210 -28.5805 -28.5609 -28.4903
    -2.7718  -1.6833  -1.5093  -1.3988  -1.3500  -1.2361  -1.2153  -1.0007
    -0.9880  -0.8838  -0.7891  -0.7338  -0.6917  -0.3803  -0.2197  -0.0314
     0.1013   0.2203   0.4613   0.5346   0.7434   0.7460   0.9006   1.1104
     1.2268   1.2389   1.4077   1.5256   1.6473   1.6808   1.8001   1.8462
     1.9724   1.9813   2.1523   2.1830   2.2610   2.3684   2.5144   2.5490
     2.7043   2.7082   2.7564   2.8919   3.0880   3.2088   3.5570   3.6699
     3.8882   4.0313   4.2235   4.3848   4.4658   4.6914   4.8087   4.8642
     4.9840   5.0451   5.1353   5.2543   5.3347   5.4311   5.7951   5.9089

          k = 0.0573 0.0000 0.0000 ( 18413 PWs)   bands (ev):

   -70.4846 -70.1680 -70.1680 -53.0710 -53.0519 -52.9748 -52.9728 -52.9512
   -52.9488 -52.9047 -52.8345 -52.8166 -40.4691 -40.4194 -40.4181 -40.1346
   -40.1329 -40.1319 -40.1314 -40.1304 -40.1301 -29.5411 -29.4083 -29.3570
   -29.3527 -29.3121 -29.3117 -29.2657 -29.2173 -29.1894 -29.1711 -29.1150
   -29.0887 -29.0867 -28.9535 -28.8918 -28.8744 -28.8547 -28.7459 -28.7238
   -28.6926 -28.6540 -28.6510 -28.6375 -28.6085 -28.5752 -28.5585 -28.5042
    -2.9578  -1.6700  -1.5581  -1.5483  -1.4217  -1.3687  -1.3180  -1.2977
    -1.0267  -0.9657  -0.9243  -0.8415  -0.6907  -0.6504  -0.3784  -0.0459
     0.0455   0.2253   0.5375   0.5734   0.6949   0.9366   0.9433   1.1145
     1.2340   1.3197   1.5529   1.5813   1.6969   1.7038   1.8577   1.8852
     2.0120   2.1018   2.1591   2.2697   2.3924   2.4563   2.5174   2.7661
     2.7768   2.8644   2.8737   3.0416   3.0863   3.3390   3.4436   3.7157
     4.1261   4.2637   4.3494   4.4487   4.5447   4.7885   4.8722   4.9541
     5.0801   5.1964   5.3511   5.5303   5.6427   5.8140   5.9516   5.9831

          k =-0.0860-0.0496 0.0000 ( 18364 PWs)   bands (ev):

   -70.4845 -70.1680 -70.1680 -53.0403 -53.0397 -53.0024 -52.9887 -52.9537
   -52.9470 -52.8845 -52.8552 -52.8161 -40.4691 -40.4190 -40.4165 -40.1342
   -40.1333 -40.1316 -40.1310 -40.1288 -40.1286 -29.4475 -29.4391 -29.3491
   -29.3043 -29.2368 -29.2350 -29.1754 -29.1605 -29.1008 -29.0933 -29.0536
   -29.0522 -28.9882 -28.9728 -28.9688 -28.9582 -28.9570 -28.9074 -28.8269
   -28.7951 -28.7942 -28.6677 -28.6362 -28.6357 -28.5893 -28.5675 -28.4943
    -2.0894  -2.0020  -1.2140  -1.1791  -1.0838  -0.8671  -0.8490  -0.8032
    -0.7754  -0.5983  -0.4836  -0.4153  -0.1565  -0.1340  -0.1214   0.0424
     0.1362   0.2587   0.3690   0.4735   0.7117   0.7473   0.8102   0.8460
     0.8808   0.9359   1.2683   1.3370   1.3875   1.5168   1.6473   1.6633
     1.7200   1.7332   1.8098   1.8456   1.9026   2.0438   2.2852   2.4656
     2.6012   2.7780   2.8834   2.9895   3.2353   3.3239   3.3292   3.4488
     3.6159   3.8649   3.8916   4.0459   4.2076   4.2498   4.3804   4.5857
     4.6932   4.7533   4.9062   5.1405   5.2986   5.6310   5.8262   5.8666

          k =-0.0860-0.0165 0.0000 ( 18385 PWs)   bands (ev):

   -70.4846 -70.1680 -70.1680 -53.0454 -53.0344 -52.9989 -52.9920 -52.9525
   -52.9492 -52.8855 -52.8527 -52.8171 -40.4691 -40.4186 -40.4170 -40.1342
   -40.1333 -40.1311 -40.1306 -40.1292 -40.1290 -29.4493 -29.3939 -29.3202
   -29.2983 -29.2794 -29.2348 -29.2004 -29.1496 -29.1429 -29.1232 -29.1119
   -29.0557 -29.0192 -28.9914 -28.9820 -28.9333 -28.8692 -28.8609 -28.8126
   -28.7930 -28.7084 -28.6789 -28.6461 -28.6403 -28.5955 -28.5925 -28.5238
    -2.2553  -1.6350  -1.1884  -1.1184  -1.0915  -1.0321  -0.8900  -0.8224
    -0.6264  -0.6027  -0.5524  -0.3647  -0.3200  -0.2488  -0.0798   0.1148
     0.1469   0.2827   0.3275   0.4558   0.5631   0.6439   0.7232   0.8789
     0.9478   1.1004   1.1716   1.2537   1.2906   1.3711   1.4749   1.5798
     1.7458   1.7881   1.8582   1.9568   2.1151   2.2043   2.2672   2.4517
     2.5141   2.6801   2.9208   3.0734   3.1380   3.2836   3.3578   3.4914
     3.6589   3.8776   3.9310   4.2337   4.4170   4.5040   4.6758   4.7432
     4.8261   4.9344   4.9508   5.2025   5.3410   5.3803   5.5702   5.8861

          k =-0.0860 0.0165 0.0000 ( 18385 PWs)   bands (ev):

   -70.4846 -70.1680 -70.1680 -53.0454 -53.0344 -52.9989 -52.9920 -52.9525
   -52.9492 -52.8855 -52.8527 -52.8171 -40.4691 -40.4186 -40.4170 -40.1342
   -40.1333 -40.1311 -40.1306 -40.1292 -40.1290 -29.4493 -29.3939 -29.3202
   -29.2983 -29.2794 -29.2348 -29.2004 -29.1496 -29.1429 -29.1232 -29.1119
   -29.0557 -29.0192 -28.9914 -28.9820 -28.9333 -28.8692 -28.8609 -28.8126
   -28.7930 -28.7084 -28.6789 -28.6461 -28.6403 -28.5955 -28.5925 -28.5238
    -2.2553  -1.6350  -1.1884  -1.1184  -1.0915  -1.0321  -0.8900  -0.8224
    -0.6264  -0.6027  -0.5524  -0.3647  -0.3200  -0.2488  -0.0798   0.1148
     0.1469   0.2827   0.3275   0.4558   0.5631   0.6439   0.7232   0.8789
     0.9478   1.1004   1.1716   1.2537   1.2906   1.3711   1.4749   1.5798
     1.7458   1.7881   1.8582   1.9568   2.1151   2.2043   2.2672   2.4517
     2.5141   2.6801   2.9208   3.0734   3.1380   3.2836   3.3578   3.4914
     3.6589   3.8776   3.9310   4.2337   4.4170   4.5040   4.6758   4.7432
     4.8261   4.9344   4.9508   5.2025   5.3410   5.3803   5.5702   5.8861

          k =-0.0860-0.1489 0.0000 ( 18364 PWs)   bands (ev):

   -70.4845 -70.1680 -70.1680 -53.0403 -53.0397 -53.0024 -52.9887 -52.9537
   -52.9470 -52.8845 -52.8551 -52.8161 -40.4691 -40.4190 -40.4165 -40.1342
   -40.1333 -40.1316 -40.1310 -40.1288 -40.1286 -29.4475 -29.4391 -29.3491
   -29.3043 -29.2368 -29.2350 -29.1754 -29.1605 -29.1008 -29.0933 -29.0536
   -29.0522 -28.9882 -28.9728 -28.9688 -28.9582 -28.9570 -28.9074 -28.8269
   -28.7951 -28.7942 -28.6677 -28.6362 -28.6357 -28.5893 -28.5675 -28.4943
    -2.0894  -2.0020  -1.2140  -1.1791  -1.0838  -0.8671  -0.8490  -0.8032
    -0.7754  -0.5983  -0.4836  -0.4153  -0.1565  -0.1340  -0.1214   0.0424
     0.1362   0.2587   0.3690   0.4735   0.7117   0.7473   0.8102   0.8460
     0.8808   0.9359   1.2683   1.3370   1.3875   1.5168   1.6473   1.6633
     1.7200   1.7332   1.8098   1.8456   1.9026   2.0438   2.2852   2.4656
     2.6012   2.7780   2.8834   2.9895   3.2353   3.3239   3.3292   3.4488
     3.6159   3.8649   3.8916   4.0459   4.2076   4.2498   4.3804   4.5857
     4.6932   4.7533   4.9062   5.1405   5.2986   5.6310   5.8262   5.8663

     the Fermi energy is     2.0606 ev

!    total energy              =   -1651.99565856 Ry
     Harris-Foulkes estimate   =   -1651.99797821 Ry
     estimated scf accuracy    <       0.00000083 Ry

     The total energy is the sum of the following terms:

     one-electron contribution =  -13615.48908452 Ry
     hartree contribution      =    6802.51823440 Ry
     xc contribution           =    -251.70408081 Ry
     ewald contribution        =    5412.79159200 Ry
     electric field correction =       0.00000000 Ry
     smearing contrib. (-TS)   =      -0.11231962 Ry

     convergence has been achieved in  19 iterations
 
 BEEF-vdW xc energy contributions
           1 :   -216.619267307422     
           2 :    197.633719912262     
           3 :   -165.058664975491     
           4 :    127.383817108349     
           5 :   -92.9756923886497     
           6 :    67.3161270380344     
           7 :   -51.7866131435687     
           8 :    44.1894627548301     
           9 :   -40.4945825451758     
          10 :    36.8591235292595     
          11 :   -31.0829189173841     
          12 :    23.0386317274973     
          13 :   -14.1435847134854     
          14 :    6.29032063109244     
          15 :  -0.809660669104318     
          16 :   -2.09326884901191     
          17 :    3.24965228630924     
          18 :   -3.94198838638437     
          19 :    5.18147918266519     
          20 :   -7.23400408858109     
          21 :    9.59668361082109     
          22 :   -11.3778010675805     
          23 :    11.8268800414557     
          24 :   -10.7306904932407     
          25 :    8.49259836624330     
          26 :   -5.90149004222863     
          27 :    3.74036053967899     
          28 :   -2.44572740353664     
          29 :    1.97310800674779     
          30 :   -1.91104936148076     
          31 :   -24.1291568082103     
          32 :   -18.2475232181156     

     Forces acting on atoms (Ry/au):


     negative rho (up, down):  2.334E-01 0.000E+00
     atom    1 type  1   force =    -0.00000007    0.01843263   -0.00355950
     atom    2 type  1   force =     0.01596303   -0.00921629   -0.00355984
     atom    3 type  1   force =    -0.01596322   -0.00921627   -0.00355982
     atom    4 type  2   force =     0.00000006    0.00000038    0.01324489
     atom    5 type  1   force =     0.00000005    0.00000343   -0.00001325
     atom    6 type  1   force =     0.00000308   -0.00000185   -0.00001309
     atom    7 type  1   force =    -0.00000302   -0.00000174   -0.00001321
     atom    8 type  2   force =     0.00000016   -0.00000005   -0.00002362
     atom    9 type  1   force =    -0.00000022   -0.01843578    0.00356333
     atom   10 type  1   force =    -0.01596558    0.00921806    0.00356326
     atom   11 type  1   force =     0.01596585    0.00921782    0.00356322
     atom   12 type  2   force =    -0.00000011   -0.00000035   -0.01319235

     Total force =     0.049644     Total SCF correction =     0.003549


     entering subroutine stress ...


     negative rho (up, down):  2.334E-01 0.000E+00
          total   stress  (Ry/bohr**3)                   (kbar)     P=  -25.77
  -0.00025811   0.00000000  -0.00000000        -37.97      0.00     -0.00
   0.00000000  -0.00025811  -0.00000000          0.00    -37.97     -0.00
  -0.00000000  -0.00000000  -0.00000934         -0.00     -0.00     -1.37

 !ASE

     Writing output data file calc.save
 
     init_run     :      9.71s CPU     16.58s WALL (       1 calls)
     electrons    :    400.71s CPU    648.74s WALL (       1 calls)
     forces       :      2.27s CPU      2.82s WALL (       1 calls)
     stress       :      5.07s CPU      6.05s WALL (       1 calls)

     Called by init_run:
     wfcinit      :      7.96s CPU     14.16s WALL (       1 calls)
     potinit      :      0.87s CPU      1.35s WALL (       1 calls)

     Called by electrons:
     c_bands      :    298.41s CPU    483.13s WALL (      19 calls)
     sum_band     :     54.60s CPU     95.12s WALL (      19 calls)
     v_of_rho     :     16.81s CPU     24.88s WALL (      20 calls)
     newd         :      4.64s CPU      4.92s WALL (      20 calls)
     mix_rho      :      0.75s CPU      1.12s WALL (      19 calls)
     vdW_energy   :      1.43s CPU      1.44s WALL (      56 calls)
     vdW_ffts     :     28.44s CPU     44.87s WALL (     114 calls)
     vdW_v        :      5.06s CPU      7.44s WALL (      56 calls)

     Called by c_bands:
     init_us_2    :      0.40s CPU      0.46s WALL (     820 calls)
     cegterg      :    293.21s CPU    476.83s WALL (     380 calls)

     Called by *egterg:
     h_psi        :    205.93s CPU    378.87s WALL (    1188 calls)
     s_psi        :      5.56s CPU      5.59s WALL (    1188 calls)
     g_psi        :      0.30s CPU      0.30s WALL (     788 calls)
     cdiaghg      :     48.58s CPU     51.27s WALL (    1168 calls)

     Called by h_psi:
     add_vuspsi   :      5.87s CPU      5.90s WALL (    1188 calls)

     General routines
     calbec       :     15.47s CPU     20.25s WALL (    1608 calls)
     fft          :     42.55s CPU     67.18s WALL (    3423 calls)
     ffts         :      0.10s CPU      0.17s WALL (      39 calls)
     fftw         :    225.72s CPU    432.87s WALL (  228122 calls)
     interpolate  :      0.54s CPU      0.88s WALL (      39 calls)
     davcio       :      0.00s CPU      0.01s WALL (      20 calls)
 
     Parallel routines
     fft_scatter  :    247.86s CPU    478.23s WALL (  231584 calls)
 
     PWSCF        :  6m58.71s CPU    11m15.79s WALL

 
   This run was terminated on:   6:51:51  27Dec2018            

=------------------------------------------------------------------------------=
   JOB DONE.
=------------------------------------------------------------------------------=
Job  /afs/slac/g/suncat/bin/suncat-tsmpirun -x LD_LIBRARY_PATH -wdir /scratch/qe110209_RQDDg pw.x -in pw.inp

TID   HOST_NAME   COMMAND_LINE            STATUS            TERMINATION_TIME
===== ========== ================  =======================  ===================
00000 suncat0083 pw.x -in pw.inp   Done                     12/27/2018 06:51:51
00001 suncat0083 pw.x -in pw.inp   Done                     12/27/2018 06:51:51
00002 suncat0083 pw.x -in pw.inp   Done                     12/27/2018 06:51:51
00003 suncat0083 pw.x -in pw.inp   Done                     12/27/2018 06:51:51
00004 suncat0083 pw.x -in pw.inp   Done                     12/27/2018 06:51:51
00005 suncat0083 pw.x -in pw.inp   Done                     12/27/2018 06:51:51
00006 suncat0083 pw.x -in pw.inp   Done                     12/27/2018 06:51:51
00007 suncat0083 pw.x -in pw.inp   Done                     12/27/2018 06:51:51
00008 suncat0081 pw.x -in pw.inp   Done                     12/27/2018 06:51:51
00009 suncat0081 pw.x -in pw.inp   Done                     12/27/2018 06:51:51
00010 suncat0081 pw.x -in pw.inp   Done                     12/27/2018 06:51:51
00011 suncat0081 pw.x -in pw.inp   Done                     12/27/2018 06:51:51
00012 suncat0081 pw.x -in pw.inp   Done                     12/27/2018 06:51:51
00013 suncat0081 pw.x -in pw.inp   Done                     12/27/2018 06:51:51
00014 suncat0081 pw.x -in pw.inp   Done                     12/27/2018 06:51:51
00015 suncat0081 pw.x -in pw.inp   Done                     12/27/2018 06:51:51
00016 suncat0076 pw.x -in pw.inp   Done                     12/27/2018 06:51:51
00017 suncat0076 pw.x -in pw.inp   Done                     12/27/2018 06:51:51
00018 suncat0076 pw.x -in pw.inp   Done                     12/27/2018 06:51:51
00019 suncat0076 pw.x -in pw.inp   Done                     12/27/2018 06:51:51
00020 suncat0076 pw.x -in pw.inp   Done                     12/27/2018 06:51:51
00021 suncat0076 pw.x -in pw.inp   Done                     12/27/2018 06:51:51
00022 suncat0076 pw.x -in pw.inp   Done                     12/27/2018 06:51:51
00023 suncat0076 pw.x -in pw.inp   Done                     12/27/2018 06:51:51
00024 suncat0041 pw.x -in pw.inp   Done                     12/27/2018 06:51:51
00025 suncat0041 pw.x -in pw.inp   Done                     12/27/2018 06:51:51
00026 suncat0041 pw.x -in pw.inp   Done                     12/27/2018 06:51:51
00027 suncat0041 pw.x -in pw.inp   Done                     12/27/2018 06:51:51
00028 suncat0041 pw.x -in pw.inp   Done                     12/27/2018 06:51:51
00029 suncat0041 pw.x -in pw.inp   Done                     12/27/2018 06:51:51
00030 suncat0041 pw.x -in pw.inp   Done                     12/27/2018 06:51:51
00031 suncat0041 pw.x -in pw.inp   Done                     12/27/2018 06:51:51
00032 suncat0039 pw.x -in pw.inp   Done                     12/27/2018 06:51:51
00033 suncat0039 pw.x -in pw.inp   Done                     12/27/2018 06:51:51
00034 suncat0039 pw.x -in pw.inp   Done                     12/27/2018 06:51:51
00035 suncat0039 pw.x -in pw.inp   Done                     12/27/2018 06:51:51
00036 suncat0039 pw.x -in pw.inp   Done                     12/27/2018 06:51:51
00037 suncat0039 pw.x -in pw.inp   Done                     12/27/2018 06:51:51
00038 suncat0039 pw.x -in pw.inp   Done                     12/27/2018 06:51:51
00039 suncat0039 pw.x -in pw.inp   Done                     12/27/2018 06:51:51
00040 suncat0034 pw.x -in pw.inp   Done                     12/27/2018 06:51:51
00041 suncat0034 pw.x -in pw.inp   Done                     12/27/2018 06:51:51
00042 suncat0034 pw.x -in pw.inp   Done                     12/27/2018 06:51:51
00043 suncat0034 pw.x -in pw.inp   Done                     12/27/2018 06:51:51
00044 suncat0034 pw.x -in pw.inp   Done                     12/27/2018 06:51:51
00045 suncat0034 pw.x -in pw.inp   Done                     12/27/2018 06:51:51
00046 suncat0034 pw.x -in pw.inp   Done                     12/27/2018 06:51:51
00047 suncat0034 pw.x -in pw.inp   Done                     12/27/2018 06:51:51
00048 suncat0029 pw.x -in pw.inp   Done                     12/27/2018 06:51:51
00049 suncat0029 pw.x -in pw.inp   Done                     12/27/2018 06:51:51
00050 suncat0029 pw.x -in pw.inp   Done                     12/27/2018 06:51:51
00051 suncat0029 pw.x -in pw.inp   Done                     12/27/2018 06:51:51
00052 suncat0029 pw.x -in pw.inp   Done                     12/27/2018 06:51:51
00053 suncat0029 pw.x -in pw.inp   Done                     12/27/2018 06:51:51
00054 suncat0029 pw.x -in pw.inp   Done                     12/27/2018 06:51:51
00055 suncat0029 pw.x -in pw.inp   Done                     12/27/2018 06:51:51
00056 suncat0199 pw.x -in pw.inp   Done                     12/27/2018 06:51:51
00057 suncat0199 pw.x -in pw.inp   Done                     12/27/2018 06:51:51
00058 suncat0199 pw.x -in pw.inp   Done                     12/27/2018 06:51:51
00059 suncat0199 pw.x -in pw.inp   Done                     12/27/2018 06:51:51
00060 suncat0199 pw.x -in pw.inp   Done                     12/27/2018 06:51:51
00061 suncat0199 pw.x -in pw.inp   Done                     12/27/2018 06:51:51
00062 suncat0199 pw.x -in pw.inp   Done                     12/27/2018 06:51:51
00063 suncat0199 pw.x -in pw.inp   Done                     12/27/2018 06:51:51

     Program PWSCF v.5.1rc2 (svn rev. 11289) starts on 27Dec2018 at  6:51:58 

     This program is part of the open-source Quantum ESPRESSO suite
     for quantum simulation of materials; please cite
         "P. Giannozzi et al., J. Phys.:Condens. Matter 21 395502 (2009);
          URL http://www.quantum-espresso.org", 
     in publications or presentations arising from this work. More details at
     http://www.quantum-espresso.org/quote

     Parallel version (MPI), running on    64 processors
     R & G space division:  proc/nbgrp/npool/nimage =      64
     Reading input from pw.inp
     Message from routine read_cards :
     DEPRECATED: no units specified in CELL_PARAMETERS card

     Current dimensions of program PWSCF are:
     Max number of different atomic species (ntypx) = 10
     Max number of k-points (npk) =  40000
     Max angular momentum in pseudopotentials (lmaxx) =  3
     Presently stress not available with electric field


     **************************************************************************
     Initializing libbeef V0.1.1 with the BEEF-vdW functional.
     Citation: Wellendorff et al., PRB 85, 235149 (2012).
     **************************************************************************


     IMPORTANT: XC functional enforced from input :
     Exchange-correlation      = BEEF-VDW ( 1  4 27 13 2)
     Any further DFT definition will be discarded
     Please, verify this is what you really want


     Subspace diagonalization in iterative solution of the eigenvalue problem:
     a serial algorithm will be used

 
     Parallelization info
     --------------------
     sticks:   dense  smooth     PW     G-vecs:    dense   smooth      PW
     Min          47      19      5                 9075     2285     363
     Max          48      20      6                 9108     2319     388
     Sum        3055    1237    367               582051   147313   24165
 


     bravais-lattice index     =            0
     lattice parameter (alat)  =       1.8897  a.u.
     unit-cell volume          =    4892.7611 (a.u.)^3
     number of atoms/cell      =           12
     number of atomic types    =            2
     number of electrons       =       165.00
     number of Kohn-Sham states=          112
     kinetic-energy cutoff     =      36.7493  Ry
     charge density cutoff     =     367.4932  Ry
     convergence threshold     =      1.0E-06
     mixing beta               =       0.1000
     number of iterations used =           10  plain     mixing
     Exchange-correlation      = BEEF-VDW ( 1  4 27 13 2)
     nstep                     =           50


     celldm(1)=   1.889726  celldm(2)=   0.000000  celldm(3)=   0.000000
     celldm(4)=   0.000000  celldm(5)=   0.000000  celldm(6)=   0.000000

     crystal axes: (cart. coord. in units of alat)
               a(1) = (   5.816152   0.000000   0.000000 )  
               a(2) = (  -2.908076   5.036935   0.000000 )  
               a(3) = (   0.000000   0.000000  24.748868 )  

     reciprocal axes: (cart. coord. in units 2 pi/alat)
               b(1) = (  0.171935  0.099267  0.000000 )  
               b(2) = (  0.000000  0.198533  0.000000 )  
               b(3) = (  0.000000  0.000000  0.040406 )  


     PseudoPot. # 1 for Nb read from file:
     /afs/slac.stanford.edu/u/if/mamunm/psp/gbrv1.5pbe/Nb.UPF
     MD5 check sum: 573aab8a2fa660278ed4a62cd769473f
     Pseudo is Ultrasoft + core correction, Zval = 13.0
     Generated by new atomic code, or converted to UPF format
     Using radial grid of  887 points,  6 beta functions with: 
                l(1) =   0
                l(2) =   0
                l(3) =   1
                l(4) =   1
                l(5) =   2
                l(6) =   2
     Q(r) pseudized with  6 coefficients,  rinner =    1.000   1.000   1.000
                                                       1.000   1.000

     PseudoPot. # 2 for Ru read from file:
     /afs/slac.stanford.edu/u/if/mamunm/psp/gbrv1.5pbe/Ru.UPF
     MD5 check sum: 7158a806dd851261a58e6920c40ebe78
     Pseudo is Ultrasoft + core correction, Zval = 16.0
     Generated by new atomic code, or converted to UPF format
     Using radial grid of  967 points,  6 beta functions with: 
                l(1) =   0
                l(2) =   0
                l(3) =   1
                l(4) =   1
                l(5) =   2
                l(6) =   2
     Q(r) pseudized with  8 coefficients,  rinner =    1.300   1.300   1.300
                                                       1.300   1.300

     vdW kernel table read from file vdW_kernel_table
     MD5 check sum: 095c7af220d748ca6e76c0b4c6cfb241

     atomic species   valence    mass     pseudopotential
        Nb1           13.00    92.90637     Nb( 1.00)
        Ru1           16.00   101.07000     Ru( 1.00)

     No symmetry found



   Cartesian axes

     site n.     atom                  positions (alat units)
         1           Nb1 tau(   1) = (   0.0000000   0.0000000  10.0000000  )
         2           Nb1 tau(   2) = (  -1.4540379   2.5184675  10.0000000  )
         3           Nb1 tau(   3) = (   1.4540379   2.5184675  10.0000000  )
         4           Ru1 tau(   4) = (   2.9080758   0.0000000  10.0000000  )
         5           Nb1 tau(   5) = (   2.9080758   1.6789784  12.3744340  )
         6           Nb1 tau(   6) = (   1.4540379   4.1974459  12.3744340  )
         7           Nb1 tau(   7) = (  -1.4540379   4.1974459  12.3744340  )
         8           Ru1 tau(   8) = (   0.0000000   1.6789784  12.3744340  )
         9           Nb1 tau(   9) = (  -0.0000006   3.3105564  14.7580296  )
        10           Nb1 tau(  10) = (   1.4129888   0.8631898  14.7580294  )
        11           Nb1 tau(  11) = (   4.4031636   0.8631891  14.7580293  )
        12           Ru1 tau(  12) = (   2.9080755   3.3579558  14.7149490  )

     number of k points=    20  Fermi-Dirac smearing, width (Ry)=  0.0110
                       cart. coord. in units 2pi/alat
        k(    1) = (   0.0000000   0.0000000   0.0000000), wk =   0.0555556
        k(    2) = (   0.0000000   0.0330889   0.0000000), wk =   0.1111111
        k(    3) = (   0.0000000   0.0661778   0.0000000), wk =   0.1111111
        k(    4) = (   0.0000000  -0.0992667   0.0000000), wk =   0.0555556
        k(    5) = (   0.0286558   0.0165445   0.0000000), wk =   0.1111111
        k(    6) = (   0.0286558   0.0496334   0.0000000), wk =   0.1111111
        k(    7) = (   0.0286558   0.0827223   0.0000000), wk =   0.1111111
        k(    8) = (   0.0286558  -0.0827223   0.0000000), wk =   0.1111111
        k(    9) = (   0.0286558  -0.0496334   0.0000000), wk =   0.1111111
        k(   10) = (   0.0286558  -0.0165445   0.0000000), wk =   0.1111111
        k(   11) = (   0.0573117   0.0330889   0.0000000), wk =   0.1111111
        k(   12) = (   0.0573117   0.0661778   0.0000000), wk =   0.1111111
        k(   13) = (   0.0573117   0.0992667   0.0000000), wk =   0.1111111
        k(   14) = (   0.0573117  -0.0661778   0.0000000), wk =   0.1111111
        k(   15) = (   0.0573117  -0.0330889   0.0000000), wk =   0.1111111
        k(   16) = (   0.0573117   0.0000000   0.0000000), wk =   0.1111111
        k(   17) = (  -0.0859675  -0.0496334   0.0000000), wk =   0.0555556
        k(   18) = (  -0.0859675  -0.0165445   0.0000000), wk =   0.1111111
        k(   19) = (  -0.0859675   0.0165445   0.0000000), wk =   0.1111111
        k(   20) = (  -0.0859675  -0.1489001   0.0000000), wk =   0.0555556

     Dense  grid:   582051 G-vectors     FFT dimensions: (  72,  72, 288)

     Smooth grid:   147313 G-vectors     FFT dimensions: (  45,  45, 192)

     Largest allocated arrays     est. size (Mb)     dimensions
        Kohn-Sham Wavefunctions         0.52 Mb     (     307,  112)
        NL pseudopotentials             1.01 Mb     (     307,  216)
        Each V/rho on FFT grid          0.40 Mb     (   25920)
        Each G-vector array             0.07 Mb     (    9090)
        G-vector shells                 0.03 Mb     (    4037)
     Largest temporary arrays     est. size (Mb)     dimensions
        Auxiliary wavefunctions         2.10 Mb     (     307,  448)
        Each subspace H/S matrix        3.06 Mb     (     448,  448)
        Each <psi_i|beta_j> matrix      0.37 Mb     (     216,  112)
        Arrays for rho mixing           3.96 Mb     (   25920,   10)

     Initial potential from superposition of free atoms
     Check: negative starting charge=   -0.224854

     starting charge  161.97535, renormalised to  165.00000

     negative rho (up, down):  2.291E-01 0.000E+00


     ************************************************************************
     *
     * You are using vdW-DF for exchange-correlation in this calculation.
     * Please cite the following three references that made this development
     * possible:
     *
     *   M. Dion, H. Rydberg, E. Schroder, D. C. Langreth, and
     *   B. I. Lundqvist, Phys. Rev. Lett. 92, 246401 (2004).
     *
     *   T. Thonhauser, V. R. Cooper, S. Li, A. Puzder, P. Hyldgaard, and
     *   D. C. Langreth, Phys. Rev. B 76, 125112 (2007).
     *
     *   G. Roman-Perez and J. M. Soler, Phys. Rev. Lett. 103, 096102 (2009).
     *
     *
     * If you are using vdW-DF2, please also cite:
     *
     *   K. Lee, E. D. Murray, L. Kong, B. I. Lundqvist, and
     *   D. C. Langreth, Phys. Rev. B 82, 081101(R) (2010).
     *
     *
     * If you are calculating the stress with vdW-DF, please also cite:
     *
     *   R. Sabatini, E. Kucukbenli, B. Kolb, T. Thonhauser, and
     *   S. de Gironcoli, J. Phys.: Condens. Matter 24, 424209 (2012).
     *
     ************************************************************************

     Carrying out vdW-DF run using the following parameters:

     Nqs =      20    Nr_points =    1024   r_max =   100.000
     q_mesh =
               0.00001000     0.04494208     0.09755937     0.15916263
               0.23128650     0.31572767     0.41458969     0.53033537
               0.66584808     0.82450364     1.01025438     1.22772762
               1.48234092     1.78043706     2.12944203     2.53805004
               3.01644009     3.57652955     4.23227104     5.00000000

     Gradients computed in reciprocal space

     ************************************************************************


 
     Adding external electric field

     Computed dipole along edir(3) : 
        Dipole               -0.0586 Ry au,         -0.1490 Debye
        Dipole field         -0.0002 Ry au
 
        Potential amp.        0.0137 Ry
        Total length         45.5994 bohr
 
     Starting wfc are  156 randomized atomic wfcs

     total cpu time spent up to now is       17.2 secs

     per-process dynamical memory:    39.4 Mb

     Self-consistent Calculation

     iteration #  1     ecut=    36.75 Ry     beta=0.10
     Davidson diagonalization with overlap
     ethr =  1.00E-02,  avg # of iterations =  2.0

     negative rho (up, down):  2.276E-01 0.000E+00
 
     Adding external electric field

     Computed dipole along edir(3) : 
        Dipole                0.2472 Ry au,          0.6284 Debye
        Dipole field          0.0006 Ry au
 
        Potential amp.       -0.0579 Ry
        Total length         45.5994 bohr
 

     total cpu time spent up to now is       52.3 secs

     total energy              =   -1651.69380106 Ry
     Harris-Foulkes estimate   =   -1653.63284699 Ry
     estimated scf accuracy    <      11.23586858 Ry

     iteration #  2     ecut=    36.75 Ry     beta=0.10
     Davidson diagonalization with overlap
     ethr =  6.81E-03,  avg # of iterations =  1.0

     negative rho (up, down):  2.276E-01 0.000E+00
 
     Adding external electric field

     Computed dipole along edir(3) : 
        Dipole               -0.8985 Ry au,         -2.2838 Debye
        Dipole field         -0.0023 Ry au
 
        Potential amp.        0.2105 Ry
        Total length         45.5994 bohr
 

     total cpu time spent up to now is       81.2 secs

     total energy              =   -1651.91050514 Ry
     Harris-Foulkes estimate   =   -1652.68366030 Ry
     estimated scf accuracy    <       7.30679761 Ry

     iteration #  3     ecut=    36.75 Ry     beta=0.10
     Davidson diagonalization with overlap
     ethr =  4.43E-03,  avg # of iterations =  1.0

     negative rho (up, down):  2.276E-01 0.000E+00
 
     Adding external electric field

     Computed dipole along edir(3) : 
        Dipole                0.1410 Ry au,          0.3583 Debye
        Dipole field          0.0004 Ry au
 
        Potential amp.       -0.0330 Ry
        Total length         45.5994 bohr
 

     total cpu time spent up to now is      111.6 secs

     total energy              =   -1651.45110668 Ry
     Harris-Foulkes estimate   =   -1653.14726661 Ry
     estimated scf accuracy    <      64.30720201 Ry

     iteration #  4     ecut=    36.75 Ry     beta=0.10
     Davidson diagonalization with overlap
     ethr =  4.43E-03,  avg # of iterations =  1.0

     negative rho (up, down):  2.278E-01 0.000E+00
 
     Adding external electric field

     Computed dipole along edir(3) : 
        Dipole               -0.0212 Ry au,         -0.0538 Debye
        Dipole field         -0.0001 Ry au
 
        Potential amp.        0.0050 Ry
        Total length         45.5994 bohr
 

     total cpu time spent up to now is      140.7 secs

     total energy              =   -1652.17778903 Ry
     Harris-Foulkes estimate   =   -1652.39451545 Ry
     estimated scf accuracy    <       3.38368158 Ry

     iteration #  5     ecut=    36.75 Ry     beta=0.10
     Davidson diagonalization with overlap
     ethr =  2.05E-03,  avg # of iterations =  1.0

     negative rho (up, down):  2.289E-01 0.000E+00
 
     Adding external electric field

     Computed dipole along edir(3) : 
        Dipole                0.0071 Ry au,          0.0181 Debye
        Dipole field          0.0000 Ry au
 
        Potential amp.       -0.0017 Ry
        Total length         45.5994 bohr
 

     total cpu time spent up to now is      170.1 secs

     total energy              =   -1651.95538987 Ry
     Harris-Foulkes estimate   =   -1652.23441208 Ry
     estimated scf accuracy    <       0.83842192 Ry

     iteration #  6     ecut=    36.75 Ry     beta=0.10
     Davidson diagonalization with overlap
     ethr =  5.08E-04,  avg # of iterations =  2.3

     negative rho (up, down):  2.300E-01 0.000E+00
 
     Adding external electric field

     Computed dipole along edir(3) : 
        Dipole                0.0155 Ry au,          0.0393 Debye
        Dipole field          0.0000 Ry au
 
        Potential amp.       -0.0036 Ry
        Total length         45.5994 bohr
 

     total cpu time spent up to now is      203.3 secs

     total energy              =   -1651.97634085 Ry
     Harris-Foulkes estimate   =   -1652.02613427 Ry
     estimated scf accuracy    <       0.22029938 Ry

     iteration #  7     ecut=    36.75 Ry     beta=0.10
     Davidson diagonalization with overlap
     ethr =  1.34E-04,  avg # of iterations =  4.2

     negative rho (up, down):  2.304E-01 0.000E+00
 
     Adding external electric field

     Computed dipole along edir(3) : 
        Dipole                0.0084 Ry au,          0.0214 Debye
        Dipole field          0.0000 Ry au
 
        Potential amp.       -0.0020 Ry
        Total length         45.5994 bohr
 

     total cpu time spent up to now is      241.8 secs

     total energy              =   -1651.99986399 Ry
     Harris-Foulkes estimate   =   -1652.00217070 Ry
     estimated scf accuracy    <       0.03321391 Ry

     iteration #  8     ecut=    36.75 Ry     beta=0.10
     Davidson diagonalization with overlap
     ethr =  2.01E-05,  avg # of iterations =  7.5

     negative rho (up, down):  2.316E-01 0.000E+00
 
     Adding external electric field

     Computed dipole along edir(3) : 
        Dipole               -0.0013 Ry au,         -0.0034 Debye
        Dipole field         -0.0000 Ry au
 
        Potential amp.        0.0003 Ry
        Total length         45.5994 bohr
 

     total cpu time spent up to now is      283.9 secs

     total energy              =   -1651.99948384 Ry
     Harris-Foulkes estimate   =   -1652.00105855 Ry
     estimated scf accuracy    <       0.01909595 Ry

     iteration #  9     ecut=    36.75 Ry     beta=0.10
     Davidson diagonalization with overlap
     ethr =  1.16E-05,  avg # of iterations =  1.9

     negative rho (up, down):  2.322E-01 0.000E+00
 
     Adding external electric field

     Computed dipole along edir(3) : 
        Dipole                0.0110 Ry au,          0.0280 Debye
        Dipole field          0.0000 Ry au
 
        Potential amp.       -0.0026 Ry
        Total length         45.5994 bohr
 

     total cpu time spent up to now is      315.0 secs

     total energy              =   -1652.00107911 Ry
     Harris-Foulkes estimate   =   -1652.00082258 Ry
     estimated scf accuracy    <       0.00745280 Ry

     iteration # 10     ecut=    36.75 Ry     beta=0.10
     Davidson diagonalization with overlap
     ethr =  4.52E-06,  avg # of iterations =  2.9

     negative rho (up, down):  2.326E-01 0.000E+00
 
     Adding external electric field

     Computed dipole along edir(3) : 
        Dipole                0.0088 Ry au,          0.0224 Debye
        Dipole field          0.0000 Ry au
 
        Potential amp.       -0.0021 Ry
        Total length         45.5994 bohr
 

     total cpu time spent up to now is      347.5 secs

     total energy              =   -1652.00100821 Ry
     Harris-Foulkes estimate   =   -1652.00162032 Ry
     estimated scf accuracy    <       0.00464783 Ry

     iteration # 11     ecut=    36.75 Ry     beta=0.10
     Davidson diagonalization with overlap
     ethr =  2.82E-06,  avg # of iterations =  3.2

     negative rho (up, down):  2.328E-01 0.000E+00
 
     Adding external electric field

     Computed dipole along edir(3) : 
        Dipole                0.0068 Ry au,          0.0174 Debye
        Dipole field          0.0000 Ry au
 
        Potential amp.       -0.0016 Ry
        Total length         45.5994 bohr
 

     total cpu time spent up to now is      382.7 secs

     total energy              =   -1652.00135038 Ry
     Harris-Foulkes estimate   =   -1652.00138592 Ry
     estimated scf accuracy    <       0.00111167 Ry

     iteration # 12     ecut=    36.75 Ry     beta=0.10
     Davidson diagonalization with overlap
     ethr =  6.74E-07,  avg # of iterations =  2.4

     negative rho (up, down):  2.328E-01 0.000E+00
 
     Adding external electric field

     Computed dipole along edir(3) : 
        Dipole                0.0071 Ry au,          0.0180 Debye
        Dipole field          0.0000 Ry au
 
        Potential amp.       -0.0017 Ry
        Total length         45.5994 bohr
 

     total cpu time spent up to now is      414.8 secs

     total energy              =   -1652.00134601 Ry
     Harris-Foulkes estimate   =   -1652.00152706 Ry
     estimated scf accuracy    <       0.00156435 Ry

     iteration # 13     ecut=    36.75 Ry     beta=0.10
     Davidson diagonalization with overlap
     ethr =  6.74E-07,  avg # of iterations =  1.0

     negative rho (up, down):  2.329E-01 0.000E+00
 
     Adding external electric field

     Computed dipole along edir(3) : 
        Dipole                0.0071 Ry au,          0.0182 Debye
        Dipole field          0.0000 Ry au
 
        Potential amp.       -0.0017 Ry
        Total length         45.5994 bohr
 

     total cpu time spent up to now is      443.7 secs

     total energy              =   -1652.00146049 Ry
     Harris-Foulkes estimate   =   -1652.00147276 Ry
     estimated scf accuracy    <       0.00024251 Ry

     iteration # 14     ecut=    36.75 Ry     beta=0.10
     Davidson diagonalization with overlap
     ethr =  1.47E-07,  avg # of iterations =  1.0

     negative rho (up, down):  2.329E-01 0.000E+00
 
     Adding external electric field

     Computed dipole along edir(3) : 
        Dipole                0.0081 Ry au,          0.0206 Debye
        Dipole field          0.0000 Ry au
 
        Potential amp.       -0.0019 Ry
        Total length         45.5994 bohr
 

     total cpu time spent up to now is      470.8 secs

     total energy              =   -1652.00147794 Ry
     Harris-Foulkes estimate   =   -1652.00147292 Ry
     estimated scf accuracy    <       0.00002466 Ry

     iteration # 15     ecut=    36.75 Ry     beta=0.10
     Davidson diagonalization with overlap
     ethr =  1.49E-08,  avg # of iterations =  3.0

[...]
   -29.2687 -29.2068 -29.1835 -29.1833 -29.1286 -29.1268 -29.1152 -29.0927
   -29.0787 -29.0221 -29.0177 -28.9203 -28.8915 -28.8753 -28.8428 -28.7932
   -28.7139 -28.7076 -28.6661 -28.6625 -28.6545 -28.5882 -28.5640 -28.5458
    -1.6400  -1.5244  -1.5195  -0.8768  -0.8660  -0.7718  -0.5568  -0.5459
    -0.5218  -0.3522  -0.3418  -0.3204  -0.2414  -0.1350   0.0832   0.1277
     0.1831   0.3188   0.3943   0.4470   0.4590   0.4830   0.5705   0.5961
     0.6032   0.9397   0.9436   1.0746   1.0990   1.3094   1.3821   1.4954
     1.5513   1.6586   1.6984   1.7743   2.1941   2.3291   2.3406   2.3976
     2.5711   2.5888   2.8191   2.9882   3.0625   3.3972   3.4157   3.5158
     3.9404   4.1391   4.2246   4.3064   4.5059   4.6084   4.7070   4.7364
     4.7542   4.8726   4.9136   5.0548   5.3292   5.3423   5.5044   5.5198

          k = 0.0573-0.0662 0.0000 ( 18385 PWs)   bands (ev):

   -70.4680 -70.1608 -70.1512 -53.0237 -53.0116 -52.9724 -52.9625 -52.9251
   -52.9215 -52.8678 -52.8358 -52.8005 -40.4504 -40.4032 -40.4016 -40.1348
   -40.1252 -40.1237 -40.1208 -40.1115 -40.1098 -29.4118 -29.3587 -29.3030
   -29.2829 -29.2483 -29.2169 -29.1788 -29.1327 -29.1135 -29.1088 -29.0845
   -29.0505 -29.0147 -28.9798 -28.9244 -28.9051 -28.8477 -28.8261 -28.7945
   -28.7693 -28.6946 -28.6690 -28.6290 -28.6178 -28.5697 -28.5503 -28.5054
    -2.2405  -1.6252  -1.1913  -1.1256  -1.0748  -1.0245  -0.8575  -0.8069
    -0.6357  -0.5920  -0.5338  -0.3736  -0.3093  -0.2563  -0.0681   0.1150
     0.1664   0.3004   0.3424   0.4619   0.5729   0.6527   0.7275   0.8815
     1.0024   1.1225   1.1964   1.2940   1.3163   1.4007   1.4913   1.6139
     1.7610   1.8103   1.8904   1.9846   2.1404   2.2605   2.3015   2.4909
     2.5522   2.7023   2.9817   3.1040   3.1630   3.2866   3.4179   3.4958
     3.6581   3.9349   3.9679   4.2112   4.4304   4.5206   4.6885   4.7611
     4.8198   4.9588   4.9910   5.2073   5.3689   5.4042   5.5964   5.9179

          k = 0.0573-0.0331 0.0000 ( 18394 PWs)   bands (ev):

   -70.4680 -70.1608 -70.1512 -53.0405 -53.0244 -52.9588 -52.9458 -52.9261
   -52.9195 -52.8819 -52.8235 -52.7995 -40.4504 -40.4040 -40.4021 -40.1349
   -40.1259 -40.1242 -40.1208 -40.1122 -40.1103 -29.4823 -29.3896 -29.3545
   -29.3030 -29.2525 -29.2388 -29.2244 -29.1832 -29.1460 -29.1302 -29.0887
   -29.0670 -29.0623 -28.9289 -28.8854 -28.8531 -28.8384 -28.7898 -28.7279
   -28.7108 -28.6748 -28.6479 -28.6240 -28.5968 -28.5493 -28.5247 -28.4706
    -2.7554  -1.6770  -1.4840  -1.3939  -1.3654  -1.2066  -1.1870  -0.9826
    -0.9817  -0.8884  -0.7665  -0.7536  -0.6684  -0.3810  -0.1864  -0.0315
     0.1026   0.2383   0.4673   0.5544   0.7408   0.7753   0.9105   1.1338
     1.2355   1.2768   1.4154   1.5610   1.6812   1.7075   1.8203   1.8572
     1.9834   2.0077   2.1835   2.1987   2.3125   2.3865   2.5494   2.5600
     2.7417   2.7567   2.7973   2.8847   3.1108   3.2711   3.6188   3.6643
     3.9230   4.0535   4.2568   4.3763   4.4814   4.7073   4.8261   4.8777
     5.0045   5.0706   5.1419   5.2582   5.3723   5.4573   5.8341   5.9303

          k = 0.0573 0.0000 0.0000 ( 18413 PWs)   bands (ev):

   -70.4680 -70.1608 -70.1512 -53.0471 -53.0291 -52.9473 -52.9463 -52.9238
   -52.9211 -52.8872 -52.8177 -52.8000 -40.4504 -40.4040 -40.4028 -40.1349
   -40.1259 -40.1248 -40.1208 -40.1122 -40.1110 -29.5061 -29.3955 -29.3376
   -29.3213 -29.2885 -29.2862 -29.2357 -29.1949 -29.1694 -29.1445 -29.1030
   -29.0623 -29.0604 -28.9366 -28.8827 -28.8456 -28.8271 -28.7309 -28.7039
   -28.6707 -28.6392 -28.6341 -28.6074 -28.5877 -28.5441 -28.5209 -28.4874
    -2.9410  -1.6548  -1.5547  -1.5402  -1.4157  -1.3411  -1.3074  -1.2740
    -1.0164  -0.9528  -0.9334  -0.8366  -0.6901  -0.6192  -0.3536  -0.0475
     0.0486   0.2514   0.5262   0.6094   0.7258   0.9353   0.9515   1.1557
     1.2249   1.3328   1.5669   1.6215   1.7221   1.7383   1.8810   1.9193
     2.0057   2.1184   2.2024   2.2942   2.4248   2.4857   2.5283   2.7728
     2.8164   2.8706   2.9112   3.0760   3.1053   3.4079   3.4819   3.7432
     4.1751   4.2783   4.3634   4.4620   4.5349   4.7915   4.8902   4.9623
     5.1188   5.2069   5.4009   5.5353   5.6964   5.8183   5.9773   5.9903

          k =-0.0860-0.0496 0.0000 ( 18364 PWs)   bands (ev):

   -70.4680 -70.1608 -70.1512 -53.0220 -53.0129 -52.9774 -52.9584 -52.9262
   -52.9195 -52.8665 -52.8388 -52.7994 -40.4504 -40.4037 -40.4012 -40.1348
   -40.1256 -40.1233 -40.1207 -40.1119 -40.1093 -29.4153 -29.4041 -29.3326
   -29.2794 -29.2182 -29.1947 -29.1481 -29.1451 -29.0844 -29.0736 -29.0717
   -29.0280 -29.0038 -28.9437 -28.9409 -28.9057 -28.9028 -28.8642 -28.8131
   -28.7833 -28.7752 -28.6625 -28.6195 -28.6136 -28.5589 -28.5311 -28.4742
    -2.0764  -1.9880  -1.2111  -1.1583  -1.0993  -0.8597  -0.8164  -0.7962
    -0.7646  -0.5898  -0.4652  -0.4107  -0.1972  -0.1371  -0.1156   0.0561
     0.1644   0.2772   0.3568   0.4930   0.6878   0.7649   0.8370   0.8676
     0.9150   0.9911   1.2780   1.3368   1.4451   1.5364   1.6512   1.6604
     1.7720   1.7912   1.8623   1.8818   1.9459   2.0638   2.3237   2.4850
     2.5874   2.8428   2.9614   3.0607   3.2415   3.3362   3.3402   3.5052
     3.5616   3.9096   3.9434   4.0122   4.1991   4.2995   4.4432   4.6184
     4.7142   4.7713   4.8954   5.1570   5.2912   5.6073   5.8512   5.8986

          k =-0.0860-0.0165 0.0000 ( 18385 PWs)   bands (ev):

   -70.4680 -70.1608 -70.1512 -53.0237 -53.0116 -52.9724 -52.9625 -52.9251
   -52.9215 -52.8678 -52.8357 -52.8005 -40.4504 -40.4032 -40.4016 -40.1348
   -40.1252 -40.1237 -40.1208 -40.1115 -40.1098 -29.4118 -29.3587 -29.3030
   -29.2829 -29.2483 -29.2169 -29.1788 -29.1327 -29.1135 -29.1088 -29.0845
   -29.0505 -29.0147 -28.9798 -28.9244 -28.9051 -28.8477 -28.8261 -28.7945
   -28.7693 -28.6946 -28.6690 -28.6290 -28.6178 -28.5697 -28.5503 -28.5054
    -2.2405  -1.6252  -1.1913  -1.1256  -1.0748  -1.0245  -0.8575  -0.8069
    -0.6357  -0.5920  -0.5338  -0.3736  -0.3093  -0.2563  -0.0681   0.1150
     0.1664   0.3004   0.3424   0.4619   0.5729   0.6527   0.7275   0.8815
     1.0024   1.1225   1.1964   1.2940   1.3163   1.4007   1.4913   1.6139
     1.7610   1.8103   1.8904   1.9846   2.1404   2.2605   2.3015   2.4909
     2.5522   2.7023   2.9817   3.1040   3.1630   3.2866   3.4179   3.4958
     3.6581   3.9349   3.9679   4.2112   4.4304   4.5206   4.6885   4.7611
     4.8198   4.9588   4.9910   5.2073   5.3689   5.4042   5.5964   5.9179

          k =-0.0860 0.0165 0.0000 ( 18385 PWs)   bands (ev):

   -70.4680 -70.1608 -70.1512 -53.0237 -53.0116 -52.9724 -52.9625 -52.9251
   -52.9215 -52.8678 -52.8358 -52.8005 -40.4504 -40.4032 -40.4016 -40.1348
   -40.1252 -40.1237 -40.1208 -40.1115 -40.1098 -29.4118 -29.3587 -29.3030
   -29.2829 -29.2483 -29.2169 -29.1788 -29.1327 -29.1135 -29.1088 -29.0845
   -29.0505 -29.0147 -28.9798 -28.9244 -28.9051 -28.8477 -28.8261 -28.7945
   -28.7693 -28.6947 -28.6690 -28.6290 -28.6178 -28.5697 -28.5503 -28.5054
    -2.2405  -1.6252  -1.1913  -1.1256  -1.0748  -1.0245  -0.8575  -0.8069
    -0.6357  -0.5920  -0.5338  -0.3736  -0.3093  -0.2563  -0.0681   0.1150
     0.1664   0.3004   0.3424   0.4619   0.5729   0.6527   0.7275   0.8815
     1.0024   1.1225   1.1964   1.2940   1.3163   1.4007   1.4913   1.6139
     1.7610   1.8103   1.8904   1.9846   2.1404   2.2605   2.3015   2.4909
     2.5522   2.7023   2.9817   3.1040   3.1630   3.2866   3.4179   3.4958
     3.6581   3.9349   3.9679   4.2112   4.4304   4.5206   4.6885   4.7611
     4.8198   4.9588   4.9910   5.2073   5.3689   5.4042   5.5964   5.9179

          k =-0.0860-0.1489 0.0000 ( 18364 PWs)   bands (ev):

   -70.4680 -70.1608 -70.1512 -53.0220 -53.0129 -52.9774 -52.9584 -52.9262
   -52.9195 -52.8665 -52.8388 -52.7994 -40.4504 -40.4037 -40.4012 -40.1348
   -40.1256 -40.1233 -40.1207 -40.1119 -40.1093 -29.4153 -29.4041 -29.3326
   -29.2794 -29.2182 -29.1947 -29.1481 -29.1451 -29.0844 -29.0736 -29.0717
   -29.0280 -29.0038 -28.9437 -28.9409 -28.9057 -28.9028 -28.8642 -28.8131
   -28.7833 -28.7752 -28.6625 -28.6195 -28.6136 -28.5589 -28.5311 -28.4742
    -2.0764  -1.9880  -1.2111  -1.1583  -1.0993  -0.8598  -0.8164  -0.7962
    -0.7646  -0.5898  -0.4652  -0.4107  -0.1972  -0.1371  -0.1156   0.0561
     0.1644   0.2772   0.3568   0.4930   0.6878   0.7649   0.8370   0.8676
     0.9150   0.9911   1.2780   1.3368   1.4451   1.5364   1.6512   1.6604
     1.7720   1.7912   1.8623   1.8818   1.9459   2.0638   2.3237   2.4850
     2.5874   2.8428   2.9614   3.0607   3.2415   3.3362   3.3402   3.5052
     3.5616   3.9097   3.9434   4.0122   4.1991   4.2995   4.4432   4.6184
     4.7142   4.7713   4.8954   5.1570   5.2912   5.6073   5.8512   5.8986

     the Fermi energy is     2.0868 ev

!    total energy              =   -1652.00196946 Ry
     Harris-Foulkes estimate   =   -1652.00196898 Ry
     estimated scf accuracy    <       0.00000085 Ry

     The total energy is the sum of the following terms:

     one-electron contribution =  -13641.35369265 Ry
     hartree contribution      =    6815.56745016 Ry
     xc contribution           =    -251.72474389 Ry
     ewald contribution        =    5425.62011613 Ry
     electric field correction =       0.00000075 Ry
     smearing contrib. (-TS)   =      -0.11109995 Ry

     convergence has been achieved in  18 iterations
 
 BEEF-vdW xc energy contributions
           1 :   -216.707954056822     
           2 :    197.731474470962     
           3 :   -165.168484120586     
           4 :    127.499447899366     
           5 :   -93.0828168343630     
           6 :    67.3984019216188     
           7 :   -51.8346594666863     
           8 :    44.2079765235153     
           9 :   -40.5017612685656     
          10 :    36.8774616433537     
          11 :   -31.1270671545842     
          12 :    23.1077490495749     
          13 :   -14.2231582971723     
          14 :    6.36187327990126     
          15 :  -0.861162480173221     
          16 :   -2.06188502671779     
          17 :    3.22774086455215     
          18 :   -3.91409487999204     
          19 :    5.13401008811672     
          20 :   -7.16060567551710     
          21 :    9.50037804759651     
          22 :   -11.2690354466075     
          23 :    11.7185167211736     
          24 :   -10.6327692407010     
          25 :    8.40988794437749     
          26 :   -5.83432414932494     
          27 :    3.68701062117111     
          28 :   -2.40450475196107     
          29 :    1.94355168349909     
          30 :   -1.89460254785425     
          31 :   -24.1358660080425     
          32 :   -18.2562462039029     

     Forces acting on atoms (Ry/au):


     negative rho (up, down):  2.334E-01 0.000E+00
     atom    1 type  1   force =    -0.00000050    0.01812467   -0.00414797
     atom    2 type  1   force =     0.01569610   -0.00906270   -0.00414803
     atom    3 type  1   force =    -0.01569602   -0.00906221   -0.00414766
     atom    4 type  2   force =     0.00000081    0.00000041    0.01292067
     atom    5 type  1   force =     0.00000013   -0.00605997    0.00120002
     atom    6 type  1   force =    -0.00524845    0.00303003    0.00120120
     atom    7 type  1   force =     0.00524822    0.00302995    0.00120122
     atom    8 type  2   force =    -0.00000010   -0.00000003   -0.00286524
     atom    9 type  1   force =    -0.00000013    0.00071808   -0.00009241
     atom   10 type  1   force =     0.00062145   -0.00035888   -0.00009208
     atom   11 type  1   force =    -0.00062105   -0.00035939   -0.00009243
     atom   12 type  2   force =    -0.00000045    0.00000004   -0.00093729

     Total force =     0.036458     Total SCF correction =     0.004898
     SCF correction compared to forces is large: reduce conv_thr to get better values


     entering subroutine stress ...


     negative rho (up, down):  2.334E-01 0.000E+00
          total   stress  (Ry/bohr**3)                   (kbar)     P=  -24.87
  -0.00025131   0.00000000   0.00000000        -36.97      0.00      0.00
   0.00000000  -0.00025131   0.00000000          0.00    -36.97      0.00
   0.00000000   0.00000000  -0.00000465          0.00      0.00     -0.68

 !ASE

     Writing output data file calc.save
 
     init_run     :     10.08s CPU     16.78s WALL (       1 calls)
     electrons    :    386.54s CPU    634.65s WALL (       1 calls)
     forces       :      2.29s CPU      2.87s WALL (       1 calls)
     stress       :      5.13s CPU      6.16s WALL (       1 calls)

     Called by init_run:
     wfcinit      :      8.42s CPU     14.50s WALL (       1 calls)
     potinit      :      0.84s CPU      1.33s WALL (       1 calls)

     Called by electrons:
     c_bands      :    289.15s CPU    473.13s WALL (      18 calls)
     sum_band     :     51.85s CPU     91.75s WALL (      18 calls)
     v_of_rho     :     14.50s CPU     23.19s WALL (      19 calls)
     newd         :      4.35s CPU      4.59s WALL (      19 calls)
     mix_rho      :      0.69s CPU      1.04s WALL (      18 calls)
     vdW_energy   :      1.57s CPU      1.57s WALL (      55 calls)
     vdW_ffts     :     26.73s CPU     44.27s WALL (     112 calls)
     vdW_v        :      4.90s CPU      7.48s WALL (      55 calls)

     Called by c_bands:
     init_us_2    :      0.39s CPU      0.44s WALL (     780 calls)
     cegterg      :    284.37s CPU    467.36s WALL (     360 calls)

     Called by *egterg:
     h_psi        :    199.57s CPU    370.96s WALL (    1196 calls)
     s_psi        :      5.32s CPU      5.33s WALL (    1196 calls)
     g_psi        :      0.26s CPU      0.28s WALL (     816 calls)
     cdiaghg      :     48.46s CPU     51.24s WALL (    1176 calls)

     Called by h_psi:
     add_vuspsi   :      5.60s CPU      5.62s WALL (    1196 calls)

     General routines
     calbec       :     14.87s CPU     19.63s WALL (    1596 calls)
     fft          :     39.91s CPU     66.15s WALL (    3357 calls)
     ffts         :      0.10s CPU      0.18s WALL (      37 calls)
     fftw         :    218.44s CPU    423.35s WALL (  216676 calls)
     interpolate  :      0.53s CPU      0.88s WALL (      37 calls)
     davcio       :      0.00s CPU      0.01s WALL (      20 calls)
 
     Parallel routines
     fft_scatter  :    239.21s CPU    468.48s WALL (  220070 calls)
 
     PWSCF        :  6m44.92s CPU    11m 1.98s WALL

 
   This run was terminated on:   7:26: 6  27Dec2018            

=------------------------------------------------------------------------------=
   JOB DONE.
=------------------------------------------------------------------------------=
Job  /afs/slac/g/suncat/bin/suncat-tsmpirun -x LD_LIBRARY_PATH -wdir /scratch/qe110209_RQDDg pw.x -in pw.inp

TID   HOST_NAME   COMMAND_LINE            STATUS            TERMINATION_TIME
===== ========== ================  =======================  ===================
00000 suncat0083 pw.x -in pw.inp   Done                     12/27/2018 07:26:06
00001 suncat0083 pw.x -in pw.inp   Done                     12/27/2018 07:26:06
00002 suncat0083 pw.x -in pw.inp   Done                     12/27/2018 07:26:06
00003 suncat0083 pw.x -in pw.inp   Done                     12/27/2018 07:26:06
00004 suncat0083 pw.x -in pw.inp   Done                     12/27/2018 07:26:06
00005 suncat0083 pw.x -in pw.inp   Done                     12/27/2018 07:26:06
00006 suncat0083 pw.x -in pw.inp   Done                     12/27/2018 07:26:06
00007 suncat0083 pw.x -in pw.inp   Done                     12/27/2018 07:26:06
00008 suncat0081 pw.x -in pw.inp   Done                     12/27/2018 07:26:06
00009 suncat0081 pw.x -in pw.inp   Done                     12/27/2018 07:26:06
00010 suncat0081 pw.x -in pw.inp   Done                     12/27/2018 07:26:06
00011 suncat0081 pw.x -in pw.inp   Done                     12/27/2018 07:26:06
00012 suncat0081 pw.x -in pw.inp   Done                     12/27/2018 07:26:06
00013 suncat0081 pw.x -in pw.inp   Done                     12/27/2018 07:26:06
00014 suncat0081 pw.x -in pw.inp   Done                     12/27/2018 07:26:06
00015 suncat0081 pw.x -in pw.inp   Done                     12/27/2018 07:26:06
00016 suncat0076 pw.x -in pw.inp   Done                     12/27/2018 07:26:06
00017 suncat0076 pw.x -in pw.inp   Done                     12/27/2018 07:26:06
00018 suncat0076 pw.x -in pw.inp   Done                     12/27/2018 07:26:06
00019 suncat0076 pw.x -in pw.inp   Done                     12/27/2018 07:26:06
00020 suncat0076 pw.x -in pw.inp   Done                     12/27/2018 07:26:06
00021 suncat0076 pw.x -in pw.inp   Done                     12/27/2018 07:26:06
00022 suncat0076 pw.x -in pw.inp   Done                     12/27/2018 07:26:06
00023 suncat0076 pw.x -in pw.inp   Done                     12/27/2018 07:26:06
00024 suncat0041 pw.x -in pw.inp   Done                     12/27/2018 07:26:06
00025 suncat0041 pw.x -in pw.inp   Done                     12/27/2018 07:26:06
00026 suncat0041 pw.x -in pw.inp   Done                     12/27/2018 07:26:06
00027 suncat0041 pw.x -in pw.inp   Done                     12/27/2018 07:26:06
00028 suncat0041 pw.x -in pw.inp   Done                     12/27/2018 07:26:06
00029 suncat0041 pw.x -in pw.inp   Done                     12/27/2018 07:26:06
00030 suncat0041 pw.x -in pw.inp   Done                     12/27/2018 07:26:06
00031 suncat0041 pw.x -in pw.inp   Done                     12/27/2018 07:26:06
00032 suncat0039 pw.x -in pw.inp   Done                     12/27/2018 07:26:06
00033 suncat0039 pw.x -in pw.inp   Done                     12/27/2018 07:26:06
00034 suncat0039 pw.x -in pw.inp   Done                     12/27/2018 07:26:06
00035 suncat0039 pw.x -in pw.inp   Done                     12/27/2018 07:26:06
00036 suncat0039 pw.x -in pw.inp   Done                     12/27/2018 07:26:06
00037 suncat0039 pw.x -in pw.inp   Done                     12/27/2018 07:26:06
00038 suncat0039 pw.x -in pw.inp   Done                     12/27/2018 07:26:06
00039 suncat0039 pw.x -in pw.inp   Done                     12/27/2018 07:26:06
00040 suncat0034 pw.x -in pw.inp   Done                     12/27/2018 07:26:06
00041 suncat0034 pw.x -in pw.inp   Done                     12/27/2018 07:26:06
00042 suncat0034 pw.x -in pw.inp   Done                     12/27/2018 07:26:06
00043 suncat0034 pw.x -in pw.inp   Done                     12/27/2018 07:26:06
00044 suncat0034 pw.x -in pw.inp   Done                     12/27/2018 07:26:06
00045 suncat0034 pw.x -in pw.inp   Done                     12/27/2018 07:26:06
00046 suncat0034 pw.x -in pw.inp   Done                     12/27/2018 07:26:06
00047 suncat0034 pw.x -in pw.inp   Done                     12/27/2018 07:26:06
00048 suncat0029 pw.x -in pw.inp   Done                     12/27/2018 07:26:06
00049 suncat0029 pw.x -in pw.inp   Done                     12/27/2018 07:26:06
00050 suncat0029 pw.x -in pw.inp   Done                     12/27/2018 07:26:06
00051 suncat0029 pw.x -in pw.inp   Done                     12/27/2018 07:26:06
00052 suncat0029 pw.x -in pw.inp   Done                     12/27/2018 07:26:06
00053 suncat0029 pw.x -in pw.inp   Done                     12/27/2018 07:26:06
00054 suncat0029 pw.x -in pw.inp   Done                     12/27/2018 07:26:06
00055 suncat0029 pw.x -in pw.inp   Done                     12/27/2018 07:26:06
00056 suncat0199 pw.x -in pw.inp   Done                     12/27/2018 07:26:06
00057 suncat0199 pw.x -in pw.inp   Done                     12/27/2018 07:26:06
00058 suncat0199 pw.x -in pw.inp   Done                     12/27/2018 07:26:06
00059 suncat0199 pw.x -in pw.inp   Done                     12/27/2018 07:26:06
00060 suncat0199 pw.x -in pw.inp   Done                     12/27/2018 07:26:06
00061 suncat0199 pw.x -in pw.inp   Done                     12/27/2018 07:26:06
00062 suncat0199 pw.x -in pw.inp   Done                     12/27/2018 07:26:06
00063 suncat0199 pw.x -in pw.inp   Done                     12/27/2018 07:26:06
