  python dir          : /u/if/mamunm/src/espresso
  espresso dir        : /nfs/slac/g/suncatfs/sw/espv18/espresso-dynpy-beef/bin
  pseudo dir          : /afs/slac.stanford.edu/u/if/mamunm/psp/gbrv1.5pbe
  ase-espresso py git : GITVERSION



     Program PWSCF v.5.1rc2 (svn rev. 11289) starts on 30Dec2018 at 13:14:20 

     This program is part of the open-source Quantum ESPRESSO suite
     for quantum simulation of materials; please cite
         "P. Giannozzi et al., J. Phys.:Condens. Matter 21 395502 (2009);
          URL http://www.quantum-espresso.org", 
     in publications or presentations arising from this work. More details at
     http://www.quantum-espresso.org/quote

     Parallel version (MPI), running on    64 processors
     R & G space division:  proc/nbgrp/npool/nimage =      64
     Reading input from pw.inp
     Message from routine read_cards :
     DEPRECATED: no units specified in CELL_PARAMETERS card

     Current dimensions of program PWSCF are:
     Max number of different atomic species (ntypx) = 10
     Max number of k-points (npk) =  40000
     Max angular momentum in pseudopotentials (lmaxx) =  3
     Presently stress not available with electric field


     **************************************************************************
     Initializing libbeef V0.1.1 with the BEEF-vdW functional.
     Citation: Wellendorff et al., PRB 85, 235149 (2012).
     **************************************************************************


     IMPORTANT: XC functional enforced from input :
     Exchange-correlation      = BEEF-VDW ( 1  4 27 13 2)
     Any further DFT definition will be discarded
     Please, verify this is what you really want


     Subspace diagonalization in iterative solution of the eigenvalue problem:
     a serial algorithm will be used

 
     Parallelization info
     --------------------
     sticks:   dense  smooth     PW     G-vecs:    dense   smooth      PW
     Min          42      16      4                 7870     1970     302
     Max          43      17      5                 7894     2017     339
     Sum        2689    1069    313               504665   127667   21135
 
     Generating pointlists ...
     new r_m :   0.4125 (alat units)  0.7795 (a.u.) for type    1
     new r_m :   0.4125 (alat units)  0.7795 (a.u.) for type    2


     bravais-lattice index     =            0
     lattice parameter (alat)  =       1.8897  a.u.
     unit-cell volume          =    4241.1128 (a.u.)^3
     number of atoms/cell      =           12
     number of atomic types    =            2
     number of electrons       =       168.00
     number of Kohn-Sham states=          114
     kinetic-energy cutoff     =      36.7493  Ry
     charge density cutoff     =     367.4932  Ry
     convergence threshold     =      1.0E-06
     mixing beta               =       0.1000
     number of iterations used =           10  plain     mixing
     Exchange-correlation      = BEEF-VDW ( 1  4 27 13 2)
     nstep                     =           50


     celldm(1)=   1.889726  celldm(2)=   0.000000  celldm(3)=   0.000000
     celldm(4)=   0.000000  celldm(5)=   0.000000  celldm(6)=   0.000000

     crystal axes: (cart. coord. in units of alat)
               a(1) = (   5.448174   0.000000   0.000000 )  
               a(2) = (  -2.724087   4.718257   0.000000 )  
               a(3) = (   0.000000   0.000000  24.448415 )  

     reciprocal axes: (cart. coord. in units 2 pi/alat)
               b(1) = (  0.183548  0.105971  0.000000 )  
               b(2) = (  0.000000  0.211943  0.000000 )  
               b(3) = (  0.000000  0.000000  0.040902 )  


     PseudoPot. # 1 for Mn read from file:
     /afs/slac.stanford.edu/u/if/mamunm/psp/gbrv1.5pbe/Mn.UPF
     MD5 check sum: 82ef2b46521d7a7d9e736dc3972e4928
     Pseudo is Ultrasoft + core correction, Zval = 15.0
     Generated by new atomic code, or converted to UPF format
     Using radial grid of  859 points,  6 beta functions with: 
                l(1) =   0
                l(2) =   0
                l(3) =   1
                l(4) =   1
                l(5) =   2
                l(6) =   2
     Q(r) pseudized with  8 coefficients,  rinner =    0.950   0.950   0.950
                                                       0.950   0.950

     PseudoPot. # 2 for Au read from file:
     /afs/slac.stanford.edu/u/if/mamunm/psp/gbrv1.5pbe/Au.UPF
     MD5 check sum: 9d7f43293ad2c663164586bc4b293ffc
     Pseudo is Ultrasoft + core correction, Zval = 11.0
     Generated by new atomic code, or converted to UPF format
     Using radial grid of  985 points,  7 beta functions with: 
                l(1) =   0
                l(2) =   0
                l(3) =   1
                l(4) =   1
                l(5) =   2
                l(6) =   2
                l(7) =   3
     Q(r) pseudized with  6 coefficients,  rinner =    1.900   1.900   1.900
                                                       1.900   1.900   1.900
                                                       1.900

     vdW kernel table read from file vdW_kernel_table
     MD5 check sum: 095c7af220d748ca6e76c0b4c6cfb241

     atomic species   valence    mass     pseudopotential
        Mn1           15.00    54.93804     Mn( 1.00)
        Au1           11.00   196.96657     Au( 1.00)

     Starting magnetic structure 
     atomic species   magnetization
        Mn1          0.133
        Au1          0.182

     No symmetry found



   Cartesian axes

     site n.     atom                  positions (alat units)
         1           Mn1 tau(   1) = (   0.0000000   0.0000000  10.0000000  )
         2           Mn1 tau(   2) = (  -1.3620434   2.3591284  10.0000000  )
         3           Mn1 tau(   3) = (   1.3620434   2.3591284  10.0000000  )
         4           Au1 tau(   4) = (   2.7240868   0.0000000  10.0000000  )
         5           Mn1 tau(   5) = (   2.7240868   1.5727523  12.2242076  )
         6           Mn1 tau(   6) = (   1.3620434   3.9318807  12.2242076  )
         7           Mn1 tau(   7) = (  -1.3620434   3.9318807  12.2242076  )
         8           Au1 tau(   8) = (   0.0000000   1.5727523  12.2242076  )
         9           Mn1 tau(   9) = (  -0.0000000   3.1455045  14.4484152  )
        10           Mn1 tau(  10) = (   1.3620434   0.7863761  14.4484152  )
        11           Mn1 tau(  11) = (   4.0861302   0.7863761  14.4484152  )
        12           Au1 tau(  12) = (   2.7240868   3.1455045  14.4484152  )

     number of k points=    40  Fermi-Dirac smearing, width (Ry)=  0.0110
                       cart. coord. in units 2pi/alat
        k(    1) = (   0.0000000   0.0000000   0.0000000), wk =   0.0277778
        k(    2) = (   0.0000000   0.0353238   0.0000000), wk =   0.0555556
        k(    3) = (   0.0000000   0.0706476   0.0000000), wk =   0.0555556
        k(    4) = (   0.0000000  -0.1059713   0.0000000), wk =   0.0277778
        k(    5) = (   0.0305913   0.0176619   0.0000000), wk =   0.0555556
        k(    6) = (   0.0305913   0.0529857   0.0000000), wk =   0.0555556
        k(    7) = (   0.0305913   0.0883095   0.0000000), wk =   0.0555556
        k(    8) = (   0.0305913  -0.0883095   0.0000000), wk =   0.0555556
        k(    9) = (   0.0305913  -0.0529857   0.0000000), wk =   0.0555556
        k(   10) = (   0.0305913  -0.0176619   0.0000000), wk =   0.0555556
        k(   11) = (   0.0611826   0.0353238   0.0000000), wk =   0.0555556
        k(   12) = (   0.0611826   0.0706476   0.0000000), wk =   0.0555556
        k(   13) = (   0.0611826   0.1059713   0.0000000), wk =   0.0555556
        k(   14) = (   0.0611826  -0.0706476   0.0000000), wk =   0.0555556
        k(   15) = (   0.0611826  -0.0353238   0.0000000), wk =   0.0555556
        k(   16) = (   0.0611826   0.0000000   0.0000000), wk =   0.0555556
        k(   17) = (  -0.0917739  -0.0529857   0.0000000), wk =   0.0277778
        k(   18) = (  -0.0917739  -0.0176619   0.0000000), wk =   0.0555556
        k(   19) = (  -0.0917739   0.0176619   0.0000000), wk =   0.0555556
        k(   20) = (  -0.0917739  -0.1589570   0.0000000), wk =   0.0277778
        k(   21) = (   0.0000000   0.0000000   0.0000000), wk =   0.0277778
        k(   22) = (   0.0000000   0.0353238   0.0000000), wk =   0.0555556
        k(   23) = (   0.0000000   0.0706476   0.0000000), wk =   0.0555556
        k(   24) = (   0.0000000  -0.1059713   0.0000000), wk =   0.0277778
        k(   25) = (   0.0305913   0.0176619   0.0000000), wk =   0.0555556
        k(   26) = (   0.0305913   0.0529857   0.0000000), wk =   0.0555556
        k(   27) = (   0.0305913   0.0883095   0.0000000), wk =   0.0555556
        k(   28) = (   0.0305913  -0.0883095   0.0000000), wk =   0.0555556
        k(   29) = (   0.0305913  -0.0529857   0.0000000), wk =   0.0555556
        k(   30) = (   0.0305913  -0.0176619   0.0000000), wk =   0.0555556
        k(   31) = (   0.0611826   0.0353238   0.0000000), wk =   0.0555556
        k(   32) = (   0.0611826   0.0706476   0.0000000), wk =   0.0555556
        k(   33) = (   0.0611826   0.1059713   0.0000000), wk =   0.0555556
        k(   34) = (   0.0611826  -0.0706476   0.0000000), wk =   0.0555556
        k(   35) = (   0.0611826  -0.0353238   0.0000000), wk =   0.0555556
        k(   36) = (   0.0611826   0.0000000   0.0000000), wk =   0.0555556
        k(   37) = (  -0.0917739  -0.0529857   0.0000000), wk =   0.0277778
        k(   38) = (  -0.0917739  -0.0176619   0.0000000), wk =   0.0555556
        k(   39) = (  -0.0917739   0.0176619   0.0000000), wk =   0.0555556
        k(   40) = (  -0.0917739  -0.1589570   0.0000000), wk =   0.0277778

     Dense  grid:   504665 G-vectors     FFT dimensions: (  64,  64, 288)

     Smooth grid:   127667 G-vectors     FFT dimensions: (  40,  40, 180)

     Largest allocated arrays     est. size (Mb)     dimensions
        Kohn-Sham Wavefunctions         0.47 Mb     (     273,  114)
        NL pseudopotentials             0.99 Mb     (     273,  237)
        Each V/rho on FFT grid          0.62 Mb     (   20480,   2)
        Each G-vector array             0.06 Mb     (    7892)
        G-vector shells                 0.03 Mb     (    3704)
     Largest temporary arrays     est. size (Mb)     dimensions
        Auxiliary wavefunctions         1.90 Mb     (     273,  456)
        Each subspace H/S matrix        3.17 Mb     (     456,  456)
        Each <psi_i|beta_j> matrix      0.41 Mb     (     237,  114)
        Arrays for rho mixing           3.12 Mb     (   20480,   10)

     Check: negative/imaginary core charge=   -0.000007    0.000000

     Initial potential from superposition of free atoms
     Check: negative starting charge=(component1):   -0.001553
     Check: negative starting charge=(component2):   -0.001189

     starting charge  163.49887, renormalised to  168.00000

     negative rho (up, down):  1.595E-03 1.222E-03


     ************************************************************************
     *
     * You are using vdW-DF for exchange-correlation in this calculation.
     * Please cite the following three references that made this development
     * possible:
     *
     *   M. Dion, H. Rydberg, E. Schroder, D. C. Langreth, and
     *   B. I. Lundqvist, Phys. Rev. Lett. 92, 246401 (2004).
     *
     *   T. Thonhauser, V. R. Cooper, S. Li, A. Puzder, P. Hyldgaard, and
     *   D. C. Langreth, Phys. Rev. B 76, 125112 (2007).
     *
     *   G. Roman-Perez and J. M. Soler, Phys. Rev. Lett. 103, 096102 (2009).
     *
     *
     * If you are using vdW-DF2, please also cite:
     *
     *   K. Lee, E. D. Murray, L. Kong, B. I. Lundqvist, and
     *   D. C. Langreth, Phys. Rev. B 82, 081101(R) (2010).
     *
     *
     * If you are calculating the stress with vdW-DF, please also cite:
     *
     *   R. Sabatini, E. Kucukbenli, B. Kolb, T. Thonhauser, and
     *   S. de Gironcoli, J. Phys.: Condens. Matter 24, 424209 (2012).
     *
     ************************************************************************

     Carrying out vdW-DF run using the following parameters:

     Nqs =      20    Nr_points =    1024   r_max =   100.000
     q_mesh =
               0.00001000     0.04494208     0.09755937     0.15916263
               0.23128650     0.31572767     0.41458969     0.53033537
               0.66584808     0.82450364     1.01025438     1.22772762
               1.48234092     1.78043706     2.12944203     2.53805004
               3.01644009     3.57652955     4.23227104     5.00000000

     Gradients computed in reciprocal space

     ************************************************************************


 
     Adding external electric field

     Computed dipole along edir(3) : 
        Dipole               -0.0000 Ry au,         -0.0000 Debye
        Dipole field         -0.0000 Ry au
 
        Potential amp.        0.0000 Ry
        Total length         45.0458 bohr
 
 
     Adding external electric field

     Computed dipole along edir(3) : 
        Dipole               -0.0000 Ry au,         -0.0000 Debye
        Dipole field         -0.0000 Ry au
 
        Potential amp.        0.0000 Ry
        Total length         45.0458 bohr
 
     Starting wfc are  144 randomized atomic wfcs

     total cpu time spent up to now is       48.5 secs

     per-process dynamical memory:    46.8 Mb

     Self-consistent Calculation

     iteration #  1     ecut=    36.75 Ry     beta=0.10
     Davidson diagonalization with overlap
     ethr =  1.00E-02,  avg # of iterations =  5.9

     negative rho (up, down):  1.500E-03 1.121E-03
 
     Adding external electric field

     Computed dipole along edir(3) : 
        Dipole               -0.0003 Ry au,         -0.0007 Debye
        Dipole field         -0.0000 Ry au
 
        Potential amp.        0.0001 Ry
        Total length         45.0458 bohr
 
 
     Adding external electric field

     Computed dipole along edir(3) : 
        Dipole               -0.0003 Ry au,         -0.0007 Debye
        Dipole field         -0.0000 Ry au
 
        Potential amp.        0.0001 Ry
        Total length         45.0458 bohr
 
 
     Magnetic moment per site:
     atom:    1    charge:    6.0808    magn:    0.8011    constr:    0.0000
     atom:    2    charge:    6.0808    magn:    0.8011    constr:    0.0000
     atom:    3    charge:    6.0808    magn:    0.8011    constr:    0.0000
     atom:    4    charge:    1.4628    magn:    0.2494    constr:    0.0000
     atom:    5    charge:    6.0724    magn:    0.7922    constr:    0.0000
     atom:    6    charge:    6.0724    magn:    0.7922    constr:    0.0000
     atom:    7    charge:    6.0724    magn:    0.7922    constr:    0.0000
     atom:    8    charge:    1.4600    magn:    0.2483    constr:    0.0000
     atom:    9    charge:    6.0737    magn:    0.8002    constr:    0.0000
     atom:   10    charge:    6.0737    magn:    0.8002    constr:    0.0000
     atom:   11    charge:    6.0737    magn:    0.8002    constr:    0.0000
     atom:   12    charge:    1.4598    magn:    0.2489    constr:    0.0000

     total cpu time spent up to now is      173.4 secs

     total energy              =   -2259.04673491 Ry
     Harris-Foulkes estimate   =   -2260.29798158 Ry
     estimated scf accuracy    <       8.08826377 Ry

     total magnetization       =    15.78 Bohr mag/cell
     absolute magnetization    =    15.92 Bohr mag/cell

     iteration #  2     ecut=    36.75 Ry     beta=0.10
     Davidson diagonalization with overlap
     ethr =  4.81E-03,  avg # of iterations =  1.1

     negative rho (up, down):  1.553E-03 1.185E-03
 
     Adding external electric field

     Computed dipole along edir(3) : 
        Dipole                0.0016 Ry au,          0.0041 Debye
        Dipole field          0.0000 Ry au
 
        Potential amp.       -0.0004 Ry
        Total length         45.0458 bohr
 
 
     Adding external electric field

     Computed dipole along edir(3) : 
        Dipole                0.0016 Ry au,          0.0041 Debye
        Dipole field          0.0000 Ry au
 
        Potential amp.       -0.0004 Ry
        Total length         45.0458 bohr
 
 
     Magnetic moment per site:
     atom:    1    charge:    6.0136    magn:    0.7990    constr:    0.0000
     atom:    2    charge:    6.0136    magn:    0.7990    constr:    0.0000
     atom:    3    charge:    6.0136    magn:    0.7990    constr:    0.0000
     atom:    4    charge:    1.4290    magn:    0.2151    constr:    0.0000
     atom:    5    charge:    6.0200    magn:    0.7754    constr:    0.0000
     atom:    6    charge:    6.0200    magn:    0.7754    constr:    0.0000
     atom:    7    charge:    6.0200    magn:    0.7754    constr:    0.0000
     atom:    8    charge:    1.4284    magn:    0.2135    constr:    0.0000
     atom:    9    charge:    6.0065    magn:    0.7981    constr:    0.0000
     atom:   10    charge:    6.0065    magn:    0.7981    constr:    0.0000
     atom:   11    charge:    6.0066    magn:    0.7981    constr:    0.0000
     atom:   12    charge:    1.4261    magn:    0.2146    constr:    0.0000

     total cpu time spent up to now is      258.6 secs

     total energy              =   -2258.39255682 Ry
     Harris-Foulkes estimate   =   -2259.27213816 Ry
     estimated scf accuracy    <       3.40892051 Ry

     total magnetization       =    19.09 Bohr mag/cell
     absolute magnetization    =    19.14 Bohr mag/cell

     iteration #  3     ecut=    36.75 Ry     beta=0.10
     Davidson diagonalization with overlap
     ethr =  2.03E-03,  avg # of iterations =  2.1

     negative rho (up, down):  1.615E-03 1.221E-03
 
     Adding external electric field

     Computed dipole along edir(3) : 
        Dipole               -0.0046 Ry au,         -0.0116 Debye
        Dipole field         -0.0000 Ry au
 
        Potential amp.        0.0012 Ry
        Total length         45.0458 bohr
 
 
     Adding external electric field

     Computed dipole along edir(3) : 
        Dipole               -0.0046 Ry au,         -0.0116 Debye
        Dipole field         -0.0000 Ry au
 
        Potential amp.        0.0012 Ry
        Total length         45.0458 bohr
 
 
     Magnetic moment per site:
     atom:    1    charge:    6.0097    magn:    0.8025    constr:    0.0000
     atom:    2    charge:    6.0097    magn:    0.8025    constr:    0.0000
     atom:    3    charge:    6.0097    magn:    0.8025    constr:    0.0000
     atom:    4    charge:    1.4225    magn:    0.2044    constr:    0.0000
     atom:    5    charge:    5.9897    magn:    0.7682    constr:    0.0000
     atom:    6    charge:    5.9897    magn:    0.7682    constr:    0.0000
     atom:    7    charge:    5.9897    magn:    0.7682    constr:    0.0000
     atom:    8    charge:    1.4210    magn:    0.2030    constr:    0.0000
     atom:    9    charge:    6.0028    magn:    0.8015    constr:    0.0000
     atom:   10    charge:    6.0028    magn:    0.8015    constr:    0.0000
     atom:   11    charge:    6.0028    magn:    0.8015    constr:    0.0000
     atom:   12    charge:    1.4196    magn:    0.2039    constr:    0.0000

     total cpu time spent up to now is      357.7 secs

     total energy              =   -2258.44265529 Ry
     Harris-Foulkes estimate   =   -2258.94069976 Ry
     estimated scf accuracy    <       9.88549406 Ry

     total magnetization       =    19.75 Bohr mag/cell
     absolute magnetization    =    19.82 Bohr mag/cell

     iteration #  4     ecut=    36.75 Ry     beta=0.10
     Davidson diagonalization with overlap
     ethr =  2.03E-03,  avg # of iterations =  1.2

     negative rho (up, down):  1.695E-03 1.315E-03
 
     Adding external electric field

     Computed dipole along edir(3) : 
        Dipole                0.0833 Ry au,          0.2117 Debye
        Dipole field          0.0002 Ry au
 
        Potential amp.       -0.0222 Ry
        Total length         45.0458 bohr
 
 
     Adding external electric field

     Computed dipole along edir(3) : 
        Dipole                0.0833 Ry au,          0.2117 Debye
        Dipole field          0.0002 Ry au
 
        Potential amp.       -0.0222 Ry
        Total length         45.0458 bohr
 
 
     Magnetic moment per site:
     atom:    1    charge:    6.0115    magn:    0.8377    constr:    0.0000
     atom:    2    charge:    6.0115    magn:    0.8377    constr:    0.0000
     atom:    3    charge:    6.0115    magn:    0.8377    constr:    0.0000
     atom:    4    charge:    1.4225    magn:    0.1792    constr:    0.0000
     atom:    5    charge:    5.9862    magn:    0.7832    constr:    0.0000
     atom:    6    charge:    5.9862    magn:    0.7832    constr:    0.0000
     atom:    7    charge:    5.9862    magn:    0.7832    constr:    0.0000
     atom:    8    charge:    1.4174    magn:    0.1795    constr:    0.0000
     atom:    9    charge:    6.0026    magn:    0.8364    constr:    0.0000
     atom:   10    charge:    6.0026    magn:    0.8364    constr:    0.0000
     atom:   11    charge:    6.0025    magn:    0.8364    constr:    0.0000
     atom:   12    charge:    1.4195    magn:    0.1788    constr:    0.0000

     total cpu time spent up to now is      450.5 secs

     total energy              =   -2258.70914766 Ry
     Harris-Foulkes estimate   =   -2258.72734756 Ry
     estimated scf accuracy    <       0.59304202 Ry

     total magnetization       =    23.46 Bohr mag/cell
     absolute magnetization    =    23.54 Bohr mag/cell

     iteration #  5     ecut=    36.75 Ry     beta=0.10
     Davidson diagonalization with overlap
     ethr =  3.53E-04,  avg # of iterations =  5.2

     negative rho (up, down):  1.655E-03 1.284E-03
 
     Adding external electric field

     Computed dipole along edir(3) : 
        Dipole               -0.0142 Ry au,         -0.0361 Debye
        Dipole field         -0.0000 Ry au
 
        Potential amp.        0.0038 Ry
        Total length         45.0458 bohr
 
 
     Adding external electric field

     Computed dipole along edir(3) : 
        Dipole               -0.0142 Ry au,         -0.0361 Debye
        Dipole field         -0.0000 Ry au
 
        Potential amp.        0.0038 Ry
        Total length         45.0458 bohr
 
 
     Magnetic moment per site:
     atom:    1    charge:    6.0099    magn:    0.8403    constr:    0.0000
     atom:    2    charge:    6.0099    magn:    0.8403    constr:    0.0000
     atom:    3    charge:    6.0099    magn:    0.8403    constr:    0.0000
     atom:    4    charge:    1.4226    magn:    0.1772    constr:    0.0000
     atom:    5    charge:    5.9856    magn:    0.7845    constr:    0.0000
     atom:    6    charge:    5.9856    magn:    0.7846    constr:    0.0000
     atom:    7    charge:    5.9856    magn:    0.7846    constr:    0.0000
     atom:    8    charge:    1.4174    magn:    0.1776    constr:    0.0000
     atom:    9    charge:    6.0032    magn:    0.8392    constr:    0.0000
     atom:   10    charge:    6.0032    magn:    0.8392    constr:    0.0000
     atom:   11    charge:    6.0032    magn:    0.8392    constr:    0.0000
     atom:   12    charge:    1.4197    magn:    0.1768    constr:    0.0000

     total cpu time spent up to now is      557.5 secs

     total energy              =   -2258.71981626 Ry
     Harris-Foulkes estimate   =   -2258.75078029 Ry
     estimated scf accuracy    <       2.09136899 Ry

     total magnetization       =    23.81 Bohr mag/cell
     absolute magnetization    =    23.90 Bohr mag/cell

     iteration #  6     ecut=    36.75 Ry     beta=0.10
     Davidson diagonalization with overlap
     ethr =  3.53E-04,  avg # of iterations =  1.0

     negative rho (up, down):  1.711E-03 1.335E-03
 
     Adding external electric field

     Computed dipole along edir(3) : 
        Dipole               -0.0014 Ry au,         -0.0035 Debye
        Dipole field         -0.0000 Ry au
 
        Potential amp.        0.0004 Ry
        Total length         45.0458 bohr
 
 
     Adding external electric field

     Computed dipole along edir(3) : 
        Dipole               -0.0014 Ry au,         -0.0035 Debye
        Dipole field         -0.0000 Ry au
 
        Potential amp.        0.0004 Ry
        Total length         45.0458 bohr
 
 
     Magnetic moment per site:
     atom:    1    charge:    6.0043    magn:    0.8695    constr:    0.0000
     atom:    2    charge:    6.0044    magn:    0.8695    constr:    0.0000
     atom:    3    charge:    6.0044    magn:    0.8695    constr:    0.0000
     atom:    4    charge:    1.4243    magn:    0.1568    constr:    0.0000
     atom:    5    charge:    5.9793    magn:    0.7993    constr:    0.0000
     atom:    6    charge:    5.9793    magn:    0.7993    constr:    0.0000
     atom:    7    charge:    5.9793    magn:    0.7993    constr:    0.0000
     atom:    8    charge:    1.4173    magn:    0.1585    constr:    0.0000
     atom:    9    charge:    5.9973    magn:    0.8683    constr:    0.0000
     atom:   10    charge:    5.9973    magn:    0.8683    constr:    0.0000
     atom:   11    charge:    5.9975    magn:    0.8683    constr:    0.0000
     atom:   12    charge:    1.4214    magn:    0.1565    constr:    0.0000

     total cpu time spent up to now is      646.5 secs

     total energy              =   -2258.76214183 Ry
     Harris-Foulkes estimate   =   -2258.74020662 Ry
     estimated scf accuracy    <       0.19757219 Ry

     total magnetization       =    24.04 Bohr mag/cell
     absolute magnetization    =    24.14 Bohr mag/cell

     iteration #  7     ecut=    36.75 Ry     beta=0.10
     Davidson diagonalization with overlap
     ethr =  1.18E-04,  avg # of iterations =  4.3

     negative rho (up, down):  1.976E-03 1.603E-03
 
     Adding external electric field

     Computed dipole along edir(3) : 
        Dipole               -0.0013 Ry au,         -0.0034 Debye
        Dipole field         -0.0000 Ry au
 
        Potential amp.        0.0004 Ry
        Total length         45.0458 bohr
 
 
     Adding external electric field

     Computed dipole along edir(3) : 
        Dipole               -0.0013 Ry au,         -0.0034 Debye
        Dipole field         -0.0000 Ry au
 
        Potential amp.        0.0004 Ry
        Total length         45.0458 bohr
 
 
     Magnetic moment per site:
     atom:    1    charge:    6.0055    magn:    0.9488    constr:    0.0000
     atom:    2    charge:    6.0048    magn:    0.9488    constr:    0.0000
     atom:    3    charge:    6.0049    magn:    0.9488    constr:    0.0000
     atom:    4    charge:    1.4356    magn:    0.1173    constr:    0.0000
     atom:    5    charge:    5.9829    magn:    0.8473    constr:    0.0000
     atom:    6    charge:    5.9827    magn:    0.8473    constr:    0.0000
     atom:    7    charge:    5.9829    magn:    0.8473    constr:    0.0000
     atom:    8    charge:    1.4277    magn:    0.1214    constr:    0.0000
     atom:    9    charge:    5.9983    magn:    0.9474    constr:    0.0000
     atom:   10    charge:    5.9984    magn:    0.9474    constr:    0.0000
     atom:   11    charge:    5.9971    magn:    0.9475    constr:    0.0000
     atom:   12    charge:    1.4328    magn:    0.1171    constr:    0.0000

     total cpu time spent up to now is      747.4 secs

     total energy              =   -2258.82476105 Ry
     Harris-Foulkes estimate   =   -2258.76724987 Ry
     estimated scf accuracy    <       0.12565007 Ry

     total magnetization       =    25.07 Bohr mag/cell
     absolute magnetization    =    25.18 Bohr mag/cell

     iteration #  8     ecut=    36.75 Ry     beta=0.10
     Davidson diagonalization with overlap
     ethr =  7.48E-05,  avg # of iterations =  1.9

     negative rho (up, down):  2.122E-03 1.756E-03
 
     Adding external electric field

     Computed dipole along edir(3) : 
        Dipole               -0.0009 Ry au,         -0.0023 Debye
        Dipole field         -0.0000 Ry au
 
        Potential amp.        0.0002 Ry
        Total length         45.0458 bohr
 
 
     Adding external electric field

     Computed dipole along edir(3) : 
        Dipole               -0.0009 Ry au,         -0.0023 Debye
        Dipole field         -0.0000 Ry au
 
        Potential amp.        0.0002 Ry
        Total length         45.0458 bohr
 
 
     Magnetic moment per site:
     atom:    1    charge:    6.0063    magn:    1.0025    constr:    0.0000
     atom:    2    charge:    6.0075    magn:    1.0024    constr:    0.0000
     atom:    3    charge:    6.0074    magn:    1.0025    constr:    0.0000
     atom:    4    charge:    1.4413    magn:    0.0963    constr:    0.0000
     atom:    5    charge:    5.9867    magn:    0.8815    constr:    0.0000
     atom:    6    charge:    5.9871    magn:    0.8815    constr:    0.0000
     atom:    7    charge:    5.9862    magn:    0.8814    constr:    0.0000
     atom:    8    charge:    1.4348    magn:    0.1016    constr:    0.0000
     atom:    9    charge:    5.9993    magn:    1.0012    constr:    0.0000
     atom:   10    charge:    5.9992    magn:    1.0012    constr:    0.0000
     atom:   11    charge:    6.0017    magn:    1.0011    constr:    0.0000
     atom:   12    charge:    1.4384    magn:    0.0962    constr:    0.0000

     total cpu time spent up to now is      839.7 secs

     total energy              =   -2258.86663799 Ry
     Harris-Foulkes estimate   =   -2258.83353670 Ry
     estimated scf accuracy    <       0.10308381 Ry

     total magnetization       =    26.74 Bohr mag/cell
     absolute magnetization    =    26.92 Bohr mag/cell

     iteration #  9     ecut=    36.75 Ry     beta=0.10
     Davidson diagonalization with overlap
     ethr =  6.14E-05,  avg # of iterations =  1.0

     negative rho (up, down):  2.672E-03 2.388E-03
 
     Adding external electric field

     Computed dipole along edir(3) : 
        Dipole                0.0004 Ry au,          0.0010 Debye
        Dipole field          0.0000 Ry au
 
        Potential amp.       -0.0001 Ry
        Total length         45.0458 bohr
 
 
     Adding external electric field

     Computed dipole along edir(3) : 
        Dipole                0.0004 Ry au,          0.0010 Debye
        Dipole field          0.0000 Ry au
 
        Potential amp.       -0.0001 Ry
        Total length         45.0458 bohr
 
 
     Magnetic moment per site:
     atom:    1    charge:    6.0125    magn:    1.1322    constr:    0.0000
     atom:    2    charge:    6.0130    magn:    1.1324    constr:    0.0000
     atom:    3    charge:    6.0126    magn:    1.1323    constr:    0.0000
     atom:    4    charge:    1.4509    magn:    0.0544    constr:    0.0000
     atom:    5    charge:    5.9952    magn:    0.9667    constr:    0.0000
     atom:    6    charge:    5.9953    magn:    0.9667    constr:    0.0000
     atom:    7    charge:    5.9972    magn:    0.9668    constr:    0.0000
     atom:    8    charge:    1.4504    magn:    0.0620    constr:    0.0000
     atom:    9    charge:    6.0057    magn:    1.1310    constr:    0.0000
     atom:   10    charge:    6.0057    magn:    1.1310    constr:    0.0000
     atom:   11    charge:    6.0066    magn:    1.1311    constr:    0.0000
     atom:   12    charge:    1.4480    magn:    0.0543    constr:    0.0000

     total cpu time spent up to now is      929.6 secs

     total energy              =   -2258.92652120 Ry
     Harris-Foulkes estimate   =   -2258.87074965 Ry
     estimated scf accuracy    <       0.09743101 Ry

     total magnetization       =    27.67 Bohr mag/cell
     absolute magnetization    =    27.90 Bohr mag/cell

     iteration # 10     ecut=    36.75 Ry     beta=0.10
     Davidson diagonalization with overlap
     ethr =  5.80E-05,  avg # of iterations =  1.9

     negative rho (up, down):  2.815E-03 2.563E-03
 
     Adding external electric field

     Computed dipole along edir(3) : 
        Dipole                0.0002 Ry au,          0.0006 Debye
        Dipole field          0.0000 Ry au
 
        Potential amp.       -0.0001 Ry
        Total length         45.0458 bohr
 
 
     Adding external electric field

     Computed dipole along edir(3) : 
        Dipole                0.0002 Ry au,          0.0006 Debye
        Dipole field          0.0000 Ry au
 
        Potential amp.       -0.0001 Ry
        Total length         45.0458 bohr
 
 
     Magnetic moment per site:
     atom:    1    charge:    6.0140    magn:    1.1966    constr:    0.0000
     atom:    2    charge:    6.0138    magn:    1.1970    constr:    0.0000
     atom:    3    charge:    6.0141    magn:    1.1970    constr:    0.0000
     atom:    4    charge:    1.4528    magn:    0.0380    constr:    0.0000
     atom:    5    charge:    5.9983    magn:    1.0106    constr:    0.0000
     atom:    6    charge:    5.9982    magn:    1.0106    constr:    0.0000
     atom:    7    charge:    5.9967    magn:    1.0107    constr:    0.0000
     atom:    8    charge:    1.4552    magn:    0.0464    constr:    0.0000
     atom:    9    charge:    6.0074    magn:    1.1956    constr:    0.0000
     atom:   10    charge:    6.0074    magn:    1.1955    constr:    0.0000
     atom:   11    charge:    6.0073    magn:    1.1959    constr:    0.0000
     atom:   12    charge:    1.4500    magn:    0.0380    constr:    0.0000

     total cpu time spent up to now is     1023.6 secs

     total energy              =   -2258.96376383 Ry
     Harris-Foulkes estimate   =   -2258.94151891 Ry
     estimated scf accuracy    <       0.06227303 Ry

     total magnetization       =    29.54 Bohr mag/cell
     absolute magnetization    =    29.90 Bohr mag/cell

     iteration # 11     ecut=    36.75 Ry     beta=0.10
     Davidson diagonalization with overlap
     ethr =  3.71E-05,  avg # of iterations =  1.3

     negative rho (up, down):  3.094E-03 3.150E-03
 
     Adding external electric field

     Computed dipole along edir(3) : 
        Dipole               -0.0014 Ry au,         -0.0037 Debye
        Dipole field         -0.0000 Ry au
 
        Potential amp.        0.0004 Ry
        Total length         45.0458 bohr
 
 
     Adding external electric field

     Computed dipole along edir(3) : 
        Dipole               -0.0014 Ry au,         -0.0037 Debye
        Dipole field         -0.0000 Ry au
 
        Potential amp.        0.0004 Ry
        Total length         45.0458 bohr
 
 
     Magnetic moment per site:
     atom:    1    charge:    6.0155    magn:    1.3403    constr:    0.0000
     atom:    2    charge:    6.0151    magn:    1.3410    constr:    0.0000
     atom:    3    charge:    6.0152    magn:    1.3409    constr:    0.0000
     atom:    4    charge:    1.4532    magn:    0.0115    constr:    0.0000
     atom:    5    charge:    5.9972    magn:    1.1130    constr:    0.0000
     atom:    6    charge:    5.9972    magn:    1.1129    constr:    0.0000
     atom:    7    charge:    5.9973    magn:    1.1129    constr:    0.0000
     atom:    8    charge:    1.4596    magn:    0.0213    constr:    0.0000
     atom:    9    charge:    6.0087    magn:    1.3395    constr:    0.0000
     atom:   10    charge:    6.0086    magn:    1.3394    constr:    0.0000
     atom:   11    charge:    6.0082    magn:    1.3400    constr:    0.0000
     atom:   12    charge:    1.4503    magn:    0.0114    constr:    0.0000

     total cpu time spent up to now is     1116.0 secs

     total energy              =   -2258.99290523 Ry
     Harris-Foulkes estimate   =   -2258.96759560 Ry
     estimated scf accuracy    <       0.04728200 Ry

     total magnetization       =    30.42 Bohr mag/cell
     absolute magnetization    =    30.84 Bohr mag/cell

     iteration # 12     ecut=    36.75 Ry     beta=0.10
     Davidson diagonalization with overlap
     ethr =  2.81E-05,  avg # of iterations =  2.4

     negative rho (up, down):  2.430E-03 2.587E-03
 
     Adding external electric field

     Computed dipole along edir(3) : 
        Dipole               -0.0011 Ry au,         -0.0027 Debye
        Dipole field         -0.0000 Ry au
 
        Potential amp.        0.0003 Ry
        Total length         45.0458 bohr
 
 
     Adding external electric field

     Computed dipole along edir(3) : 
        Dipole               -0.0011 Ry au,         -0.0027 Debye
        Dipole field         -0.0000 Ry au
 
        Potential amp.        0.0003 Ry
        Total length         45.0458 bohr
 
 
     Magnetic moment per site:
     atom:    1    charge:    6.0174    magn:    1.3860    constr:    0.0000
     atom:    2    charge:    6.0174    magn:    1.3864    constr:    0.0000
     atom:    3    charge:    6.0172    magn:    1.3866    constr:    0.0000
     atom:    4    charge:    1.4474    magn:    0.0344    constr:    0.0000
     atom:    5    charge:    5.9940    magn:    1.1678    constr:    0.0000
     atom:    6    charge:    5.9937    magn:    1.1678    constr:    0.0000
     atom:    7    charge:    5.9943    magn:    1.1673    constr:    0.0000
     atom:    8    charge:    1.4467    magn:    0.0435    constr:    0.0000
     atom:    9    charge:    6.0102    magn:    1.3853    constr:    0.0000
     atom:   10    charge:    6.0106    magn:    1.3851    constr:    0.0000
     atom:   11    charge:    6.0102    magn:    1.3854    constr:    0.0000
     atom:   12    charge:    1.4445    magn:    0.0343    constr:    0.0000

     total cpu time spent up to now is     1213.7 secs

     total energy              =   -2259.01492476 Ry
     Harris-Foulkes estimate   =   -2259.00655906 Ry
     estimated scf accuracy    <       0.02430975 Ry

     total magnetization       =    32.11 Bohr mag/cell
     absolute magnetization    =    32.68 Bohr mag/cell

     iteration # 13     ecut=    36.75 Ry     beta=0.10
     Davidson diagonalization with overlap
     ethr =  1.45E-05,  avg # of iterations =  2.8

     negative rho (up, down):  2.422E-03 2.670E-03
 
     Adding external electric field

     Computed dipole along edir(3) : 
        Dipole               -0.0009 Ry au,         -0.0023 Debye
        Dipole field         -0.0000 Ry au
 
        Potential amp.        0.0002 Ry
        Total length         45.0458 bohr
 
 
     Adding external electric field

     Computed dipole along edir(3) : 
        Dipole               -0.0009 Ry au,         -0.0023 Debye
        Dipole field         -0.0000 Ry au
 
        Potential amp.        0.0002 Ry
        Total length         45.0458 bohr
 
 
     Magnetic moment per site:
     atom:    1    charge:    6.0192    magn:    1.4239    constr:    0.0000
     atom:    2    charge:    6.0192    magn:    1.4242    constr:    0.0000
     atom:    3    charge:    6.0191    magn:    1.4244    constr:    0.0000
     atom:    4    charge:    1.4480    magn:    0.0320    constr:    0.0000
     atom:    5    charge:    5.9952    magn:    1.2015    constr:    0.0000
     atom:    6    charge:    5.9952    magn:    1.2015    constr:    0.0000
     atom:    7    charge:    5.9956    magn:    1.2010    constr:    0.0000
     atom:    8    charge:    1.4467    magn:    0.0415    constr:    0.0000
     atom:    9    charge:    6.0121    magn:    1.4231    constr:    0.0000
     atom:   10    charge:    6.0123    magn:    1.4230    constr:    0.0000
     atom:   11    charge:    6.0120    magn:    1.4231    constr:    0.0000
     atom:   12    charge:    1.4451    magn:    0.0320    constr:    0.0000

     total cpu time spent up to now is     1318.2 secs

     total energy              =   -2259.02198338 Ry
     Harris-Foulkes estimate   =   -2259.01758370 Ry
     estimated scf accuracy    <       0.01239029 Ry

     total magnetization       =    32.71 Bohr mag/cell
     absolute magnetization    =    33.27 Bohr mag/cell

     iteration # 14     ecut=    36.75 Ry     beta=0.10
     Davidson diagonalization with overlap
     ethr =  7.38E-06,  avg # of iterations =  1.9

     negative rho (up, down):  2.349E-03 2.686E-03
 
     Adding external electric field

     Computed dipole along edir(3) : 
        Dipole               -0.0002 Ry au,         -0.0006 Debye
        Dipole field         -0.0000 Ry au
 
        Potential amp.        0.0001 Ry
        Total length         45.0458 bohr
 
 
     Adding external electric field

     Computed dipole along edir(3) : 
        Dipole               -0.0002 Ry au,         -0.0006 Debye
        Dipole field         -0.0000 Ry au
 
        Potential amp.        0.0001 Ry
        Total length         45.0458 bohr
 
 
     Magnetic moment per site:
     atom:    1    charge:    6.0199    magn:    1.4561    constr:    0.0000
     atom:    2    charge:    6.0200    magn:    1.4563    constr:    0.0000
     atom:    3    charge:    6.0199    magn:    1.4565    constr:    0.0000
     atom:    4    charge:    1.4487    magn:    0.0303    constr:    0.0000
     atom:    5    charge:    5.9971    magn:    1.2376    constr:    0.0000
     atom:    6    charge:    5.9966    magn:    1.2377    constr:    0.0000
     atom:    7    charge:    5.9971    magn:    1.2372    constr:    0.0000
     atom:    8    charge:    1.4471    magn:    0.0400    constr:    0.0000
     atom:    9    charge:    6.0128    magn:    1.4551    constr:    0.0000
     atom:   10    charge:    6.0130    magn:    1.4551    constr:    0.0000
     atom:   11    charge:    6.0130    magn:    1.4551    constr:    0.0000
     atom:   12    charge:    1.4458    magn:    0.0303    constr:    0.0000

     total cpu time spent up to now is     1415.7 secs

     total energy              =   -2259.02564681 Ry
     Harris-Foulkes estimate   =   -2259.02286498 Ry
     estimated scf accuracy    <       0.00752183 Ry

     total magnetization       =    33.06 Bohr mag/cell
     absolute magnetization    =    33.65 Bohr mag/cell

     iteration # 15     ecut=    36.75 Ry     beta=0.10
     Davidson diagonalization with overlap
     ethr =  4.48E-06,  avg # of iterations =  2.5

     negative rho (up, down):  2.166E-03 2.384E-03
 
     Adding external electric field

     Computed dipole along edir(3) : 
        Dipole                0.0002 Ry au,          0.0005 Debye
        Dipole field          0.0000 Ry au
 
        Potential amp.       -0.0000 Ry
        Total length         45.0458 bohr
 
 
     Adding external electric field

     Computed dipole along edir(3) : 
        Dipole                0.0002 Ry au,          0.0005 Debye
        Dipole field          0.0000 Ry au
 
        Potential amp.       -0.0000 Ry
        Total length         45.0458 bohr
 
 
     Magnetic moment per site:
     atom:    1    charge:    6.0189    magn:    1.4537    constr:    0.0000
     atom:    2    charge:    6.0189    magn:    1.4539    constr:    0.0000
     atom:    3    charge:    6.0189    magn:    1.4541    constr:    0.0000
     atom:    4    charge:    1.4482    magn:    0.0349    constr:    0.0000
     atom:    5    charge:    5.9976    magn:    1.2539    constr:    0.0000
     atom:    6    charge:    5.9981    magn:    1.2539    constr:    0.0000
     atom:    7    charge:    5.9980    magn:    1.2536    constr:    0.0000
     atom:    8    charge:    1.4464    magn:    0.0444    constr:    0.0000
     atom:    9    charge:    6.0119    magn:    1.4526    constr:    0.0000
     atom:   10    charge:    6.0120    magn:    1.4525    constr:    0.0000
     atom:   11    charge:    6.0121    magn:    1.4525    constr:    0.0000
     atom:   12    charge:    1.4453    magn:    0.0348    constr:    0.0000

     total cpu time spent up to now is     1505.9 secs

     total energy              =   -2259.02741049 Ry
     Harris-Foulkes estimate   =   -2259.02634137 Ry
     estimated scf accuracy    <       0.00464024 Ry

     total magnetization       =    33.39 Bohr mag/cell
     absolute magnetization    =    34.01 Bohr mag/cell

     iteration # 16     ecut=    36.75 Ry     beta=0.10
     Davidson diagonalization with overlap
     ethr =  2.76E-06,  avg # of iterations =  2.7

     negative rho (up, down):  2.088E-03 2.233E-03
 
     Adding external electric field

     Computed dipole along edir(3) : 
        Dipole                0.0008 Ry au,          0.0021 Debye
        Dipole field          0.0000 Ry au
 
        Potential amp.       -0.0002 Ry
        Total length         45.0458 bohr
 
 
     Adding external electric field

     Computed dipole along edir(3) : 
        Dipole                0.0008 Ry au,          0.0021 Debye
        Dipole field          0.0000 Ry au
 
        Potential amp.       -0.0002 Ry
        Total length         45.0458 bohr
 
 
     Magnetic moment per site:
     atom:    1    charge:    6.0186    magn:    1.4700    constr:    0.0000
     atom:    2    charge:    6.0187    magn:    1.4701    constr:    0.0000
     atom:    3    charge:    6.0187    magn:    1.4702    constr:    0.0000
     atom:    4    charge:    1.4479    magn:    0.0392    constr:    0.0000
     atom:    5    charge:    6.0005    magn:    1.2979    constr:    0.0000
     atom:    6    charge:    6.0004    magn:    1.2980    constr:    0.0000
     atom:    7    charge:    6.0003    magn:    1.2977    constr:    0.0000
     atom:    8    charge:    1.4463    magn:    0.0487    constr:    0.0000
     atom:    9    charge:    6.0117    magn:    1.4686    constr:    0.0000
     atom:   10    charge:    6.0117    magn:    1.4685    constr:    0.0000
     atom:   11    charge:    6.0119    magn:    1.4685    constr:    0.0000
     atom:   12    charge:    1.4450    magn:    0.0391    constr:    0.0000

     total cpu time spent up to now is     1601.7 secs

     total energy              =   -2259.02960882 Ry
     Harris-Foulkes estimate   =   -2259.02760628 Ry
     estimated scf accuracy    <       0.00370533 Ry

     total magnetization       =    33.47 Bohr mag/cell
     absolute magnetization    =    34.10 Bohr mag/cell

     iteration # 17     ecut=    36.75 Ry     beta=0.10
     Davidson diagonalization with overlap
     ethr =  2.21E-06,  avg # of iterations =  2.6

     negative rho (up, down):  2.200E-03 2.327E-03
 
     Adding external electric field

     Computed dipole along edir(3) : 
        Dipole               -0.0014 Ry au,         -0.0035 Debye
        Dipole field         -0.0000 Ry au
 
        Potential amp.        0.0004 Ry
        Total length         45.0458 bohr
 
 
     Adding external electric field

     Computed dipole along edir(3) : 
        Dipole               -0.0014 Ry au,         -0.0035 Debye
        Dipole field         -0.0000 Ry au
 
        Potential amp.        0.0004 Ry
        Total length         45.0458 bohr
 
 
     Magnetic moment per site:
     atom:    1    charge:    6.0199    magn:    1.5024    constr:    0.0000
     atom:    2    charge:    6.0199    magn:    1.5025    constr:    0.0000
     atom:    3    charge:    6.0199    magn:    1.5026    constr:    0.0000
     atom:    4    charge:    1.4476    magn:    0.0406    constr:    0.0000
     atom:    5    charge:    6.0019    magn:    1.3492    constr:    0.0000
     atom:    6    charge:    6.0018    magn:    1.3493    constr:    0.0000
     atom:    7    charge:    6.0019    magn:    1.3490    constr:    0.0000
     atom:    8    charge:    1.4456    magn:    0.0505    constr:    0.0000
     atom:    9    charge:    6.0129    magn:    1.5009    constr:    0.0000
     atom:   10    charge:    6.0130    magn:    1.5008    constr:    0.0000
     atom:   11    charge:    6.0130    magn:    1.5009    constr:    0.0000
     atom:   12    charge:    1.4448    magn:    0.0405    constr:    0.0000

     total cpu time spent up to now is     1701.6 secs

     total energy              =   -2259.03075378 Ry
     Harris-Foulkes estimate   =   -2259.03033678 Ry
     estimated scf accuracy    <       0.00163860 Ry

     total magnetization       =    33.76 Bohr mag/cell
     absolute magnetization    =    34.41 Bohr mag/cell

     iteration # 18     ecut=    36.75 Ry     beta=0.10
     Davidson diagonalization with overlap
     ethr =  9.75E-07,  avg # of iterations =  3.0

     negative rho (up, down):  2.133E-03 2.175E-03
 
     Adding external electric field

     Computed dipole along edir(3) : 
        Dipole                0.0055 Ry au,          0.0141 Debye
        Dipole field          0.0000 Ry au
 
        Potential amp.       -0.0015 Ry
        Total length         45.0458 bohr
 
 
     Adding external electric field

     Computed dipole along edir(3) : 
        Dipole                0.0055 Ry au,          0.0141 Debye
        Dipole field          0.0000 Ry au
 
        Potential amp.       -0.0015 Ry
        Total length         45.0458 bohr
 
 
     Magnetic moment per site:
     atom:    1    charge:    6.0197    magn:    1.4931    constr:    0.0000
     atom:    2    charge:    6.0196    magn:    1.4932    constr:    0.0000
     atom:    3    charge:    6.0196    magn:    1.4933    constr:    0.0000
     atom:    4    charge:    1.4475    magn:    0.0416    constr:    0.0000
     atom:    5    charge:    6.0019    magn:    1.3492    constr:    0.0000
     atom:    6    charge:    6.0019    magn:    1.3492    constr:    0.0000
     atom:    7    charge:    6.0019    magn:    1.3489    constr:    0.0000
     atom:    8    charge:    1.4460    magn:    0.0516    constr:    0.0000
     atom:    9    charge:    6.0126    magn:    1.4916    constr:    0.0000
     atom:   10    charge:    6.0126    magn:    1.4915    constr:    0.0000
     atom:   11    charge:    6.0125    magn:    1.4916    constr:    0.0000
     atom:   12    charge:    1.4446    magn:    0.0415    constr:    0.0000

     total cpu time spent up to now is     1804.7 secs

     total energy              =   -2259.03189961 Ry
     Harris-Foulkes estimate   =   -2259.03172055 Ry
     estimated scf accuracy    <       0.00117377 Ry

     total magnetization       =    34.12 Bohr mag/cell
     absolute magnetization    =    34.80 Bohr mag/cell

     iteration # 19     ecut=    36.75 Ry     beta=0.10
     Davidson diagonalization with overlap
     ethr =  6.99E-07,  avg # of iterations =  1.2

     negative rho (up, down):  2.067E-03 2.040E-03
 
     Adding external electric field

     Computed dipole along edir(3) : 
        Dipole               -0.0014 Ry au,         -0.0035 Debye
        Dipole field         -0.0000 Ry au
 
        Potential amp.        0.0004 Ry
        Total length         45.0458 bohr
 
 
     Adding external electric field

     Computed dipole along edir(3) : 
        Dipole               -0.0014 Ry au,         -0.0035 Debye
        Dipole field         -0.0000 Ry au
 
        Potential amp.        0.0004 Ry
        Total length         45.0458 bohr
 
 
     Magnetic moment per site:
     atom:    1    charge:    6.0190    magn:    1.4830    constr:    0.0000
     atom:    2    charge:    6.0190    magn:    1.4830    constr:    0.0000
     atom:    3    charge:    6.0190    magn:    1.4831    constr:    0.0000
     atom:    4    charge:    1.4477    magn:    0.0419    constr:    0.0000
     atom:    5    charge:    6.0018    magn:    1.3454    constr:    0.0000
     atom:    6    charge:    6.0018    magn:    1.3454    constr:    0.0000
     atom:    7    charge:    6.0018    magn:    1.3452    constr:    0.0000
     atom:    8    charge:    1.4464    magn:    0.0519    constr:    0.0000
     atom:    9    charge:    6.0121    magn:    1.4814    constr:    0.0000
     atom:   10    charge:    6.0121    magn:    1.4813    constr:    0.0000
     atom:   11    charge:    6.0121    magn:    1.4814    constr:    0.0000
     atom:   12    charge:    1.4449    magn:    0.0419    constr:    0.0000

     total cpu time spent up to now is     1889.2 secs

     total energy              =   -2259.03195879 Ry
     Harris-Foulkes estimate   =   -2259.03199651 Ry
     estimated scf accuracy    <       0.00264384 Ry

     total magnetization       =    34.08 Bohr mag/cell
     absolute magnetization    =    34.76 Bohr mag/cell

     iteration # 20     ecut=    36.75 Ry     beta=0.10
     Davidson diagonalization with overlap
     ethr =  6.99E-07,  avg # of iterations =  1.5

     negative rho (up, down):  2.055E-03 2.004E-03
 
     Adding external electric field

     Computed dipole along edir(3) : 
        Dipole                0.0000 Ry au,          0.0001 Debye
        Dipole field          0.0000 Ry au
 
        Potential amp.       -0.0000 Ry
        Total length         45.0458 bohr
 
 
     Adding external electric field

     Computed dipole along edir(3) : 
        Dipole                0.0000 Ry au,          0.0001 Debye
        Dipole field          0.0000 Ry au
 
        Potential amp.       -0.0000 Ry
        Total length         45.0458 bohr
 
 
     Magnetic moment per site:
     atom:    1    charge:    6.0193    magn:    1.4835    constr:    0.0000
     atom:    2    charge:    6.0193    magn:    1.4836    constr:    0.0000
     atom:    3    charge:    6.0193    magn:    1.4837    constr:    0.0000
     atom:    4    charge:    1.4482    magn:    0.0416    constr:    0.0000
     atom:    5    charge:    6.0024    magn:    1.3595    constr:    0.0000
     atom:    6    charge:    6.0023    magn:    1.3596    constr:    0.0000
     atom:    7    charge:    6.0024    magn:    1.3594    constr:    0.0000
     atom:    8    charge:    1.4470    magn:    0.0518    constr:    0.0000
     atom:    9    charge:    6.0123    magn:    1.4819    constr:    0.0000
     atom:   10    charge:    6.0123    magn:    1.4818    constr:    0.0000
     atom:   11    charge:    6.0123    magn:    1.4820    constr:    0.0000
     atom:   12    charge:    1.4454    magn:    0.0415    constr:    0.0000

     total cpu time spent up to now is     1982.2 secs

     total energy              =   -2259.03226186 Ry
     Harris-Foulkes estimate   =   -2259.03204225 Ry
     estimated scf accuracy    <       0.00061192 Ry

     total magnetization       =    34.03 Bohr mag/cell
     absolute magnetization    =    34.70 Bohr mag/cell

     iteration # 21     ecut=    36.75 Ry     beta=0.10
     Davidson diagonalization with overlap
     ethr =  3.64E-07,  avg # of iterations =  1.2

     negative rho (up, down):  2.040E-03 1.999E-03
 
     Adding external electric field

     Computed dipole along edir(3) : 
        Dipole               -0.0005 Ry au,         -0.0012 Debye
        Dipole field         -0.0000 Ry au
 
        Potential amp.        0.0001 Ry
        Total length         45.0458 bohr
 
 
     Adding external electric field

     Computed dipole along edir(3) : 
        Dipole               -0.0005 Ry au,         -0.0012 Debye
        Dipole field         -0.0000 Ry au
 
        Potential amp.        0.0001 Ry
        Total length         45.0458 bohr
 
 
     Magnetic moment per site:
     atom:    1    charge:    6.0195    magn:    1.4841    constr:    0.0000
     atom:    2    charge:    6.0195    magn:    1.4842    constr:    0.0000
     atom:    3    charge:    6.0195    magn:    1.4842    constr:    0.0000
     atom:    4    charge:    1.4490    magn:    0.0399    constr:    0.0000
     atom:    5    charge:    6.0031    magn:    1.3759    constr:    0.0000
     atom:    6    charge:    6.0032    magn:    1.3760    constr:    0.0000
     atom:    7    charge:    6.0032    magn:    1.3758    constr:    0.0000
     atom:    8    charge:    1.4485    magn:    0.0505    constr:    0.0000
     atom:    9    charge:    6.0126    magn:    1.4824    constr:    0.0000
     atom:   10    charge:    6.0126    magn:    1.4824    constr:    0.0000
     atom:   11    charge:    6.0126    magn:    1.4825    constr:    0.0000
     atom:   12    charge:    1.4462    magn:    0.0398    constr:    0.0000

     total cpu time spent up to now is     2072.3 secs

     total energy              =   -2259.03249120 Ry
     Harris-Foulkes estimate   =   -2259.03233599 Ry
     estimated scf accuracy    <       0.00034077 Ry

     total magnetization       =    34.08 Bohr mag/cell
     absolute magnetization    =    34.76 Bohr mag/cell

     iteration # 22     ecut=    36.75 Ry     beta=0.10
     Davidson diagonalization with overlap
     ethr =  2.03E-07,  avg # of iterations =  2.1

     negative rho (up, down):  2.014E-03 1.960E-03
 
     Adding external electric field

     Computed dipole along edir(3) : 
        Dipole               -0.0001 Ry au,         -0.0003 Debye
        Dipole field         -0.0000 Ry au
 
        Potential amp.        0.0000 Ry
        Total length         45.0458 bohr
 
 
     Adding external electric field

     Computed dipole along edir(3) : 
        Dipole               -0.0001 Ry au,         -0.0003 Debye
        Dipole field         -0.0000 Ry au
 
        Potential amp.        0.0000 Ry
        Total length         45.0458 bohr
 
 
     Magnetic moment per site:
     atom:    1    charge:    6.0197    magn:    1.4817    constr:    0.0000
     atom:    2    charge:    6.0197    magn:    1.4817    constr:    0.0000
     atom:    3    charge:    6.0197    magn:    1.4818    constr:    0.0000
     atom:    4    charge:    1.4491    magn:    0.0397    constr:    0.0000
     atom:    5    charge:    6.0032    magn:    1.3804    constr:    0.0000
     atom:    6    charge:    6.0032    magn:    1.3804    constr:    0.0000
     atom:    7    charge:    6.0032    magn:    1.3803    constr:    0.0000
     atom:    8    charge:    1.4487    magn:    0.0504    constr:    0.0000
     atom:    9    charge:    6.0128    magn:    1.4799    constr:    0.0000
     atom:   10    charge:    6.0128    magn:    1.4799    constr:    0.0000
     atom:   11    charge:    6.0127    magn:    1.4801    constr:    0.0000
     atom:   12    charge:    1.4463    magn:    0.0397    constr:    0.0000

     total cpu time spent up to now is     2170.9 secs

     total energy              =   -2259.03260723 Ry
     Harris-Foulkes estimate   =   -2259.03257442 Ry
     estimated scf accuracy    <       0.00014714 Ry

     total magnetization       =    34.14 Bohr mag/cell
     absolute magnetization    =    34.84 Bohr mag/cell

     iteration # 23     ecut=    36.75 Ry     beta=0.10
     Davidson diagonalization with overlap
     ethr =  8.76E-08,  avg # of iterations =  1.2

     negative rho (up, down):  1.990E-03 1.932E-03
 
     Adding external electric field

     Computed dipole along edir(3) : 
        Dipole                0.0002 Ry au,          0.0004 Debye
        Dipole field          0.0000 Ry au
 
        Potential amp.       -0.0000 Ry
        Total length         45.0458 bohr
 
 
     Adding external electric field

     Computed dipole along edir(3) : 
        Dipole                0.0002 Ry au,          0.0004 Debye
        Dipole field          0.0000 Ry au
 
        Potential amp.       -0.0000 Ry
        Total length         45.0458 bohr
 
 
     Magnetic moment per site:
     atom:    1    charge:    6.0198    magn:    1.4794    constr:    0.0000
     atom:    2    charge:    6.0198    magn:    1.4794    constr:    0.0000
     atom:    3    charge:    6.0198    magn:    1.4795    constr:    0.0000
     atom:    4    charge:    1.4492    magn:    0.0394    constr:    0.0000
     atom:    5    charge:    6.0032    magn:    1.3850    constr:    0.0000
     atom:    6    charge:    6.0032    magn:    1.3850    constr:    0.0000
     atom:    7    charge:    6.0032    magn:    1.3850    constr:    0.0000
     atom:    8    charge:    1.4487    magn:    0.0501    constr:    0.0000
     atom:    9    charge:    6.0128    magn:    1.4776    constr:    0.0000
     atom:   10    charge:    6.0128    magn:    1.4776    constr:    0.0000
     atom:   11    charge:    6.0128    magn:    1.4778    constr:    0.0000
     atom:   12    charge:    1.4463    magn:    0.0393    constr:    0.0000

     total cpu time spent up to now is     2264.9 secs

     total energy              =   -2259.03264634 Ry
     Harris-Foulkes estimate   =   -2259.03262095 Ry
     estimated scf accuracy    <       0.00006444 Ry

     total magnetization       =    34.14 Bohr mag/cell
     absolute magnetization    =    34.84 Bohr mag/cell

     iteration # 24     ecut=    36.75 Ry     beta=0.10
     Davidson diagonalization with overlap
     ethr =  3.84E-08,  avg # of iterations =  2.0

     negative rho (up, down):  1.974E-03 1.912E-03
 
     Adding external electric field

     Computed dipole along edir(3) : 
        Dipole                0.0000 Ry au,          0.0001 Debye
        Dipole field          0.0000 Ry au
 
        Potential amp.       -0.0000 Ry
        Total length         45.0458 bohr
 
 
     Adding external electric field

     Computed dipole along edir(3) : 
        Dipole                0.0000 Ry au,          0.0001 Debye
        Dipole field          0.0000 Ry au
 
        Potential amp.       -0.0000 Ry
        Total length         45.0458 bohr
 
 
     Magnetic moment per site:
     atom:    1    charge:    6.0198    magn:    1.4799    constr:    0.0000
     atom:    2    charge:    6.0198    magn:    1.4799    constr:    0.0000
     atom:    3    charge:    6.0198    magn:    1.4799    constr:    0.0000
     atom:    4    charge:    1.4492    magn:    0.0390    constr:    0.0000
     atom:    5    charge:    6.0033    magn:    1.3885    constr:    0.0000
     atom:    6    charge:    6.0033    magn:    1.3885    constr:    0.0000
     atom:    7    charge:    6.0033    magn:    1.3885    constr:    0.0000
     atom:    8    charge:    1.4486    magn:    0.0498    constr:    0.0000
     atom:    9    charge:    6.0128    magn:    1.4781    constr:    0.0000
     atom:   10    charge:    6.0128    magn:    1.4781    constr:    0.0000
     atom:   11    charge:    6.0128    magn:    1.4782    constr:    0.0000
     atom:   12    charge:    1.4463    magn:    0.0390    constr:    0.0000

     total cpu time spent up to now is     2363.4 secs

     total energy              =   -2259.03267354 Ry
     Harris-Foulkes estimate   =   -2259.03265934 Ry
     estimated scf accuracy    <       0.00003255 Ry

     total magnetization       =    34.15 Bohr mag/cell
     absolute magnetization    =    34.85 Bohr mag/cell

     iteration # 25     ecut=    36.75 Ry     beta=0.10
     Davidson diagonalization with overlap
     ethr =  1.94E-08,  avg # of iterations =  1.5

     negative rho (up, down):  1.951E-03 1.888E-03
 
     Adding external electric field

     Computed dipole along edir(3) : 
        Dipole               -0.0001 Ry au,         -0.0002 Debye
        Dipole field         -0.0000 Ry au
 
        Potential amp.        0.0000 Ry
        Total length         45.0458 bohr
 
 
     Adding external electric field

     Computed dipole along edir(3) : 
        Dipole               -0.0001 Ry au,         -0.0002 Debye
        Dipole field         -0.0000 Ry au
 
        Potential amp.        0.0000 Ry
        Total length         45.0458 bohr
 
 
     Magnetic moment per site:
     atom:    1    charge:    6.0197    magn:    1.4792    constr:    0.0000
     atom:    2    charge:    6.0197    magn:    1.4792    constr:    0.0000
     atom:    3    charge:    6.0197    magn:    1.4792    constr:    0.0000
     atom:    4    charge:    1.4492    magn:    0.0384    constr:    0.0000
     atom:    5    charge:    6.0034    magn:    1.3900    constr:    0.0000
     atom:    6    charge:    6.0034    magn:    1.3900    constr:    0.0000
     atom:    7    charge:    6.0034    magn:    1.3900    constr:    0.0000
     atom:    8    charge:    1.4485    magn:    0.0492    constr:    0.0000
     atom:    9    charge:    6.0127    magn:    1.4774    constr:    0.0000
     atom:   10    charge:    6.0127    magn:    1.4774    constr:    0.0000
     atom:   11    charge:    6.0127    magn:    1.4775    constr:    0.0000
     atom:   12    charge:    1.4463    magn:    0.0383    constr:    0.0000

     total cpu time spent up to now is     2456.5 secs

     total energy              =   -2259.03269128 Ry
     Harris-Foulkes estimate   =   -2259.03267742 Ry
     estimated scf accuracy    <       0.00001869 Ry

     total magnetization       =    34.16 Bohr mag/cell
     absolute magnetization    =    34.87 Bohr mag/cell

     iteration # 26     ecut=    36.75 Ry     beta=0.10
     Davidson diagonalization with overlap
     ethr =  1.11E-08,  avg # of iterations =  1.8

     negative rho (up, down):  1.935E-03 1.867E-03
 
     Adding external electric field

     Computed dipole along edir(3) : 
        Dipole               -0.0001 Ry au,         -0.0002 Debye
        Dipole field         -0.0000 Ry au
 
        Potential amp.        0.0000 Ry
        Total length         45.0458 bohr
 
 
     Adding external electric field

     Computed dipole along edir(3) : 
        Dipole               -0.0001 Ry au,         -0.0002 Debye
        Dipole field         -0.0000 Ry au
 
        Potential amp.        0.0000 Ry
        Total length         45.0458 bohr
 
 
     Magnetic moment per site:
     atom:    1    charge:    6.0196    magn:    1.4788    constr:    0.0000
     atom:    2    charge:    6.0196    magn:    1.4788    constr:    0.0000
     atom:    3    charge:    6.0196    magn:    1.4788    constr:    0.0000
     atom:    4    charge:    1.4492    magn:    0.0380    constr:    0.0000
     atom:    5    charge:    6.0034    magn:    1.3908    constr:    0.0000
     atom:    6    charge:    6.0034    magn:    1.3909    constr:    0.0000
     atom:    7    charge:    6.0034    magn:    1.3909    constr:    0.0000
     atom:    8    charge:    1.4485    magn:    0.0488    constr:    0.0000
     atom:    9    charge:    6.0127    magn:    1.4770    constr:    0.0000
     atom:   10    charge:    6.0127    magn:    1.4770    constr:    0.0000
     atom:   11    charge:    6.0127    magn:    1.4771    constr:    0.0000
     atom:   12    charge:    1.4464    magn:    0.0379    constr:    0.0000

     total cpu time spent up to now is     2550.5 secs

     total energy              =   -2259.03270061 Ry
     Harris-Foulkes estimate   =   -2259.03269330 Ry
     estimated scf accuracy    <       0.00000857 Ry

     total magnetization       =    34.16 Bohr mag/cell
     absolute magnetization    =    34.87 Bohr mag/cell

     iteration # 27     ecut=    36.75 Ry     beta=0.10
     Davidson diagonalization with overlap
     ethr =  5.10E-09,  avg # of iterations =  1.6

     negative rho (up, down):  1.927E-03 1.851E-03
 
     Adding external electric field

     Computed dipole along edir(3) : 
        Dipole               -0.0000 Ry au,         -0.0000 Debye
        Dipole field         -0.0000 Ry au
 
        Potential amp.        0.0000 Ry
        Total length         45.0458 bohr
 
 
     Adding external electric field

     Computed dipole along edir(3) : 
        Dipole               -0.0000 Ry au,         -0.0000 Debye
        Dipole field         -0.0000 Ry au
 
        Potential amp.        0.0000 Ry
        Total length         45.0458 bohr
 
 
     Magnetic moment per site:
     atom:    1    charge:    6.0196    magn:    1.4785    constr:    0.0000
     atom:    2    charge:    6.0196    magn:    1.4785    constr:    0.0000
     atom:    3    charge:    6.0196    magn:    1.4785    constr:    0.0000
     atom:    4    charge:    1.4492    magn:    0.0380    constr:    0.0000
     atom:    5    charge:    6.0035    magn:    1.3925    constr:    0.0000
     atom:    6    charge:    6.0035    magn:    1.3925    constr:    0.0000
     atom:    7    charge:    6.0035    magn:    1.3925    constr:    0.0000
     atom:    8    charge:    1.4483    magn:    0.0489    constr:    0.0000
     atom:    9    charge:    6.0126    magn:    1.4767    constr:    0.0000
     atom:   10    charge:    6.0126    magn:    1.4767    constr:    0.0000
     atom:   11    charge:    6.0126    magn:    1.4768    constr:    0.0000
     atom:   12    charge:    1.4463    magn:    0.0380    constr:    0.0000

     total cpu time spent up to now is     2644.6 secs

     total energy              =   -2259.03270545 Ry
     Harris-Foulkes estimate   =   -2259.03270135 Ry
     estimated scf accuracy    <       0.00000462 Ry

     total magnetization       =    34.16 Bohr mag/cell
     absolute magnetization    =    34.87 Bohr mag/cell

     iteration # 28     ecut=    36.75 Ry     beta=0.10
     Davidson diagonalization with overlap
     ethr =  2.75E-09,  avg # of iterations =  2.0

     negative rho (up, down):  1.922E-03 1.833E-03
 
     Adding external electric field

     Computed dipole along edir(3) : 
        Dipole               -0.0000 Ry au,         -0.0001 Debye
        Dipole field         -0.0000 Ry au
 
        Potential amp.        0.0000 Ry
        Total length         45.0458 bohr
 
 
     Adding external electric field

     Computed dipole along edir(3) : 
        Dipole               -0.0000 Ry au,         -0.0001 Debye
        Dipole field         -0.0000 Ry au
 
        Potential amp.        0.0000 Ry
        Total length         45.0458 bohr
 
 
     Magnetic moment per site:
     atom:    1    charge:    6.0196    magn:    1.4783    constr:    0.0000
     atom:    2    charge:    6.0196    magn:    1.4784    constr:    0.0000
     atom:    3    charge:    6.0196    magn:    1.4784    constr:    0.0000
     atom:    4    charge:    1.4491    magn:    0.0382    constr:    0.0000
     atom:    5    charge:    6.0035    magn:    1.3926    constr:    0.0000
     atom:    6    charge:    6.0035    magn:    1.3926    constr:    0.0000
     atom:    7    charge:    6.0035    magn:    1.3926    constr:    0.0000
     atom:    8    charge:    1.4482    magn:    0.0490    constr:    0.0000
     atom:    9    charge:    6.0126    magn:    1.4766    constr:    0.0000
     atom:   10    charge:    6.0126    magn:    1.4766    constr:    0.0000
     atom:   11    charge:    6.0126    magn:    1.4766    constr:    0.0000
     atom:   12    charge:    1.4462    magn:    0.0381    constr:    0.0000

     total cpu time spent up to now is     2750.0 secs

     total energy              =   -2259.03270928 Ry
     Harris-Foulkes estimate   =   -2259.03270676 Ry
     estimated scf accuracy    <       0.00000222 Ry

     total magnetization       =    34.16 Bohr mag/cell
     absolute magnetization    =    34.87 Bohr mag/cell

     iteration # 29     ecut=    36.75 Ry     beta=0.10
     Davidson diagonalization with overlap
     ethr =  1.32E-09,  avg # of iterations =  1.0

     negative rho (up, down):  1.913E-03 1.767E-03

     negative rho (up, down):  1.913E-03 1.767E-03

     negative rho (up, down):  1.913E-03 1.767E-03

     negative rho (up, down):  1.913E-03 1.767E-03

     negative rho (up, down):  1.913E-03 1.767E-03

     negative rho (up, down):  1.913E-03 1.767E-03

     negative rho (up, down):  1.913E-03 1.767E-03

     negative rho (up, down):  1.913E-03 1.767E-03

     negative rho (up, down):  1.913E-03 1.767E-03

     negative rho (up, down):  1.913E-03 1.767E-03

     negative rho (up, down):  1.913E-03 1.767E-03

     negative rho (up, down):  1.913E-03 1.767E-03

     negative rho (up, down):  1.913E-03 1.767E-03

     negative rho (up, down):  1.913E-03 1.767E-03

     negative rho (up, down):  1.913E-03 1.767E-03

     negative rho (up, down):  1.913E-03 1.767E-03

     negative rho (up, down):  1.913E-03 1.767E-03

     negative rho (up, down):  1.913E-03 1.767E-03

     negative rho (up, down):  1.913E-03 1.767E-03

     negative rho (up, down):  1.913E-03 1.767E-03

     negative rho (up, down):  1.913E-03 1.767E-03

     negative rho (up, down):  1.913E-03 1.767E-03

     negative rho (up, down):  1.913E-03 1.767E-03

     negative rho (up, down):  1.913E-03 1.767E-03

     negative rho (up, down):  1.913E-03 1.767E-03

     negative rho (up, down):  1.913E-03 1.767E-03

     negative rho (up, down):  1.913E-03 1.767E-03

     negative rho (up, down):  1.913E-03 1.767E-03

     negative rho (up, down):  1.913E-03 1.767E-03

     negative rho (up, down):  1.913E-03 1.767E-03

     negative rho (up, down):  1.913E-03 1.767E-03

     negative rho (up, down):  1.913E-03 1.767E-03

     negative rho (up, down):  1.913E-03 1.767E-03

     negative rho (up, down):  1.913E-03 1.767E-03

     negative rho (up, down):  1.913E-03 1.767E-03
 
     Adding external electric field

     Computed dipole along edir(3) : 
        Dipole                0.0004 Ry au,          0.0011 Debye
        Dipole field          0.0000 Ry au
 
        Potential amp.       -0.0001 Ry
        Total length         45.0458 bohr
 
 
     Adding external electric field

     Computed dipole along edir(3) : 
        Dipole                0.0004 Ry au,          0.0011 Debye
        Dipole field          0.0000 Ry au
 
        Potential amp.       -0.0001 Ry
        Total length         45.0458 bohr
 
 
     Magnetic moment per site:
     atom:    1    charge:    6.0196    magn:    1.4781    constr:    0.0000
     atom:    2    charge:    6.0196    magn:    1.4781    constr:    0.0000
     atom:    3    charge:    6.0196    magn:    1.4781    constr:    0.0000
     atom:    4    charge:    1.4490    magn:    0.0383    constr:    0.0000
     atom:    5    charge:    6.0034    magn:    1.3928    constr:    0.0000
     atom:    6    charge:    6.0034    magn:    1.3928    constr:    0.0000
     atom:    7    charge:    6.0034    magn:    1.3928    constr:    0.0000
     atom:    8    charge:    1.4483    magn:    0.0492    constr:    0.0000
     atom:    9    charge:    6.0126    magn:    1.4764    constr:    0.0000
     atom:   10    charge:    6.0126    magn:    1.4764    constr:    0.0000
     atom:   11    charge:    6.0126    magn:    1.4764    constr:    0.0000
     atom:   12    charge:    1.4462    magn:    0.0382    constr:    0.0000

     total cpu time spent up to now is     2889.5 secs

     End of self-consistent calculation

 ------ SPIN UP ------------


          k = 0.0000 0.0000 0.0000 ( 15869 PWs)   bands (ev):

   -79.9451 -79.9447 -79.9223 -79.9223 -79.9222 -79.9221 -79.6434 -79.6210
   -79.6209 -48.7588 -48.7529 -48.7293 -48.7292 -48.7232 -48.7231 -48.6886
   -48.6885 -48.6822 -48.6821 -48.6778 -48.6701 -48.6005 -48.5986 -48.5123
   -48.4985 -48.4985 -48.4956 -48.4956 -48.4358 -48.4358 -48.3743 -48.3743
   -48.3269 -48.2723 -48.1801 -48.1801  -7.1702  -5.6952  -5.1357  -5.1264
    -5.1264  -4.9845  -4.9845  -4.5680  -4.5680  -4.4702  -4.4702  -4.4362
    -4.0590  -3.8553  -3.8553  -3.5714  -3.5714  -3.5002  -3.2735  -2.9978
    -2.2026  -2.1825  -1.8333  -1.6555  -1.6554  -1.5657  -1.5657  -1.5601
    -1.5601  -1.4667  -1.4191  -1.4191  -1.2124  -1.2123  -1.1505  -1.0185
    -1.0185  -0.9252  -0.8697  -0.8697  -0.6146  -0.4369  -0.4319  -0.4319
    -0.3344  -0.3344  -0.2243  -0.0788  -0.0788   0.1131   0.1131   0.1707
     0.2222   0.2223   0.3366   0.3367   0.3585   0.3585   0.4976   0.5019
     0.5312   0.5312   0.7081   0.7933   1.3027   1.3251   1.3251   2.5839
     2.8271   2.8284   2.8284   2.9872   2.9873   4.5050   4.9088   5.1029
     5.4969   5.7542

          k = 0.0000 0.0353 0.0000 ( 15907 PWs)   bands (ev):

   -79.9437 -79.9433 -79.9236 -79.9235 -79.9223 -79.9222 -79.6420 -79.6223
   -79.6209 -48.7563 -48.7506 -48.7304 -48.7286 -48.7247 -48.7232 -48.6879
   -48.6823 -48.6818 -48.6765 -48.6676 -48.6610 -48.6048 -48.6034 -48.5096
   -48.5086 -48.5040 -48.5000 -48.4977 -48.4365 -48.4315 -48.3776 -48.3740
   -48.3310 -48.2684 -48.1879 -48.1810  -6.9629  -5.5247  -5.0482  -5.0387
    -5.0133  -4.9225  -4.8874  -4.5758  -4.4504  -4.4156  -4.4071  -4.3529
    -4.0329  -3.8794  -3.8102  -3.5856  -3.5224  -3.4710  -3.1956  -2.9425
    -2.1764  -2.1492  -1.8239  -1.7736  -1.7474  -1.6492  -1.6371  -1.5366
    -1.5071  -1.4904  -1.4392  -1.3833  -1.3292  -1.2468  -1.2069  -1.1859
    -1.0195  -0.9675  -0.9451  -0.8660  -0.7291  -0.6876  -0.6375  -0.5697
    -0.4002  -0.3621  -0.3517  -0.2477  -0.1580  -0.0750  -0.0726   0.0424
     0.0770   0.1147   0.1490   0.1993   0.2231   0.2576   0.2804   0.2947
     0.3592   0.4935   0.5226   0.6106   1.3011   1.4573   1.6252   1.7140
     2.3908   2.5658   3.4888   3.7788   3.8188   4.7424   5.1097   5.4934
     5.7554   5.9925

          k = 0.0000 0.0706 0.0000 ( 15959 PWs)   bands (ev):

   -79.9402 -79.9399 -79.9270 -79.9269 -79.9223 -79.9222 -79.6386 -79.6257
   -79.6209 -48.7502 -48.7462 -48.7340 -48.7281 -48.7270 -48.7238 -48.6877
   -48.6820 -48.6658 -48.6613 -48.6384 -48.6341 -48.6173 -48.6172 -48.5401
   -48.5386 -48.5029 -48.5017 -48.4882 -48.4378 -48.4213 -48.3858 -48.3730
   -48.3411 -48.2575 -48.2069 -48.1829  -6.3947  -5.2069  -4.9690  -4.8609
    -4.8244  -4.7146  -4.6405  -4.4189  -4.3045  -4.2631  -4.1673  -4.1536
    -3.9462  -3.9205  -3.7073  -3.6187  -3.4269  -3.4217  -3.0143  -2.9080
    -2.4281  -2.1430  -2.0166  -1.9820  -1.9120  -1.8216  -1.7970  -1.6240
    -1.5266  -1.5177  -1.4782  -1.4489  -1.4035  -1.3165  -1.3134  -1.2722
    -1.1660  -1.1197  -1.0982  -1.0643  -1.0033  -0.9428  -0.9130  -0.8762
    -0.8245  -0.7304  -0.6876  -0.6427  -0.4365  -0.3543  -0.1982  -0.1649
    -0.1591  -0.0940  -0.0859  -0.0774  -0.0439  -0.0354   0.1674   0.2209
     0.2446   0.2645   0.3195   0.5867   0.8104   1.7977   1.9959   2.4534
     2.6150   2.6614   2.6934   4.5399   4.5868   5.2793   5.3521   5.7162
     6.1103   6.3791

          k = 0.0000-0.1060 0.0000 ( 15984 PWs)   bands (ev):

   -79.9374 -79.9373 -79.9298 -79.9296 -79.9223 -79.9222 -79.6358 -79.6285
   -79.6209 -48.7451 -48.7440 -48.7378 -48.7301 -48.7256 -48.7249 -48.6877
   -48.6822 -48.6507 -48.6460 -48.6323 -48.6300 -48.6112 -48.6080 -48.5690
   -48.5650 -48.5042 -48.5038 -48.4783 -48.4387 -48.4152 -48.3911 -48.3719
   -48.3478 -48.2469 -48.2217 -48.1838  -5.8313  -5.3662  -4.9252  -4.8135
    -4.7741  -4.4458  -4.4441  -4.3402  -4.2333  -4.2134  -4.0024  -3.8931
    -3.8720  -3.7850  -3.7192  -3.5597  -3.3903  -3.3757  -3.2647  -2.8066
    -2.7396  -2.3106  -2.1690  -2.0527  -2.0431  -1.9043  -1.7577  -1.6848
    -1.6499  -1.6252  -1.5186  -1.4932  -1.4796  -1.4336  -1.4245  -1.4218
    -1.4067  -1.2934  -1.2548  -1.1640  -1.0237  -1.0200  -0.8805  -0.8780
    -0.7846  -0.7495  -0.6909  -0.5795  -0.5471  -0.5348  -0.5340  -0.4035
    -0.3636  -0.3039  -0.1510  -0.1081  -0.0863  -0.0801  -0.0251   0.0328
     0.2362   0.2483   0.2863   0.6043   1.4354   1.6604   1.9533   2.0709
     2.6369   2.7740   3.8799   3.9605   4.6796   4.8054   6.1242   6.1494
     6.6962   6.7250

          k = 0.0306 0.0177 0.0000 ( 15907 PWs)   bands (ev):

   -79.9437 -79.9433 -79.9236 -79.9235 -79.9223 -79.9221 -79.6420 -79.6222
   -79.6210 -48.7563 -48.7506 -48.7304 -48.7286 -48.7248 -48.7232 -48.6878
   -48.6824 -48.6818 -48.6766 -48.6676 -48.6610 -48.6048 -48.6034 -48.5097
   -48.5086 -48.5040 -48.4999 -48.4976 -48.4364 -48.4315 -48.3776 -48.3740
   -48.3310 -48.2684 -48.1878 -48.1811  -6.9629  -5.5247  -5.0482  -5.0387
    -5.0133  -4.9226  -4.8874  -4.5758  -4.4504  -4.4156  -4.4071  -4.3529
    -4.0329  -3.8794  -3.8102  -3.5856  -3.5224  -3.4710  -3.1956  -2.9425
    -2.1764  -2.1492  -1.8238  -1.7736  -1.7474  -1.6492  -1.6371  -1.5366
    -1.5071  -1.4904  -1.4392  -1.3833  -1.3293  -1.2468  -1.2069  -1.1859
    -1.0195  -0.9675  -0.9451  -0.8659  -0.7291  -0.6876  -0.6374  -0.5697
    -0.4002  -0.3621  -0.3517  -0.2477  -0.1580  -0.0751  -0.0726   0.0424
     0.0770   0.1147   0.1490   0.1993   0.2231   0.2576   0.2804   0.2947
     0.3592   0.4935   0.5226   0.6107   1.3011   1.4573   1.6252   1.7140
     2.3908   2.5658   3.4888   3.7788   3.8188   4.7424   5.1097   5.4934
     5.7554   5.9926

          k = 0.0306 0.0530 0.0000 ( 15950 PWs)   bands (ev):

   -79.9412 -79.9409 -79.9260 -79.9260 -79.9223 -79.9222 -79.6396 -79.6247
   -79.6209 -48.7519 -48.7472 -48.7324 -48.7288 -48.7265 -48.7235 -48.6839
   -48.6795 -48.6752 -48.6700 -48.6463 -48.6417 -48.6135 -48.6130 -48.5291
   -48.5283 -48.5032 -48.5019 -48.4923 -48.4384 -48.4236 -48.3839 -48.3727
[...]
    -4.3146  -4.1804  -3.9468  -3.8676  -3.8583  -3.8182  -3.7543  -3.7537
    -3.6701  -3.5546  -3.4904  -3.1242  -3.0710  -3.0610  -1.9409  -1.8949
    -1.7154  -0.4330  -0.1277  -0.0861   0.1664   0.2714   0.6936   0.8391
     0.8637   0.9058   1.0959   1.1214   1.1479   1.1961   1.2446   1.2753
     1.6816   1.7053   1.7691   1.9425   1.9958   2.0788   2.2447   2.2735
     2.3186   2.6094   2.6466   2.6747   2.8392   3.0518   3.0583   3.0610
     3.1049   3.1117   3.1310   3.2018   3.2293   3.2691   3.3194   3.3737
     3.4713   3.5467   3.5751   3.6509   3.6641   3.8430   4.1248   4.3960
     4.4377   5.7563   5.7771   5.9135   6.8745   6.8779   6.8781   7.1292
     7.1295   7.2967

          k = 0.0612-0.0706 0.0000 ( 15985 PWs)   bands (ev):

   -75.8017 -75.7931 -75.7876 -75.7845 -75.7788 -75.7699 -75.7211 -75.7129
   -75.7047 -44.6931 -44.6830 -44.6534 -44.6435 -44.6261 -44.6214 -44.6144
   -44.6108 -44.6050 -44.6012 -44.5981 -44.5902 -44.5825 -44.5764 -44.5739
   -44.5685 -44.5638 -44.5453 -44.5370 -44.5288 -44.5188 -44.5117 -44.4960
   -44.4820 -44.4691 -44.4579 -44.4273  -5.4507  -4.6621  -4.4811  -4.4213
    -4.3166  -4.1719  -4.0879  -3.9519  -3.8454  -3.7959  -3.7234  -3.6832
    -3.6522  -3.5674  -3.4503  -3.1823  -3.1007  -2.9375  -2.2607  -1.6699
    -1.1311  -0.7627  -0.0943   0.1613   0.2991   0.5270   0.6973   0.7265
     0.8236   0.9534   1.0239   1.0843   1.1876   1.2765   1.3740   1.4351
     1.5933   1.7969   1.8291   1.8905   2.0432   2.1085   2.1727   2.2907
     2.3512   2.4889   2.5155   2.5834   2.7058   2.9150   2.9517   3.0444
     3.1244   3.1463   3.2063   3.2389   3.2526   3.3358   3.3803   3.4522
     3.5804   3.6434   3.7351   3.8420   3.8982   3.9374   4.0188   4.3388
     4.9172   5.0530   5.7053   5.9491   6.0987   6.2404   6.5749   6.7878
     6.9696   7.0829

          k = 0.0612-0.0353 0.0000 ( 15959 PWs)   bands (ev):

   -75.8049 -75.7908 -75.7900 -75.7844 -75.7756 -75.7698 -75.7241 -75.7099
   -75.7047 -44.7116 -44.7015 -44.6583 -44.6480 -44.6425 -44.6328 -44.6299
   -44.6151 -44.6021 -44.6009 -44.5879 -44.5808 -44.5727 -44.5726 -44.5666
   -44.5662 -44.5615 -44.5398 -44.5377 -44.5233 -44.5111 -44.4959 -44.4949
   -44.4787 -44.4707 -44.4513 -44.4220  -5.9119  -4.7418  -4.5466  -4.3795
    -4.3639  -4.2475  -4.2363  -3.9757  -3.8685  -3.8601  -3.7934  -3.7330
    -3.6250  -3.5901  -3.4007  -3.2047  -3.0727  -3.0241  -1.9664  -1.2965
    -0.9538  -0.6427  -0.0635   0.2027   0.5375   0.6583   0.7268   0.8694
     0.9472   0.9479   1.0300   1.1717   1.2270   1.4954   1.5063   1.5367
     1.6523   1.7884   1.7980   1.8802   1.9477   2.1253   2.1667   2.2195
     2.2758   2.3887   2.5471   2.5978   2.7683   2.9184   2.9531   3.0946
     3.2210   3.2394   3.2771   3.2897   3.3685   3.3778   3.4278   3.5394
     3.6129   3.6333   3.8062   3.8826   4.1280   4.1570   4.2456   4.5331
     4.6154   4.9114   5.1201   5.5930   5.8664   5.9774   6.0474   6.2617
     6.3977   7.2560

          k = 0.0612 0.0000 0.0000 ( 15950 PWs)   bands (ev):

   -75.8061 -75.7920 -75.7888 -75.7845 -75.7743 -75.7699 -75.7252 -75.7088
   -75.7047 -44.7164 -44.7066 -44.6667 -44.6556 -44.6470 -44.6348 -44.6316
   -44.6185 -44.6140 -44.6016 -44.5863 -44.5786 -44.5695 -44.5686 -44.5656
   -44.5542 -44.5476 -44.5428 -44.5333 -44.5254 -44.5112 -44.4959 -44.4841
   -44.4813 -44.4711 -44.4439 -44.4229  -6.0837  -4.7832  -4.4957  -4.4199
    -4.4090  -4.2929  -4.2555  -4.1182  -3.9000  -3.8747  -3.8151  -3.7641
    -3.6032  -3.5771  -3.3867  -3.2151  -3.1002  -2.9958  -1.6796  -1.4293
    -0.8594  -0.4591   0.0469   0.1593   0.6630   0.7554   0.7790   0.8087
     0.9156   0.9298   1.1060   1.2034   1.3304   1.3990   1.5978   1.6579
     1.7043   1.7307   1.8600   1.9381   2.0423   2.0596   2.1066   2.2271
     2.2876   2.3303   2.5008   2.7291   2.8222   2.9423   2.9842   3.1402
     3.2451   3.2623   3.3082   3.3470   3.4144   3.5200   3.5896   3.6641
     3.7152   3.7601   3.8170   3.8297   3.9007   3.9314   4.0453   4.2670
     4.8896   4.9670   5.1690   5.4187   5.7041   5.7393   5.9369   6.0869
     7.0614   7.1452

          k =-0.0918-0.0530 0.0000 ( 15984 PWs)   bands (ev):

   -75.8017 -75.7932 -75.7876 -75.7844 -75.7788 -75.7699 -75.7210 -75.7130
   -75.7047 -44.7008 -44.6905 -44.6336 -44.6299 -44.6208 -44.6200 -44.6131
   -44.6076 -44.6062 -44.6034 -44.5997 -44.5975 -44.5899 -44.5841 -44.5814
   -44.5728 -44.5672 -44.5321 -44.5316 -44.5219 -44.5207 -44.5205 -44.5020
   -44.4784 -44.4695 -44.4608 -44.4234  -5.3877  -4.8192  -4.5491  -4.4148
    -4.3274  -4.1069  -4.0624  -3.9349  -3.8267  -3.8196  -3.6742  -3.6404
    -3.6395  -3.5164  -3.4531  -3.1840  -3.1669  -2.8166  -2.5123  -1.4571
    -1.1009  -0.9312  -0.0751   0.1446   0.4364   0.5010   0.7097   0.7501
     0.8068   0.9759   1.0099   1.1096   1.1703   1.2466   1.2904   1.5541
     1.6135   1.7679   1.7763   1.8610   2.0155   2.1650   2.1858   2.2108
     2.3995   2.4527   2.4923   2.5537   2.6615   2.9251   3.0060   3.0100
     3.0532   3.0733   3.1379   3.1515   3.2033   3.2959   3.3010   3.4100
     3.5223   3.8090   3.8141   3.8695   4.0547   4.1354   4.2453   4.6305
     5.0829   5.1864   5.1972   5.3728   6.0571   6.3139   6.4236   6.4322
     6.9630   6.9811

          k =-0.0918-0.0177 0.0000 ( 15985 PWs)   bands (ev):

   -75.8017 -75.7931 -75.7876 -75.7845 -75.7788 -75.7699 -75.7211 -75.7129
   -75.7047 -44.6931 -44.6830 -44.6533 -44.6435 -44.6260 -44.6214 -44.6145
   -44.6108 -44.6050 -44.6012 -44.5981 -44.5902 -44.5825 -44.5764 -44.5739
   -44.5685 -44.5637 -44.5454 -44.5370 -44.5288 -44.5188 -44.5117 -44.4960
   -44.4820 -44.4691 -44.4579 -44.4273  -5.4507  -4.6621  -4.4811  -4.4213
    -4.3166  -4.1719  -4.0879  -3.9518  -3.8454  -3.7959  -3.7233  -3.6832
    -3.6522  -3.5675  -3.4504  -3.1823  -3.1007  -2.9376  -2.2607  -1.6699
    -1.1311  -0.7627  -0.0942   0.1613   0.2991   0.5270   0.6973   0.7265
     0.8236   0.9534   1.0239   1.0843   1.1875   1.2764   1.3740   1.4351
     1.5933   1.7969   1.8291   1.8904   2.0432   2.1085   2.1727   2.2907
     2.3512   2.4888   2.5154   2.5835   2.7059   2.9150   2.9518   3.0444
     3.1244   3.1462   3.2063   3.2389   3.2525   3.3358   3.3803   3.4522
     3.5804   3.6434   3.7351   3.8420   3.8982   3.9374   4.0188   4.3389
     4.9172   5.0530   5.7053   5.9491   6.0987   6.2404   6.5749   6.7878
     6.9696   7.0829

          k =-0.0918 0.0177 0.0000 ( 15985 PWs)   bands (ev):

   -75.8017 -75.7931 -75.7876 -75.7844 -75.7788 -75.7699 -75.7211 -75.7129
   -75.7047 -44.6931 -44.6830 -44.6533 -44.6435 -44.6261 -44.6214 -44.6145
   -44.6108 -44.6050 -44.6012 -44.5981 -44.5902 -44.5825 -44.5764 -44.5739
   -44.5685 -44.5638 -44.5453 -44.5369 -44.5288 -44.5188 -44.5117 -44.4960
   -44.4820 -44.4691 -44.4579 -44.4273  -5.4507  -4.6621  -4.4811  -4.4213
    -4.3166  -4.1719  -4.0879  -3.9519  -3.8454  -3.7959  -3.7234  -3.6832
    -3.6522  -3.5674  -3.4504  -3.1823  -3.1007  -2.9376  -2.2606  -1.6700
    -1.1311  -0.7626  -0.0942   0.1613   0.2991   0.5270   0.6973   0.7265
     0.8236   0.9534   1.0239   1.0843   1.1875   1.2765   1.3740   1.4351
     1.5933   1.7970   1.8291   1.8905   2.0432   2.1085   2.1727   2.2907
     2.3512   2.4888   2.5154   2.5835   2.7059   2.9150   2.9518   3.0444
     3.1244   3.1463   3.2063   3.2389   3.2525   3.3358   3.3803   3.4522
     3.5804   3.6434   3.7351   3.8420   3.8982   3.9374   4.0188   4.3388
     4.9172   5.0529   5.7053   5.9491   6.0987   6.2404   6.5749   6.7878
     6.9696   7.0829

          k =-0.0918-0.1590 0.0000 ( 15984 PWs)   bands (ev):

   -75.8017 -75.7932 -75.7875 -75.7844 -75.7789 -75.7698 -75.7211 -75.7130
   -75.7047 -44.7008 -44.6905 -44.6336 -44.6299 -44.6208 -44.6201 -44.6131
   -44.6076 -44.6062 -44.6034 -44.5997 -44.5975 -44.5899 -44.5841 -44.5814
   -44.5728 -44.5672 -44.5321 -44.5316 -44.5218 -44.5207 -44.5205 -44.5020
   -44.4784 -44.4695 -44.4608 -44.4234  -5.3877  -4.8192  -4.5491  -4.4149
    -4.3274  -4.1069  -4.0624  -3.9350  -3.8267  -3.8196  -3.6742  -3.6404
    -3.6395  -3.5163  -3.4531  -3.1841  -3.1668  -2.8166  -2.5122  -1.4571
    -1.1010  -0.9312  -0.0752   0.1446   0.4364   0.5010   0.7097   0.7501
     0.8068   0.9759   1.0098   1.1096   1.1703   1.2467   1.2904   1.5540
     1.6135   1.7680   1.7763   1.8611   2.0154   2.1650   2.1857   2.2108
     2.3995   2.4527   2.4922   2.5537   2.6614   2.9251   3.0060   3.0100
     3.0532   3.0732   3.1379   3.1515   3.2033   3.2959   3.3010   3.4100
     3.5223   3.8089   3.8142   3.8695   4.0546   4.1354   4.2453   4.6305
     5.0829   5.1863   5.1972   5.3729   6.0571   6.3139   6.4236   6.4322
     6.9628   6.9810

     the Fermi energy is     1.1045 ev

!    total energy              =   -2259.04164746 Ry
     Harris-Foulkes estimate   =   -2259.04163721 Ry
     estimated scf accuracy    <       0.00000054 Ry

     The total energy is the sum of the following terms:

     one-electron contribution =  -16769.27638459 Ry
     hartree contribution      =    8406.27069213 Ry
     xc contribution           =    -441.32349071 Ry
     ewald contribution        =    6545.36185231 Ry
     electric field correction =       0.00000047 Ry
     smearing contrib. (-TS)   =      -0.07431707 Ry

     total magnetization       =    34.54 Bohr mag/cell
     absolute magnetization    =    35.29 Bohr mag/cell

     convergence has been achieved in  29 iterations
 
 BEEF-vdW xc energy contributions
           1 :   -389.466927574339     
           2 :    356.247728086498     
           3 :   -299.713411191215     
           4 :    234.618591248530     
           5 :   -174.151880344277     
           6 :    125.863055419601     
           7 :   -91.2610948550596     
           8 :    67.8966033205155     
           9 :   -52.0015218100322     
          10 :    40.3353957840433     
          11 :   -30.8902606492438     
          12 :    22.7757348771800     
          13 :   -15.8338506518088     
          14 :    10.2674609621420     
          15 :   -6.28742082268877     
          16 :    3.76844398335101     
          17 :   -2.12402259181454     
          18 :   0.564964098660312     
          19 :    1.40487463032139     
          20 :   -3.66843271813730     
          21 :    5.61778503554808     
          22 :   -6.63098818602964     
          23 :    6.53097147506315     
          24 :   -5.69739648668099     
          25 :    4.76729776282468     
          26 :   -4.18705579726492     
          27 :    3.96502853846005     
          28 :   -3.79440248711944     
          29 :    3.39507627212498     
          30 :   -2.78270338106671     
          31 :   -33.0557867595471     
          32 :   -23.6530394001362     

     Forces acting on atoms (Ry/au):


     negative rho (up, down):  1.775E-03 1.679E-03
     atom    1 type  1   force =    -0.00000151   -0.00402674   -0.01816233
     atom    2 type  1   force =    -0.00348703    0.00201228   -0.01816299
     atom    3 type  1   force =     0.00348480    0.00201222   -0.01815561
     atom    4 type  2   force =     0.00000519    0.00000067   -0.02315372
     atom    5 type  1   force =    -0.00000342    0.00226167    0.01783472
     atom    6 type  1   force =     0.00195515   -0.00113408    0.01783488
     atom    7 type  1   force =    -0.00195389   -0.00112964    0.01782168
     atom    8 type  2   force =     0.00000148    0.00000506    0.02391187
     atom    9 type  1   force =     0.00005435    0.00034623    0.00019491
     atom   10 type  1   force =     0.00032854   -0.00012903    0.00019999
     atom   11 type  1   force =    -0.00032350   -0.00018866    0.00020011
     atom   12 type  2   force =    -0.00006016   -0.00002997   -0.00036352

     Total force =     0.055818     Total SCF correction =     0.004327


     entering subroutine stress ...


     negative rho (up, down):  1.775E-03 1.679E-03
          total   stress  (Ry/bohr**3)                   (kbar)     P=   14.40
   0.00011319   0.00000000   0.00000000         16.65      0.00      0.00
   0.00000000   0.00011319   0.00000000          0.00     16.65      0.00
   0.00000000   0.00000000   0.00006728          0.00      0.00      9.90

 !ASE

     Writing output data file calc.save
 
     init_run     :     26.49s CPU     44.50s WALL (       1 calls)
     electrons    :   1653.74s CPU   2652.47s WALL (       1 calls)
     forces       :      3.87s CPU      4.70s WALL (       1 calls)
     stress       :      8.69s CPU      9.94s WALL (       1 calls)

     Called by init_run:
     wfcinit      :     24.24s CPU     41.31s WALL (       1 calls)
     potinit      :      1.20s CPU      1.89s WALL (       1 calls)

     Called by electrons:
     c_bands      :   1330.61s CPU   2116.60s WALL (      29 calls)
     sum_band     :    249.75s CPU    425.45s WALL (      29 calls)
     v_of_rho     :     29.41s CPU     46.01s WALL (      30 calls)
     newd         :      8.95s CPU      9.68s WALL (      30 calls)
     mix_rho      :      2.19s CPU      3.53s WALL (      29 calls)
     vdW_energy   :      1.78s CPU      1.79s WALL (      66 calls)
     vdW_ffts     :     36.37s CPU     58.55s WALL (     134 calls)
     vdW_v        :      6.21s CPU      9.64s WALL (      66 calls)

     Called by c_bands:
     init_us_2    :      1.75s CPU      1.91s WALL (    2440 calls)
     cegterg      :   1309.42s CPU   2089.85s WALL (    1160 calls)

     Called by *egterg:
     h_psi        :    990.37s CPU   1707.21s WALL (    3761 calls)
     s_psi        :     16.66s CPU     16.82s WALL (    3761 calls)
     g_psi        :      0.74s CPU      0.75s WALL (    2561 calls)
     cdiaghg      :    160.65s CPU    170.93s WALL (    3721 calls)

     Called by h_psi:
     add_vuspsi   :     17.96s CPU     18.10s WALL (    3761 calls)

     General routines
     calbec       :     56.83s CPU     77.28s WALL (    5001 calls)
     fft          :     66.03s CPU    106.34s WALL (    4784 calls)
     ffts         :      0.52s CPU      0.83s WALL (     118 calls)
     fftw         :   1130.55s CPU   1997.80s WALL (  691942 calls)
     interpolate  :      2.16s CPU      3.48s WALL (     118 calls)
     davcio       :      0.00s CPU      0.02s WALL (      40 calls)
 
     Parallel routines
     fft_scatter  :   1152.30s CPU   2055.06s WALL (  696844 calls)
 
     PWSCF        : 28m13.98s CPU    45m13.65s WALL

 
   This run was terminated on:  19:40:44  30Dec2018            

=------------------------------------------------------------------------------=
   JOB DONE.
=------------------------------------------------------------------------------=
Job  /afs/slac/g/suncat/bin/suncat-tsmpirun -x LD_LIBRARY_PATH -wdir /scratch/qe648566_J4KcJ pw.x -in pw.inp

TID   HOST_NAME   COMMAND_LINE            STATUS            TERMINATION_TIME
===== ========== ================  =======================  ===================
00000 suncat0096 pw.x -in pw.inp   Done                     12/30/2018 19:40:44
00001 suncat0096 pw.x -in pw.inp   Done                     12/30/2018 19:40:44
00002 suncat0096 pw.x -in pw.inp   Done                     12/30/2018 19:40:44
00003 suncat0096 pw.x -in pw.inp   Done                     12/30/2018 19:40:44
00004 suncat0096 pw.x -in pw.inp   Done                     12/30/2018 19:40:44
00005 suncat0096 pw.x -in pw.inp   Done                     12/30/2018 19:40:44
00006 suncat0096 pw.x -in pw.inp   Done                     12/30/2018 19:40:44
00007 suncat0096 pw.x -in pw.inp   Done                     12/30/2018 19:40:44
00008 suncat0095 pw.x -in pw.inp   Done                     12/30/2018 19:40:44
00009 suncat0095 pw.x -in pw.inp   Done                     12/30/2018 19:40:44
00010 suncat0095 pw.x -in pw.inp   Done                     12/30/2018 19:40:44
00011 suncat0095 pw.x -in pw.inp   Done                     12/30/2018 19:40:44
00012 suncat0095 pw.x -in pw.inp   Done                     12/30/2018 19:40:44
00013 suncat0095 pw.x -in pw.inp   Done                     12/30/2018 19:40:44
00014 suncat0095 pw.x -in pw.inp   Done                     12/30/2018 19:40:44
00015 suncat0095 pw.x -in pw.inp   Done                     12/30/2018 19:40:44
00016 suncat0094 pw.x -in pw.inp   Done                     12/30/2018 19:40:44
00017 suncat0094 pw.x -in pw.inp   Done                     12/30/2018 19:40:44
00018 suncat0094 pw.x -in pw.inp   Done                     12/30/2018 19:40:44
00019 suncat0094 pw.x -in pw.inp   Done                     12/30/2018 19:40:44
00020 suncat0094 pw.x -in pw.inp   Done                     12/30/2018 19:40:44
00021 suncat0094 pw.x -in pw.inp   Done                     12/30/2018 19:40:44
00022 suncat0094 pw.x -in pw.inp   Done                     12/30/2018 19:40:44
00023 suncat0094 pw.x -in pw.inp   Done                     12/30/2018 19:40:44
00024 suncat0093 pw.x -in pw.inp   Done                     12/30/2018 19:40:44
00025 suncat0093 pw.x -in pw.inp   Done                     12/30/2018 19:40:44
00026 suncat0093 pw.x -in pw.inp   Done                     12/30/2018 19:40:44
00027 suncat0093 pw.x -in pw.inp   Done                     12/30/2018 19:40:44
00028 suncat0093 pw.x -in pw.inp   Done                     12/30/2018 19:40:44
00029 suncat0093 pw.x -in pw.inp   Done                     12/30/2018 19:40:44
00030 suncat0093 pw.x -in pw.inp   Done                     12/30/2018 19:40:44
00031 suncat0093 pw.x -in pw.inp   Done                     12/30/2018 19:40:44
00032 suncat0234 pw.x -in pw.inp   Done                     12/30/2018 19:40:44
00033 suncat0234 pw.x -in pw.inp   Done                     12/30/2018 19:40:44
00034 suncat0234 pw.x -in pw.inp   Done                     12/30/2018 19:40:44
00035 suncat0234 pw.x -in pw.inp   Done                     12/30/2018 19:40:44
00036 suncat0234 pw.x -in pw.inp   Done                     12/30/2018 19:40:44
00037 suncat0234 pw.x -in pw.inp   Done                     12/30/2018 19:40:44
00038 suncat0234 pw.x -in pw.inp   Done                     12/30/2018 19:40:44
00039 suncat0234 pw.x -in pw.inp   Done                     12/30/2018 19:40:44
00040 suncat0233 pw.x -in pw.inp   Done                     12/30/2018 19:40:44
00041 suncat0233 pw.x -in pw.inp   Done                     12/30/2018 19:40:44
00042 suncat0233 pw.x -in pw.inp   Done                     12/30/2018 19:40:44
00043 suncat0233 pw.x -in pw.inp   Done                     12/30/2018 19:40:44
00044 suncat0233 pw.x -in pw.inp   Done                     12/30/2018 19:40:44
00045 suncat0233 pw.x -in pw.inp   Done                     12/30/2018 19:40:44
00046 suncat0233 pw.x -in pw.inp   Done                     12/30/2018 19:40:44
00047 suncat0233 pw.x -in pw.inp   Done                     12/30/2018 19:40:44
00048 suncat0222 pw.x -in pw.inp   Done                     12/30/2018 19:40:44
00049 suncat0222 pw.x -in pw.inp   Done                     12/30/2018 19:40:44
00050 suncat0222 pw.x -in pw.inp   Done                     12/30/2018 19:40:44
00051 suncat0222 pw.x -in pw.inp   Done                     12/30/2018 19:40:44
00052 suncat0222 pw.x -in pw.inp   Done                     12/30/2018 19:40:44
00053 suncat0222 pw.x -in pw.inp   Done                     12/30/2018 19:40:44
00054 suncat0222 pw.x -in pw.inp   Done                     12/30/2018 19:40:44
00055 suncat0222 pw.x -in pw.inp   Done                     12/30/2018 19:40:44
00056 suncat0221 pw.x -in pw.inp   Done                     12/30/2018 19:40:44
00057 suncat0221 pw.x -in pw.inp   Done                     12/30/2018 19:40:44
00058 suncat0221 pw.x -in pw.inp   Done                     12/30/2018 19:40:44
00059 suncat0221 pw.x -in pw.inp   Done                     12/30/2018 19:40:44
00060 suncat0221 pw.x -in pw.inp   Done                     12/30/2018 19:40:44
00061 suncat0221 pw.x -in pw.inp   Done                     12/30/2018 19:40:44
00062 suncat0221 pw.x -in pw.inp   Done                     12/30/2018 19:40:44
00063 suncat0221 pw.x -in pw.inp   Done                     12/30/2018 19:40:44
