  python dir          : /u/if/mamunm/src/espresso
  espresso dir        : /nfs/slac/g/suncatfs/sw/espv18/espresso-dynpy-beef/bin
  pseudo dir          : /afs/slac.stanford.edu/u/if/mamunm/psp/gbrv1.5pbe
  ase-espresso py git : GITVERSION



     Program PWSCF v.5.1rc2 (svn rev. 11289) starts on 26Dec2018 at  6:40: 5 

     This program is part of the open-source Quantum ESPRESSO suite
     for quantum simulation of materials; please cite
         "P. Giannozzi et al., J. Phys.:Condens. Matter 21 395502 (2009);
          URL http://www.quantum-espresso.org", 
     in publications or presentations arising from this work. More details at
     http://www.quantum-espresso.org/quote

     Parallel version (MPI), running on    64 processors
     R & G space division:  proc/nbgrp/npool/nimage =      64
     Reading input from pw.inp
     Message from routine read_cards :
     DEPRECATED: no units specified in CELL_PARAMETERS card

     Current dimensions of program PWSCF are:
     Max number of different atomic species (ntypx) = 10
     Max number of k-points (npk) =  40000
     Max angular momentum in pseudopotentials (lmaxx) =  3
     Presently stress not available with electric field


     **************************************************************************
     Initializing libbeef V0.1.1 with the BEEF-vdW functional.
     Citation: Wellendorff et al., PRB 85, 235149 (2012).
     **************************************************************************


     IMPORTANT: XC functional enforced from input :
     Exchange-correlation      = BEEF-VDW ( 1  4 27 13 2)
     Any further DFT definition will be discarded
     Please, verify this is what you really want


     Subspace diagonalization in iterative solution of the eigenvalue problem:
     a serial algorithm will be used

 
     Parallelization info
     --------------------
     sticks:   dense  smooth     PW     G-vecs:    dense   smooth      PW
     Min          54      21      6                10580     2650     424
     Max          55      22      7                10615     2706     441
     Sum        3505    1405    421               678145   171723   27711
 


     bravais-lattice index     =            0
     lattice parameter (alat)  =       1.8897  a.u.
     unit-cell volume          =    5704.6319 (a.u.)^3
     number of atoms/cell      =           12
     number of atomic types    =            2
     number of electrons       =       147.00
     number of Kohn-Sham states=          103
     kinetic-energy cutoff     =      36.7493  Ry
     charge density cutoff     =     367.4932  Ry
     convergence threshold     =      1.0E-06
     mixing beta               =       0.1000
     number of iterations used =           10  plain     mixing
     Exchange-correlation      = BEEF-VDW ( 1  4 27 13 2)
     nstep                     =           50


     celldm(1)=   1.889726  celldm(2)=   0.000000  celldm(3)=   0.000000
     celldm(4)=   0.000000  celldm(5)=   0.000000  celldm(6)=   0.000000

     crystal axes: (cart. coord. in units of alat)
               a(1) = (   6.237034   0.000000   0.000000 )  
               a(2) = (  -3.118517   5.401430   0.000000 )  
               a(3) = (   0.000000   0.000000  25.092517 )  

     reciprocal axes: (cart. coord. in units 2 pi/alat)
               b(1) = (  0.160333  0.092568  0.000000 )  
               b(2) = (  0.000000  0.185136  0.000000 )  
               b(3) = (  0.000000  0.000000  0.039853 )  


     PseudoPot. # 1 for Hf read from file:
     /afs/slac.stanford.edu/u/if/mamunm/psp/gbrv1.5pbe/Hf.UPF
     MD5 check sum: 8ee9378dfe14276e333edf04c5e4aa26
     Pseudo is Ultrasoft + core correction, Zval = 12.0
     Generated by new atomic code, or converted to UPF format
     Using radial grid of  921 points,  8 beta functions with: 
                l(1) =   0
                l(2) =   0
                l(3) =   0
                l(4) =   1
                l(5) =   1
                l(6) =   2
                l(7) =   2
                l(8) =   3
     Q(r) pseudized with  6 coefficients,  rinner =    1.200   1.200   1.200
                                                       1.200   1.200   1.200
                                                       1.200

     PseudoPot. # 2 for Nb read from file:
     /afs/slac.stanford.edu/u/if/mamunm/psp/gbrv1.5pbe/Nb.UPF
     MD5 check sum: 573aab8a2fa660278ed4a62cd769473f
     Pseudo is Ultrasoft + core correction, Zval = 13.0
     Generated by new atomic code, or converted to UPF format
     Using radial grid of  887 points,  6 beta functions with: 
                l(1) =   0
                l(2) =   0
                l(3) =   1
                l(4) =   1
                l(5) =   2
                l(6) =   2
     Q(r) pseudized with  6 coefficients,  rinner =    1.000   1.000   1.000
                                                       1.000   1.000

     vdW kernel table read from file vdW_kernel_table
     MD5 check sum: 095c7af220d748ca6e76c0b4c6cfb241

     atomic species   valence    mass     pseudopotential
        Hf1           12.00   178.49000     Hf( 1.00)
        Nb1           13.00    92.90637     Nb( 1.00)

     No symmetry found



   Cartesian axes

     site n.     atom                  positions (alat units)
         1           Hf1 tau(   1) = (   0.0000000   0.0000000  10.0000000  )
         2           Hf1 tau(   2) = (  -1.5592584   2.7007148  10.0000000  )
         3           Hf1 tau(   3) = (   1.5592584   2.7007148  10.0000000  )
         4           Nb1 tau(   4) = (   3.1185168   0.0000000  10.0000000  )
         5           Hf1 tau(   5) = (   3.1185168   1.8004765  12.5462583  )
         6           Hf1 tau(   6) = (   1.5592584   4.5011913  12.5462583  )
         7           Hf1 tau(   7) = (  -1.5592584   4.5011913  12.5462583  )
         8           Nb1 tau(   8) = (   0.0000000   1.8004765  12.5462583  )
         9           Hf1 tau(   9) = (  -0.0000000   3.6009531  15.0925167  )
        10           Hf1 tau(  10) = (   1.5592584   0.9002383  15.0925167  )
        11           Hf1 tau(  11) = (   4.6777752   0.9002383  15.0925167  )
        12           Nb1 tau(  12) = (   3.1185168   3.6009531  15.0925167  )

     number of k points=    20  Fermi-Dirac smearing, width (Ry)=  0.0110
                       cart. coord. in units 2pi/alat
        k(    1) = (   0.0000000   0.0000000   0.0000000), wk =   0.0555556
        k(    2) = (   0.0000000   0.0308560   0.0000000), wk =   0.1111111
        k(    3) = (   0.0000000   0.0617121   0.0000000), wk =   0.1111111
        k(    4) = (   0.0000000  -0.0925681   0.0000000), wk =   0.0555556
        k(    5) = (   0.0267221   0.0154280   0.0000000), wk =   0.1111111
        k(    6) = (   0.0267221   0.0462840   0.0000000), wk =   0.1111111
        k(    7) = (   0.0267221   0.0771401   0.0000000), wk =   0.1111111
        k(    8) = (   0.0267221  -0.0771401   0.0000000), wk =   0.1111111
        k(    9) = (   0.0267221  -0.0462840   0.0000000), wk =   0.1111111
        k(   10) = (   0.0267221  -0.0154280   0.0000000), wk =   0.1111111
        k(   11) = (   0.0534442   0.0308560   0.0000000), wk =   0.1111111
        k(   12) = (   0.0534442   0.0617121   0.0000000), wk =   0.1111111
        k(   13) = (   0.0534442   0.0925681   0.0000000), wk =   0.1111111
        k(   14) = (   0.0534442  -0.0617121   0.0000000), wk =   0.1111111
        k(   15) = (   0.0534442  -0.0308560   0.0000000), wk =   0.1111111
        k(   16) = (   0.0534442   0.0000000   0.0000000), wk =   0.1111111
        k(   17) = (  -0.0801663  -0.0462840   0.0000000), wk =   0.0555556
        k(   18) = (  -0.0801663  -0.0154280   0.0000000), wk =   0.1111111
        k(   19) = (  -0.0801663   0.0154280   0.0000000), wk =   0.1111111
        k(   20) = (  -0.0801663  -0.1388521   0.0000000), wk =   0.0555556

     Dense  grid:   678145 G-vectors     FFT dimensions: (  72,  72, 300)

     Smooth grid:   171723 G-vectors     FFT dimensions: (  45,  45, 192)

     Largest allocated arrays     est. size (Mb)     dimensions
        Kohn-Sham Wavefunctions         0.56 Mb     (     354,  103)
        NL pseudopotentials             1.56 Mb     (     354,  288)
        Each V/rho on FFT grid          0.40 Mb     (   25920)
        Each G-vector array             0.08 Mb     (   10595)
        G-vector shells                 0.04 Mb     (    5158)
     Largest temporary arrays     est. size (Mb)     dimensions
        Auxiliary wavefunctions         2.23 Mb     (     354,  412)
        Each subspace H/S matrix        2.59 Mb     (     412,  412)
        Each <psi_i|beta_j> matrix      0.45 Mb     (     288,  103)
        Arrays for rho mixing           3.96 Mb     (   25920,   10)

     Check: negative/imaginary core charge=   -0.000003    0.000000

     Initial potential from superposition of free atoms
     Check: negative starting charge=   -0.959429

     starting charge  128.99178, renormalised to  147.00000

     negative rho (up, down):  1.093E+00 0.000E+00


     ************************************************************************
     *
     * You are using vdW-DF for exchange-correlation in this calculation.
     * Please cite the following three references that made this development
     * possible:
     *
     *   M. Dion, H. Rydberg, E. Schroder, D. C. Langreth, and
     *   B. I. Lundqvist, Phys. Rev. Lett. 92, 246401 (2004).
     *
     *   T. Thonhauser, V. R. Cooper, S. Li, A. Puzder, P. Hyldgaard, and
     *   D. C. Langreth, Phys. Rev. B 76, 125112 (2007).
     *
     *   G. Roman-Perez and J. M. Soler, Phys. Rev. Lett. 103, 096102 (2009).
     *
     *
     * If you are using vdW-DF2, please also cite:
     *
     *   K. Lee, E. D. Murray, L. Kong, B. I. Lundqvist, and
     *   D. C. Langreth, Phys. Rev. B 82, 081101(R) (2010).
     *
     *
     * If you are calculating the stress with vdW-DF, please also cite:
     *
     *   R. Sabatini, E. Kucukbenli, B. Kolb, T. Thonhauser, and
     *   S. de Gironcoli, J. Phys.: Condens. Matter 24, 424209 (2012).
     *
     ************************************************************************

     Carrying out vdW-DF run using the following parameters:

     Nqs =      20    Nr_points =    1024   r_max =   100.000
     q_mesh =
               0.00001000     0.04494208     0.09755937     0.15916263
               0.23128650     0.31572767     0.41458969     0.53033537
               0.66584808     0.82450364     1.01025438     1.22772762
               1.48234092     1.78043706     2.12944203     2.53805004
               3.01644009     3.57652955     4.23227104     5.00000000

     Gradients computed in reciprocal space

     ************************************************************************


 
     Adding external electric field

     Computed dipole along edir(3) : 
        Dipole               -0.0000 Ry au,         -0.0000 Debye
        Dipole field         -0.0000 Ry au
 
        Potential amp.        0.0000 Ry
        Total length         46.2325 bohr
 
     Starting wfc are  156 randomized atomic wfcs

     total cpu time spent up to now is       28.2 secs

     per-process dynamical memory:    41.9 Mb

     Self-consistent Calculation

     iteration #  1     ecut=    36.75 Ry     beta=0.10
     Davidson diagonalization with overlap
     ethr =  1.00E-02,  avg # of iterations =  8.1

     negative rho (up, down):  1.073E+00 0.000E+00
 
     Adding external electric field

     Computed dipole along edir(3) : 
        Dipole               -0.7620 Ry au,         -1.9367 Debye
        Dipole field         -0.0017 Ry au
 
        Potential amp.        0.1552 Ry
        Total length         46.2325 bohr
 

     total cpu time spent up to now is      126.4 secs

     total energy              =   -1798.36480590 Ry
     Harris-Foulkes estimate   =   -1812.43188459 Ry
     estimated scf accuracy    <      83.13699440 Ry

     iteration #  2     ecut=    36.75 Ry     beta=0.10
     Davidson diagonalization with overlap
     ethr =  1.00E-02,  avg # of iterations =  4.2

     negative rho (up, down):  1.063E+00 0.000E+00
 
     Adding external electric field

     Computed dipole along edir(3) : 
        Dipole                0.0024 Ry au,          0.0062 Debye
        Dipole field          0.0000 Ry au
 
        Potential amp.       -0.0005 Ry
        Total length         46.2325 bohr
 

     total cpu time spent up to now is      187.4 secs

     total energy              =   -1804.21736313 Ry
     Harris-Foulkes estimate   =   -1808.51248679 Ry
     estimated scf accuracy    <      37.65249649 Ry

     iteration #  3     ecut=    36.75 Ry     beta=0.10
     Davidson diagonalization with overlap
     ethr =  1.00E-02,  avg # of iterations =  1.3

     negative rho (up, down):  1.057E+00 0.000E+00
 
     Adding external electric field

     Computed dipole along edir(3) : 
        Dipole               -2.0113 Ry au,         -5.1123 Debye
        Dipole field         -0.0044 Ry au
 
        Potential amp.        0.4097 Ry
        Total length         46.2325 bohr
 

     total cpu time spent up to now is      229.3 secs

     total energy              =   -1803.26941054 Ry
     Harris-Foulkes estimate   =   -1805.49773384 Ry
     estimated scf accuracy    <      28.12577087 Ry

     iteration #  4     ecut=    36.75 Ry     beta=0.10
     Davidson diagonalization with overlap
     ethr =  1.00E-02,  avg # of iterations =  1.1

     negative rho (up, down):  1.044E+00 0.000E+00
 
     Adding external electric field

     Computed dipole along edir(3) : 
        Dipole               -0.5336 Ry au,         -1.3563 Debye
        Dipole field         -0.0012 Ry au
 
        Potential amp.        0.1087 Ry
        Total length         46.2325 bohr
 

     total cpu time spent up to now is      277.2 secs

     total energy              =   -1802.03328604 Ry
     Harris-Foulkes estimate   =   -1805.81290624 Ry
     estimated scf accuracy    <      79.81667260 Ry

     iteration #  5     ecut=    36.75 Ry     beta=0.10
     Davidson diagonalization with overlap
     ethr =  1.00E-02,  avg # of iterations =  1.1

     negative rho (up, down):  1.027E+00 0.000E+00
 
     Adding external electric field

     Computed dipole along edir(3) : 
        Dipole               -0.0821 Ry au,         -0.2088 Debye
        Dipole field         -0.0002 Ry au
 
        Potential amp.        0.0167 Ry
        Total length         46.2325 bohr
 

     total cpu time spent up to now is      314.9 secs

     total energy              =   -1801.28780987 Ry
     Harris-Foulkes estimate   =   -1803.00033219 Ry
     estimated scf accuracy    <       6.32580592 Ry

     iteration #  6     ecut=    36.75 Ry     beta=0.10
     Davidson diagonalization with overlap
     ethr =  4.30E-03,  avg # of iterations =  2.5

     negative rho (up, down):  1.020E+00 0.000E+00
 
     Adding external electric field

     Computed dipole along edir(3) : 
        Dipole               -0.6425 Ry au,         -1.6331 Debye
        Dipole field         -0.0014 Ry au
 
        Potential amp.        0.1309 Ry
        Total length         46.2325 bohr
 

     total cpu time spent up to now is      361.7 secs

     total energy              =   -1800.69674283 Ry
     Harris-Foulkes estimate   =   -1801.68010058 Ry
     estimated scf accuracy    <       5.68078093 Ry

     iteration #  7     ecut=    36.75 Ry     beta=0.10
     Davidson diagonalization with overlap
     ethr =  3.86E-03,  avg # of iterations =  1.1

     negative rho (up, down):  1.002E+00 0.000E+00
 
     Adding external electric field

     Computed dipole along edir(3) : 
        Dipole                0.2342 Ry au,          0.5954 Debye
        Dipole field          0.0005 Ry au
 
        Potential amp.       -0.0477 Ry
        Total length         46.2325 bohr
 

     total cpu time spent up to now is      409.5 secs

     total energy              =   -1799.96056732 Ry
     Harris-Foulkes estimate   =   -1801.20973722 Ry
     estimated scf accuracy    <      14.44263120 Ry

     iteration #  8     ecut=    36.75 Ry     beta=0.10
     Davidson diagonalization with overlap
     ethr =  3.86E-03,  avg # of iterations =  1.1

     negative rho (up, down):  1.001E+00 0.000E+00
 
     Adding external electric field

     Computed dipole along edir(3) : 
        Dipole                0.0043 Ry au,          0.0109 Debye
        Dipole field          0.0000 Ry au
 
        Potential amp.       -0.0009 Ry
        Total length         46.2325 bohr
 

     total cpu time spent up to now is      457.9 secs

     total energy              =   -1800.40192378 Ry
     Harris-Foulkes estimate   =   -1800.56911410 Ry
     estimated scf accuracy    <       8.80824574 Ry

     iteration #  9     ecut=    36.75 Ry     beta=0.10
     Davidson diagonalization with overlap
     ethr =  3.86E-03,  avg # of iterations =  1.0

     negative rho (up, down):  1.004E+00 0.000E+00
 
     Adding external electric field

     Computed dipole along edir(3) : 
        Dipole               -0.1373 Ry au,         -0.3489 Debye
        Dipole field         -0.0003 Ry au
 
        Potential amp.        0.0280 Ry
        Total length         46.2325 bohr
 

     total cpu time spent up to now is      504.4 secs

     total energy              =   -1800.46008135 Ry
     Harris-Foulkes estimate   =   -1800.50189272 Ry
     estimated scf accuracy    <       0.33259135 Ry

     iteration # 10     ecut=    36.75 Ry     beta=0.10
     Davidson diagonalization with overlap
     ethr =  2.26E-04,  avg # of iterations =  7.1

     negative rho (up, down):  1.006E+00 0.000E+00
 
     Adding external electric field

     Computed dipole along edir(3) : 
        Dipole               -0.0429 Ry au,         -0.1090 Debye
        Dipole field         -0.0001 Ry au
 
        Potential amp.        0.0087 Ry
        Total length         46.2325 bohr
 

     total cpu time spent up to now is      561.0 secs

     total energy              =   -1800.46942841 Ry
     Harris-Foulkes estimate   =   -1800.48997400 Ry
     estimated scf accuracy    <       0.66741504 Ry

     iteration # 11     ecut=    36.75 Ry     beta=0.10
     Davidson diagonalization with overlap
     ethr =  2.26E-04,  avg # of iterations =  1.0

     negative rho (up, down):  1.011E+00 0.000E+00
 
     Adding external electric field

     Computed dipole along edir(3) : 
        Dipole               -0.0357 Ry au,         -0.0908 Debye
        Dipole field         -0.0001 Ry au
 
        Potential amp.        0.0073 Ry
        Total length         46.2325 bohr
 

     total cpu time spent up to now is      604.7 secs

     total energy              =   -1800.47148610 Ry
     Harris-Foulkes estimate   =   -1800.48303901 Ry
     estimated scf accuracy    <       0.09392351 Ry

     iteration # 12     ecut=    36.75 Ry     beta=0.10
     Davidson diagonalization with overlap
     ethr =  6.39E-05,  avg # of iterations =  4.9

     negative rho (up, down):  1.013E+00 0.000E+00
 
     Adding external electric field

     Computed dipole along edir(3) : 
        Dipole               -0.0679 Ry au,         -0.1725 Debye
        Dipole field         -0.0001 Ry au
 
        Potential amp.        0.0138 Ry
        Total length         46.2325 bohr
 

     total cpu time spent up to now is      649.8 secs

     total energy              =   -1800.47257364 Ry
     Harris-Foulkes estimate   =   -1800.47818131 Ry
     estimated scf accuracy    <       0.10213443 Ry

     iteration # 13     ecut=    36.75 Ry     beta=0.10
     Davidson diagonalization with overlap
     ethr =  6.39E-05,  avg # of iterations =  1.0

     negative rho (up, down):  1.013E+00 0.000E+00
 
     Adding external electric field

     Computed dipole along edir(3) : 
        Dipole               -0.0284 Ry au,         -0.0721 Debye
        Dipole field         -0.0001 Ry au
 
        Potential amp.        0.0058 Ry
        Total length         46.2325 bohr
 

     total cpu time spent up to now is      693.3 secs

     total energy              =   -1800.47450698 Ry
     Harris-Foulkes estimate   =   -1800.47933299 Ry
     estimated scf accuracy    <       0.15480853 Ry

     iteration # 14     ecut=    36.75 Ry     beta=0.10
     Davidson diagonalization with overlap
     ethr =  6.39E-05,  avg # of iterations =  1.0

     negative rho (up, down):  1.015E+00 0.000E+00
 
     Adding external electric field

     Computed dipole along edir(3) : 
        Dipole                0.0172 Ry au,          0.0437 Debye
        Dipole field          0.0000 Ry au
 
        Potential amp.       -0.0035 Ry
        Total length         46.2325 bohr
 

     total cpu time spent up to now is      739.6 secs

     total energy              =   -1800.47466447 Ry
     Harris-Foulkes estimate   =   -1800.47620115 Ry
     estimated scf accuracy    <       0.01518254 Ry

     iteration # 15     ecut=    36.75 Ry     beta=0.10
     Davidson diagonalization with overlap
     ethr =  1.03E-05,  avg # of iterations =  7.0

     negative rho (up, down):  1.015E+00 0.000E+00
 
     Adding external electric field

     Computed dipole along edir(3) : 
        Dipole               -0.0058 Ry au,         -0.0148 Debye
        Dipole field         -0.0000 Ry au
 
        Potential amp.        0.0012 Ry
        Total length         46.2325 bohr
 

     total cpu time spent up to now is      796.1 secs

     total energy              =   -1800.47531485 Ry
     Harris-Foulkes estimate   =   -1800.47590445 Ry
     estimated scf accuracy    <       0.02430596 Ry

     iteration # 16     ecut=    36.75 Ry     beta=0.10
     Davidson diagonalization with overlap
     ethr =  1.03E-05,  avg # of iterations =  1.0

     negative rho (up, down):  1.017E+00 0.000E+00
 
     Adding external electric field

     Computed dipole along edir(3) : 
        Dipole               -0.0033 Ry au,         -0.0084 Debye
        Dipole field         -0.0000 Ry au
 
        Potential amp.        0.0007 Ry
        Total length         46.2325 bohr
 

     total cpu time spent up to now is      841.4 secs

     total energy              =   -1800.47556410 Ry
     Harris-Foulkes estimate   =   -1800.47563133 Ry
     estimated scf accuracy    <       0.00026416 Ry

     iteration # 17     ecut=    36.75 Ry     beta=0.10
     Davidson diagonalization with overlap
     ethr =  1.80E-07,  avg # of iterations =  5.5

     negative rho (up, down):  1.018E+00 0.000E+00
 
     Adding external electric field

     Computed dipole along edir(3) : 
        Dipole               -0.0000 Ry au,         -0.0001 Debye
        Dipole field         -0.0000 Ry au
 
        Potential amp.        0.0000 Ry
        Total length         46.2325 bohr
 

     total cpu time spent up to now is      903.8 secs

     total energy              =   -1800.47558291 Ry
     Harris-Foulkes estimate   =   -1800.47559612 Ry
     estimated scf accuracy    <       0.00017925 Ry

     iteration # 18     ecut=    36.75 Ry     beta=0.10
     Davidson diagonalization with overlap
     ethr =  1.22E-07,  avg # of iterations =  1.0

     negative rho (up, down):  1.018E+00 0.000E+00
 
     Adding external electric field

     Computed dipole along edir(3) : 
        Dipole                0.0002 Ry au,          0.0006 Debye
        Dipole field          0.0000 Ry au
 
        Potential amp.       -0.0000 Ry
        Total length         46.2325 bohr
 

     total cpu time spent up to now is      952.3 secs

     total energy              =   -1800.46404831 Ry
     Harris-Foulkes estimate   =   -1800.47559514 Ry
     estimated scf accuracy    <       0.00007013 Ry

     iteration # 19     ecut=    36.75 Ry     beta=0.10
     Davidson diagonalization with overlap
     ethr =  4.77E-08,  avg # of iterations =  1.0

     negative rho (up, down):  1.018E+00 0.000E+00
 
     Adding external electric field

     Computed dipole along edir(3) : 
        Dipole                0.0001 Ry au,          0.0003 Debye
        Dipole field          0.0000 Ry au
 
        Potential amp.       -0.0000 Ry
        Total length         46.2325 bohr
 

     total cpu time spent up to now is     1016.0 secs

     total energy              =   -1800.44096777 Ry
     Harris-Foulkes estimate   =   -1800.46405096 Ry
     estimated scf accuracy    <       0.00000566 Ry

     iteration # 20     ecut=    36.75 Ry     beta=0.10
     Davidson diagonalization with overlap
     ethr =  3.85E-09,  avg # of iterations =  2.4

     negative rho (up, down):  1.019E+00 0.000E+00
 
     Adding external electric field

     Computed dipole along edir(3) : 
        Dipole               -0.0000 Ry au,         -0.0001 Debye
        Dipole field         -0.0000 Ry au
 
        Potential amp.        0.0000 Ry
        Total length         46.2325 bohr
 

     total cpu time spent up to now is     1079.6 secs

     total energy              =   -1800.47559249 Ry
     Harris-Foulkes estimate   =   -1800.44096849 Ry
     estimated scf accuracy    <       0.00000259 Ry

     iteration # 21     ecut=    36.75 Ry     beta=0.10
     Davidson diagonalization with overlap
     ethr =  1.76E-09,  avg # of iterations =  2.0

     negative rho (up, down):  1.019E+00 0.000E+00
 
     Adding external electric field

     Computed dipole along edir(3) : 
        Dipole               -0.0001 Ry au,         -0.0003 Debye
        Dipole field         -0.0000 Ry au
 
        Potential amp.        0.0000 Ry
        Total length         46.2325 bohr
 

     total cpu time spent up to now is     1129.9 secs

     total energy              =   -1800.47492883 Ry
     Harris-Foulkes estimate   =   -1800.47559280 Ry
     estimated scf accuracy    <       0.00000105 Ry

     iteration # 22     ecut=    36.75 Ry     beta=0.10
     Davidson diagonalization with overlap
     ethr =  7.13E-10,  avg # of iterations =  2.0

     negative rho (up, down):  1.019E+00 0.000E+00

     negative rho (up, down):  1.019E+00 0.000E+00

     negative rho (up, down):  1.019E+00 0.000E+00

     negative rho (up, down):  1.019E+00 0.000E+00

     negative rho (up, down):  1.019E+00 0.000E+00

     negative rho (up, down):  1.019E+00 0.000E+00

     negative rho (up, down):  1.019E+00 0.000E+00

     negative rho (up, down):  1.019E+00 0.000E+00

     negative rho (up, down):  1.019E+00 0.000E+00

     negative rho (up, down):  1.019E+00 0.000E+00

     negative rho (up, down):  1.019E+00 0.000E+00

     negative rho (up, down):  1.019E+00 0.000E+00

     negative rho (up, down):  1.019E+00 0.000E+00

     negative rho (up, down):  1.019E+00 0.000E+00

     negative rho (up, down):  1.019E+00 0.000E+00

     negative rho (up, down):  1.019E+00 0.000E+00

     negative rho (up, down):  1.019E+00 0.000E+00

     negative rho (up, down):  1.019E+00 0.000E+00

     negative rho (up, down):  1.019E+00 0.000E+00

     negative rho (up, down):  1.019E+00 0.000E+00

     negative rho (up, down):  1.019E+00 0.000E+00

     negative rho (up, down):  1.019E+00 0.000E+00

     negative rho (up, down):  1.019E+00 0.000E+00

     negative rho (up, down):  1.019E+00 0.000E+00

     negative rho (up, down):  1.019E+00 0.000E+00

     negative rho (up, down):  1.019E+00 0.000E+00

     negative rho (up, down):  1.019E+00 0.000E+00

     negative rho (up, down):  1.019E+00 0.000E+00

     negative rho (up, down):  1.019E+00 0.000E+00

     negative rho (up, down):  1.019E+00 0.000E+00

     negative rho (up, down):  1.019E+00 0.000E+00

     negative rho (up, down):  1.019E+00 0.000E+00

     negative rho (up, down):  1.019E+00 0.000E+00

     negative rho (up, down):  1.019E+00 0.000E+00

     negative rho (up, down):  1.019E+00 0.000E+00
 
     Adding external electric field

     Computed dipole along edir(3) : 
        Dipole               -0.0005 Ry au,         -0.0013 Debye
        Dipole field         -0.0000 Ry au
 
        Potential amp.        0.0001 Ry
        Total length         46.2325 bohr
 

     total cpu time spent up to now is     1225.2 secs

     End of self-consistent calculation

          k = 0.0000 0.0000 0.0000 ( 21487 PWs)   bands (ev):

   -61.0268 -61.0261 -60.9906 -60.9906 -60.9904 -60.9904 -60.5959 -60.5603
   -60.5602 -53.4936 -53.4691 -53.4690 -29.9247 -29.8694 -29.8674 -29.8674
   -29.8241 -29.8241 -29.8197 -29.7693 -29.7693 -29.6521 -29.6342 -29.5476
   -29.5476 -29.4937 -29.4610 -29.4610 -29.4001 -29.3586 -29.3586 -29.3512
   -29.3492 -29.3492 -29.3395 -29.3111 -29.1986 -29.1986 -29.1935 -29.1935
   -29.0875 -29.0875 -29.0465 -29.0464 -29.0410 -28.9384 -28.8396 -28.8396
    -4.8936  -3.5756  -2.4550  -1.7583  -1.7583  -1.5634  -1.5634  -1.4079
    -1.2356  -1.0630  -1.0630  -0.7611  -0.5777  -0.5777  -0.5243   0.3178
     0.3178   0.4204   1.2738   1.3684   1.5078   1.5078   1.7043   1.9302
     2.0237   2.0244   2.0397   2.0397   2.4542   2.4542   2.5337   2.6603
     2.6603   2.7563   2.7563   2.7718   2.7718   2.8157   2.8157   3.0531
     3.2004   3.2290   3.2290   3.9193   3.9193   4.5796   4.6337   4.6701
     4.6701   4.9490   4.9490   5.0911   5.2817   5.4260   5.4337

          k = 0.0000 0.0309 0.0000 ( 21498 PWs)   bands (ev):

   -61.0247 -61.0240 -60.9928 -60.9925 -60.9907 -60.9904 -60.5938 -60.5624
   -60.5603 -53.4937 -53.4691 -53.4690 -29.8976 -29.8434 -29.8429 -29.8313
   -29.8058 -29.8004 -29.7891 -29.7550 -29.7472 -29.6369 -29.6311 -29.5662
   -29.5539 -29.5014 -29.4587 -29.4578 -29.3985 -29.3810 -29.3776 -29.3720
   -29.3656 -29.3456 -29.3355 -29.3035 -29.2434 -29.2408 -29.2093 -29.2039
   -29.1083 -29.0824 -29.0433 -29.0431 -29.0346 -28.9515 -28.8795 -28.8482
    -4.6819  -3.3661  -2.2471  -1.8484  -1.6318  -1.5229  -1.4146  -1.3417
    -1.1493  -0.8819  -0.8448  -0.5854  -0.4551  -0.4544  -0.4048   0.3507
     0.3746   0.4638   1.2387   1.3312   1.4489   1.4998   1.6436   1.7461
     1.8314   1.8464   1.9199   2.0183   2.2833   2.3374   2.3618   2.4620
     2.5302   2.5961   2.6172   2.7100   2.7304   2.8070   2.8670   2.8942
     2.9977   3.0023   3.2412   3.6382   3.8813   4.3328   4.4275   4.6375
     4.6476   4.9915   5.0151   5.1379   5.1398   5.1752   5.3004

          k = 0.0000 0.0617 0.0000 ( 21438 PWs)   bands (ev):

   -61.0191 -61.0186 -60.9983 -60.9980 -60.9906 -60.9904 -60.5884 -60.5678
   -60.5602 -53.4937 -53.4692 -53.4691 -29.8387 -29.7829 -29.7804 -29.7736
   -29.7425 -29.7338 -29.7226 -29.7018 -29.6806 -29.6252 -29.6086 -29.5972
   -29.5705 -29.5211 -29.4638 -29.4637 -29.4490 -29.4419 -29.4243 -29.4181
   -29.3834 -29.3611 -29.3323 -29.3172 -29.3084 -29.2757 -29.2383 -29.2320
   -29.1448 -29.0716 -29.0399 -29.0374 -29.0276 -28.9799 -28.9792 -28.8658
    -4.0895  -2.8194  -2.3624  -1.6518  -1.5632  -1.3347  -1.0945  -1.0372
    -0.7919  -0.6420  -0.2886  -0.1367  -0.1030  -0.0535  -0.0300   0.4100
     0.5218   0.5638   0.9531   1.1330   1.1405   1.1803   1.2374   1.3539
     1.5817   1.6136   1.6403   1.8247   1.8907   1.9267   2.0122   2.0268
     2.0626   2.1221   2.2469   2.4225   2.5210   2.6236   2.8282   3.0874
     3.1924   3.2445   3.3987   3.5446   3.8238   3.9922   4.1352   4.1705
     4.3370   4.5734   4.5829   4.8343   4.8837   5.1132   5.2293

          k = 0.0000-0.0926 0.0000 ( 21460 PWs)   bands (ev):

   -61.0146 -61.0144 -61.0027 -61.0024 -60.9906 -60.9904 -60.5840 -60.5722
   -60.5602 -53.4938 -53.4692 -53.4692 -29.8045 -29.7429 -29.7423 -29.7359
   -29.7208 -29.6937 -29.6889 -29.6611 -29.6260 -29.5854 -29.5851 -29.5468
   -29.5457 -29.5372 -29.5275 -29.5269 -29.4906 -29.4865 -29.4744 -29.4677
   -29.4271 -29.4249 -29.3259 -29.2809 -29.2764 -29.2724 -29.2670 -29.2632
   -29.1079 -29.1037 -29.0669 -29.0347 -29.0262 -29.0253 -28.9936 -28.8751
    -3.3065  -3.1988  -2.1020  -1.9663  -1.1532  -1.1485  -0.9235  -0.7756
    -0.6422  -0.5203   0.0277   0.2568   0.2809   0.3265   0.3602   0.4557
     0.6407   0.6745   0.7310   0.7556   0.9024   0.9923   1.0596   1.1081
     1.1710   1.2488   1.2504   1.4163   1.5359   1.5895   1.7140   1.7831
     2.0516   2.1658   2.2308   2.3167   2.3573   2.4709   3.1432   3.1967
     3.3089   3.5019   3.5444   3.6204   3.6426   3.9919   4.0828   4.1438
     4.2370   4.2468   4.4637   4.5470   4.6124   4.7680   4.9185

          k = 0.0267 0.0154 0.0000 ( 21498 PWs)   bands (ev):

   -61.0247 -61.0240 -60.9928 -60.9925 -60.9907 -60.9904 -60.5938 -60.5624
   -60.5603 -53.4937 -53.4691 -53.4690 -29.8976 -29.8434 -29.8429 -29.8313
   -29.8058 -29.8004 -29.7891 -29.7550 -29.7472 -29.6369 -29.6311 -29.5662
   -29.5539 -29.5014 -29.4587 -29.4578 -29.3985 -29.3810 -29.3776 -29.3720
   -29.3656 -29.3456 -29.3355 -29.3035 -29.2434 -29.2408 -29.2093 -29.2039
   -29.1083 -29.0824 -29.0433 -29.0431 -29.0346 -28.9515 -28.8795 -28.8482
    -4.6819  -3.3661  -2.2471  -1.8484  -1.6318  -1.5229  -1.4146  -1.3417
    -1.1493  -0.8819  -0.8448  -0.5854  -0.4551  -0.4544  -0.4048   0.3507
     0.3746   0.4638   1.2387   1.3312   1.4489   1.4998   1.6436   1.7461
     1.8314   1.8464   1.9199   2.0183   2.2833   2.3374   2.3618   2.4620
     2.5302   2.5961   2.6172   2.7100   2.7304   2.8070   2.8670   2.8942
     2.9977   3.0023   3.2412   3.6382   3.8813   4.3328   4.4275   4.6375
     4.6476   4.9915   5.0151   5.1379   5.1399   5.1752   5.3004

          k = 0.0267 0.0463 0.0000 ( 21463 PWs)   bands (ev):

   -61.0208 -61.0202 -60.9966 -60.9964 -60.9906 -60.9904 -60.5900 -60.5662
   -60.5602 -53.4937 -53.4692 -53.4691 -29.8540 -29.7991 -29.7968 -29.7750
   -29.7745 -29.7419 -29.7326 -29.7288 -29.7140 -29.6267 -29.6143 -29.5906
   -29.5695 -29.5134 -29.4721 -29.4661 -29.4517 -29.4324 -29.3760 -29.3565
   -29.3561 -29.3544 -29.3426 -29.3230 -29.3211 -29.2788 -29.2300 -29.2276
   -29.1433 -29.0670 -29.0392 -29.0391 -29.0285 -28.9846 -28.9340 -28.8680
    -4.2782  -2.9773  -1.9671  -1.9634  -1.6748  -1.3944  -1.2895  -1.0268
    -0.8556  -0.5872  -0.5631  -0.2436  -0.2356  -0.1932  -0.1625   0.4108
     0.4574   0.5333   1.1137   1.1794   1.2428   1.2708   1.3822   1.4127
     1.6418   1.7316   1.8031   1.9129   1.9318   2.0048   2.0591   2.1561
     2.2053   2.2420   2.2988   2.5290   2.5463   2.7190   2.8292   3.0469
     3.0955   3.1483   3.3828   3.5057   3.8228   4.0573   4.0988   4.4018
     4.4302   4.5835   4.7607   4.8813   5.1282   5.1625   5.2131

          k = 0.0267 0.0771 0.0000 ( 21446 PWs)   bands (ev):

   -61.0147 -61.0143 -61.0026 -61.0024 -60.9906 -60.9904 -60.5840 -60.5722
   -60.5602 -53.4938 -53.4692 -53.4692 -29.7989 -29.7478 -29.7391 -29.7198
   -29.7004 -29.6917 -29.6759 -29.6731 -29.6249 -29.6117 -29.6032 -29.5886
   -29.5867 -29.5600 -29.5431 -29.5222 -29.4762 -29.4588 -29.4469 -29.4328
   -29.3939 -29.3824 -29.3313 -29.3161 -29.3091 -29.2703 -29.2667 -29.2483
   -29.1619 -29.0825 -29.0410 -29.0358 -29.0284 -29.0193 -28.9788 -28.8928
    -3.5523  -2.7008  -2.2520  -1.8814  -1.5710  -1.1214  -0.9816  -0.6434
    -0.4611  -0.3716  -0.0306   0.1333   0.1614   0.1995   0.2379   0.4675
     0.5790   0.6679   0.7124   0.8791   0.9240   0.9490   1.0015   1.0994
     1.1543   1.3268   1.4007   1.4907   1.6027   1.6296   1.6957   1.7870
     1.8213   2.1229   2.2255   2.4330   2.5326   2.7508   2.8747   3.1574
     3.2785   3.3546   3.5988   3.6281   3.7408   3.8491   3.9623   4.0662
     4.2186   4.4178   4.5306   4.6717   4.8625   5.0399   5.1597

          k = 0.0267-0.0771 0.0000 ( 21446 PWs)   bands (ev):

   -61.0147 -61.0143 -61.0026 -61.0024 -60.9906 -60.9904 -60.5840 -60.5722
   -60.5603 -53.4938 -53.4692 -53.4692 -29.7989 -29.7478 -29.7391 -29.7198
   -29.7004 -29.6917 -29.6759 -29.6731 -29.6250 -29.6117 -29.6032 -29.5886
   -29.5867 -29.5600 -29.5431 -29.5222 -29.4762 -29.4588 -29.4469 -29.4328
   -29.3939 -29.3824 -29.3313 -29.3161 -29.3091 -29.2703 -29.2667 -29.2483
   -29.1620 -29.0824 -29.0410 -29.0358 -29.0284 -29.0193 -28.9789 -28.8928
    -3.5523  -2.7008  -2.2520  -1.8814  -1.5710  -1.1214  -0.9816  -0.6434
    -0.4611  -0.3716  -0.0306   0.1333   0.1614   0.1995   0.2379   0.4675
     0.5790   0.6679   0.7124   0.8791   0.9240   0.9490   1.0015   1.0994
     1.1543   1.3268   1.4007   1.4907   1.6027   1.6296   1.6957   1.7870
     1.8213   2.1229   2.2255   2.4330   2.5326   2.7508   2.8747   3.1574
     3.2785   3.3546   3.5988   3.6281   3.7408   3.8491   3.9623   4.0662
     4.2186   4.4179   4.5306   4.6717   4.8625   5.0400   5.1597

          k = 0.0267-0.0463 0.0000 ( 21463 PWs)   bands (ev):

   -61.0208 -61.0202 -60.9966 -60.9964 -60.9906 -60.9905 -60.5900 -60.5662
   -60.5603 -53.4937 -53.4692 -53.4691 -29.8540 -29.7991 -29.7968 -29.7750
   -29.7745 -29.7419 -29.7326 -29.7288 -29.7140 -29.6267 -29.6143 -29.5906
   -29.5695 -29.5134 -29.4721 -29.4661 -29.4517 -29.4324 -29.3760 -29.3565
   -29.3561 -29.3544 -29.3426 -29.3230 -29.3211 -29.2788 -29.2300 -29.2276
   -29.1433 -29.0670 -29.0392 -29.0391 -29.0285 -28.9846 -28.9341 -28.8680
    -4.2782  -2.9773  -1.9671  -1.9634  -1.6748  -1.3944  -1.2895  -1.0268
    -0.8556  -0.5872  -0.5631  -0.2436  -0.2356  -0.1932  -0.1625   0.4108
     0.4574   0.5333   1.1137   1.1794   1.2428   1.2708   1.3822   1.4127
     1.6418   1.7316   1.8031   1.9129   1.9318   2.0048   2.0591   2.1561
     2.2053   2.2420   2.2988   2.5290   2.5463   2.7190   2.8292   3.0469
     3.0955   3.1483   3.3828   3.5057   3.8227   4.0573   4.0988   4.4018
     4.4302   4.5835   4.7607   4.8813   5.1282   5.1625   5.2131

          k = 0.0267-0.0154 0.0000 ( 21498 PWs)   bands (ev):

   -61.0247 -61.0240 -60.9928 -60.9925 -60.9907 -60.9904 -60.5938 -60.5623
   -60.5603 -53.4937 -53.4691 -53.4690 -29.8976 -29.8434 -29.8429 -29.8313
   -29.8058 -29.8004 -29.7891 -29.7550 -29.7472 -29.6369 -29.6311 -29.5662
   -29.5539 -29.5014 -29.4587 -29.4578 -29.3985 -29.3810 -29.3776 -29.3720
   -29.3656 -29.3456 -29.3355 -29.3035 -29.2434 -29.2408 -29.2093 -29.2039
   -29.1083 -29.0824 -29.0433 -29.0431 -29.0346 -28.9514 -28.8795 -28.8482
    -4.6819  -3.3661  -2.2471  -1.8484  -1.6318  -1.5229  -1.4146  -1.3417
    -1.1493  -0.8819  -0.8448  -0.5854  -0.4551  -0.4544  -0.4048   0.3507
     0.3746   0.4638   1.2387   1.3312   1.4489   1.4998   1.6436   1.7461
     1.8314   1.8464   1.9199   2.0183   2.2833   2.3374   2.3618   2.4620
     2.5302   2.5961   2.6172   2.7100   2.7304   2.8070   2.8670   2.8942
     2.9977   3.0023   3.2412   3.6382   3.8813   4.3328   4.4275   4.6375
     4.6476   4.9915   5.0151   5.1379   5.1399   5.1752   5.3004

          k = 0.0534 0.0309 0.0000 ( 21438 PWs)   bands (ev):

   -61.0191 -61.0186 -60.9983 -60.9980 -60.9906 -60.9904 -60.5884 -60.5678
   -60.5602 -53.4937 -53.4692 -53.4691 -29.8387 -29.7829 -29.7804 -29.7736
   -29.7425 -29.7338 -29.7226 -29.7018 -29.6806 -29.6252 -29.6086 -29.5972
   -29.5705 -29.5211 -29.4638 -29.4637 -29.4490 -29.4419 -29.4243 -29.4181
   -29.3834 -29.3611 -29.3323 -29.3172 -29.3084 -29.2757 -29.2383 -29.2320
   -29.1448 -29.0716 -29.0399 -29.0374 -29.0276 -28.9799 -28.9792 -28.8658
    -4.0895  -2.8194  -2.3624  -1.6518  -1.5632  -1.3347  -1.0945  -1.0372
    -0.7919  -0.6420  -0.2886  -0.1367  -0.1030  -0.0535  -0.0300   0.4100
     0.5218   0.5638   0.9531   1.1330   1.1405   1.1803   1.2374   1.3539
     1.5817   1.6136   1.6403   1.8247   1.8907   1.9267   2.0122   2.0268
     2.0626   2.1221   2.2469   2.4225   2.5210   2.6236   2.8282   3.0874
     3.1924   3.2445   3.3987   3.5446   3.8238   3.9922   4.1352   4.1705
     4.3370   4.5734   4.5829   4.8343   4.8837   5.1132   5.2289

          k = 0.0534 0.0617 0.0000 ( 21446 PWs)   bands (ev):

   -61.0147 -61.0143 -61.0026 -61.0024 -60.9906 -60.9904 -60.5840 -60.5722
   -60.5602 -53.4938 -53.4692 -53.4692 -29.7989 -29.7478 -29.7391 -29.7198
   -29.7004 -29.6917 -29.6759 -29.6731 -29.6250 -29.6117 -29.6032 -29.5886
   -29.5867 -29.5600 -29.5431 -29.5222 -29.4762 -29.4588 -29.4469 -29.4328
   -29.3939 -29.3824 -29.3313 -29.3161 -29.3091 -29.2703 -29.2667 -29.2483
   -29.1619 -29.0825 -29.0410 -29.0358 -29.0284 -29.0193 -28.9788 -28.8928
    -3.5523  -2.7008  -2.2520  -1.8814  -1.5710  -1.1214  -0.9816  -0.6434
    -0.4611  -0.3716  -0.0306   0.1333   0.1614   0.1995   0.2379   0.4675
     0.5790   0.6679   0.7124   0.8791   0.9240   0.9490   1.0015   1.0994
     1.1543   1.3268   1.4007   1.4907   1.6027   1.6296   1.6957   1.7870
     1.8213   2.1229   2.2255   2.4330   2.5326   2.7508   2.8747   3.1574
     3.2785   3.3546   3.5988   3.6281   3.7408   3.8491   3.9623   4.0662
     4.2186   4.4179   4.5306   4.6717   4.8625   5.0400   5.1596

          k = 0.0534 0.0926 0.0000 ( 21456 PWs)   bands (ev):

   -61.0087 -61.0086 -61.0085 -61.0083 -60.9906 -60.9905 -60.5781 -60.5781
   -60.5603 -53.4938 -53.4692 -53.4692 -29.7701 -29.6920 -29.6908 -29.6907
   -29.6837 -29.6836 -29.6532 -29.6326 -29.6326 -29.6229 -29.5801 -29.5800
   -29.5789 -29.5710 -29.5710 -29.5681 -29.5444 -29.5444 -29.4395 -29.4395
   -29.3477 -29.3315 -29.3314 -29.3253 -29.3227 -29.3227 -29.3042 -29.1925
   -29.1925 -29.1392 -29.0354 -29.0302 -29.0302 -28.9833 -28.9833 -28.9321
    -2.8197  -2.8195  -2.6184  -1.7098  -1.4733  -1.4732  -0.4127  -0.2769
    -0.2769  -0.0969  -0.0969  -0.0503   0.3585   0.3585   0.4646   0.4934
     0.5580   0.5580   0.6207   0.6207   0.7163   0.7164   0.8477   1.0112
     1.1924   1.2305   1.2305   1.3614   1.3614   1.4442   1.6520   1.6521
     1.7279   1.8179   2.4247   2.4247   2.7725   2.9554   3.0840   3.0840
     3.2652   3.2653   3.3134   3.4442   3.4443   3.9210   4.0776   4.0776
     4.4505   4.6338   4.6339   4.7273   5.1316   5.1618   5.1618

          k = 0.0534-0.0617 0.0000 ( 21446 PWs)   bands (ev):

   -61.0147 -61.0143 -61.0026 -61.0024 -60.9906 -60.9904 -60.5841 -60.5721
   -60.5603 -53.4938 -53.4692 -53.4692 -29.7989 -29.7478 -29.7391 -29.7198
   -29.7004 -29.6917 -29.6759 -29.6731 -29.6250 -29.6117 -29.6032 -29.5886
   -29.5867 -29.5600 -29.5431 -29.5222 -29.4762 -29.4588 -29.4469 -29.4328
   -29.3939 -29.3824 -29.3313 -29.3161 -29.3091 -29.2703 -29.2667 -29.2484
   -29.1619 -29.0825 -29.0410 -29.0358 -29.0284 -29.0193 -28.9788 -28.8928
    -3.5523  -2.7008  -2.2520  -1.8814  -1.5710  -1.1214  -0.9816  -0.6434
    -0.4611  -0.3716  -0.0306   0.1333   0.1614   0.1995   0.2379   0.4675
     0.5790   0.6679   0.7124   0.8791   0.9240   0.9490   1.0015   1.0994
     1.1543   1.3268   1.4007   1.4907   1.6027   1.6296   1.6957   1.7870
     1.8213   2.1229   2.2255   2.4330   2.5326   2.7508   2.8747   3.1574
     3.2785   3.3546   3.5988   3.6281   3.7408   3.8491   3.9623   4.0662
     4.2186   4.4179   4.5306   4.6717   4.8625   5.0400   5.1599

          k = 0.0534-0.0309 0.0000 ( 21438 PWs)   bands (ev):

   -61.0191 -61.0186 -60.9983 -60.9980 -60.9906 -60.9904 -60.5884 -60.5678
   -60.5603 -53.4937 -53.4692 -53.4691 -29.8387 -29.7829 -29.7804 -29.7736
   -29.7425 -29.7338 -29.7226 -29.7018 -29.6806 -29.6252 -29.6086 -29.5972
   -29.5705 -29.5211 -29.4638 -29.4637 -29.4490 -29.4419 -29.4243 -29.4181
   -29.3834 -29.3611 -29.3323 -29.3172 -29.3084 -29.2757 -29.2383 -29.2320
   -29.1448 -29.0716 -29.0399 -29.0374 -29.0276 -28.9799 -28.9791 -28.8658
    -4.0895  -2.8194  -2.3624  -1.6518  -1.5632  -1.3347  -1.0945  -1.0372
    -0.7919  -0.6420  -0.2886  -0.1367  -0.1030  -0.0535  -0.0300   0.4100
     0.5218   0.5638   0.9531   1.1330   1.1405   1.1803   1.2374   1.3539
     1.5817   1.6136   1.6403   1.8247   1.8907   1.9267   2.0122   2.0268
     2.0626   2.1221   2.2469   2.4225   2.5210   2.6236   2.8282   3.0874
     3.1924   3.2445   3.3987   3.5446   3.8238   3.9922   4.1352   4.1705
     4.3370   4.5734   4.5829   4.8343   4.8836   5.1131   5.2288

          k = 0.0534 0.0000 0.0000 ( 21463 PWs)   bands (ev):

   -61.0208 -61.0202 -60.9966 -60.9964 -60.9906 -60.9905 -60.5900 -60.5662
   -60.5603 -53.4937 -53.4692 -53.4691 -29.8540 -29.7991 -29.7968 -29.7750
   -29.7745 -29.7419 -29.7326 -29.7288 -29.7140 -29.6267 -29.6143 -29.5906
   -29.5695 -29.5134 -29.4721 -29.4661 -29.4517 -29.4324 -29.3760 -29.3565
   -29.3561 -29.3544 -29.3426 -29.3230 -29.3211 -29.2788 -29.2300 -29.2276
   -29.1433 -29.0670 -29.0392 -29.0391 -29.0285 -28.9846 -28.9341 -28.8680
    -4.2782  -2.9773  -1.9671  -1.9634  -1.6748  -1.3944  -1.2895  -1.0268
    -0.8556  -0.5872  -0.5631  -0.2436  -0.2356  -0.1932  -0.1625   0.4108
     0.4574   0.5333   1.1137   1.1794   1.2428   1.2708   1.3822   1.4127
     1.6418   1.7316   1.8031   1.9129   1.9318   2.0048   2.0591   2.1561
     2.2053   2.2420   2.2988   2.5290   2.5463   2.7190   2.8292   3.0469
     3.0955   3.1483   3.3828   3.5057   3.8227   4.0573   4.0988   4.4018
     4.4302   4.5835   4.7607   4.8813   5.1282   5.1625   5.2132

          k =-0.0802-0.0463 0.0000 ( 21460 PWs)   bands (ev):

   -61.0146 -61.0144 -61.0027 -61.0024 -60.9906 -60.9904 -60.5840 -60.5722
   -60.5602 -53.4938 -53.4692 -53.4692 -29.8045 -29.7429 -29.7423 -29.7359
   -29.7208 -29.6937 -29.6889 -29.6611 -29.6260 -29.5854 -29.5851 -29.5468
   -29.5457 -29.5372 -29.5275 -29.5269 -29.4906 -29.4865 -29.4744 -29.4677
   -29.4271 -29.4249 -29.3259 -29.2809 -29.2764 -29.2724 -29.2670 -29.2632
   -29.1079 -29.1037 -29.0669 -29.0347 -29.0262 -29.0253 -28.9936 -28.8751
    -3.3065  -3.1988  -2.1020  -1.9663  -1.1532  -1.1485  -0.9235  -0.7756
    -0.6422  -0.5203   0.0277   0.2568   0.2809   0.3265   0.3602   0.4557
     0.6407   0.6745   0.7310   0.7556   0.9024   0.9923   1.0596   1.1081
     1.1710   1.2488   1.2504   1.4163   1.5359   1.5895   1.7140   1.7831
     2.0516   2.1658   2.2308   2.3167   2.3573   2.4709   3.1432   3.1967
     3.3089   3.5019   3.5445   3.6204   3.6426   3.9919   4.0828   4.1438
     4.2370   4.2468   4.4638   4.5471   4.6124   4.7680   4.9185

          k =-0.0802-0.0154 0.0000 ( 21446 PWs)   bands (ev):

   -61.0147 -61.0143 -61.0026 -61.0024 -60.9906 -60.9904 -60.5840 -60.5722
   -60.5603 -53.4938 -53.4692 -53.4692 -29.7989 -29.7478 -29.7391 -29.7198
   -29.7004 -29.6917 -29.6759 -29.6731 -29.6250 -29.6117 -29.6032 -29.5886
   -29.5867 -29.5600 -29.5431 -29.5222 -29.4762 -29.4588 -29.4469 -29.4328
   -29.3939 -29.3824 -29.3313 -29.3161 -29.3091 -29.2703 -29.2667 -29.2483
   -29.1620 -29.0824 -29.0410 -29.0358 -29.0284 -29.0193 -28.9789 -28.8928
    -3.5523  -2.7008  -2.2520  -1.8814  -1.5710  -1.1214  -0.9816  -0.6434
    -0.4611  -0.3716  -0.0306   0.1333   0.1614   0.1995   0.2379   0.4675
     0.5790   0.6679   0.7124   0.8791   0.9240   0.9490   1.0015   1.0994
     1.1543   1.3268   1.4007   1.4907   1.6027   1.6296   1.6957   1.7870
     1.8213   2.1229   2.2255   2.4330   2.5326   2.7508   2.8747   3.1574
     3.2785   3.3546   3.5988   3.6281   3.7408   3.8491   3.9623   4.0662
     4.2186   4.4178   4.5306   4.6717   4.8625   5.0400   5.1598

          k =-0.0802 0.0154 0.0000 ( 21446 PWs)   bands (ev):

   -61.0147 -61.0143 -61.0026 -61.0024 -60.9906 -60.9904 -60.5841 -60.5721
   -60.5603 -53.4938 -53.4692 -53.4692 -29.7989 -29.7478 -29.7391 -29.7198
   -29.7004 -29.6917 -29.6759 -29.6731 -29.6250 -29.6117 -29.6032 -29.5886
   -29.5867 -29.5600 -29.5431 -29.5222 -29.4762 -29.4588 -29.4469 -29.4328
   -29.3939 -29.3824 -29.3313 -29.3161 -29.3091 -29.2703 -29.2667 -29.2484
   -29.1619 -29.0825 -29.0410 -29.0358 -29.0284 -29.0193 -28.9788 -28.8928
    -3.5523  -2.7008  -2.2520  -1.8814  -1.5710  -1.1214  -0.9816  -0.6434
    -0.4611  -0.3716  -0.0306   0.1333   0.1614   0.1995   0.2379   0.4675
     0.5790   0.6679   0.7124   0.8791   0.9240   0.9490   1.0015   1.0994
     1.1543   1.3268   1.4007   1.4907   1.6027   1.6296   1.6957   1.7870
     1.8213   2.1229   2.2255   2.4330   2.5326   2.7508   2.8747   3.1574
     3.2785   3.3546   3.5988   3.6281   3.7408   3.8491   3.9623   4.0662
     4.2186   4.4178   4.5306   4.6717   4.8625   5.0398   5.1596

          k =-0.0802-0.1389 0.0000 ( 21460 PWs)   bands (ev):

   -61.0146 -61.0144 -61.0027 -61.0024 -60.9906 -60.9904 -60.5841 -60.5721
   -60.5603 -53.4938 -53.4692 -53.4692 -29.8045 -29.7429 -29.7423 -29.7359
   -29.7208 -29.6937 -29.6889 -29.6611 -29.6260 -29.5854 -29.5851 -29.5468
   -29.5457 -29.5372 -29.5275 -29.5269 -29.4906 -29.4865 -29.4744 -29.4677
   -29.4271 -29.4249 -29.3259 -29.2809 -29.2764 -29.2724 -29.2670 -29.2632
   -29.1079 -29.1037 -29.0669 -29.0348 -29.0261 -29.0253 -28.9936 -28.8751
    -3.3065  -3.1988  -2.1020  -1.9663  -1.1532  -1.1485  -0.9235  -0.7756
    -0.6422  -0.5203   0.0277   0.2568   0.2809   0.3265   0.3602   0.4557
     0.6407   0.6745   0.7310   0.7556   0.9024   0.9923   1.0596   1.1081
     1.1710   1.2488   1.2504   1.4163   1.5359   1.5895   1.7140   1.7831
     2.0516   2.1658   2.2308   2.3167   2.3573   2.4709   3.1432   3.1967
     3.3089   3.5019   3.5444   3.6204   3.6426   3.9919   4.0828   4.1438
     4.2370   4.2468   4.4637   4.5470   4.6124   4.7679   4.9185

     the Fermi energy is     1.5074 ev

!    total energy              =   -1800.44030900 Ry
     Harris-Foulkes estimate   =   -1800.47492889 Ry
     estimated scf accuracy    <       0.00000032 Ry

     The total energy is the sum of the following terms:

     one-electron contribution =   -9136.37319466 Ry
     hartree contribution      =    4553.47262992 Ry
     xc contribution           =    -752.96051494 Ry
     ewald contribution        =    3535.53524167 Ry
     electric field correction =       0.00000000 Ry
     smearing contrib. (-TS)   =      -0.11447099 Ry

     convergence has been achieved in  22 iterations
 
 BEEF-vdW xc energy contributions
           1 :   -677.360642153888     
           2 :    628.716480416243     
           3 :   -542.666499766543     
           4 :    437.328103995912     
           5 :   -331.475407127927     
           6 :    239.127429537800     
           7 :   -167.090044647396     
           8 :    115.689595087419     
           9 :   -81.4711173869962     
          10 :    59.9765678803230     
          11 :   -47.3438720445234     
          12 :    40.4988302074901     
          13 :   -36.6562986781653     
          14 :    33.0023692712621     
          15 :   -27.0360057476245     
          16 :    17.3649986246858     
          17 :   -4.37651324681713     
          18 :   -9.78081750199181     
          19 :    22.0223020217687     
          20 :   -29.6046843724283     
          21 :    31.2204112393117     
          22 :   -27.4067675382393     
          23 :    20.1497658325537     
          24 :   -11.9981727319947     
          25 :    5.17796569420807     
          26 :   -1.08614568385133     
          27 :   0.227236621938232     
          28 :   -2.40233898835379     
          29 :    6.90054170008716     
          30 :   -12.5952436330999     
          31 :   -50.7095182315411     
          32 :   -36.6738362194778     

     Forces acting on atoms (Ry/au):


     negative rho (up, down):  1.019E+00 0.000E+00
     atom    1 type  1   force =    -0.00000214    0.00641369    0.01052254
     atom    2 type  1   force =     0.00555577   -0.00320789    0.01051999
     atom    3 type  1   force =    -0.00555584   -0.00320512    0.01052208
     atom    4 type  2   force =     0.00000116   -0.00000096    0.03628940
     atom    5 type  1   force =     0.00000038   -0.00015956    0.00004272
     atom    6 type  1   force =    -0.00014090    0.00008170    0.00004294
     atom    7 type  1   force =     0.00013818    0.00007960    0.00004240
     atom    8 type  2   force =     0.00000018   -0.00000025   -0.00000797
     atom    9 type  1   force =     0.00000296   -0.00644856   -0.01057005
     atom   10 type  1   force =    -0.00558530    0.00322553   -0.01056700
     atom   11 type  1   force =     0.00558578    0.00322168   -0.01056997
     atom   12 type  2   force =    -0.00000023    0.00000015   -0.03626708

     Total force =     0.059563     Total SCF correction =     0.001581


     entering subroutine stress ...


     negative rho (up, down):  1.019E+00 0.000E+00
          total   stress  (Ry/bohr**3)                   (kbar)     P=  -19.83
  -0.00013121  -0.00000000   0.00000000        -19.30     -0.00      0.00
  -0.00000000  -0.00013121   0.00000000         -0.00    -19.30      0.00
   0.00000000   0.00000000  -0.00014194          0.00      0.00    -20.88

 !ASE

     Writing output data file calc.save
 
     init_run     :     16.76s CPU     27.37s WALL (       1 calls)
     electrons    :    756.70s CPU   1197.30s WALL (       1 calls)
     forces       :      3.42s CPU      4.02s WALL (       1 calls)
     stress       :      8.52s CPU      9.62s WALL (       1 calls)

     Called by init_run:
     wfcinit      :     14.19s CPU     24.00s WALL (       1 calls)
     potinit      :      1.28s CPU      1.88s WALL (       1 calls)

     Called by electrons:
     c_bands      :    575.09s CPU    916.26s WALL (      22 calls)
     sum_band     :    111.27s CPU    180.88s WALL (      22 calls)
     v_of_rho     :     23.32s CPU     36.46s WALL (      23 calls)
     newd         :     11.69s CPU     12.13s WALL (      23 calls)
     mix_rho      :      0.97s CPU      1.56s WALL (      22 calls)
     vdW_energy   :      2.16s CPU      2.18s WALL (      59 calls)
     vdW_ffts     :     38.95s CPU     59.17s WALL (     120 calls)
     vdW_v        :      6.74s CPU     10.24s WALL (      59 calls)

     Called by c_bands:
     init_us_2    :      0.78s CPU      0.84s WALL (     940 calls)
     cegterg      :    564.42s CPU    903.84s WALL (     440 calls)

     Called by *egterg:
     h_psi        :    439.24s CPU    765.11s WALL (    1628 calls)
     s_psi        :     10.16s CPU     10.49s WALL (    1628 calls)
     g_psi        :      0.42s CPU      0.42s WALL (    1168 calls)
     cdiaghg      :     73.33s CPU     76.73s WALL (    1608 calls)

     Called by h_psi:
     add_vuspsi   :     10.53s CPU     10.63s WALL (    1628 calls)

     General routines
     calbec       :     30.01s CPU     39.12s WALL (    2108 calls)
     fft          :     58.04s CPU     90.14s WALL (    3621 calls)
     ffts         :      0.19s CPU      0.32s WALL (      45 calls)
     fftw         :    488.71s CPU    872.72s WALL (  249182 calls)
     interpolate  :      0.93s CPU      1.46s WALL (      45 calls)
     davcio       :      0.00s CPU      0.02s WALL (      20 calls)
 
     Parallel routines
     fft_scatter  :    521.60s CPU    935.22s WALL (  252848 calls)
 
     PWSCF        : 13m 6.80s CPU    20m40.39s WALL

 
   This run was terminated on:   7: 0:45  26Dec2018            

=------------------------------------------------------------------------------=
   JOB DONE.
=------------------------------------------------------------------------------=
Job  /afs/slac/g/suncat/bin/suncat-tsmpirun -x LD_LIBRARY_PATH -wdir /scratch/qe109749_Z3ViL pw.x -in pw.inp

TID   HOST_NAME   COMMAND_LINE            STATUS            TERMINATION_TIME
===== ========== ================  =======================  ===================
00000 suncat0169 pw.x -in pw.inp   Done                     12/26/2018 07:00:45
00001 suncat0169 pw.x -in pw.inp   Done                     12/26/2018 07:00:45
00002 suncat0169 pw.x -in pw.inp   Done                     12/26/2018 07:00:45
00003 suncat0169 pw.x -in pw.inp   Done                     12/26/2018 07:00:45
00004 suncat0169 pw.x -in pw.inp   Done                     12/26/2018 07:00:45
00005 suncat0169 pw.x -in pw.inp   Done                     12/26/2018 07:00:45
00006 suncat0169 pw.x -in pw.inp   Done                     12/26/2018 07:00:45
00007 suncat0169 pw.x -in pw.inp   Done                     12/26/2018 07:00:45
00008 suncat0168 pw.x -in pw.inp   Done                     12/26/2018 07:00:45
00009 suncat0168 pw.x -in pw.inp   Done                     12/26/2018 07:00:45
00010 suncat0168 pw.x -in pw.inp   Done                     12/26/2018 07:00:45
00011 suncat0168 pw.x -in pw.inp   Done                     12/26/2018 07:00:45
00012 suncat0168 pw.x -in pw.inp   Done                     12/26/2018 07:00:45
00013 suncat0168 pw.x -in pw.inp   Done                     12/26/2018 07:00:45
00014 suncat0168 pw.x -in pw.inp   Done                     12/26/2018 07:00:45
00015 suncat0168 pw.x -in pw.inp   Done                     12/26/2018 07:00:45
00016 suncat0161 pw.x -in pw.inp   Done                     12/26/2018 07:00:45
00017 suncat0161 pw.x -in pw.inp   Done                     12/26/2018 07:00:45
00018 suncat0161 pw.x -in pw.inp   Done                     12/26/2018 07:00:45
00019 suncat0161 pw.x -in pw.inp   Done                     12/26/2018 07:00:45
00020 suncat0161 pw.x -in pw.inp   Done                     12/26/2018 07:00:45
00021 suncat0161 pw.x -in pw.inp   Done                     12/26/2018 07:00:45
00022 suncat0161 pw.x -in pw.inp   Done                     12/26/2018 07:00:45
00023 suncat0161 pw.x -in pw.inp   Done                     12/26/2018 07:00:45
00024 suncat0159 pw.x -in pw.inp   Done                     12/26/2018 07:00:45
00025 suncat0159 pw.x -in pw.inp   Done                     12/26/2018 07:00:45
00026 suncat0159 pw.x -in pw.inp   Done                     12/26/2018 07:00:45
00027 suncat0159 pw.x -in pw.inp   Done                     12/26/2018 07:00:45
00028 suncat0159 pw.x -in pw.inp   Done                     12/26/2018 07:00:45
00029 suncat0159 pw.x -in pw.inp   Done                     12/26/2018 07:00:45
00030 suncat0159 pw.x -in pw.inp   Done                     12/26/2018 07:00:45
00031 suncat0159 pw.x -in pw.inp   Done                     12/26/2018 07:00:45
00032 suncat0156 pw.x -in pw.inp   Done                     12/26/2018 07:00:45
00033 suncat0156 pw.x -in pw.inp   Done                     12/26/2018 07:00:45
00034 suncat0156 pw.x -in pw.inp   Done                     12/26/2018 07:00:45
00035 suncat0156 pw.x -in pw.inp   Done                     12/26/2018 07:00:45
00036 suncat0156 pw.x -in pw.inp   Done                     12/26/2018 07:00:45
00037 suncat0156 pw.x -in pw.inp   Done                     12/26/2018 07:00:45
00038 suncat0156 pw.x -in pw.inp   Done                     12/26/2018 07:00:45
00039 suncat0156 pw.x -in pw.inp   Done                     12/26/2018 07:00:45
00040 suncat0153 pw.x -in pw.inp   Done                     12/26/2018 07:00:45
00041 suncat0153 pw.x -in pw.inp   Done                     12/26/2018 07:00:45
00042 suncat0153 pw.x -in pw.inp   Done                     12/26/2018 07:00:45
00043 suncat0153 pw.x -in pw.inp   Done                     12/26/2018 07:00:45
00044 suncat0153 pw.x -in pw.inp   Done                     12/26/2018 07:00:45
00045 suncat0153 pw.x -in pw.inp   Done                     12/26/2018 07:00:45
00046 suncat0153 pw.x -in pw.inp   Done                     12/26/2018 07:00:45
00047 suncat0153 pw.x -in pw.inp   Done                     12/26/2018 07:00:45
00048 suncat0114 pw.x -in pw.inp   Done                     12/26/2018 07:00:45
00049 suncat0114 pw.x -in pw.inp   Done                     12/26/2018 07:00:45
00050 suncat0114 pw.x -in pw.inp   Done                     12/26/2018 07:00:45
00051 suncat0114 pw.x -in pw.inp   Done                     12/26/2018 07:00:45
00052 suncat0114 pw.x -in pw.inp   Done                     12/26/2018 07:00:45
00053 suncat0114 pw.x -in pw.inp   Done                     12/26/2018 07:00:45
00054 suncat0114 pw.x -in pw.inp   Done                     12/26/2018 07:00:45
00055 suncat0114 pw.x -in pw.inp   Done                     12/26/2018 07:00:45
00056 suncat0267 pw.x -in pw.inp   Done                     12/26/2018 07:00:45
00057 suncat0267 pw.x -in pw.inp   Done                     12/26/2018 07:00:45
00058 suncat0267 pw.x -in pw.inp   Done                     12/26/2018 07:00:45
00059 suncat0267 pw.x -in pw.inp   Done                     12/26/2018 07:00:45
00060 suncat0267 pw.x -in pw.inp   Done                     12/26/2018 07:00:45
00061 suncat0267 pw.x -in pw.inp   Done                     12/26/2018 07:00:45
00062 suncat0267 pw.x -in pw.inp   Done                     12/26/2018 07:00:45
00063 suncat0267 pw.x -in pw.inp   Done                     12/26/2018 07:00:45

     Program PWSCF v.5.1rc2 (svn rev. 11289) starts on 26Dec2018 at  7: 0:52 

     This program is part of the open-source Quantum ESPRESSO suite
     for quantum simulation of materials; please cite
         "P. Giannozzi et al., J. Phys.:Condens. Matter 21 395502 (2009);
          URL http://www.quantum-espresso.org", 
     in publications or presentations arising from this work. More details at
     http://www.quantum-espresso.org/quote

     Parallel version (MPI), running on    64 processors
     R & G space division:  proc/nbgrp/npool/nimage =      64
     Reading input from pw.inp
     Message from routine read_cards :
     DEPRECATED: no units specified in CELL_PARAMETERS card

     Current dimensions of program PWSCF are:
     Max number of different atomic species (ntypx) = 10
     Max number of k-points (npk) =  40000
     Max angular momentum in pseudopotentials (lmaxx) =  3
     Presently stress not available with electric field


     **************************************************************************
     Initializing libbeef V0.1.1 with the BEEF-vdW functional.
     Citation: Wellendorff et al., PRB 85, 235149 (2012).
     **************************************************************************


     IMPORTANT: XC functional enforced from input :
     Exchange-correlation      = BEEF-VDW ( 1  4 27 13 2)
     Any further DFT definition will be discarded
     Please, verify this is what you really want


     Subspace diagonalization in iterative solution of the eigenvalue problem:
     a serial algorithm will be used

 
     Parallelization info
     --------------------
     sticks:   dense  smooth     PW     G-vecs:    dense   smooth      PW
     Min          54      21      6                10580     2650     424
     Max          55      22      7                10615     2706     441
     Sum        3505    1405    421               678145   171723   27711
 


     bravais-lattice index     =            0
     lattice parameter (alat)  =       1.8897  a.u.
     unit-cell volume          =    5704.6319 (a.u.)^3
     number of atoms/cell      =           12
     number of atomic types    =            2
     number of electrons       =       147.00
     number of Kohn-Sham states=          103
     kinetic-energy cutoff     =      36.7493  Ry
     charge density cutoff     =     367.4932  Ry
     convergence threshold     =      1.0E-06
     mixing beta               =       0.1000
     number of iterations used =           10  plain     mixing
     Exchange-correlation      = BEEF-VDW ( 1  4 27 13 2)
     nstep                     =           50


     celldm(1)=   1.889726  celldm(2)=   0.000000  celldm(3)=   0.000000
     celldm(4)=   0.000000  celldm(5)=   0.000000  celldm(6)=   0.000000

     crystal axes: (cart. coord. in units of alat)
               a(1) = (   6.237034   0.000000   0.000000 )  
               a(2) = (  -3.118517   5.401430   0.000000 )  
               a(3) = (   0.000000   0.000000  25.092517 )  

     reciprocal axes: (cart. coord. in units 2 pi/alat)
               b(1) = (  0.160333  0.092568  0.000000 )  
               b(2) = (  0.000000  0.185136  0.000000 )  
               b(3) = (  0.000000  0.000000  0.039853 )  


     PseudoPot. # 1 for Hf read from file:
     /afs/slac.stanford.edu/u/if/mamunm/psp/gbrv1.5pbe/Hf.UPF
     MD5 check sum: 8ee9378dfe14276e333edf04c5e4aa26
     Pseudo is Ultrasoft + core correction, Zval = 12.0
     Generated by new atomic code, or converted to UPF format
     Using radial grid of  921 points,  8 beta functions with: 
                l(1) =   0
                l(2) =   0
                l(3) =   0
                l(4) =   1
                l(5) =   1
                l(6) =   2
                l(7) =   2
                l(8) =   3
     Q(r) pseudized with  6 coefficients,  rinner =    1.200   1.200   1.200
                                                       1.200   1.200   1.200
                                                       1.200

     PseudoPot. # 2 for Nb read from file:
     /afs/slac.stanford.edu/u/if/mamunm/psp/gbrv1.5pbe/Nb.UPF
     MD5 check sum: 573aab8a2fa660278ed4a62cd769473f
     Pseudo is Ultrasoft + core correction, Zval = 13.0
     Generated by new atomic code, or converted to UPF format
     Using radial grid of  887 points,  6 beta functions with: 
                l(1) =   0
                l(2) =   0
                l(3) =   1
                l(4) =   1
                l(5) =   2
                l(6) =   2
     Q(r) pseudized with  6 coefficients,  rinner =    1.000   1.000   1.000
                                                       1.000   1.000

     vdW kernel table read from file vdW_kernel_table
     MD5 check sum: 095c7af220d748ca6e76c0b4c6cfb241

     atomic species   valence    mass     pseudopotential
        Hf1           12.00   178.49000     Hf( 1.00)
        Nb1           13.00    92.90637     Nb( 1.00)

     No symmetry found



   Cartesian axes

     site n.     atom                  positions (alat units)
         1           Hf1 tau(   1) = (   0.0000000   0.0000000  10.0000000  )
         2           Hf1 tau(   2) = (  -1.5592584   2.7007148  10.0000000  )
         3           Hf1 tau(   3) = (   1.5592584   2.7007148  10.0000000  )
         4           Nb1 tau(   4) = (   3.1185168   0.0000000  10.0000000  )
         5           Hf1 tau(   5) = (   3.1185168   1.8004765  12.5462583  )
         6           Hf1 tau(   6) = (   1.5592584   4.5011913  12.5462583  )
         7           Hf1 tau(   7) = (  -1.5592584   4.5011913  12.5462583  )
         8           Nb1 tau(   8) = (   0.0000000   1.8004765  12.5462583  )
         9           Hf1 tau(   9) = (   0.0000076   3.5843731  15.0653400  )
        10           Hf1 tau(  10) = (   1.5448980   0.9085314  15.0653478  )
        11           Hf1 tau(  11) = (   4.6921369   0.9085215  15.0653402  )
        12           Nb1 tau(  12) = (   3.1185162   3.6009534  14.9992703  )

     number of k points=    20  Fermi-Dirac smearing, width (Ry)=  0.0110
                       cart. coord. in units 2pi/alat
        k(    1) = (   0.0000000   0.0000000   0.0000000), wk =   0.0555556
        k(    2) = (   0.0000000   0.0308560   0.0000000), wk =   0.1111111
        k(    3) = (   0.0000000   0.0617121   0.0000000), wk =   0.1111111
        k(    4) = (   0.0000000  -0.0925681   0.0000000), wk =   0.0555556
        k(    5) = (   0.0267221   0.0154280   0.0000000), wk =   0.1111111
        k(    6) = (   0.0267221   0.0462840   0.0000000), wk =   0.1111111
        k(    7) = (   0.0267221   0.0771401   0.0000000), wk =   0.1111111
        k(    8) = (   0.0267221  -0.0771401   0.0000000), wk =   0.1111111
        k(    9) = (   0.0267221  -0.0462840   0.0000000), wk =   0.1111111
        k(   10) = (   0.0267221  -0.0154280   0.0000000), wk =   0.1111111
        k(   11) = (   0.0534442   0.0308560   0.0000000), wk =   0.1111111
        k(   12) = (   0.0534442   0.0617121   0.0000000), wk =   0.1111111
        k(   13) = (   0.0534442   0.0925681   0.0000000), wk =   0.1111111
        k(   14) = (   0.0534442  -0.0617121   0.0000000), wk =   0.1111111
        k(   15) = (   0.0534442  -0.0308560   0.0000000), wk =   0.1111111
        k(   16) = (   0.0534442   0.0000000   0.0000000), wk =   0.1111111
        k(   17) = (  -0.0801663  -0.0462840   0.0000000), wk =   0.0555556
        k(   18) = (  -0.0801663  -0.0154280   0.0000000), wk =   0.1111111
        k(   19) = (  -0.0801663   0.0154280   0.0000000), wk =   0.1111111
        k(   20) = (  -0.0801663  -0.1388521   0.0000000), wk =   0.0555556

     Dense  grid:   678145 G-vectors     FFT dimensions: (  72,  72, 300)

     Smooth grid:   171723 G-vectors     FFT dimensions: (  45,  45, 192)

     Largest allocated arrays     est. size (Mb)     dimensions
        Kohn-Sham Wavefunctions         0.56 Mb     (     354,  103)
        NL pseudopotentials             1.56 Mb     (     354,  288)
        Each V/rho on FFT grid          0.40 Mb     (   25920)
        Each G-vector array             0.08 Mb     (   10595)
        G-vector shells                 0.04 Mb     (    5158)
     Largest temporary arrays     est. size (Mb)     dimensions
        Auxiliary wavefunctions         2.23 Mb     (     354,  412)
        Each subspace H/S matrix        2.59 Mb     (     412,  412)
        Each <psi_i|beta_j> matrix      0.45 Mb     (     288,  103)
        Arrays for rho mixing           3.96 Mb     (   25920,   10)

     Check: negative/imaginary core charge=   -0.000003    0.000000

     Initial potential from superposition of free atoms
     Check: negative starting charge=   -0.962889

     starting charge  128.99178, renormalised to  147.00000

     negative rho (up, down):  1.097E+00 0.000E+00


     ************************************************************************
     *
     * You are using vdW-DF for exchange-correlation in this calculation.
     * Please cite the following three references that made this development
     * possible:
     *
     *   M. Dion, H. Rydberg, E. Schroder, D. C. Langreth, and
     *   B. I. Lundqvist, Phys. Rev. Lett. 92, 246401 (2004).
     *
     *   T. Thonhauser, V. R. Cooper, S. Li, A. Puzder, P. Hyldgaard, and
     *   D. C. Langreth, Phys. Rev. B 76, 125112 (2007).
     *
     *   G. Roman-Perez and J. M. Soler, Phys. Rev. Lett. 103, 096102 (2009).
     *
     *
     * If you are using vdW-DF2, please also cite:
     *
     *   K. Lee, E. D. Murray, L. Kong, B. I. Lundqvist, and
     *   D. C. Langreth, Phys. Rev. B 82, 081101(R) (2010).
     *
     *
     * If you are calculating the stress with vdW-DF, please also cite:
     *
     *   R. Sabatini, E. Kucukbenli, B. Kolb, T. Thonhauser, and
     *   S. de Gironcoli, J. Phys.: Condens. Matter 24, 424209 (2012).
     *
     ************************************************************************

     Carrying out vdW-DF run using the following parameters:

     Nqs =      20    Nr_points =    1024   r_max =   100.000
     q_mesh =
               0.00001000     0.04494208     0.09755937     0.15916263
               0.23128650     0.31572767     0.41458969     0.53033537
               0.66584808     0.82450364     1.01025438     1.22772762
               1.48234092     1.78043706     2.12944203     2.53805004
               3.01644009     3.57652955     4.23227104     5.00000000

     Gradients computed in reciprocal space

     ************************************************************************


 
     Adding external electric field

     Computed dipole along edir(3) : 
        Dipole                0.2262 Ry au,          0.5750 Debye
        Dipole field          0.0005 Ry au
 
        Potential amp.       -0.0461 Ry
        Total length         46.2325 bohr
 
     Starting wfc are  156 randomized atomic wfcs

     total cpu time spent up to now is       30.3 secs

     per-process dynamical memory:    41.9 Mb

     Self-consistent Calculation

     iteration #  1     ecut=    36.75 Ry     beta=0.10
     Davidson diagonalization with overlap
     ethr =  1.00E-02,  avg # of iterations =  7.7

     negative rho (up, down):  1.076E+00 0.000E+00
 
     Adding external electric field

     Computed dipole along edir(3) : 
        Dipole               -4.1981 Ry au,        -10.6706 Debye
        Dipole field         -0.0092 Ry au
 
        Potential amp.        0.8551 Ry
        Total length         46.2325 bohr
 

     total cpu time spent up to now is      131.4 secs

     total energy              =   -1795.60920374 Ry
     Harris-Foulkes estimate   =   -1812.60629688 Ry
     estimated scf accuracy    <      98.81882982 Ry

     iteration #  2     ecut=    36.75 Ry     beta=0.10
     Davidson diagonalization with overlap
     ethr =  1.00E-02,  avg # of iterations =  4.7

     negative rho (up, down):  1.069E+00 0.000E+00
 
     Adding external electric field

     Computed dipole along edir(3) : 
        Dipole                0.4280 Ry au,          1.0878 Debye
        Dipole field          0.0009 Ry au
 
        Potential amp.       -0.0872 Ry
        Total length         46.2325 bohr
 

     total cpu time spent up to now is      199.8 secs

     total energy              =   -1801.49635845 Ry
     Harris-Foulkes estimate   =   -1810.25254240 Ry
     estimated scf accuracy    <      93.03406202 Ry

     iteration #  3     ecut=    36.75 Ry     beta=0.10
     Davidson diagonalization with overlap
     ethr =  1.00E-02,  avg # of iterations =  3.8

     negative rho (up, down):  1.062E+00 0.000E+00
 
     Adding external electric field

     Computed dipole along edir(3) : 
        Dipole               -2.2869 Ry au,         -5.8126 Debye
        Dipole field         -0.0050 Ry au
 
        Potential amp.        0.4658 Ry
        Total length         46.2325 bohr
 

     total cpu time spent up to now is      253.5 secs

     total energy              =   -1802.14027044 Ry
     Harris-Foulkes estimate   =   -1809.07532171 Ry
     estimated scf accuracy    <     135.97323757 Ry

     iteration #  4     ecut=    36.75 Ry     beta=0.10
     Davidson diagonalization with overlap
     ethr =  1.00E-02,  avg # of iterations =  2.1

     negative rho (up, down):  1.042E+00 0.000E+00
 
     Adding external electric field

     Computed dipole along edir(3) : 
        Dipole               -0.3648 Ry au,         -0.9272 Debye
        Dipole field         -0.0008 Ry au
 
        Potential amp.        0.0743 Ry
        Total length         46.2325 bohr
 

     total cpu time spent up to now is      299.0 secs

     total energy              =   -1801.20655755 Ry
     Harris-Foulkes estimate   =   -1804.97329811 Ry
     estimated scf accuracy    <      21.51512809 Ry

     iteration #  5     ecut=    36.75 Ry     beta=0.10
     Davidson diagonalization with overlap
     ethr =  1.00E-02,  avg # of iterations =  2.0

     negative rho (up, down):  1.038E+00 0.000E+00
 
     Adding external electric field

     Computed dipole along edir(3) : 
        Dipole               -1.7259 Ry au,         -4.3868 Debye
        Dipole field         -0.0038 Ry au
 
        Potential amp.        0.3515 Ry
        Total length         46.2325 bohr
 

     total cpu time spent up to now is      346.4 secs

     total energy              =   -1801.04964268 Ry
     Harris-Foulkes estimate   =   -1803.11258689 Ry
     estimated scf accuracy    <      35.19325014 Ry

     iteration #  6     ecut=    36.75 Ry     beta=0.10
     Davidson diagonalization with overlap
     ethr =  1.00E-02,  avg # of iterations =  1.0

     negative rho (up, down):  1.023E+00 0.000E+00
 
     Adding external electric field

     Computed dipole along edir(3) : 
        Dipole               -0.7437 Ry au,         -1.8902 Debye
        Dipole field         -0.0016 Ry au
 
        Potential amp.        0.1515 Ry
        Total length         46.2325 bohr
 

     total cpu time spent up to now is      385.9 secs

     total energy              =   -1800.84040650 Ry
     Harris-Foulkes estimate   =   -1802.35579631 Ry
     estimated scf accuracy    <      18.94518351 Ry

     iteration #  7     ecut=    36.75 Ry     beta=0.10
     Davidson diagonalization with overlap
     ethr =  1.00E-02,  avg # of iterations =  1.0

     negative rho (up, down):  1.011E+00 0.000E+00
 
     Adding external electric field

     Computed dipole along edir(3) : 
        Dipole               -0.4546 Ry au,         -1.1554 Debye
        Dipole field         -0.0010 Ry au
 
        Potential amp.        0.0926 Ry
        Total length         46.2325 bohr
 

     total cpu time spent up to now is      426.5 secs

     total energy              =   -1800.21024288 Ry
     Harris-Foulkes estimate   =   -1801.20525034 Ry
     estimated scf accuracy    <       3.64034391 Ry

     iteration #  8     ecut=    36.75 Ry     beta=0.10
     Davidson diagonalization with overlap
     ethr =  2.48E-03,  avg # of iterations =  2.0

     negative rho (up, down):  1.006E+00 0.000E+00
 
     Adding external electric field

     Computed dipole along edir(3) : 
        Dipole               -0.1437 Ry au,         -0.3652 Debye
        Dipole field         -0.0003 Ry au
 
        Potential amp.        0.0293 Ry
        Total length         46.2325 bohr
 

     total cpu time spent up to now is      473.9 secs

     total energy              =   -1800.17843719 Ry
     Harris-Foulkes estimate   =   -1800.81578414 Ry
     estimated scf accuracy    <       4.23667541 Ry

     iteration #  9     ecut=    36.75 Ry     beta=0.10
     Davidson diagonalization with overlap
     ethr =  2.48E-03,  avg # of iterations =  1.0

     negative rho (up, down):  1.006E+00 0.000E+00
 
     Adding external electric field

     Computed dipole along edir(3) : 
        Dipole               -0.2638 Ry au,         -0.6705 Debye
        Dipole field         -0.0006 Ry au
 
        Potential amp.        0.0537 Ry
        Total length         46.2325 bohr
 

     total cpu time spent up to now is      521.8 secs

     total energy              =   -1800.46523165 Ry
     Harris-Foulkes estimate   =   -1800.54047141 Ry
     estimated scf accuracy    <       2.36833029 Ry

     iteration # 10     ecut=    36.75 Ry     beta=0.10
     Davidson diagonalization with overlap
     ethr =  1.61E-03,  avg # of iterations =  1.0

     negative rho (up, down):  1.008E+00 0.000E+00
 
     Adding external electric field

     Computed dipole along edir(3) : 
        Dipole               -0.1197 Ry au,         -0.3042 Debye
        Dipole field         -0.0003 Ry au
 
        Potential amp.        0.0244 Ry
        Total length         46.2325 bohr
 

     total cpu time spent up to now is      569.0 secs

     total energy              =   -1800.46866117 Ry
     Harris-Foulkes estimate   =   -1800.50094725 Ry
     estimated scf accuracy    <       0.15730820 Ry

     iteration # 11     ecut=    36.75 Ry     beta=0.10
     Davidson diagonalization with overlap
     ethr =  1.07E-04,  avg # of iterations =  7.4

     negative rho (up, down):  1.010E+00 0.000E+00
 
     Adding external electric field

     Computed dipole along edir(3) : 
        Dipole               -0.2303 Ry au,         -0.5853 Debye
        Dipole field         -0.0005 Ry au
 
        Potential amp.        0.0469 Ry
        Total length         46.2325 bohr
 

     total cpu time spent up to now is      630.9 secs

     total energy              =   -1800.46639703 Ry
     Harris-Foulkes estimate   =   -1800.50503297 Ry
     estimated scf accuracy    <       0.98926573 Ry

     iteration # 12     ecut=    36.75 Ry     beta=0.10
     Davidson diagonalization with overlap
     ethr =  1.07E-04,  avg # of iterations =  1.6

     negative rho (up, down):  1.015E+00 0.000E+00
 
     Adding external electric field

     Computed dipole along edir(3) : 
        Dipole               -0.1102 Ry au,         -0.2801 Debye
        Dipole field         -0.0002 Ry au
 
        Potential amp.        0.0224 Ry
        Total length         46.2325 bohr
 

     total cpu time spent up to now is      673.7 secs

     total energy              =   -1800.47697075 Ry
     Harris-Foulkes estimate   =   -1800.48995240 Ry
     estimated scf accuracy    <       0.37365862 Ry

     iteration # 13     ecut=    36.75 Ry     beta=0.10
     Davidson diagonalization with overlap
     ethr =  1.07E-04,  avg # of iterations =  1.0

     negative rho (up, down):  1.015E+00 0.000E+00
 
     Adding external electric field

     Computed dipole along edir(3) : 
        Dipole               -0.0586 Ry au,         -0.1490 Debye
        Dipole field         -0.0001 Ry au
 
        Potential amp.        0.0119 Ry
        Total length         46.2325 bohr
 

     total cpu time spent up to now is      708.9 secs

     total energy              =   -1800.48172974 Ry
     Harris-Foulkes estimate   =   -1800.48373140 Ry
     estimated scf accuracy    <       0.03133594 Ry

     iteration # 14     ecut=    36.75 Ry     beta=0.10
     Davidson diagonalization with overlap
[...]
    -3.5737  -2.7171  -2.2495  -1.9079  -1.5841  -1.1440  -1.0066  -0.7325
    -0.4912  -0.4109  -0.0903   0.0495   0.1001   0.1527   0.2329   0.4079
     0.5242   0.6439   0.6667   0.8128   0.9007   0.9483   1.0098   1.0931
     1.1729   1.3375   1.4196   1.5229   1.6166   1.6489   1.7302   1.7581
     1.8418   2.1348   2.3480   2.5122   2.6625   2.7739   2.9631   3.0827
     3.2136   3.4170   3.5980   3.6581   3.7953   3.9152   3.9665   4.1269
     4.2376   4.4409   4.5842   4.7330   4.8853   5.0952   5.1989

          k = 0.0534 0.0926 0.0000 ( 21456 PWs)   bands (ev):

   -60.9943 -60.9884 -60.9831 -60.9829 -60.9730 -60.9650 -60.4801 -60.4799
   -60.4620 -53.4724 -53.4323 -53.3523 -29.7968 -29.7038 -29.6908 -29.6864
   -29.6695 -29.6614 -29.6362 -29.6212 -29.6110 -29.6068 -29.5730 -29.5550
   -29.5538 -29.5530 -29.5351 -29.5312 -29.5201 -29.4970 -29.4140 -29.4097
   -29.3145 -29.3089 -29.3049 -29.2928 -29.2918 -29.2909 -29.2661 -29.1003
   -29.0797 -29.0549 -28.9430 -28.9327 -28.9273 -28.8997 -28.8695 -28.8357
    -2.8376  -2.8329  -2.6492  -1.7191  -1.4765  -1.4604  -0.4779  -0.4010
    -0.3032  -0.1865  -0.1293  -0.0821   0.2978   0.3233   0.3724   0.4042
     0.4777   0.5436   0.5485   0.5925   0.7191   0.7626   0.8332   1.0311
     1.2315   1.2512   1.2943   1.3641   1.3983   1.4210   1.6383   1.6715
     1.6818   1.8625   2.4965   2.5660   2.8519   3.0059   3.0901   3.1406
     3.2550   3.2630   3.3736   3.4345   3.6351   3.9079   4.0972   4.1172
     4.4136   4.6530   4.6714   4.8150   5.1491   5.1619   5.1735

          k = 0.0534-0.0617 0.0000 ( 21446 PWs)   bands (ev):

   -60.9980 -60.9890 -60.9846 -60.9770 -60.9730 -60.9650 -60.4860 -60.4740
   -60.4620 -53.4724 -53.4323 -53.3522 -29.8168 -29.7423 -29.7248 -29.7129
   -29.6930 -29.6888 -29.6639 -29.6444 -29.6160 -29.5902 -29.5838 -29.5734
   -29.5688 -29.5355 -29.5165 -29.4870 -29.4498 -29.4321 -29.4157 -29.4000
   -29.3628 -29.3493 -29.2996 -29.2887 -29.2785 -29.2403 -29.2334 -29.1415
   -29.0695 -28.9966 -28.9565 -28.9417 -28.9297 -28.9071 -28.8744 -28.8003
    -3.5737  -2.7171  -2.2495  -1.9079  -1.5841  -1.1440  -1.0066  -0.7325
    -0.4912  -0.4109  -0.0903   0.0495   0.1001   0.1527   0.2329   0.4079
     0.5242   0.6439   0.6667   0.8128   0.9007   0.9483   1.0098   1.0931
     1.1729   1.3375   1.4196   1.5229   1.6166   1.6489   1.7302   1.7581
     1.8418   2.1348   2.3480   2.5122   2.6625   2.7738   2.9631   3.0827
     3.2136   3.4170   3.5980   3.6581   3.7953   3.9152   3.9665   4.1269
     4.2376   4.4409   4.5842   4.7330   4.8853   5.0952   5.1989

          k = 0.0534-0.0309 0.0000 ( 21438 PWs)   bands (ev):

   -61.0022 -60.9933 -60.9805 -60.9730 -60.9726 -60.9650 -60.4904 -60.4696
   -60.4620 -53.4724 -53.4323 -53.3522 -29.8489 -29.7735 -29.7696 -29.7601
   -29.7254 -29.7230 -29.7053 -29.6981 -29.6563 -29.6140 -29.5971 -29.5802
   -29.5570 -29.4814 -29.4424 -29.4355 -29.4217 -29.4187 -29.3924 -29.3904
   -29.3452 -29.3253 -29.2951 -29.2923 -29.2811 -29.2086 -29.2001 -29.1662
   -29.0598 -28.9894 -28.9480 -28.9439 -28.9125 -28.8980 -28.8684 -28.7748
    -4.1134  -2.8026  -2.3919  -1.6655  -1.5910  -1.3763  -1.1563  -1.1165
    -0.8139  -0.6546  -0.3307  -0.2006  -0.1476  -0.1152  -0.0146   0.4067
     0.4944   0.5675   0.8855   1.0967   1.1084   1.1446   1.2542   1.3605
     1.5621   1.6024   1.6698   1.8501   1.9087   1.9574   2.0366   2.0401
     2.1464   2.1559   2.3225   2.5057   2.5770   2.6750   2.9186   2.9733
     3.0890   3.1844   3.4832   3.5534   3.8454   4.0238   4.1196   4.2326
     4.4469   4.6393   4.6577   4.8506   4.9222   5.1572   5.3334

          k = 0.0534 0.0000 0.0000 ( 21463 PWs)   bands (ev):

   -61.0038 -60.9949 -60.9789 -60.9730 -60.9710 -60.9650 -60.4920 -60.4680
   -60.4620 -53.4724 -53.4323 -53.3522 -29.8617 -29.7924 -29.7795 -29.7685
   -29.7591 -29.7241 -29.7128 -29.7123 -29.7045 -29.6150 -29.6054 -29.5747
   -29.5549 -29.4721 -29.4451 -29.4400 -29.4212 -29.4020 -29.3497 -29.3346
   -29.3268 -29.3253 -29.3054 -29.2884 -29.2850 -29.2011 -29.1962 -29.1717
   -29.0596 -28.9887 -28.9455 -28.9450 -28.9099 -28.8955 -28.8366 -28.7776
    -4.3030  -2.9589  -2.0086  -1.9810  -1.6912  -1.4551  -1.3368  -1.1101
    -0.8862  -0.6026  -0.5782  -0.3124  -0.2772  -0.2203  -0.1773   0.4134
     0.4515   0.5348   1.0087   1.2028   1.2487   1.2632   1.3599   1.3843
     1.6818   1.7373   1.8118   1.9613   1.9822   2.0079   2.0497   2.2204
     2.2567   2.3101   2.3530   2.5406   2.6330   2.7426   2.8034   2.9988
     3.0668   3.0973   3.3851   3.5457   3.8071   4.0599   4.1464   4.4403
     4.5409   4.6786   4.7803   4.9474   5.1500   5.2164   5.2476

          k =-0.0802-0.0463 0.0000 ( 21460 PWs)   bands (ev):

   -60.9980 -60.9890 -60.9847 -60.9770 -60.9730 -60.9650 -60.4860 -60.4740
   -60.4620 -53.4724 -53.4323 -53.3522 -29.8203 -29.7415 -29.7280 -29.7222
   -29.7075 -29.6953 -29.6569 -29.6526 -29.6177 -29.5727 -29.5699 -29.5455
   -29.5175 -29.5094 -29.5048 -29.4936 -29.4796 -29.4634 -29.4325 -29.4081
   -29.3964 -29.3949 -29.2901 -29.2630 -29.2515 -29.2419 -29.2262 -29.1552
   -29.0222 -29.0131 -28.9779 -28.9422 -28.9257 -28.9172 -28.8863 -28.7829
    -3.3228  -3.2245  -2.1044  -1.9587  -1.1929  -1.1867  -0.9565  -0.8399
    -0.6692  -0.5343  -0.0531   0.1906   0.2029   0.2209   0.3570   0.4152
     0.5720   0.6403   0.6653   0.7726   0.8370   0.9938   1.0776   1.0797
     1.1945   1.2364   1.3356   1.4351   1.5348   1.6163   1.7242   1.8338
     1.9588   2.2444   2.2697   2.4497   2.4539   2.6313   3.0731   3.1487
     3.2263   3.5291   3.5852   3.6981   3.8063   3.9526   4.1070   4.1922
     4.2698   4.2945   4.4991   4.6151   4.6181   4.7825   4.9418

          k =-0.0802-0.0154 0.0000 ( 21446 PWs)   bands (ev):

   -60.9980 -60.9890 -60.9846 -60.9770 -60.9730 -60.9650 -60.4860 -60.4740
   -60.4620 -53.4724 -53.4323 -53.3522 -29.8168 -29.7423 -29.7248 -29.7129
   -29.6930 -29.6888 -29.6639 -29.6444 -29.6160 -29.5902 -29.5838 -29.5734
   -29.5688 -29.5355 -29.5165 -29.4870 -29.4498 -29.4321 -29.4157 -29.4000
   -29.3628 -29.3493 -29.2996 -29.2887 -29.2785 -29.2403 -29.2334 -29.1415
   -29.0695 -28.9966 -28.9565 -28.9417 -28.9297 -28.9071 -28.8744 -28.8003
    -3.5737  -2.7171  -2.2495  -1.9079  -1.5841  -1.1440  -1.0066  -0.7325
    -0.4912  -0.4109  -0.0903   0.0495   0.1001   0.1527   0.2329   0.4079
     0.5242   0.6439   0.6667   0.8128   0.9007   0.9483   1.0098   1.0931
     1.1729   1.3375   1.4196   1.5229   1.6166   1.6489   1.7302   1.7581
     1.8418   2.1348   2.3480   2.5122   2.6625   2.7739   2.9631   3.0827
     3.2136   3.4170   3.5980   3.6581   3.7953   3.9152   3.9665   4.1269
     4.2376   4.4409   4.5842   4.7330   4.8853   5.0952   5.1989

          k =-0.0802 0.0154 0.0000 ( 21446 PWs)   bands (ev):

   -60.9980 -60.9890 -60.9846 -60.9770 -60.9730 -60.9650 -60.4860 -60.4740
   -60.4620 -53.4724 -53.4323 -53.3522 -29.8168 -29.7423 -29.7248 -29.7129
   -29.6930 -29.6888 -29.6639 -29.6444 -29.6160 -29.5902 -29.5838 -29.5734
   -29.5688 -29.5355 -29.5165 -29.4870 -29.4498 -29.4321 -29.4157 -29.4000
   -29.3628 -29.3493 -29.2996 -29.2887 -29.2785 -29.2403 -29.2334 -29.1415
   -29.0695 -28.9966 -28.9565 -28.9417 -28.9297 -28.9071 -28.8744 -28.8003
    -3.5737  -2.7171  -2.2495  -1.9079  -1.5841  -1.1440  -1.0066  -0.7325
    -0.4912  -0.4109  -0.0903   0.0495   0.1001   0.1527   0.2329   0.4079
     0.5242   0.6439   0.6667   0.8128   0.9007   0.9483   1.0098   1.0931
     1.1729   1.3375   1.4196   1.5229   1.6166   1.6489   1.7302   1.7581
     1.8418   2.1348   2.3480   2.5122   2.6625   2.7738   2.9631   3.0827
     3.2136   3.4170   3.5980   3.6581   3.7953   3.9152   3.9665   4.1269
     4.2376   4.4409   4.5842   4.7330   4.8853   5.0952   5.1990

          k =-0.0802-0.1389 0.0000 ( 21460 PWs)   bands (ev):

   -60.9980 -60.9890 -60.9847 -60.9770 -60.9730 -60.9650 -60.4860 -60.4741
   -60.4620 -53.4724 -53.4323 -53.3522 -29.8203 -29.7415 -29.7280 -29.7222
   -29.7075 -29.6953 -29.6569 -29.6526 -29.6177 -29.5727 -29.5699 -29.5455
   -29.5175 -29.5094 -29.5048 -29.4936 -29.4796 -29.4634 -29.4325 -29.4081
   -29.3964 -29.3949 -29.2901 -29.2630 -29.2515 -29.2419 -29.2262 -29.1552
   -29.0222 -29.0131 -28.9779 -28.9422 -28.9257 -28.9172 -28.8863 -28.7829
    -3.3228  -3.2245  -2.1044  -1.9587  -1.1929  -1.1867  -0.9565  -0.8399
    -0.6692  -0.5343  -0.0531   0.1906   0.2029   0.2209   0.3570   0.4152
     0.5720   0.6403   0.6653   0.7726   0.8370   0.9938   1.0776   1.0797
     1.1945   1.2364   1.3356   1.4351   1.5348   1.6163   1.7242   1.8338
     1.9589   2.2444   2.2697   2.4497   2.4539   2.6313   3.0731   3.1487
     3.2263   3.5291   3.5852   3.6981   3.8063   3.9526   4.1070   4.1922
     4.2698   4.2945   4.4991   4.6151   4.6182   4.7825   4.9417

     the Fermi energy is     1.5210 ev

!    total energy              =   -1800.48789896 Ry
     Harris-Foulkes estimate   =   -1800.48789830 Ry
     estimated scf accuracy    <       0.00000053 Ry

     The total energy is the sum of the following terms:

     one-electron contribution =   -9292.92586197 Ry
     hartree contribution      =    4631.97457447 Ry
     xc contribution           =    -753.20075337 Ry
     ewald contribution        =    3613.77450794 Ry
     electric field correction =       0.00000220 Ry
     smearing contrib. (-TS)   =      -0.11036822 Ry

     convergence has been achieved in  23 iterations
 
 BEEF-vdW xc energy contributions
           1 :   -678.616178027701     
           2 :    630.037263822941     
           3 :   -544.054156811956     
           4 :    438.706895802084     
           5 :   -332.738210627175     
           6 :    240.210101159993     
           7 :   -168.019213884254     
           8 :    116.569539247428     
           9 :   -82.4193040469579     
          10 :    61.0525289211304     
          11 :   -48.5173303742829     
          12 :    41.6778604119752     
          13 :   -37.7527570582035     
          14 :    33.9886438581204     
          15 :   -27.9566957496263     
          16 :    18.2992587964874     
          17 :   -5.38040601607418     
          18 :   -8.71164848398473     
          19 :    20.9440822014311     
          20 :   -28.5801924011264     
          21 :    30.2713663532414     
          22 :   -26.4983843291473     
          23 :    19.2177426029825     
          24 :   -10.9959940236641     
          25 :    4.10817992795637     
          26 :   5.722888111108659E-003
          27 :  -0.835987102733611     
          28 :   -1.38480066555485     
          29 :    5.90224117252660     
          30 :   -11.5719865370272     
          31 :   -50.7747526382327     
          32 :   -36.7507375091417     

     Forces acting on atoms (Ry/au):


     negative rho (up, down):  1.022E+00 0.000E+00
     atom    1 type  1   force =    -0.00000078    0.00612774    0.00834752
     atom    2 type  1   force =     0.00531062   -0.00306276    0.00834483
     atom    3 type  1   force =    -0.00530955   -0.00306139    0.00834693
     atom    4 type  2   force =     0.00000041   -0.00000056    0.03084419
     atom    5 type  1   force =    -0.00000153   -0.00738085   -0.01674723
     atom    6 type  1   force =    -0.00639051    0.00368931   -0.01675195
     atom    7 type  1   force =     0.00639066    0.00369195   -0.01674625
     atom    8 type  2   force =     0.00000056   -0.00000045   -0.00379313
     atom    9 type  1   force =    -0.00000023    0.00020530   -0.00053597
     atom   10 type  1   force =     0.00017634   -0.00010485   -0.00053836
     atom   11 type  1   force =    -0.00017619   -0.00010412   -0.00053473
     atom   12 type  2   force =     0.00000021    0.00000067   -0.00023584

     Total force =     0.047890     Total SCF correction =     0.002775


     entering subroutine stress ...


     negative rho (up, down):  1.022E+00 0.000E+00
          total   stress  (Ry/bohr**3)                   (kbar)     P=  -12.78
  -0.00009483   0.00000000  -0.00000000        -13.95      0.00     -0.00
   0.00000000  -0.00009483  -0.00000000          0.00    -13.95     -0.00
  -0.00000000  -0.00000000  -0.00007104         -0.00     -0.00    -10.45

 !ASE

     Writing output data file calc.save
 
     init_run     :     15.90s CPU     26.37s WALL (       1 calls)
     electrons    :    790.73s CPU   1283.01s WALL (       1 calls)
     forces       :      3.38s CPU      4.12s WALL (       1 calls)
     stress       :      8.68s CPU     10.17s WALL (       1 calls)

     Called by init_run:
     wfcinit      :     13.33s CPU     22.82s WALL (       1 calls)
     potinit      :      1.08s CPU      1.75s WALL (       1 calls)

     Called by electrons:
     c_bands      :    611.41s CPU    989.34s WALL (      23 calls)
     sum_band     :    111.53s CPU    190.20s WALL (      23 calls)
     v_of_rho     :     23.12s CPU     37.92s WALL (      24 calls)
     newd         :     12.18s CPU     12.97s WALL (      24 calls)
     mix_rho      :      0.96s CPU      1.64s WALL (      23 calls)
     vdW_energy   :      1.90s CPU      1.92s WALL (      60 calls)
     vdW_ffts     :     37.15s CPU     62.54s WALL (     122 calls)
     vdW_v        :      6.27s CPU     10.02s WALL (      60 calls)

     Called by c_bands:
     init_us_2    :      0.79s CPU      0.83s WALL (     980 calls)
     cegterg      :    600.51s CPU    976.75s WALL (     460 calls)

     Called by *egterg:
     h_psi        :    449.76s CPU    809.36s WALL (    1937 calls)
     s_psi        :     11.12s CPU     11.39s WALL (    1937 calls)
     g_psi        :      0.46s CPU      0.48s WALL (    1457 calls)
     cdiaghg      :     92.86s CPU     96.80s WALL (    1917 calls)

     Called by h_psi:
     add_vuspsi   :     11.56s CPU     11.65s WALL (    1937 calls)

     General routines
     calbec       :     30.33s CPU     40.02s WALL (    2437 calls)
     fft          :     55.46s CPU     93.98s WALL (    3687 calls)
     ffts         :      0.19s CPU      0.31s WALL (      47 calls)
     fftw         :    496.89s CPU    922.70s WALL (  270114 calls)
     interpolate  :      0.81s CPU      1.45s WALL (      47 calls)
     davcio       :      0.00s CPU      0.01s WALL (      20 calls)
 
     Parallel routines
     fft_scatter  :    525.97s CPU    986.81s WALL (  273848 calls)
 
     PWSCF        : 13m39.79s CPU    22m 5.46s WALL

 
   This run was terminated on:   8:25:51  26Dec2018            

=------------------------------------------------------------------------------=
   JOB DONE.
=------------------------------------------------------------------------------=
Job  /afs/slac/g/suncat/bin/suncat-tsmpirun -x LD_LIBRARY_PATH -wdir /scratch/qe109749_Z3ViL pw.x -in pw.inp

TID   HOST_NAME   COMMAND_LINE            STATUS            TERMINATION_TIME
===== ========== ================  =======================  ===================
00000 suncat0169 pw.x -in pw.inp   Done                     12/26/2018 08:25:52
00001 suncat0169 pw.x -in pw.inp   Done                     12/26/2018 08:25:52
00002 suncat0169 pw.x -in pw.inp   Done                     12/26/2018 08:25:52
00003 suncat0169 pw.x -in pw.inp   Done                     12/26/2018 08:25:52
00004 suncat0169 pw.x -in pw.inp   Done                     12/26/2018 08:25:52
00005 suncat0169 pw.x -in pw.inp   Done                     12/26/2018 08:25:52
00006 suncat0169 pw.x -in pw.inp   Done                     12/26/2018 08:25:52
00007 suncat0169 pw.x -in pw.inp   Done                     12/26/2018 08:25:52
00008 suncat0168 pw.x -in pw.inp   Done                     12/26/2018 08:25:52
00009 suncat0168 pw.x -in pw.inp   Done                     12/26/2018 08:25:52
00010 suncat0168 pw.x -in pw.inp   Done                     12/26/2018 08:25:52
00011 suncat0168 pw.x -in pw.inp   Done                     12/26/2018 08:25:52
00012 suncat0168 pw.x -in pw.inp   Done                     12/26/2018 08:25:52
00013 suncat0168 pw.x -in pw.inp   Done                     12/26/2018 08:25:52
00014 suncat0168 pw.x -in pw.inp   Done                     12/26/2018 08:25:52
00015 suncat0168 pw.x -in pw.inp   Done                     12/26/2018 08:25:52
00016 suncat0161 pw.x -in pw.inp   Done                     12/26/2018 08:25:52
00017 suncat0161 pw.x -in pw.inp   Done                     12/26/2018 08:25:52
00018 suncat0161 pw.x -in pw.inp   Done                     12/26/2018 08:25:52
00019 suncat0161 pw.x -in pw.inp   Done                     12/26/2018 08:25:52
00020 suncat0161 pw.x -in pw.inp   Done                     12/26/2018 08:25:52
00021 suncat0161 pw.x -in pw.inp   Done                     12/26/2018 08:25:52
00022 suncat0161 pw.x -in pw.inp   Done                     12/26/2018 08:25:52
00023 suncat0161 pw.x -in pw.inp   Done                     12/26/2018 08:25:52
00024 suncat0159 pw.x -in pw.inp   Done                     12/26/2018 08:25:52
00025 suncat0159 pw.x -in pw.inp   Done                     12/26/2018 08:25:52
00026 suncat0159 pw.x -in pw.inp   Done                     12/26/2018 08:25:52
00027 suncat0159 pw.x -in pw.inp   Done                     12/26/2018 08:25:52
00028 suncat0159 pw.x -in pw.inp   Done                     12/26/2018 08:25:52
00029 suncat0159 pw.x -in pw.inp   Done                     12/26/2018 08:25:52
00030 suncat0159 pw.x -in pw.inp   Done                     12/26/2018 08:25:52
00031 suncat0159 pw.x -in pw.inp   Done                     12/26/2018 08:25:52
00032 suncat0156 pw.x -in pw.inp   Done                     12/26/2018 08:25:52
00033 suncat0156 pw.x -in pw.inp   Done                     12/26/2018 08:25:52
00034 suncat0156 pw.x -in pw.inp   Done                     12/26/2018 08:25:52
00035 suncat0156 pw.x -in pw.inp   Done                     12/26/2018 08:25:52
00036 suncat0156 pw.x -in pw.inp   Done                     12/26/2018 08:25:52
00037 suncat0156 pw.x -in pw.inp   Done                     12/26/2018 08:25:52
00038 suncat0156 pw.x -in pw.inp   Done                     12/26/2018 08:25:52
00039 suncat0156 pw.x -in pw.inp   Done                     12/26/2018 08:25:52
00040 suncat0153 pw.x -in pw.inp   Done                     12/26/2018 08:25:52
00041 suncat0153 pw.x -in pw.inp   Done                     12/26/2018 08:25:52
00042 suncat0153 pw.x -in pw.inp   Done                     12/26/2018 08:25:52
00043 suncat0153 pw.x -in pw.inp   Done                     12/26/2018 08:25:52
00044 suncat0153 pw.x -in pw.inp   Done                     12/26/2018 08:25:52
00045 suncat0153 pw.x -in pw.inp   Done                     12/26/2018 08:25:52
00046 suncat0153 pw.x -in pw.inp   Done                     12/26/2018 08:25:52
00047 suncat0153 pw.x -in pw.inp   Done                     12/26/2018 08:25:52
00048 suncat0114 pw.x -in pw.inp   Done                     12/26/2018 08:25:52
00049 suncat0114 pw.x -in pw.inp   Done                     12/26/2018 08:25:52
00050 suncat0114 pw.x -in pw.inp   Done                     12/26/2018 08:25:52
00051 suncat0114 pw.x -in pw.inp   Done                     12/26/2018 08:25:52
00052 suncat0114 pw.x -in pw.inp   Done                     12/26/2018 08:25:52
00053 suncat0114 pw.x -in pw.inp   Done                     12/26/2018 08:25:52
00054 suncat0114 pw.x -in pw.inp   Done                     12/26/2018 08:25:52
00055 suncat0114 pw.x -in pw.inp   Done                     12/26/2018 08:25:52
00056 suncat0267 pw.x -in pw.inp   Done                     12/26/2018 08:25:52
00057 suncat0267 pw.x -in pw.inp   Done                     12/26/2018 08:25:52
00058 suncat0267 pw.x -in pw.inp   Done                     12/26/2018 08:25:52
00059 suncat0267 pw.x -in pw.inp   Done                     12/26/2018 08:25:52
00060 suncat0267 pw.x -in pw.inp   Done                     12/26/2018 08:25:52
00061 suncat0267 pw.x -in pw.inp   Done                     12/26/2018 08:25:52
00062 suncat0267 pw.x -in pw.inp   Done                     12/26/2018 08:25:52
00063 suncat0267 pw.x -in pw.inp   Done                     12/26/2018 08:25:52
