  python dir          : /u/if/mamunm/src/espresso
  espresso dir        : /nfs/slac/g/suncatfs/sw/espv18/espresso-dynpy-beef/bin
  pseudo dir          : /afs/slac.stanford.edu/u/if/mamunm/psp/gbrv1.5pbe
  ase-espresso py git : GITVERSION



     Program PWSCF v.5.1rc2 (svn rev. 11289) starts on 30Dec2018 at 13:38:21 

     This program is part of the open-source Quantum ESPRESSO suite
     for quantum simulation of materials; please cite
         "P. Giannozzi et al., J. Phys.:Condens. Matter 21 395502 (2009);
          URL http://www.quantum-espresso.org", 
     in publications or presentations arising from this work. More details at
     http://www.quantum-espresso.org/quote

     Parallel version (MPI), running on    64 processors
     R & G space division:  proc/nbgrp/npool/nimage =      64
     Reading input from pw.inp
     Message from routine read_cards :
     DEPRECATED: no units specified in CELL_PARAMETERS card

     Current dimensions of program PWSCF are:
     Max number of different atomic species (ntypx) = 10
     Max number of k-points (npk) =  40000
     Max angular momentum in pseudopotentials (lmaxx) =  3
     Presently stress not available with electric field


     **************************************************************************
     Initializing libbeef V0.1.1 with the BEEF-vdW functional.
     Citation: Wellendorff et al., PRB 85, 235149 (2012).
     **************************************************************************


     IMPORTANT: XC functional enforced from input :
     Exchange-correlation      = BEEF-VDW ( 1  4 27 13 2)
     Any further DFT definition will be discarded
     Please, verify this is what you really want


     Subspace diagonalization in iterative solution of the eigenvalue problem:
     a serial algorithm will be used

 
     Parallelization info
     --------------------
     sticks:   dense  smooth     PW     G-vecs:    dense   smooth      PW
     Min          37      14      4                 6921     1732     286
     Max          39      15      5                 6938     1775     311
     Sum        2395     955    295               443421   112275   19039
 
     Generating pointlists ...
     new r_m :   0.4125 (alat units)  0.7795 (a.u.) for type    1
     new r_m :   0.4125 (alat units)  0.7795 (a.u.) for type    2


     bravais-lattice index     =            0
     lattice parameter (alat)  =       1.8897  a.u.
     unit-cell volume          =    3726.8144 (a.u.)^3
     number of atoms/cell      =           12
     number of atomic types    =            2
     number of electrons       =       192.00
     number of Kohn-Sham states=          126
     kinetic-energy cutoff     =      36.7493  Ry
     charge density cutoff     =     367.4932  Ry
     convergence threshold     =      1.0E-06
     mixing beta               =       0.1000
     number of iterations used =           10  plain     mixing
     Exchange-correlation      = BEEF-VDW ( 1  4 27 13 2)
     nstep                     =           50


     celldm(1)=   1.889726  celldm(2)=   0.000000  celldm(3)=   0.000000
     celldm(4)=   0.000000  celldm(5)=   0.000000  celldm(6)=   0.000000

     crystal axes: (cart. coord. in units of alat)
               a(1) = (   5.134157   0.000000   0.000000 )  
               a(2) = (  -2.567079   4.446311   0.000000 )  
               a(3) = (   0.000000   0.000000  24.192022 )  

     reciprocal axes: (cart. coord. in units 2 pi/alat)
               b(1) = (  0.194774  0.112453  0.000000 )  
               b(2) = (  0.000000  0.224906  0.000000 )  
               b(3) = (  0.000000  0.000000  0.041336 )  


     PseudoPot. # 1 for Mn read from file:
     /afs/slac.stanford.edu/u/if/mamunm/psp/gbrv1.5pbe/Mn.UPF
     MD5 check sum: 82ef2b46521d7a7d9e736dc3972e4928
     Pseudo is Ultrasoft + core correction, Zval = 15.0
     Generated by new atomic code, or converted to UPF format
     Using radial grid of  859 points,  6 beta functions with: 
                l(1) =   0
                l(2) =   0
                l(3) =   1
                l(4) =   1
                l(5) =   2
                l(6) =   2
     Q(r) pseudized with  8 coefficients,  rinner =    0.950   0.950   0.950
                                                       0.950   0.950

     PseudoPot. # 2 for Cu read from file:
     /afs/slac.stanford.edu/u/if/mamunm/psp/gbrv1.5pbe/Cu.UPF
     MD5 check sum: 6e991ff952a84172a2a52a1c1e996048
     Pseudo is Ultrasoft + core correction, Zval = 19.0
     Generated by new atomic code, or converted to UPF format
     Using radial grid of  867 points,  6 beta functions with: 
                l(1) =   0
                l(2) =   0
                l(3) =   1
                l(4) =   1
                l(5) =   2
                l(6) =   2
     Q(r) pseudized with  8 coefficients,  rinner =    1.150   1.150   1.150
                                                       1.150   1.150

     vdW kernel table read from file vdW_kernel_table
     MD5 check sum: 095c7af220d748ca6e76c0b4c6cfb241

     atomic species   valence    mass     pseudopotential
        Mn1           15.00    54.93804     Mn( 1.00)
        Cu1           19.00    63.54600     Cu( 1.00)

     Starting magnetic structure 
     atomic species   magnetization
        Mn1          0.133
        Cu1          0.105

     No symmetry found



   Cartesian axes

     site n.     atom                  positions (alat units)
         1           Mn1 tau(   1) = (   0.0000000   0.0000000  10.0000000  )
         2           Mn1 tau(   2) = (  -1.2835394   2.2231554  10.0000000  )
         3           Mn1 tau(   3) = (   1.2835394   2.2231554  10.0000000  )
         4           Cu1 tau(   4) = (   2.5670787   0.0000000  10.0000000  )
         5           Mn1 tau(   5) = (   2.5670787   1.4821036  12.0960110  )
         6           Mn1 tau(   6) = (   1.2835394   3.7052590  12.0960110  )
         7           Mn1 tau(   7) = (  -1.2835394   3.7052590  12.0960110  )
         8           Cu1 tau(   8) = (   0.0000000   1.4821036  12.0960110  )
         9           Mn1 tau(   9) = (  -0.0000000   2.9642072  14.1920220  )
        10           Mn1 tau(  10) = (   1.2835394   0.7410518  14.1920220  )
        11           Mn1 tau(  11) = (   3.8506181   0.7410518  14.1920220  )
        12           Cu1 tau(  12) = (   2.5670787   2.9642072  14.1920220  )

     number of k points=    40  Fermi-Dirac smearing, width (Ry)=  0.0110
                       cart. coord. in units 2pi/alat
        k(    1) = (   0.0000000   0.0000000   0.0000000), wk =   0.0277778
        k(    2) = (   0.0000000   0.0374843   0.0000000), wk =   0.0555556
        k(    3) = (   0.0000000   0.0749685   0.0000000), wk =   0.0555556
        k(    4) = (   0.0000000  -0.1124528   0.0000000), wk =   0.0277778
        k(    5) = (   0.0324623   0.0187421   0.0000000), wk =   0.0555556
        k(    6) = (   0.0324623   0.0562264   0.0000000), wk =   0.0555556
        k(    7) = (   0.0324623   0.0937106   0.0000000), wk =   0.0555556
        k(    8) = (   0.0324623  -0.0937106   0.0000000), wk =   0.0555556
        k(    9) = (   0.0324623  -0.0562264   0.0000000), wk =   0.0555556
        k(   10) = (   0.0324623  -0.0187421   0.0000000), wk =   0.0555556
        k(   11) = (   0.0649246   0.0374843   0.0000000), wk =   0.0555556
        k(   12) = (   0.0649246   0.0749685   0.0000000), wk =   0.0555556
        k(   13) = (   0.0649246   0.1124528   0.0000000), wk =   0.0555556
        k(   14) = (   0.0649246  -0.0749685   0.0000000), wk =   0.0555556
        k(   15) = (   0.0649246  -0.0374843   0.0000000), wk =   0.0555556
        k(   16) = (   0.0649246   0.0000000   0.0000000), wk =   0.0555556
        k(   17) = (  -0.0973870  -0.0562264   0.0000000), wk =   0.0277778
        k(   18) = (  -0.0973870  -0.0187421   0.0000000), wk =   0.0555556
        k(   19) = (  -0.0973870   0.0187421   0.0000000), wk =   0.0555556
        k(   20) = (  -0.0973870  -0.1686792   0.0000000), wk =   0.0277778
        k(   21) = (   0.0000000   0.0000000   0.0000000), wk =   0.0277778
        k(   22) = (   0.0000000   0.0374843   0.0000000), wk =   0.0555556
        k(   23) = (   0.0000000   0.0749685   0.0000000), wk =   0.0555556
        k(   24) = (   0.0000000  -0.1124528   0.0000000), wk =   0.0277778
        k(   25) = (   0.0324623   0.0187421   0.0000000), wk =   0.0555556
        k(   26) = (   0.0324623   0.0562264   0.0000000), wk =   0.0555556
        k(   27) = (   0.0324623   0.0937106   0.0000000), wk =   0.0555556
        k(   28) = (   0.0324623  -0.0937106   0.0000000), wk =   0.0555556
        k(   29) = (   0.0324623  -0.0562264   0.0000000), wk =   0.0555556
        k(   30) = (   0.0324623  -0.0187421   0.0000000), wk =   0.0555556
        k(   31) = (   0.0649246   0.0374843   0.0000000), wk =   0.0555556
        k(   32) = (   0.0649246   0.0749685   0.0000000), wk =   0.0555556
        k(   33) = (   0.0649246   0.1124528   0.0000000), wk =   0.0555556
        k(   34) = (   0.0649246  -0.0749685   0.0000000), wk =   0.0555556
        k(   35) = (   0.0649246  -0.0374843   0.0000000), wk =   0.0555556
        k(   36) = (   0.0649246   0.0000000   0.0000000), wk =   0.0555556
        k(   37) = (  -0.0973870  -0.0562264   0.0000000), wk =   0.0277778
        k(   38) = (  -0.0973870  -0.0187421   0.0000000), wk =   0.0555556
        k(   39) = (  -0.0973870   0.0187421   0.0000000), wk =   0.0555556
        k(   40) = (  -0.0973870  -0.1686792   0.0000000), wk =   0.0277778

     Dense  grid:   443421 G-vectors     FFT dimensions: (  60,  60, 288)

     Smooth grid:   112275 G-vectors     FFT dimensions: (  40,  40, 180)

     Largest allocated arrays     est. size (Mb)     dimensions
        Kohn-Sham Wavefunctions         0.47 Mb     (     244,  126)
        NL pseudopotentials             0.80 Mb     (     244,  216)
        Each V/rho on FFT grid          0.55 Mb     (   18000,   2)
        Each G-vector array             0.05 Mb     (    6938)
        G-vector shells                 0.03 Mb     (    3474)
     Largest temporary arrays     est. size (Mb)     dimensions
        Auxiliary wavefunctions         1.88 Mb     (     244,  504)
        Each subspace H/S matrix        3.88 Mb     (     504,  504)
        Each <psi_i|beta_j> matrix      0.42 Mb     (     216,  126)
        Arrays for rho mixing           2.75 Mb     (   18000,   10)

     Check: negative/imaginary core charge=   -0.000008    0.000000

     Initial potential from superposition of free atoms
     Check: negative starting charge=(component1):   -0.001439
     Check: negative starting charge=(component2):   -0.001100

     starting charge  184.49923, renormalised to  192.00000

     negative rho (up, down):  1.498E-03 1.145E-03


     ************************************************************************
     *
     * You are using vdW-DF for exchange-correlation in this calculation.
     * Please cite the following three references that made this development
     * possible:
     *
     *   M. Dion, H. Rydberg, E. Schroder, D. C. Langreth, and
     *   B. I. Lundqvist, Phys. Rev. Lett. 92, 246401 (2004).
     *
     *   T. Thonhauser, V. R. Cooper, S. Li, A. Puzder, P. Hyldgaard, and
     *   D. C. Langreth, Phys. Rev. B 76, 125112 (2007).
     *
     *   G. Roman-Perez and J. M. Soler, Phys. Rev. Lett. 103, 096102 (2009).
     *
     *
     * If you are using vdW-DF2, please also cite:
     *
     *   K. Lee, E. D. Murray, L. Kong, B. I. Lundqvist, and
     *   D. C. Langreth, Phys. Rev. B 82, 081101(R) (2010).
     *
     *
     * If you are calculating the stress with vdW-DF, please also cite:
     *
     *   R. Sabatini, E. Kucukbenli, B. Kolb, T. Thonhauser, and
     *   S. de Gironcoli, J. Phys.: Condens. Matter 24, 424209 (2012).
     *
     ************************************************************************

     Carrying out vdW-DF run using the following parameters:

     Nqs =      20    Nr_points =    1024   r_max =   100.000
     q_mesh =
               0.00001000     0.04494208     0.09755937     0.15916263
               0.23128650     0.31572767     0.41458969     0.53033537
               0.66584808     0.82450364     1.01025438     1.22772762
               1.48234092     1.78043706     2.12944203     2.53805004
               3.01644009     3.57652955     4.23227104     5.00000000

     Gradients computed in reciprocal space

     ************************************************************************


 
     Adding external electric field

     Computed dipole along edir(3) : 
        Dipole                0.0000 Ry au,          0.0000 Debye
        Dipole field          0.0000 Ry au
 
        Potential amp.       -0.0000 Ry
        Total length         44.5734 bohr
 
 
     Adding external electric field

     Computed dipole along edir(3) : 
        Dipole                0.0000 Ry au,          0.0000 Debye
        Dipole field          0.0000 Ry au
 
        Potential amp.       -0.0000 Ry
        Total length         44.5734 bohr
 
     Starting wfc are  156 randomized atomic wfcs

     total cpu time spent up to now is       51.5 secs

     per-process dynamical memory:    45.1 Mb

     Self-consistent Calculation

     iteration #  1     ecut=    36.75 Ry     beta=0.10
     Davidson diagonalization with overlap
     ethr =  1.00E-02,  avg # of iterations =  7.4

     negative rho (up, down):  1.134E-03 7.993E-04
 
     Adding external electric field

     Computed dipole along edir(3) : 
        Dipole               -0.0002 Ry au,         -0.0005 Debye
        Dipole field         -0.0000 Ry au
 
        Potential amp.        0.0001 Ry
        Total length         44.5734 bohr
 
 
     Adding external electric field

     Computed dipole along edir(3) : 
        Dipole               -0.0002 Ry au,         -0.0005 Debye
        Dipole field         -0.0000 Ry au
 
        Potential amp.        0.0001 Ry
        Total length         44.5734 bohr
 
 
     Magnetic moment per site:
     atom:    1    charge:    6.1157    magn:    0.7826    constr:    0.0000
     atom:    2    charge:    6.1157    magn:    0.7826    constr:    0.0000
     atom:    3    charge:    6.1156    magn:    0.7826    constr:    0.0000
     atom:    4    charge:   10.7696    magn:    1.0641    constr:    0.0000
     atom:    5    charge:    6.1286    magn:    0.7809    constr:    0.0000
     atom:    6    charge:    6.1286    magn:    0.7809    constr:    0.0000
     atom:    7    charge:    6.1286    magn:    0.7809    constr:    0.0000
     atom:    8    charge:   10.7677    magn:    1.0630    constr:    0.0000
     atom:    9    charge:    6.1157    magn:    0.7826    constr:    0.0000
     atom:   10    charge:    6.1157    magn:    0.7826    constr:    0.0000
     atom:   11    charge:    6.1156    magn:    0.7826    constr:    0.0000
     atom:   12    charge:   10.7696    magn:    1.0641    constr:    0.0000

     total cpu time spent up to now is      235.7 secs

     total energy              =   -3123.96519628 Ry
     Harris-Foulkes estimate   =   -3128.04735058 Ry
     estimated scf accuracy    <      25.38755614 Ry

     total magnetization       =     9.50 Bohr mag/cell
     absolute magnetization    =    10.36 Bohr mag/cell

     iteration #  2     ecut=    36.75 Ry     beta=0.10
     Davidson diagonalization with overlap
     ethr =  1.00E-02,  avg # of iterations =  1.1

     negative rho (up, down):  1.181E-03 8.725E-04
 
     Adding external electric field

     Computed dipole along edir(3) : 
        Dipole               -0.0002 Ry au,         -0.0005 Debye
        Dipole field         -0.0000 Ry au
 
        Potential amp.        0.0001 Ry
        Total length         44.5734 bohr
 
 
     Adding external electric field

     Computed dipole along edir(3) : 
        Dipole               -0.0002 Ry au,         -0.0005 Debye
        Dipole field         -0.0000 Ry au
 
        Potential amp.        0.0001 Ry
        Total length         44.5734 bohr
 
 
     Magnetic moment per site:
     atom:    1    charge:    6.0026    magn:    0.7417    constr:    0.0000
     atom:    2    charge:    6.0026    magn:    0.7418    constr:    0.0000
     atom:    3    charge:    6.0027    magn:    0.7418    constr:    0.0000
     atom:    4    charge:   10.6436    magn:    0.9457    constr:    0.0000
     atom:    5    charge:    6.0441    magn:    0.7353    constr:    0.0000
     atom:    6    charge:    6.0441    magn:    0.7352    constr:    0.0000
     atom:    7    charge:    6.0441    magn:    0.7352    constr:    0.0000
     atom:    8    charge:   10.6624    magn:    0.9372    constr:    0.0000
     atom:    9    charge:    6.0026    magn:    0.7418    constr:    0.0000
     atom:   10    charge:    6.0026    magn:    0.7418    constr:    0.0000
     atom:   11    charge:    6.0026    magn:    0.7418    constr:    0.0000
     atom:   12    charge:   10.6436    magn:    0.9457    constr:    0.0000

     total cpu time spent up to now is      348.2 secs

     total energy              =   -3122.24415991 Ry
     Harris-Foulkes estimate   =   -3124.72384324 Ry
     estimated scf accuracy    <       9.68908441 Ry

     total magnetization       =    13.85 Bohr mag/cell
     absolute magnetization    =    14.48 Bohr mag/cell

     iteration #  3     ecut=    36.75 Ry     beta=0.10
     Davidson diagonalization with overlap
     ethr =  5.05E-03,  avg # of iterations =  2.5

     negative rho (up, down):  1.290E-03 9.162E-04
 
     Adding external electric field

     Computed dipole along edir(3) : 
        Dipole               -0.0003 Ry au,         -0.0007 Debye
        Dipole field         -0.0000 Ry au
 
        Potential amp.        0.0001 Ry
        Total length         44.5734 bohr
 
 
     Adding external electric field

     Computed dipole along edir(3) : 
        Dipole               -0.0003 Ry au,         -0.0007 Debye
        Dipole field         -0.0000 Ry au
 
        Potential amp.        0.0001 Ry
        Total length         44.5734 bohr
 
 
     Magnetic moment per site:
     atom:    1    charge:    6.0022    magn:    0.7359    constr:    0.0000
     atom:    2    charge:    6.0021    magn:    0.7360    constr:    0.0000
     atom:    3    charge:    6.0022    magn:    0.7361    constr:    0.0000
     atom:    4    charge:   10.6233    magn:    0.9079    constr:    0.0000
     atom:    5    charge:    5.9979    magn:    0.7168    constr:    0.0000
     atom:    6    charge:    5.9979    magn:    0.7168    constr:    0.0000
     atom:    7    charge:    5.9979    magn:    0.7168    constr:    0.0000
     atom:    8    charge:   10.6343    magn:    0.9027    constr:    0.0000
     atom:    9    charge:    6.0022    magn:    0.7360    constr:    0.0000
     atom:   10    charge:    6.0021    magn:    0.7360    constr:    0.0000
     atom:   11    charge:    6.0022    magn:    0.7360    constr:    0.0000
     atom:   12    charge:   10.6233    magn:    0.9079    constr:    0.0000

     total cpu time spent up to now is      478.6 secs

     total energy              =   -3122.81986879 Ry
     Harris-Foulkes estimate   =   -3124.07187727 Ry
     estimated scf accuracy    <      23.00749520 Ry

     total magnetization       =    14.09 Bohr mag/cell
     absolute magnetization    =    14.67 Bohr mag/cell

     iteration #  4     ecut=    36.75 Ry     beta=0.10
     Davidson diagonalization with overlap
     ethr =  5.05E-03,  avg # of iterations =  1.0

     negative rho (up, down):  1.324E-03 9.794E-04
 
     Adding external electric field

     Computed dipole along edir(3) : 
        Dipole                0.0006 Ry au,          0.0015 Debye
        Dipole field          0.0000 Ry au
 
        Potential amp.       -0.0002 Ry
        Total length         44.5734 bohr
 
 
     Adding external electric field

     Computed dipole along edir(3) : 
        Dipole                0.0006 Ry au,          0.0015 Debye
        Dipole field          0.0000 Ry au
 
        Potential amp.       -0.0002 Ry
        Total length         44.5734 bohr
 
 
     Magnetic moment per site:
     atom:    1    charge:    6.0129    magn:    0.7507    constr:    0.0000
     atom:    2    charge:    6.0130    magn:    0.7507    constr:    0.0000
     atom:    3    charge:    6.0129    magn:    0.7508    constr:    0.0000
     atom:    4    charge:   10.6286    magn:    0.8278    constr:    0.0000
     atom:    5    charge:    5.9989    magn:    0.7122    constr:    0.0000
     atom:    6    charge:    5.9989    magn:    0.7122    constr:    0.0000
     atom:    7    charge:    5.9988    magn:    0.7122    constr:    0.0000
     atom:    8    charge:   10.6175    magn:    0.8319    constr:    0.0000
     atom:    9    charge:    6.0129    magn:    0.7507    constr:    0.0000
     atom:   10    charge:    6.0130    magn:    0.7507    constr:    0.0000
     atom:   11    charge:    6.0129    magn:    0.7508    constr:    0.0000
     atom:   12    charge:   10.6285    magn:    0.8278    constr:    0.0000

     total cpu time spent up to now is      587.8 secs

     total energy              =   -3123.39517277 Ry
     Harris-Foulkes estimate   =   -3123.46636148 Ry
     estimated scf accuracy    <       1.03452712 Ry

     total magnetization       =    18.41 Bohr mag/cell
     absolute magnetization    =    18.85 Bohr mag/cell

     iteration #  5     ecut=    36.75 Ry     beta=0.10
     Davidson diagonalization with overlap
     ethr =  5.39E-04,  avg # of iterations =  1.7

     negative rho (up, down):  1.495E-03 1.173E-03
 
     Adding external electric field

     Computed dipole along edir(3) : 
        Dipole               -0.0178 Ry au,         -0.0451 Debye
        Dipole field         -0.0001 Ry au
 
        Potential amp.        0.0053 Ry
        Total length         44.5734 bohr
 
 
     Adding external electric field

     Computed dipole along edir(3) : 
        Dipole               -0.0178 Ry au,         -0.0451 Debye
        Dipole field         -0.0001 Ry au
 
        Potential amp.        0.0053 Ry
        Total length         44.5734 bohr
 
 
     Magnetic moment per site:
     atom:    1    charge:    5.9995    magn:    0.7594    constr:    0.0000
     atom:    2    charge:    5.9993    magn:    0.7594    constr:    0.0000
     atom:    3    charge:    5.9996    magn:    0.7595    constr:    0.0000
     atom:    4    charge:   10.6121    magn:    0.7069    constr:    0.0000
     atom:    5    charge:    5.9779    magn:    0.6968    constr:    0.0000
     atom:    6    charge:    5.9779    magn:    0.6967    constr:    0.0000
     atom:    7    charge:    5.9780    magn:    0.6967    constr:    0.0000
     atom:    8    charge:   10.5960    magn:    0.7157    constr:    0.0000
     atom:    9    charge:    6.0000    magn:    0.7595    constr:    0.0000
     atom:   10    charge:    5.9998    magn:    0.7595    constr:    0.0000
     atom:   11    charge:    6.0000    magn:    0.7596    constr:    0.0000
     atom:   12    charge:   10.6122    magn:    0.7069    constr:    0.0000

     total cpu time spent up to now is      693.4 secs

     total energy              =   -3123.42076590 Ry
     Harris-Foulkes estimate   =   -3123.44116276 Ry
     estimated scf accuracy    <       0.39002131 Ry

     total magnetization       =    17.77 Bohr mag/cell
     absolute magnetization    =    18.28 Bohr mag/cell

     iteration #  6     ecut=    36.75 Ry     beta=0.10
     Davidson diagonalization with overlap
     ethr =  2.03E-04,  avg # of iterations =  2.8

     negative rho (up, down):  1.453E-03 1.135E-03
 
     Adding external electric field

     Computed dipole along edir(3) : 
        Dipole                0.0862 Ry au,          0.2190 Debye
        Dipole field          0.0003 Ry au
 
        Potential amp.       -0.0259 Ry
        Total length         44.5734 bohr
 
 
     Adding external electric field

     Computed dipole along edir(3) : 
        Dipole                0.0862 Ry au,          0.2190 Debye
        Dipole field          0.0003 Ry au
 
        Potential amp.       -0.0259 Ry
        Total length         44.5734 bohr
 
 
     Magnetic moment per site:
     atom:    1    charge:    5.9994    magn:    0.7637    constr:    0.0000
     atom:    2    charge:    5.9994    magn:    0.7637    constr:    0.0000
     atom:    3    charge:    5.9993    magn:    0.7638    constr:    0.0000
     atom:    4    charge:   10.6098    magn:    0.6779    constr:    0.0000
     atom:    5    charge:    5.9773    magn:    0.6949    constr:    0.0000
     atom:    6    charge:    5.9773    magn:    0.6948    constr:    0.0000
     atom:    7    charge:    5.9773    magn:    0.6948    constr:    0.0000
     atom:    8    charge:   10.5940    magn:    0.6877    constr:    0.0000
     atom:    9    charge:    5.9971    magn:    0.7633    constr:    0.0000
     atom:   10    charge:    5.9972    magn:    0.7633    constr:    0.0000
     atom:   11    charge:    5.9971    magn:    0.7634    constr:    0.0000
     atom:   12    charge:   10.6094    magn:    0.6780    constr:    0.0000

     total cpu time spent up to now is      815.5 secs

     total energy              =   -3123.44871807 Ry
     Harris-Foulkes estimate   =   -3123.45037349 Ry
     estimated scf accuracy    <       0.27122983 Ry

     total magnetization       =    18.47 Bohr mag/cell
     absolute magnetization    =    19.02 Bohr mag/cell

     iteration #  7     ecut=    36.75 Ry     beta=0.10
     Davidson diagonalization with overlap
     ethr =  1.41E-04,  avg # of iterations =  3.5

     negative rho (up, down):  1.569E-03 1.251E-03
 
     Adding external electric field

     Computed dipole along edir(3) : 
        Dipole               -0.0019 Ry au,         -0.0049 Debye
        Dipole field         -0.0000 Ry au
 
        Potential amp.        0.0006 Ry
        Total length         44.5734 bohr
 
 
     Adding external electric field

     Computed dipole along edir(3) : 
        Dipole               -0.0019 Ry au,         -0.0049 Debye
        Dipole field         -0.0000 Ry au
 
        Potential amp.        0.0006 Ry
        Total length         44.5734 bohr
 
 
     Magnetic moment per site:
     atom:    1    charge:    5.9948    magn:    0.7754    constr:    0.0000
     atom:    2    charge:    5.9954    magn:    0.7754    constr:    0.0000
     atom:    3    charge:    5.9945    magn:    0.7756    constr:    0.0000
     atom:    4    charge:   10.6030    magn:    0.5990    constr:    0.0000
     atom:    5    charge:    5.9772    magn:    0.6906    constr:    0.0000
     atom:    6    charge:    5.9772    magn:    0.6905    constr:    0.0000
     atom:    7    charge:    5.9771    magn:    0.6905    constr:    0.0000
     atom:    8    charge:   10.5896    magn:    0.6109    constr:    0.0000
     atom:    9    charge:    5.9947    magn:    0.7753    constr:    0.0000
     atom:   10    charge:    5.9953    magn:    0.7753    constr:    0.0000
     atom:   11    charge:    5.9948    magn:    0.7754    constr:    0.0000
     atom:   12    charge:   10.6031    magn:    0.5990    constr:    0.0000

     total cpu time spent up to now is      937.4 secs

     total energy              =   -3123.45954124 Ry
     Harris-Foulkes estimate   =   -3123.47838761 Ry
     estimated scf accuracy    <       2.82114363 Ry

     total magnetization       =    18.46 Bohr mag/cell
     absolute magnetization    =    19.00 Bohr mag/cell

     iteration #  8     ecut=    36.75 Ry     beta=0.10
     Davidson diagonalization with overlap
     ethr =  1.41E-04,  avg # of iterations =  1.2

     negative rho (up, down):  2.302E-03 1.889E-03
 
     Adding external electric field

     Computed dipole along edir(3) : 
        Dipole               -0.0014 Ry au,         -0.0036 Debye
        Dipole field         -0.0000 Ry au
 
        Potential amp.        0.0004 Ry
        Total length         44.5734 bohr
 
 
     Adding external electric field

     Computed dipole along edir(3) : 
        Dipole               -0.0014 Ry au,         -0.0036 Debye
        Dipole field         -0.0000 Ry au
 
        Potential amp.        0.0004 Ry
        Total length         44.5734 bohr
 
 
     Magnetic moment per site:
     atom:    1    charge:    5.9979    magn:    0.8159    constr:    0.0000
     atom:    2    charge:    5.9942    magn:    0.8159    constr:    0.0000
     atom:    3    charge:    5.9998    magn:    0.8160    constr:    0.0000
     atom:    4    charge:   10.5971    magn:    0.4182    constr:    0.0000
     atom:    5    charge:    5.9885    magn:    0.6859    constr:    0.0000
     atom:    6    charge:    5.9894    magn:    0.6862    constr:    0.0000
     atom:    7    charge:    5.9895    magn:    0.6860    constr:    0.0000
     atom:    8    charge:   10.5947    magn:    0.4335    constr:    0.0000
     atom:    9    charge:    5.9986    magn:    0.8156    constr:    0.0000
     atom:   10    charge:    5.9949    magn:    0.8157    constr:    0.0000
     atom:   11    charge:    5.9984    magn:    0.8157    constr:    0.0000
     atom:   12    charge:   10.5970    magn:    0.4179    constr:    0.0000

     total cpu time spent up to now is     1049.8 secs

     total energy              =   -3123.51091379 Ry
     Harris-Foulkes estimate   =   -3123.48100000 Ry
     estimated scf accuracy    <       0.12269643 Ry

     total magnetization       =    18.89 Bohr mag/cell
     absolute magnetization    =    19.46 Bohr mag/cell

     iteration #  9     ecut=    36.75 Ry     beta=0.10
     Davidson diagonalization with overlap
     ethr =  6.39E-05,  avg # of iterations =  4.5

     negative rho (up, down):  3.453E-03 2.862E-03
 
     Adding external electric field

     Computed dipole along edir(3) : 
        Dipole               -0.0023 Ry au,         -0.0059 Debye
        Dipole field         -0.0000 Ry au
 
        Potential amp.        0.0007 Ry
        Total length         44.5734 bohr
 
 
     Adding external electric field

     Computed dipole along edir(3) : 
        Dipole               -0.0023 Ry au,         -0.0059 Debye
        Dipole field         -0.0000 Ry au
 
        Potential amp.        0.0007 Ry
        Total length         44.5734 bohr
 
 
     Magnetic moment per site:
     atom:    1    charge:    5.9993    magn:    0.8614    constr:    0.0000
     atom:    2    charge:    5.9996    magn:    0.8611    constr:    0.0000
     atom:    3    charge:    5.9994    magn:    0.8613    constr:    0.0000
     atom:    4    charge:   10.5909    magn:    0.2251    constr:    0.0000
     atom:    5    charge:    6.0001    magn:    0.6799    constr:    0.0000
     atom:    6    charge:    5.9992    magn:    0.6796    constr:    0.0000
     atom:    7    charge:    6.0001    magn:    0.6798    constr:    0.0000
     atom:    8    charge:   10.5983    magn:    0.2443    constr:    0.0000
     atom:    9    charge:    5.9993    magn:    0.8609    constr:    0.0000
     atom:   10    charge:    5.9995    magn:    0.8609    constr:    0.0000
     atom:   11    charge:    5.9994    magn:    0.8611    constr:    0.0000
     atom:   12    charge:   10.5907    magn:    0.2247    constr:    0.0000

     total cpu time spent up to now is     1179.2 secs

     total energy              =   -3123.53705409 Ry
     Harris-Foulkes estimate   =   -3123.51971116 Ry
     estimated scf accuracy    <       0.12452935 Ry

     total magnetization       =    19.35 Bohr mag/cell
     absolute magnetization    =    19.98 Bohr mag/cell

     iteration # 10     ecut=    36.75 Ry     beta=0.10
     Davidson diagonalization with overlap
     ethr =  6.39E-05,  avg # of iterations =  1.6

     negative rho (up, down):  3.444E-03 2.868E-03
 
     Adding external electric field

     Computed dipole along edir(3) : 
        Dipole                0.0002 Ry au,          0.0005 Debye
        Dipole field          0.0000 Ry au
 
        Potential amp.       -0.0001 Ry
        Total length         44.5734 bohr
 
 
     Adding external electric field

     Computed dipole along edir(3) : 
        Dipole                0.0002 Ry au,          0.0005 Debye
        Dipole field          0.0000 Ry au
 
        Potential amp.       -0.0001 Ry
        Total length         44.5734 bohr
 
 
     Magnetic moment per site:
     atom:    1    charge:    5.9980    magn:    0.8792    constr:    0.0000
     atom:    2    charge:    5.9982    magn:    0.8790    constr:    0.0000
     atom:    3    charge:    5.9976    magn:    0.8791    constr:    0.0000
     atom:    4    charge:   10.5883    magn:    0.1825    constr:    0.0000
     atom:    5    charge:    5.9933    magn:    0.6734    constr:    0.0000
     atom:    6    charge:    5.9961    magn:    0.6738    constr:    0.0000
     atom:    7    charge:    5.9934    magn:    0.6734    constr:    0.0000
     atom:    8    charge:   10.5914    magn:    0.2033    constr:    0.0000
     atom:    9    charge:    5.9980    magn:    0.8787    constr:    0.0000
     atom:   10    charge:    5.9981    magn:    0.8788    constr:    0.0000
     atom:   11    charge:    5.9976    magn:    0.8789    constr:    0.0000
     atom:   12    charge:   10.5884    magn:    0.1819    constr:    0.0000

     total cpu time spent up to now is     1296.5 secs

     total energy              =   -3123.54875984 Ry
     Harris-Foulkes estimate   =   -3123.54606720 Ry
     estimated scf accuracy    <       0.03085674 Ry

     total magnetization       =    19.86 Bohr mag/cell
     absolute magnetization    =    20.57 Bohr mag/cell

     iteration # 11     ecut=    36.75 Ry     beta=0.10
     Davidson diagonalization with overlap
     ethr =  1.61E-05,  avg # of iterations =  4.7

     negative rho (up, down):  3.498E-03 2.902E-03
 
     Adding external electric field

     Computed dipole along edir(3) : 
        Dipole                0.0031 Ry au,          0.0080 Debye
        Dipole field          0.0000 Ry au
 
        Potential amp.       -0.0009 Ry
        Total length         44.5734 bohr
 
 
     Adding external electric field

     Computed dipole along edir(3) : 
        Dipole                0.0031 Ry au,          0.0080 Debye
        Dipole field          0.0000 Ry au
 
        Potential amp.       -0.0009 Ry
        Total length         44.5734 bohr
 
 
     Magnetic moment per site:
     atom:    1    charge:    5.9968    magn:    0.9063    constr:    0.0000
     atom:    2    charge:    5.9969    magn:    0.9063    constr:    0.0000
     atom:    3    charge:    5.9968    magn:    0.9061    constr:    0.0000
     atom:    4    charge:   10.5869    magn:    0.1411    constr:    0.0000
     atom:    5    charge:    5.9865    magn:    0.6653    constr:    0.0000
     atom:    6    charge:    5.9864    magn:    0.6651    constr:    0.0000
     atom:    7    charge:    5.9864    magn:    0.6653    constr:    0.0000
     atom:    8    charge:   10.5829    magn:    0.1635    constr:    0.0000
     atom:    9    charge:    5.9968    magn:    0.9058    constr:    0.0000
     atom:   10    charge:    5.9968    magn:    0.9062    constr:    0.0000
     atom:   11    charge:    5.9966    magn:    0.9059    constr:    0.0000
     atom:   12    charge:   10.5872    magn:    0.1405    constr:    0.0000

     total cpu time spent up to now is     1430.4 secs

     total energy              =   -3123.55699998 Ry
     Harris-Foulkes estimate   =   -3123.55171196 Ry
     estimated scf accuracy    <       0.03895787 Ry

     total magnetization       =    20.11 Bohr mag/cell
     absolute magnetization    =    20.84 Bohr mag/cell

     iteration # 12     ecut=    36.75 Ry     beta=0.10
     Davidson diagonalization with overlap
     ethr =  1.61E-05,  avg # of iterations =  1.9

     negative rho (up, down):  3.601E-03 2.861E-03
 
     Adding external electric field

     Computed dipole along edir(3) : 
        Dipole                0.0021 Ry au,          0.0053 Debye
        Dipole field          0.0000 Ry au
 
        Potential amp.       -0.0006 Ry
        Total length         44.5734 bohr
 
 
     Adding external electric field

     Computed dipole along edir(3) : 
        Dipole                0.0021 Ry au,          0.0053 Debye
        Dipole field          0.0000 Ry au
 
        Potential amp.       -0.0006 Ry
        Total length         44.5734 bohr
 
 
     Magnetic moment per site:
     atom:    1    charge:    6.0033    magn:    0.9589    constr:    0.0000
     atom:    2    charge:    6.0032    magn:    0.9590    constr:    0.0000
     atom:    3    charge:    6.0033    magn:    0.9584    constr:    0.0000
     atom:    4    charge:   10.5936    magn:    0.1139    constr:    0.0000
     atom:    5    charge:    5.9887    magn:    0.6600    constr:    0.0000
     atom:    6    charge:    5.9887    magn:    0.6596    constr:    0.0000
     atom:    7    charge:    5.9885    magn:    0.6599    constr:    0.0000
     atom:    8    charge:   10.5865    magn:    0.1354    constr:    0.0000
     atom:    9    charge:    6.0030    magn:    0.9583    constr:    0.0000
     atom:   10    charge:    6.0028    magn:    0.9589    constr:    0.0000
     atom:   11    charge:    6.0037    magn:    0.9583    constr:    0.0000
     atom:   12    charge:   10.5938    magn:    0.1133    constr:    0.0000

     total cpu time spent up to now is     1543.0 secs

     total energy              =   -3123.55997825 Ry
     Harris-Foulkes estimate   =   -3123.56004429 Ry
     estimated scf accuracy    <       0.04900857 Ry

     total magnetization       =    20.49 Bohr mag/cell
     absolute magnetization    =    21.23 Bohr mag/cell

     iteration # 13     ecut=    36.75 Ry     beta=0.10
     Davidson diagonalization with overlap
     ethr =  1.61E-05,  avg # of iterations =  2.2

     negative rho (up, down):  3.404E-03 2.684E-03
 
     Adding external electric field

     Computed dipole along edir(3) : 
        Dipole                0.0011 Ry au,          0.0027 Debye
        Dipole field          0.0000 Ry au
 
        Potential amp.       -0.0003 Ry
        Total length         44.5734 bohr
 
 
     Adding external electric field

     Computed dipole along edir(3) : 
        Dipole                0.0011 Ry au,          0.0027 Debye
        Dipole field          0.0000 Ry au
 
        Potential amp.       -0.0003 Ry
        Total length         44.5734 bohr
 
 
     Magnetic moment per site:
     atom:    1    charge:    6.0051    magn:    0.9777    constr:    0.0000
     atom:    2    charge:    6.0048    magn:    0.9779    constr:    0.0000
     atom:    3    charge:    6.0053    magn:    0.9772    constr:    0.0000
     atom:    4    charge:   10.5959    magn:    0.1073    constr:    0.0000
     atom:    5    charge:    5.9901    magn:    0.6578    constr:    0.0000
     atom:    6    charge:    5.9901    magn:    0.6575    constr:    0.0000
     atom:    7    charge:    5.9903    magn:    0.6579    constr:    0.0000
     atom:    8    charge:   10.5886    magn:    0.1286    constr:    0.0000
     atom:    9    charge:    6.0054    magn:    0.9770    constr:    0.0000
     atom:   10    charge:    6.0050    magn:    0.9778    constr:    0.0000
     atom:   11    charge:    6.0045    magn:    0.9772    constr:    0.0000
     atom:   12    charge:   10.5959    magn:    0.1068    constr:    0.0000

     total cpu time spent up to now is     1665.2 secs

     total energy              =   -3123.56614321 Ry
     Harris-Foulkes estimate   =   -3123.56413791 Ry
     estimated scf accuracy    <       0.01212155 Ry

     total magnetization       =    21.03 Bohr mag/cell
     absolute magnetization    =    21.79 Bohr mag/cell

     iteration # 14     ecut=    36.75 Ry     beta=0.10
     Davidson diagonalization with overlap
     ethr =  6.31E-06,  avg # of iterations =  1.9

     negative rho (up, down):  3.220E-03 2.532E-03
 
     Adding external electric field

     Computed dipole along edir(3) : 
        Dipole                0.0007 Ry au,          0.0018 Debye
        Dipole field          0.0000 Ry au
 
        Potential amp.       -0.0002 Ry
        Total length         44.5734 bohr
 
 
     Adding external electric field

     Computed dipole along edir(3) : 
        Dipole                0.0007 Ry au,          0.0018 Debye
        Dipole field          0.0000 Ry au
 
        Potential amp.       -0.0002 Ry
        Total length         44.5734 bohr
 
 
     Magnetic moment per site:
     atom:    1    charge:    6.0054    magn:    0.9911    constr:    0.0000
     atom:    2    charge:    6.0052    magn:    0.9913    constr:    0.0000
     atom:    3    charge:    6.0055    magn:    0.9905    constr:    0.0000
     atom:    4    charge:   10.5962    magn:    0.0999    constr:    0.0000
     atom:    5    charge:    5.9897    magn:    0.6555    constr:    0.0000
     atom:    6    charge:    5.9895    magn:    0.6551    constr:    0.0000
     atom:    7    charge:    5.9894    magn:    0.6554    constr:    0.0000
     atom:    8    charge:   10.5884    magn:    0.1211    constr:    0.0000
     atom:    9    charge:    6.0053    magn:    0.9904    constr:    0.0000
     atom:   10    charge:    6.0050    magn:    0.9912    constr:    0.0000
     atom:   11    charge:    6.0057    magn:    0.9905    constr:    0.0000
     atom:   12    charge:   10.5962    magn:    0.0994    constr:    0.0000

     total cpu time spent up to now is     1782.4 secs

     total energy              =   -3123.56841686 Ry
     Harris-Foulkes estimate   =   -3123.56676854 Ry
     estimated scf accuracy    <       0.00963203 Ry

     total magnetization       =    21.16 Bohr mag/cell
     absolute magnetization    =    21.92 Bohr mag/cell

     iteration # 15     ecut=    36.75 Ry     beta=0.10
     Davidson diagonalization with overlap
     ethr =  5.02E-06,  avg # of iterations =  1.1

     negative rho (up, down):  3.147E-03 2.424E-03
 
     Adding external electric field

     Computed dipole along edir(3) : 
        Dipole               -0.0010 Ry au,         -0.0025 Debye
        Dipole field         -0.0000 Ry au
 
        Potential amp.        0.0003 Ry
        Total length         44.5734 bohr
 
 
     Adding external electric field

     Computed dipole along edir(3) : 
        Dipole               -0.0010 Ry au,         -0.0025 Debye
        Dipole field         -0.0000 Ry au
 
        Potential amp.        0.0003 Ry
        Total length         44.5734 bohr
 
 
     Magnetic moment per site:
     atom:    1    charge:    6.0065    magn:    1.0303    constr:    0.0000
     atom:    2    charge:    6.0063    magn:    1.0305    constr:    0.0000
     atom:    3    charge:    6.0064    magn:    1.0296    constr:    0.0000
     atom:    4    charge:   10.5973    magn:    0.0982    constr:    0.0000
     atom:    5    charge:    5.9891    magn:    0.6490    constr:    0.0000
     atom:    6    charge:    5.9896    magn:    0.6486    constr:    0.0000
     atom:    7    charge:    5.9900    magn:    0.6491    constr:    0.0000
     atom:    8    charge:   10.5903    magn:    0.1183    constr:    0.0000
     atom:    9    charge:    6.0064    magn:    1.0296    constr:    0.0000
     atom:   10    charge:    6.0062    magn:    1.0304    constr:    0.0000
     atom:   11    charge:    6.0067    magn:    1.0299    constr:    0.0000
     atom:   12    charge:   10.5972    magn:    0.0979    constr:    0.0000

     total cpu time spent up to now is     1895.2 secs

     total energy              =   -3123.57251967 Ry
     Harris-Foulkes estimate   =   -3123.56866691 Ry
     estimated scf accuracy    <       0.00832756 Ry

     total magnetization       =    21.30 Bohr mag/cell
     absolute magnetization    =    22.07 Bohr mag/cell

     iteration # 16     ecut=    36.75 Ry     beta=0.10
     Davidson diagonalization with overlap
     ethr =  4.34E-06,  avg # of iterations =  1.7

     negative rho (up, down):  2.945E-03 2.267E-03
 
     Adding external electric field

     Computed dipole along edir(3) : 
        Dipole               -0.0008 Ry au,         -0.0021 Debye
        Dipole field         -0.0000 Ry au
 
        Potential amp.        0.0002 Ry
        Total length         44.5734 bohr
 
 
     Adding external electric field

     Computed dipole along edir(3) : 
        Dipole               -0.0008 Ry au,         -0.0021 Debye
        Dipole field         -0.0000 Ry au
 
        Potential amp.        0.0002 Ry
        Total length         44.5734 bohr
 
 
     Magnetic moment per site:
     atom:    1    charge:    6.0067    magn:    1.0397    constr:    0.0000
     atom:    2    charge:    6.0064    magn:    1.0400    constr:    0.0000
     atom:    3    charge:    6.0069    magn:    1.0391    constr:    0.0000
     atom:    4    charge:   10.5975    magn:    0.0982    constr:    0.0000
     atom:    5    charge:    5.9899    magn:    0.6474    constr:    0.0000
     atom:    6    charge:    5.9895    magn:    0.6469    constr:    0.0000
     atom:    7    charge:    5.9890    magn:    0.6473    constr:    0.0000
     atom:    8    charge:   10.5904    magn:    0.1178    constr:    0.0000
     atom:    9    charge:    6.0070    magn:    1.0390    constr:    0.0000
     atom:   10    charge:    6.0066    magn:    1.0399    constr:    0.0000
     atom:   11    charge:    6.0065    magn:    1.0394    constr:    0.0000
     atom:   12    charge:   10.5974    magn:    0.0978    constr:    0.0000

     total cpu time spent up to now is     2004.4 secs

     total energy              =   -3123.57437220 Ry
     Harris-Foulkes estimate   =   -3123.57350454 Ry
     estimated scf accuracy    <       0.00773955 Ry

     total magnetization       =    21.72 Bohr mag/cell
     absolute magnetization    =    22.49 Bohr mag/cell

     iteration # 17     ecut=    36.75 Ry     beta=0.10
     Davidson diagonalization with overlap
     ethr =  4.03E-06,  avg # of iterations =  1.0

     negative rho (up, down):  3.324E-03 2.413E-03
 
     Adding external electric field

     Computed dipole along edir(3) : 
        Dipole               -0.0020 Ry au,         -0.0052 Debye
        Dipole field         -0.0000 Ry au
 
        Potential amp.        0.0006 Ry
        Total length         44.5734 bohr
 
 
     Adding external electric field

     Computed dipole along edir(3) : 
        Dipole               -0.0020 Ry au,         -0.0052 Debye
        Dipole field         -0.0000 Ry au
 
        Potential amp.        0.0006 Ry
        Total length         44.5734 bohr
 
 
     Magnetic moment per site:
     atom:    1    charge:    6.0083    magn:    1.1561    constr:    0.0000
     atom:    2    charge:    6.0083    magn:    1.1565    constr:    0.0000
     atom:    3    charge:    6.0082    magn:    1.1554    constr:    0.0000
     atom:    4    charge:   10.5984    magn:    0.0933    constr:    0.0000
     atom:    5    charge:    5.9881    magn:    0.6263    constr:    0.0000
     atom:    6    charge:    5.9881    magn:    0.6258    constr:    0.0000
     atom:    7    charge:    5.9880    magn:    0.6263    constr:    0.0000
     atom:    8    charge:   10.5921    magn:    0.1096    constr:    0.0000
     atom:    9    charge:    6.0084    magn:    1.1556    constr:    0.0000
     atom:   10    charge:    6.0085    magn:    1.1565    constr:    0.0000
     atom:   11    charge:    6.0084    magn:    1.1562    constr:    0.0000
     atom:   12    charge:   10.5984    magn:    0.0933    constr:    0.0000

     total cpu time spent up to now is     2114.2 secs

     total energy              =   -3123.57672475 Ry
     Harris-Foulkes estimate   =   -3123.57467231 Ry
     estimated scf accuracy    <       0.00864950 Ry

     total magnetization       =    21.83 Bohr mag/cell
     absolute magnetization    =    22.61 Bohr mag/cell

     iteration # 18     ecut=    36.75 Ry     beta=0.10
     Davidson diagonalization with overlap
     ethr =  4.03E-06,  avg # of iterations =  3.9

     negative rho (up, down):  3.089E-03 2.271E-03
 
     Adding external electric field

     Computed dipole along edir(3) : 
        Dipole               -0.0037 Ry au,         -0.0095 Debye
        Dipole field         -0.0000 Ry au
 
        Potential amp.        0.0011 Ry
        Total length         44.5734 bohr
 
 
     Adding external electric field

     Computed dipole along edir(3) : 
        Dipole               -0.0037 Ry au,         -0.0095 Debye
        Dipole field         -0.0000 Ry au
 
        Potential amp.        0.0011 Ry
        Total length         44.5734 bohr
 
 
     Magnetic moment per site:
     atom:    1    charge:    6.0082    magn:    1.1729    constr:    0.0000
     atom:    2    charge:    6.0084    magn:    1.1732    constr:    0.0000
     atom:    3    charge:    6.0083    magn:    1.1722    constr:    0.0000
     atom:    4    charge:   10.5976    magn:    0.0974    constr:    0.0000
     atom:    5    charge:    5.9893    magn:    0.6222    constr:    0.0000
     atom:    6    charge:    5.9893    magn:    0.6217    constr:    0.0000
     atom:    7    charge:    5.9893    magn:    0.6222    constr:    0.0000
     atom:    8    charge:   10.5924    magn:    0.1125    constr:    0.0000
     atom:    9    charge:    6.0084    magn:    1.1725    constr:    0.0000
     atom:   10    charge:    6.0086    magn:    1.1733    constr:    0.0000
     atom:   11    charge:    6.0085    magn:    1.1731    constr:    0.0000
     atom:   12    charge:   10.5977    magn:    0.0974    constr:    0.0000

     total cpu time spent up to now is     2252.2 secs

     total energy              =   -3123.58495768 Ry
     Harris-Foulkes estimate   =   -3123.58425459 Ry
     estimated scf accuracy    <       0.00245139 Ry

     total magnetization       =    22.94 Bohr mag/cell
     absolute magnetization    =    23.76 Bohr mag/cell

     iteration # 19     ecut=    36.75 Ry     beta=0.10
     Davidson diagonalization with overlap
     ethr =  1.28E-06,  avg # of iterations =  1.1

     negative rho (up, down):  2.883E-03 2.133E-03
 
     Adding external electric field

     Computed dipole along edir(3) : 
        Dipole                0.0046 Ry au,          0.0118 Debye
        Dipole field          0.0000 Ry au
 
        Potential amp.       -0.0014 Ry
        Total length         44.5734 bohr
 
 
     Adding external electric field

     Computed dipole along edir(3) : 
        Dipole                0.0046 Ry au,          0.0118 Debye
        Dipole field          0.0000 Ry au
 
        Potential amp.       -0.0014 Ry
        Total length         44.5734 bohr
 
 
     Magnetic moment per site:
     atom:    1    charge:    6.0086    magn:    1.1815    constr:    0.0000
     atom:    2    charge:    6.0086    magn:    1.1818    constr:    0.0000
     atom:    3    charge:    6.0086    magn:    1.1808    constr:    0.0000
     atom:    4    charge:   10.5974    magn:    0.1009    constr:    0.0000
     atom:    5    charge:    5.9893    magn:    0.6197    constr:    0.0000
     atom:    6    charge:    5.9894    magn:    0.6192    constr:    0.0000
     atom:    7    charge:    5.9893    magn:    0.6197    constr:    0.0000
     atom:    8    charge:   10.5919    magn:    0.1152    constr:    0.0000
     atom:    9    charge:    6.0086    magn:    1.1811    constr:    0.0000
     atom:   10    charge:    6.0087    magn:    1.1819    constr:    0.0000
     atom:   11    charge:    6.0086    magn:    1.1817    constr:    0.0000
     atom:   12    charge:   10.5975    magn:    0.1009    constr:    0.0000

     total cpu time spent up to now is     2367.3 secs

     total energy              =   -3123.58549099 Ry
     Harris-Foulkes estimate   =   -3123.58516999 Ry
     estimated scf accuracy    <       0.00313886 Ry

     total magnetization       =    23.07 Bohr mag/cell
     absolute magnetization    =    23.89 Bohr mag/cell

     iteration # 20     ecut=    36.75 Ry     beta=0.10
     Davidson diagonalization with overlap
     ethr =  1.28E-06,  avg # of iterations =  1.5

     negative rho (up, down):  2.794E-03 2.085E-03
 
     Adding external electric field

     Computed dipole along edir(3) : 
        Dipole                0.0000 Ry au,          0.0000 Debye
        Dipole field          0.0000 Ry au
 
        Potential amp.       -0.0000 Ry
        Total length         44.5734 bohr
 
 
     Adding external electric field

     Computed dipole along edir(3) : 
        Dipole                0.0000 Ry au,          0.0000 Debye
        Dipole field          0.0000 Ry au
 
        Potential amp.       -0.0000 Ry
        Total length         44.5734 bohr
 
 
     Magnetic moment per site:
     atom:    1    charge:    6.0093    magn:    1.2124    constr:    0.0000
     atom:    2    charge:    6.0093    magn:    1.2127    constr:    0.0000
     atom:    3    charge:    6.0090    magn:    1.2118    constr:    0.0000
     atom:    4    charge:   10.5970    magn:    0.1010    constr:    0.0000
     atom:    5    charge:    5.9896    magn:    0.6124    constr:    0.0000
     atom:    6    charge:    5.9896    magn:    0.6118    constr:    0.0000
     atom:    7    charge:    5.9896    magn:    0.6124    constr:    0.0000
     atom:    8    charge:   10.5919    magn:    0.1137    constr:    0.0000
     atom:    9    charge:    6.0093    magn:    1.2121    constr:    0.0000
     atom:   10    charge:    6.0094    magn:    1.2128    constr:    0.0000
     atom:   11    charge:    6.0093    magn:    1.2127    constr:    0.0000
     atom:   12    charge:   10.5972    magn:    0.1010    constr:    0.0000

     total cpu time spent up to now is     2486.3 secs

     total energy              =   -3123.58612581 Ry
     Harris-Foulkes estimate   =   -3123.58563725 Ry
     estimated scf accuracy    <       0.00461870 Ry

     total magnetization       =    23.15 Bohr mag/cell
     absolute magnetization    =    23.97 Bohr mag/cell

     iteration # 21     ecut=    36.75 Ry     beta=0.10
     Davidson diagonalization with overlap
     ethr =  1.28E-06,  avg # of iterations =  1.7

     negative rho (up, down):  2.537E-03 1.974E-03
 
     Adding external electric field

     Computed dipole along edir(3) : 
        Dipole                0.0007 Ry au,          0.0017 Debye
        Dipole field          0.0000 Ry au
 
        Potential amp.       -0.0002 Ry
        Total length         44.5734 bohr
 
 
     Adding external electric field

     Computed dipole along edir(3) : 
        Dipole                0.0007 Ry au,          0.0017 Debye
        Dipole field          0.0000 Ry au
 
        Potential amp.       -0.0002 Ry
        Total length         44.5734 bohr
 
 
     Magnetic moment per site:
     atom:    1    charge:    6.0095    magn:    1.2212    constr:    0.0000
     atom:    2    charge:    6.0097    magn:    1.2215    constr:    0.0000
     atom:    3    charge:    6.0098    magn:    1.2207    constr:    0.0000
     atom:    4    charge:   10.5962    magn:    0.1043    constr:    0.0000
     atom:    5    charge:    5.9899    magn:    0.6072    constr:    0.0000
     atom:    6    charge:    5.9900    magn:    0.6067    constr:    0.0000
     atom:    7    charge:    5.9899    magn:    0.6073    constr:    0.0000
     atom:    8    charge:   10.5910    magn:    0.1155    constr:    0.0000
     atom:    9    charge:    6.0096    magn:    1.2210    constr:    0.0000
     atom:   10    charge:    6.0098    magn:    1.2216    constr:    0.0000
     atom:   11    charge:    6.0097    magn:    1.2215    constr:    0.0000
     atom:   12    charge:   10.5962    magn:    0.1043    constr:    0.0000

     total cpu time spent up to now is     2604.5 secs

     total energy              =   -3123.58697154 Ry
     Harris-Foulkes estimate   =   -3123.58666076 Ry
     estimated scf accuracy    <       0.00100963 Ry

     total magnetization       =    23.41 Bohr mag/cell
     absolute magnetization    =    24.25 Bohr mag/cell

     iteration # 22     ecut=    36.75 Ry     beta=0.10
     Davidson diagonalization with overlap
     ethr =  5.26E-07,  avg # of iterations =  1.7

     negative rho (up, down):  2.350E-03 1.911E-03
 
     Adding external electric field

     Computed dipole along edir(3) : 
        Dipole                0.0006 Ry au,          0.0014 Debye
        Dipole field          0.0000 Ry au
 
        Potential amp.       -0.0002 Ry
        Total length         44.5734 bohr
 
 
     Adding external electric field

     Computed dipole along edir(3) : 
        Dipole                0.0006 Ry au,          0.0014 Debye
        Dipole field          0.0000 Ry au
 
        Potential amp.       -0.0002 Ry
        Total length         44.5734 bohr
 
 
     Magnetic moment per site:
     atom:    1    charge:    6.0105    magn:    1.2380    constr:    0.0000
     atom:    2    charge:    6.0106    magn:    1.2382    constr:    0.0000
     atom:    3    charge:    6.0105    magn:    1.2376    constr:    0.0000
     atom:    4    charge:   10.5956    magn:    0.1043    constr:    0.0000
     atom:    5    charge:    5.9900    magn:    0.5995    constr:    0.0000
     atom:    6    charge:    5.9899    magn:    0.5988    constr:    0.0000
     atom:    7    charge:    5.9900    magn:    0.5995    constr:    0.0000
     atom:    8    charge:   10.5898    magn:    0.1137    constr:    0.0000
     atom:    9    charge:    6.0104    magn:    1.2378    constr:    0.0000
     atom:   10    charge:    6.0105    magn:    1.2382    constr:    0.0000
     atom:   11    charge:    6.0105    magn:    1.2382    constr:    0.0000
     atom:   12    charge:   10.5955    magn:    0.1043    constr:    0.0000

     total cpu time spent up to now is     2721.2 secs

     total energy              =   -3123.58733501 Ry
     Harris-Foulkes estimate   =   -3123.58706666 Ry
     estimated scf accuracy    <       0.00068113 Ry

     total magnetization       =    23.47 Bohr mag/cell
     absolute magnetization    =    24.31 Bohr mag/cell

     iteration # 23     ecut=    36.75 Ry     beta=0.10
     Davidson diagonalization with overlap
     ethr =  3.55E-07,  avg # of iterations =  2.0

     negative rho (up, down):  2.237E-03 1.848E-03
 
     Adding external electric field

     Computed dipole along edir(3) : 
        Dipole                0.0003 Ry au,          0.0007 Debye
        Dipole field          0.0000 Ry au
 
        Potential amp.       -0.0001 Ry
        Total length         44.5734 bohr
 
 
     Adding external electric field

     Computed dipole along edir(3) : 
        Dipole                0.0003 Ry au,          0.0007 Debye
        Dipole field          0.0000 Ry au
 
        Potential amp.       -0.0001 Ry
        Total length         44.5734 bohr
 
 
     Magnetic moment per site:
     atom:    1    charge:    6.0110    magn:    1.2491    constr:    0.0000
     atom:    2    charge:    6.0109    magn:    1.2493    constr:    0.0000
     atom:    3    charge:    6.0109    magn:    1.2488    constr:    0.0000
     atom:    4    charge:   10.5954    magn:    0.1060    constr:    0.0000
     atom:    5    charge:    5.9901    magn:    0.5942    constr:    0.0000
     atom:    6    charge:    5.9903    magn:    0.5936    constr:    0.0000
     atom:    7    charge:    5.9901    magn:    0.5943    constr:    0.0000
     atom:    8    charge:   10.5899    magn:    0.1141    constr:    0.0000
     atom:    9    charge:    6.0109    magn:    1.2490    constr:    0.0000
     atom:   10    charge:    6.0109    magn:    1.2494    constr:    0.0000
     atom:   11    charge:    6.0109    magn:    1.2494    constr:    0.0000
     atom:   12    charge:   10.5953    magn:    0.1060    constr:    0.0000

     total cpu time spent up to now is     2841.0 secs

     total energy              =   -3123.58764878 Ry
     Harris-Foulkes estimate   =   -3123.58753636 Ry
     estimated scf accuracy    <       0.00038380 Ry

     total magnetization       =    23.58 Bohr mag/cell
     absolute magnetization    =    24.44 Bohr mag/cell

     iteration # 24     ecut=    36.75 Ry     beta=0.10
     Davidson diagonalization with overlap
     ethr =  2.00E-07,  avg # of iterations =  2.1

     negative rho (up, down):  2.151E-03 1.784E-03
 
     Adding external electric field

     Computed dipole along edir(3) : 
        Dipole                0.0001 Ry au,          0.0002 Debye
        Dipole field          0.0000 Ry au
 
        Potential amp.       -0.0000 Ry
        Total length         44.5734 bohr
 
 
     Adding external electric field

     Computed dipole along edir(3) : 
        Dipole                0.0001 Ry au,          0.0002 Debye
        Dipole field          0.0000 Ry au
 
        Potential amp.       -0.0000 Ry
        Total length         44.5734 bohr
 
 
     Magnetic moment per site:
     atom:    1    charge:    6.0112    magn:    1.2510    constr:    0.0000
     atom:    2    charge:    6.0112    magn:    1.2512    constr:    0.0000
     atom:    3    charge:    6.0112    magn:    1.2507    constr:    0.0000
     atom:    4    charge:   10.5954    magn:    0.1049    constr:    0.0000
     atom:    5    charge:    5.9902    magn:    0.5920    constr:    0.0000
     atom:    6    charge:    5.9901    magn:    0.5913    constr:    0.0000
     atom:    7    charge:    5.9902    magn:    0.5920    constr:    0.0000
     atom:    8    charge:   10.5899    magn:    0.1124    constr:    0.0000
     atom:    9    charge:    6.0111    magn:    1.2509    constr:    0.0000
     atom:   10    charge:    6.0112    magn:    1.2513    constr:    0.0000
     atom:   11    charge:    6.0112    magn:    1.2512    constr:    0.0000
     atom:   12    charge:   10.5954    magn:    0.1048    constr:    0.0000

     total cpu time spent up to now is     2958.0 secs

     total energy              =   -3123.58779224 Ry
     Harris-Foulkes estimate   =   -3123.58773788 Ry
     estimated scf accuracy    <       0.00042138 Ry

     total magnetization       =    23.65 Bohr mag/cell
     absolute magnetization    =    24.52 Bohr mag/cell

     iteration # 25     ecut=    36.75 Ry     beta=0.10
     Davidson diagonalization with overlap
     ethr =  2.00E-07,  avg # of iterations =  1.0

     negative rho (up, down):  2.023E-03 1.713E-03
 
     Adding external electric field

     Computed dipole along edir(3) : 
        Dipole               -0.0002 Ry au,         -0.0004 Debye
        Dipole field         -0.0000 Ry au
 
        Potential amp.        0.0000 Ry
        Total length         44.5734 bohr
 
 
     Adding external electric field

     Computed dipole along edir(3) : 
        Dipole               -0.0002 Ry au,         -0.0004 Debye
        Dipole field         -0.0000 Ry au
 
        Potential amp.        0.0000 Ry
        Total length         44.5734 bohr
 
 
     Magnetic moment per site:
     atom:    1    charge:    6.0113    magn:    1.2474    constr:    0.0000
     atom:    2    charge:    6.0113    magn:    1.2476    constr:    0.0000
     atom:    3    charge:    6.0113    magn:    1.2472    constr:    0.0000
     atom:    4    charge:   10.5952    magn:    0.1053    constr:    0.0000
     atom:    5    charge:    5.9902    magn:    0.5877    constr:    0.0000
     atom:    6    charge:    5.9902    magn:    0.5870    constr:    0.0000
     atom:    7    charge:    5.9902    magn:    0.5877    constr:    0.0000
     atom:    8    charge:   10.5900    magn:    0.1119    constr:    0.0000
     atom:    9    charge:    6.0113    magn:    1.2474    constr:    0.0000
     atom:   10    charge:    6.0113    magn:    1.2477    constr:    0.0000
     atom:   11    charge:    6.0112    magn:    1.2476    constr:    0.0000
     atom:   12    charge:   10.5952    magn:    0.1052    constr:    0.0000

     total cpu time spent up to now is     3070.4 secs

     total energy              =   -3123.58791539 Ry
     Harris-Foulkes estimate   =   -3123.58780735 Ry
     estimated scf accuracy    <       0.00025970 Ry

     total magnetization       =    23.65 Bohr mag/cell
     absolute magnetization    =    24.52 Bohr mag/cell

     iteration # 26     ecut=    36.75 Ry     beta=0.10
     Davidson diagonalization with overlap
     ethr =  1.35E-07,  avg # of iterations =  1.0

     negative rho (up, down):  1.964E-03 1.681E-03
 
     Adding external electric field

     Computed dipole along edir(3) : 
        Dipole               -0.0002 Ry au,         -0.0005 Debye
        Dipole field         -0.0000 Ry au
 
        Potential amp.        0.0001 Ry
        Total length         44.5734 bohr
 
 
     Adding external electric field

     Computed dipole along edir(3) : 
        Dipole               -0.0002 Ry au,         -0.0005 Debye
        Dipole field         -0.0000 Ry au
 
        Potential amp.        0.0001 Ry
        Total length         44.5734 bohr
 
 
     Magnetic moment per site:
     atom:    1    charge:    6.0115    magn:    1.2555    constr:    0.0000
     atom:    2    charge:    6.0115    magn:    1.2557    constr:    0.0000
     atom:    3    charge:    6.0115    magn:    1.2553    constr:    0.0000
     atom:    4    charge:   10.5950    magn:    0.1056    constr:    0.0000
     atom:    5    charge:    5.9899    magn:    0.5808    constr:    0.0000
     atom:    6    charge:    5.9899    magn:    0.5801    constr:    0.0000
     atom:    7    charge:    5.9899    magn:    0.5808    constr:    0.0000
     atom:    8    charge:   10.5900    magn:    0.1110    constr:    0.0000
     atom:    9    charge:    6.0115    magn:    1.2555    constr:    0.0000
     atom:   10    charge:    6.0115    magn:    1.2558    constr:    0.0000
     atom:   11    charge:    6.0116    magn:    1.2557    constr:    0.0000
     atom:   12    charge:   10.5950    magn:    0.1056    constr:    0.0000

     total cpu time spent up to now is     3183.9 secs

     total energy              =   -3123.58800539 Ry
     Harris-Foulkes estimate   =   -3123.58793603 Ry
     estimated scf accuracy    <       0.00019517 Ry

     total magnetization       =    23.59 Bohr mag/cell
     absolute magnetization    =    24.47 Bohr mag/cell

     iteration # 27     ecut=    36.75 Ry     beta=0.10
     Davidson diagonalization with overlap
     ethr =  1.02E-07,  avg # of iterations =  2.0

     negative rho (up, down):  1.917E-03 1.642E-03
 
     Adding external electric field

     Computed dipole along edir(3) : 
        Dipole               -0.0002 Ry au,         -0.0005 Debye
        Dipole field         -0.0000 Ry au
 
        Potential amp.        0.0001 Ry
        Total length         44.5734 bohr
 
 
     Adding external electric field

     Computed dipole along edir(3) : 
        Dipole               -0.0002 Ry au,         -0.0005 Debye
        Dipole field         -0.0000 Ry au
 
        Potential amp.        0.0001 Ry
        Total length         44.5734 bohr
 
 
     Magnetic moment per site:
     atom:    1    charge:    6.0115    magn:    1.2566    constr:    0.0000
     atom:    2    charge:    6.0115    magn:    1.2567    constr:    0.0000
     atom:    3    charge:    6.0115    magn:    1.2565    constr:    0.0000
     atom:    4    charge:   10.5950    magn:    0.1058    constr:    0.0000
     atom:    5    charge:    5.9897    magn:    0.5769    constr:    0.0000
     atom:    6    charge:    5.9898    magn:    0.5761    constr:    0.0000
     atom:    7    charge:    5.9898    magn:    0.5769    constr:    0.0000
     atom:    8    charge:   10.5900    magn:    0.1106    constr:    0.0000
     atom:    9    charge:    6.0115    magn:    1.2566    constr:    0.0000
     atom:   10    charge:    6.0115    magn:    1.2568    constr:    0.0000
     atom:   11    charge:    6.0115    magn:    1.2568    constr:    0.0000
     atom:   12    charge:   10.5950    magn:    0.1058    constr:    0.0000

     total cpu time spent up to now is     3304.9 secs

     total energy              =   -3123.58811975 Ry
     Harris-Foulkes estimate   =   -3123.58806403 Ry
     estimated scf accuracy    <       0.00015612 Ry

     total magnetization       =    23.62 Bohr mag/cell
     absolute magnetization    =    24.51 Bohr mag/cell

     iteration # 28     ecut=    36.75 Ry     beta=0.10
     Davidson diagonalization with overlap
     ethr =  8.13E-08,  avg # of iterations =  1.1

     negative rho (up, down):  1.883E-03 1.607E-03
 
     Adding external electric field

     Computed dipole along edir(3) : 
        Dipole               -0.0001 Ry au,         -0.0002 Debye
        Dipole field         -0.0000 Ry au
 
        Potential amp.        0.0000 Ry
        Total length         44.5734 bohr
 
 
     Adding external electric field

     Computed dipole along edir(3) : 
        Dipole               -0.0001 Ry au,         -0.0002 Debye
        Dipole field         -0.0000 Ry au
 
        Potential amp.        0.0000 Ry
        Total length         44.5734 bohr
 
 
     Magnetic moment per site:
     atom:    1    charge:    6.0114    magn:    1.2555    constr:    0.0000
     atom:    2    charge:    6.0114    magn:    1.2556    constr:    0.0000
     atom:    3    charge:    6.0114    magn:    1.2553    constr:    0.0000
     atom:    4    charge:   10.5950    magn:    0.1063    constr:    0.0000
     atom:    5    charge:    5.9897    magn:    0.5745    constr:    0.0000
     atom:    6    charge:    5.9897    magn:    0.5738    constr:    0.0000
     atom:    7    charge:    5.9897    magn:    0.5746    constr:    0.0000
     atom:    8    charge:   10.5900    magn:    0.1108    constr:    0.0000
     atom:    9    charge:    6.0115    magn:    1.2555    constr:    0.0000
     atom:   10    charge:    6.0114    magn:    1.2557    constr:    0.0000
     atom:   11    charge:    6.0115    magn:    1.2556    constr:    0.0000
     atom:   12    charge:   10.5950    magn:    0.1062    constr:    0.0000

     total cpu time spent up to now is     3418.3 secs

     total energy              =   -3123.58816535 Ry
     Harris-Foulkes estimate   =   -3123.58812963 Ry
     estimated scf accuracy    <       0.00013865 Ry

     total magnetization       =    23.61 Bohr mag/cell
     absolute magnetization    =    24.50 Bohr mag/cell

     iteration # 29     ecut=    36.75 Ry     beta=0.10
     Davidson diagonalization with overlap
     ethr =  7.22E-08,  avg # of iterations =  1.0

     negative rho (up, down):  1.857E-03 1.582E-03
 
     Adding external electric field

     Computed dipole along edir(3) : 
        Dipole               -0.0000 Ry au,         -0.0001 Debye
        Dipole field         -0.0000 Ry au
 
        Potential amp.        0.0000 Ry
        Total length         44.5734 bohr
 
 
     Adding external electric field

     Computed dipole along edir(3) : 
        Dipole               -0.0000 Ry au,         -0.0001 Debye
        Dipole field         -0.0000 Ry au
 
        Potential amp.        0.0000 Ry
        Total length         44.5734 bohr
 
 
     Magnetic moment per site:
     atom:    1    charge:    6.0114    magn:    1.2566    constr:    0.0000
     atom:    2    charge:    6.0114    magn:    1.2567    constr:    0.0000
     atom:    3    charge:    6.0114    magn:    1.2564    constr:    0.0000
     atom:    4    charge:   10.5951    magn:    0.1068    constr:    0.0000
     atom:    5    charge:    5.9896    magn:    0.5702    constr:    0.0000
     atom:    6    charge:    5.9896    magn:    0.5695    constr:    0.0000
     atom:    7    charge:    5.9896    magn:    0.5703    constr:    0.0000
     atom:    8    charge:   10.5900    magn:    0.1109    constr:    0.0000
     atom:    9    charge:    6.0114    magn:    1.2566    constr:    0.0000
     atom:   10    charge:    6.0114    magn:    1.2568    constr:    0.0000
     atom:   11    charge:    6.0115    magn:    1.2567    constr:    0.0000
     atom:   12    charge:   10.5951    magn:    0.1068    constr:    0.0000

     total cpu time spent up to now is     3535.0 secs

     total energy              =   -3123.58821579 Ry
     Harris-Foulkes estimate   =   -3123.58816893 Ry
     estimated scf accuracy    <       0.00012828 Ry

     total magnetization       =    23.58 Bohr mag/cell
     absolute magnetization    =    24.47 Bohr mag/cell

     iteration # 30     ecut=    36.75 Ry     beta=0.10
     Davidson diagonalization with overlap
     ethr =  6.68E-08,  avg # of iterations =  1.0

     negative rho (up, down):  1.836E-03 1.562E-03
 
     Adding external electric field

     Computed dipole along edir(3) : 
        Dipole               -0.0000 Ry au,         -0.0000 Debye
        Dipole field         -0.0000 Ry au
 
        Potential amp.        0.0000 Ry
        Total length         44.5734 bohr
 
 
     Adding external electric field

     Computed dipole along edir(3) : 
        Dipole               -0.0000 Ry au,         -0.0000 Debye
        Dipole field         -0.0000 Ry au
 
        Potential amp.        0.0000 Ry
        Total length         44.5734 bohr
 
 
     Magnetic moment per site:
     atom:    1    charge:    6.0114    magn:    1.2575    constr:    0.0000
     atom:    2    charge:    6.0114    magn:    1.2576    constr:    0.0000
     atom:    3    charge:    6.0114    magn:    1.2574    constr:    0.0000
     atom:    4    charge:   10.5952    magn:    0.1074    constr:    0.0000
     atom:    5    charge:    5.9895    magn:    0.5654    constr:    0.0000
     atom:    6    charge:    5.9895    magn:    0.5645    constr:    0.0000
     atom:    7    charge:    5.9895    magn:    0.5654    constr:    0.0000
     atom:    8    charge:   10.5901    magn:    0.1110    constr:    0.0000
     atom:    9    charge:    6.0114    magn:    1.2575    constr:    0.0000
     atom:   10    charge:    6.0114    magn:    1.2577    constr:    0.0000
     atom:   11    charge:    6.0114    magn:    1.2576    constr:    0.0000
     atom:   12    charge:   10.5952    magn:    0.1074    constr:    0.0000

     total cpu time spent up to now is     3650.5 secs

     total energy              =   -3123.58827453 Ry
     Harris-Foulkes estimate   =   -3123.58822448 Ry
     estimated scf accuracy    <       0.00012424 Ry

     total magnetization       =    23.56 Bohr mag/cell
     absolute magnetization    =    24.45 Bohr mag/cell

     iteration # 31     ecut=    36.75 Ry     beta=0.10
     Davidson diagonalization with overlap
     ethr =  6.47E-08,  avg # of iterations =  1.1

     negative rho (up, down):  1.825E-03 1.543E-03
 
     Adding external electric field

     Computed dipole along edir(3) : 
        Dipole                0.0001 Ry au,          0.0002 Debye
        Dipole field          0.0000 Ry au
 
        Potential amp.       -0.0000 Ry
        Total length         44.5734 bohr
 
 
     Adding external electric field

     Computed dipole along edir(3) : 
        Dipole                0.0001 Ry au,          0.0002 Debye
        Dipole field          0.0000 Ry au
 
        Potential amp.       -0.0000 Ry
        Total length         44.5734 bohr
 
 
     Magnetic moment per site:
     atom:    1    charge:    6.0114    magn:    1.2574    constr:    0.0000
     atom:    2    charge:    6.0114    magn:    1.2575    constr:    0.0000
     atom:    3    charge:    6.0114    magn:    1.2573    constr:    0.0000
     atom:    4    charge:   10.5952    magn:    0.1075    constr:    0.0000
     atom:    5    charge:    5.9895    magn:    0.5646    constr:    0.0000
     atom:    6    charge:    5.9895    magn:    0.5637    constr:    0.0000
     atom:    7    charge:    5.9895    magn:    0.5646    constr:    0.0000
     atom:    8    charge:   10.5901    magn:    0.1111    constr:    0.0000
     atom:    9    charge:    6.0114    magn:    1.2575    constr:    0.0000
     atom:   10    charge:    6.0114    magn:    1.2576    constr:    0.0000
     atom:   11    charge:    6.0114    magn:    1.2575    constr:    0.0000
     atom:   12    charge:   10.5952    magn:    0.1075    constr:    0.0000

     total cpu time spent up to now is     3767.8 secs

     total energy              =   -3123.58829711 Ry
     Harris-Foulkes estimate   =   -3123.58828528 Ry
     estimated scf accuracy    <       0.00012087 Ry

     total magnetization       =    23.53 Bohr mag/cell
     absolute magnetization    =    24.43 Bohr mag/cell

     iteration # 32     ecut=    36.75 Ry     beta=0.10
     Davidson diagonalization with overlap
     ethr =  6.30E-08,  avg # of iterations =  1.0

     negative rho (up, down):  1.818E-03 1.528E-03
 
     Adding external electric field

     Computed dipole along edir(3) : 
        Dipole                0.0001 Ry au,          0.0002 Debye
        Dipole field          0.0000 Ry au
 
        Potential amp.       -0.0000 Ry
        Total length         44.5734 bohr
 
 
     Adding external electric field

     Computed dipole along edir(3) : 
        Dipole                0.0001 Ry au,          0.0002 Debye
        Dipole field          0.0000 Ry au
 
        Potential amp.       -0.0000 Ry
        Total length         44.5734 bohr
 
 
     Magnetic moment per site:
     atom:    1    charge:    6.0114    magn:    1.2575    constr:    0.0000
     atom:    2    charge:    6.0114    magn:    1.2575    constr:    0.0000
     atom:    3    charge:    6.0114    magn:    1.2574    constr:    0.0000
     atom:    4    charge:   10.5952    magn:    0.1075    constr:    0.0000
     atom:    5    charge:    5.9895    magn:    0.5644    constr:    0.0000
     atom:    6    charge:    5.9895    magn:    0.5636    constr:    0.0000
     atom:    7    charge:    5.9895    magn:    0.5645    constr:    0.0000
     atom:    8    charge:   10.5901    magn:    0.1111    constr:    0.0000
     atom:    9    charge:    6.0114    magn:    1.2575    constr:    0.0000
     atom:   10    charge:    6.0114    magn:    1.2576    constr:    0.0000
     atom:   11    charge:    6.0114    magn:    1.2575    constr:    0.0000
     atom:   12    charge:   10.5952    magn:    0.1075    constr:    0.0000

     total cpu time spent up to now is     3883.0 secs

     total energy              =   -3123.58830079 Ry
     Harris-Foulkes estimate   =   -3123.58829756 Ry
     estimated scf accuracy    <       0.00012163 Ry

     total magnetization       =    23.52 Bohr mag/cell
     absolute magnetization    =    24.42 Bohr mag/cell

     iteration # 33     ecut=    36.75 Ry     beta=0.10
     Davidson diagonalization with overlap
     ethr =  6.30E-08,  avg # of iterations =  1.0

     negative rho (up, down):  1.820E-03 1.512E-03
 
     Adding external electric field

     Computed dipole along edir(3) : 
        Dipole                0.0002 Ry au,          0.0005 Debye
        Dipole field          0.0000 Ry au
 
        Potential amp.       -0.0001 Ry
        Total length         44.5734 bohr
 
 
     Adding external electric field

     Computed dipole along edir(3) : 
        Dipole                0.0002 Ry au,          0.0005 Debye
        Dipole field          0.0000 Ry au
 
        Potential amp.       -0.0001 Ry
        Total length         44.5734 bohr
 
 
     Magnetic moment per site:
     atom:    1    charge:    6.0114    magn:    1.2572    constr:    0.0000
     atom:    2    charge:    6.0114    magn:    1.2573    constr:    0.0000
     atom:    3    charge:    6.0113    magn:    1.2571    constr:    0.0000
     atom:    4    charge:   10.5954    magn:    0.1067    constr:    0.0000
     atom:    5    charge:    5.9895    magn:    0.5697    constr:    0.0000
     atom:    6    charge:    5.9894    magn:    0.5688    constr:    0.0000
     atom:    7    charge:    5.9894    magn:    0.5696    constr:    0.0000
     atom:    8    charge:   10.5903    magn:    0.1107    constr:    0.0000
     atom:    9    charge:    6.0113    magn:    1.2572    constr:    0.0000
     atom:   10    charge:    6.0113    magn:    1.2574    constr:    0.0000
     atom:   11    charge:    6.0113    magn:    1.2573    constr:    0.0000
[...]
   -69.0515 -69.0281 -69.0280 -68.9603 -68.9281 -45.9955 -45.9216 -45.8616
   -45.8580 -45.8177 -45.7807 -45.7734 -45.7190 -45.6464 -45.0673 -45.0432
   -44.9669 -44.9433 -44.8889 -44.8803 -44.8662 -44.8570 -44.8241 -44.8045
   -44.8001 -44.7921 -44.7843 -44.7768 -44.7667 -44.7588 -44.7553 -44.7321
    -4.9710  -3.9434  -3.3747  -3.0264  -2.7537  -2.6274  -2.5127  -2.3616
    -2.2620  -2.2024  -2.1670  -2.1314  -2.0782  -1.9697  -1.9197  -1.8241
    -1.7862  -1.7140  -1.6748  -1.5442  -1.2331  -1.0327  -0.5751  -0.3614
    -0.2099  -0.1188   0.0172   0.1343   0.2848   0.3229   0.4949   0.5920
     0.6140   0.7417   0.8184   1.0072   1.0443   1.1861   1.2403   1.3188
     1.3889   1.5619   1.6538   1.7928   1.9965   2.0827   2.1554   2.2703
     2.3842   2.4844   2.6332   2.6570   2.7359   2.7700   2.8478   2.9152
     3.0129   3.2231   3.2507   3.3122   3.3317   3.4356   3.5542   3.5807
     3.7701   3.8973   3.9614   4.5117   5.0790   5.3798   5.9309   6.2302
     6.4424   6.6466   6.8773   7.2184   7.4106   7.5639

          k = 0.0649-0.0375 0.0000 ( 14030 PWs)   bands (ev):

  -111.8657-111.6343-111.6078 -77.0748 -77.0456 -77.0335 -76.0907 -76.0660
   -76.0598 -76.0486 -76.0350 -76.0238 -69.2592 -69.2591 -69.2208 -69.0516
   -69.0516 -69.0281 -69.0281 -68.9603 -68.9281 -46.0252 -45.9203 -45.8863
   -45.8403 -45.8169 -45.7919 -45.7602 -45.6954 -45.6362 -45.1040 -45.0798
   -44.9623 -44.9387 -44.9219 -44.8986 -44.8419 -44.8191 -44.8158 -44.8091
   -44.7929 -44.7830 -44.7827 -44.7788 -44.7576 -44.7529 -44.7446 -44.7213
    -5.5681  -3.8745  -3.5035  -2.8115  -2.7286  -2.7236  -2.5987  -2.5847
    -2.2938  -2.2686  -2.2014  -2.1756  -2.1714  -2.0050  -1.9253  -1.8500
    -1.7844  -1.7113  -1.6325  -1.5309  -1.0691  -0.8023  -0.5122  -0.4002
    -0.1580   0.0299   0.1643   0.2040   0.3449   0.4061   0.4771   0.6458
     0.6964   0.8561   0.9250   1.0300   1.1823   1.2568   1.4150   1.4849
     1.4973   1.5326   1.7650   1.7942   1.8719   2.0400   2.1379   2.1594
     2.4897   2.5412   2.6240   2.7439   2.7697   2.8232   2.9456   3.0218
     3.1411   3.2393   3.3354   3.3781   3.3842   3.6028   3.6223   3.7392
     3.7987   3.8915   4.2769   4.5904   4.8338   5.0486   5.4275   5.8501
     6.1433   6.3844   6.4548   6.6057   6.7810   7.5682

          k = 0.0649 0.0000 0.0000 ( 14031 PWs)   bands (ev):

  -111.8657-111.6343-111.6078 -77.0773 -77.0427 -77.0339 -76.0931 -76.0683
   -76.0574 -76.0485 -76.0327 -76.0237 -69.2592 -69.2591 -69.2208 -69.0516
   -69.0516 -69.0281 -69.0281 -68.9603 -68.9281 -46.0345 -45.9279 -45.8945
   -45.8342 -45.8152 -45.7969 -45.7534 -45.6770 -45.6384 -45.1160 -45.0917
   -44.9708 -44.9473 -44.9313 -44.9080 -44.8318 -44.8140 -44.8069 -44.7940
   -44.7870 -44.7830 -44.7703 -44.7666 -44.7616 -44.7515 -44.7445 -44.7273
    -5.7778  -4.0092  -3.1318  -3.0473  -2.8018  -2.7535  -2.7317  -2.5721
    -2.3098  -2.2728  -2.2464  -2.2351  -2.1976  -2.0084  -1.9134  -1.8369
    -1.7837  -1.7420  -1.6799  -1.4476  -0.9994  -0.7393  -0.4274  -0.3028
    -0.1184  -0.0066   0.1385   0.2344   0.2919   0.4292   0.5276   0.6920
     0.7411   0.9177   0.9873   1.0036   1.2722   1.3069   1.4958   1.5047
     1.5611   1.6339   1.7828   1.8496   1.8790   1.9558   2.1125   2.2211
     2.4522   2.6360   2.7280   2.7549   2.8475   2.8701   3.0322   3.1731
     3.1926   3.3099   3.4183   3.4726   3.5403   3.6050   3.6131   3.6467
     3.8115   3.8316   3.8868   4.2205   5.2675   5.2812   5.3586   5.6553
     5.9402   5.9540   6.3139   6.4064   7.3446   7.6009

          k =-0.0974-0.0562 0.0000 ( 14034 PWs)   bands (ev):

  -111.8657-111.6343-111.6078 -77.0691 -77.0505 -77.0344 -76.0842 -76.0664
   -76.0594 -76.0485 -76.0417 -76.0237 -69.2592 -69.2591 -69.2208 -69.0516
   -69.0515 -69.0281 -69.0280 -68.9603 -68.9281 -46.0047 -45.9010 -45.8634
   -45.8574 -45.8247 -45.7790 -45.7734 -45.7309 -45.6395 -45.0753 -45.0511
   -44.9400 -44.9155 -44.8910 -44.8760 -44.8690 -44.8613 -44.8517 -44.8383
   -44.8031 -44.7887 -44.7839 -44.7773 -44.7607 -44.7584 -44.7450 -44.7218
    -4.7213  -4.4760  -3.2405  -2.9039  -2.6820  -2.6259  -2.3960  -2.3635
    -2.3284  -2.2156  -2.1737  -2.0833  -2.0022  -1.9856  -1.9836  -1.8415
    -1.8219  -1.7205  -1.6894  -1.4133  -1.3797  -1.0504  -0.7566  -0.2947
    -0.1636  -0.0392   0.1661   0.2042   0.3030   0.3341   0.4185   0.6287
     0.7032   0.7328   0.7448   0.8332   0.9944   1.1856   1.3104   1.3809
     1.4183   1.4418   1.6550   1.8176   1.9301   2.1007   2.1589   2.3129
     2.3516   2.4040   2.6537   2.6542   2.6553   2.6836   2.8140   2.8700
     2.9341   3.1354   3.1559   3.2180   3.3415   3.6082   3.7283   3.7856
     3.8465   3.9480   4.1475   4.7047   5.2114   5.3613   5.5778   5.5989
     6.5654   6.7596   6.8043   6.8129   7.3246   7.3449

          k =-0.0974-0.0187 0.0000 ( 13994 PWs)   bands (ev):

  -111.8657-111.6343-111.6078 -77.0689 -77.0509 -77.0341 -76.0842 -76.0664
   -76.0594 -76.0485 -76.0417 -76.0237 -69.2592 -69.2591 -69.2208 -69.0516
   -69.0515 -69.0281 -69.0280 -68.9603 -68.9281 -45.9961 -45.9209 -45.8620
   -45.8579 -45.8172 -45.7811 -45.7736 -45.7182 -45.6469 -45.0672 -45.0431
   -44.9670 -44.9434 -44.8889 -44.8804 -44.8662 -44.8571 -44.8241 -44.8045
   -44.8001 -44.7920 -44.7844 -44.7767 -44.7666 -44.7588 -44.7553 -44.7321
    -4.9710  -3.9434  -3.3747  -3.0265  -2.7537  -2.6274  -2.5127  -2.3616
    -2.2620  -2.2024  -2.1670  -2.1314  -2.0782  -1.9697  -1.9197  -1.8241
    -1.7862  -1.7140  -1.6748  -1.5441  -1.2332  -1.0327  -0.5753  -0.3613
    -0.2099  -0.1190   0.0171   0.1342   0.2851   0.3229   0.4950   0.5918
     0.6140   0.7417   0.8187   1.0072   1.0445   1.1863   1.2403   1.3188
     1.3888   1.5622   1.6537   1.7928   1.9965   2.0826   2.1554   2.2701
     2.3841   2.4843   2.6332   2.6571   2.7358   2.7700   2.8479   2.9151
     3.0129   3.2231   3.2506   3.3121   3.3320   3.4355   3.5544   3.5806
     3.7701   3.8972   3.9614   4.5117   5.0789   5.3799   5.9309   6.2301
     6.4424   6.6466   6.8772   7.2184   7.4106   7.5639

          k =-0.0974 0.0187 0.0000 ( 13994 PWs)   bands (ev):

  -111.8657-111.6343-111.6078 -77.0684 -77.0518 -77.0337 -76.0842 -76.0663
   -76.0595 -76.0485 -76.0416 -76.0237 -69.2592 -69.2591 -69.2208 -69.0516
   -69.0515 -69.0281 -69.0280 -68.9603 -68.9281 -45.9956 -45.9217 -45.8616
   -45.8577 -45.8179 -45.7807 -45.7732 -45.7190 -45.6464 -45.0673 -45.0431
   -44.9669 -44.9433 -44.8889 -44.8804 -44.8662 -44.8571 -44.8240 -44.8045
   -44.8001 -44.7921 -44.7843 -44.7767 -44.7667 -44.7588 -44.7553 -44.7321
    -4.9710  -3.9434  -3.3747  -3.0264  -2.7537  -2.6274  -2.5127  -2.3616
    -2.2619  -2.2024  -2.1670  -2.1314  -2.0782  -1.9697  -1.9197  -1.8241
    -1.7863  -1.7140  -1.6748  -1.5442  -1.2331  -1.0327  -0.5752  -0.3614
    -0.2099  -0.1189   0.0174   0.1342   0.2849   0.3230   0.4950   0.5919
     0.6141   0.7417   0.8184   1.0072   1.0443   1.1861   1.2403   1.3187
     1.3889   1.5619   1.6539   1.7928   1.9965   2.0827   2.1555   2.2702
     2.3840   2.4845   2.6332   2.6570   2.7360   2.7700   2.8477   2.9151
     3.0130   3.2231   3.2506   3.3122   3.3318   3.4356   3.5542   3.5807
     3.7702   3.8973   3.9614   4.5117   5.0789   5.3799   5.9310   6.2302
     6.4424   6.6466   6.8772   7.2184   7.4106   7.5639

          k =-0.0974-0.1687 0.0000 ( 14034 PWs)   bands (ev):

  -111.8657-111.6343-111.6078 -77.0682 -77.0523 -77.0335 -76.0843 -76.0662
   -76.0595 -76.0486 -76.0415 -76.0238 -69.2592 -69.2591 -69.2208 -69.0516
   -69.0515 -69.0281 -69.0280 -68.9603 -68.9281 -46.0039 -45.9028 -45.8625
   -45.8565 -45.8266 -45.7781 -45.7726 -45.7325 -45.6387 -45.0754 -45.0512
   -44.9399 -44.9154 -44.8911 -44.8761 -44.8691 -44.8612 -44.8517 -44.8382
   -44.8032 -44.7885 -44.7840 -44.7774 -44.7605 -44.7585 -44.7451 -44.7218
    -4.7214  -4.4760  -3.2406  -2.9038  -2.6820  -2.6260  -2.3960  -2.3636
    -2.3284  -2.2156  -2.1737  -2.0833  -2.0022  -1.9856  -1.9836  -1.8415
    -1.8220  -1.7206  -1.6895  -1.4135  -1.3795  -1.0504  -0.7563  -0.2950
    -0.1633  -0.0388   0.1663   0.2039   0.3031   0.3339   0.4187   0.6288
     0.7024   0.7326   0.7453   0.8329   0.9944   1.1854   1.3101   1.3810
     1.4175   1.4419   1.6552   1.8176   1.9302   2.1010   2.1589   2.3130
     2.3517   2.4045   2.6529   2.6544   2.6554   2.6838   2.8132   2.8701
     2.9344   3.1354   3.1558   3.2183   3.3413   3.6083   3.7278   3.7860
     3.8465   3.9479   4.1475   4.7049   5.2115   5.3611   5.5780   5.5988
     6.5652   6.7597   6.8043   6.8129   7.3246   7.3450

     the Fermi energy is     1.0631 ev

!    total energy              =   -3123.58829322 Ry
     Harris-Foulkes estimate   =   -3123.58828894 Ry
     estimated scf accuracy    <       0.00000097 Ry

     The total energy is the sum of the following terms:

     one-electron contribution =  -25938.31091314 Ry
     hartree contribution      =   12970.77450295 Ry
     xc contribution           =    -368.40216894 Ry
     ewald contribution        =   10212.45365628 Ry
     electric field correction =       0.00000005 Ry
     smearing contrib. (-TS)   =      -0.10337042 Ry

     total magnetization       =    24.30 Bohr mag/cell
     absolute magnetization    =    25.20 Bohr mag/cell

     convergence has been achieved in  37 iterations
 
 BEEF-vdW xc energy contributions
           1 :   -323.197221088504     
           2 :    292.446474067992     
           3 :   -240.837695180001     
           4 :    183.243066974199     
           5 :   -132.903796944524     
           6 :    96.7495782739693     
           7 :   -74.5269271340877     
           8 :    61.2511804063490     
           9 :   -51.0490513514517     
          10 :    40.2608083809728     
          11 :   -28.4896090929091     
          12 :    17.5724846783335     
          13 :   -9.58028831150830     
          14 :    5.25315171612908     
          15 :   -3.68342796518311     
          16 :    3.10045379360747     
          17 :   -2.01474012342828     
          18 :  -3.616836464436801E-002
          19 :    2.48745693968419     
          20 :   -4.35164427691342     
          21 :    4.95669412687130     
          22 :   -4.35466678250600     
          23 :    3.21733780044497     
          24 :   -2.37847385982957     
          25 :    2.34524289852294     
          26 :   -3.05831531087875     
          27 :    3.99965930083465     
          28 :   -4.55518260490697     
          29 :    4.40045386948657     
          30 :   -3.67730763428187     
          31 :   -28.1744398163954     
          32 :   -19.7802626526178     

     Forces acting on atoms (Ry/au):


     negative rho (up, down):  1.803E-03 1.484E-03
     atom    1 type  1   force =    -0.00001217   -0.00100670   -0.00258742
     atom    2 type  1   force =    -0.00087217    0.00049572   -0.00259978
     atom    3 type  1   force =     0.00086270    0.00050402   -0.00257877
     atom    4 type  2   force =    -0.00002450   -0.00000176   -0.00875989
     atom    5 type  1   force =    -0.00000689    0.00091932    0.00352418
     atom    6 type  1   force =     0.00079426   -0.00046280    0.00356498
     atom    7 type  1   force =    -0.00079583   -0.00045612    0.00355985
     atom    8 type  2   force =     0.00002997    0.00000586    0.00414701
     atom    9 type  1   force =     0.00003222   -0.00056366    0.00007824
     atom   10 type  1   force =    -0.00065364    0.00023848    0.00007231
     atom   11 type  1   force =     0.00065229    0.00020145    0.00006624
     atom   12 type  2   force =    -0.00000625    0.00012617    0.00151306

     Total force =     0.012688     Total SCF correction =     0.002441
     SCF correction compared to forces is large: reduce conv_thr to get better values


     entering subroutine stress ...


     negative rho (up, down):  1.803E-03 1.484E-03
          total   stress  (Ry/bohr**3)                   (kbar)     P=    2.44
   0.00003277   0.00000000   0.00000003          4.82      0.00      0.01
   0.00000000   0.00003279   0.00000000          0.00      4.82      0.00
   0.00000003   0.00000000  -0.00001584          0.01      0.00     -2.33

 !ASE

     Writing output data file calc.save
 
     init_run     :     29.18s CPU     54.42s WALL (       1 calls)
     electrons    :   2567.25s CPU   4380.28s WALL (       1 calls)
     forces       :      3.39s CPU      4.29s WALL (       1 calls)
     stress       :      6.95s CPU      8.36s WALL (       1 calls)

     Called by init_run:
     wfcinit      :     27.41s CPU     51.86s WALL (       1 calls)
     potinit      :      1.09s CPU      1.68s WALL (       1 calls)

     Called by electrons:
     c_bands      :   2115.03s CPU   3577.99s WALL (      37 calls)
     sum_band     :    375.68s CPU    682.03s WALL (      37 calls)
     v_of_rho     :     34.33s CPU     56.21s WALL (      38 calls)
     newd         :      8.26s CPU      9.39s WALL (      38 calls)
     mix_rho      :      2.87s CPU      4.71s WALL (      37 calls)
     vdW_energy   :      1.75s CPU      1.75s WALL (      74 calls)
     vdW_ffts     :     38.25s CPU     64.09s WALL (     150 calls)
     vdW_v        :      6.36s CPU     10.18s WALL (      74 calls)

     Called by c_bands:
     init_us_2    :      1.34s CPU      1.43s WALL (    3080 calls)
     cegterg      :   2099.30s CPU   3558.05s WALL (    1480 calls)

     Called by *egterg:
     h_psi        :   1486.86s CPU   2781.61s WALL (    4588 calls)
     s_psi        :     18.27s CPU     18.54s WALL (    4588 calls)
     g_psi        :      0.93s CPU      0.94s WALL (    3068 calls)
     cdiaghg      :    376.00s CPU    448.00s WALL (    4548 calls)

     Called by h_psi:
     add_vuspsi   :     19.12s CPU     19.26s WALL (    4588 calls)

     General routines
     calbec       :     72.15s CPU    102.79s WALL (    6148 calls)
     fft          :     69.48s CPU    116.53s WALL (    5432 calls)
     ffts         :      0.61s CPU      1.09s WALL (     150 calls)
     fftw         :   1734.49s CPU   3299.02s WALL (  971968 calls)
     interpolate  :      2.51s CPU      4.31s WALL (     150 calls)
     davcio       :      0.00s CPU      0.02s WALL (      40 calls)
 
     Parallel routines
     fft_scatter  :   1742.28s CPU   3346.77s WALL (  977550 calls)
 
     PWSCF        :     0h43m CPU        1h14m WALL

 
   This run was terminated on:  19:53:25  30Dec2018            

=------------------------------------------------------------------------------=
   JOB DONE.
=------------------------------------------------------------------------------=
Job  /afs/slac/g/suncat/bin/suncat-tsmpirun -x LD_LIBRARY_PATH -wdir /scratch/qe648571_pDjlv pw.x -in pw.inp

TID   HOST_NAME   COMMAND_LINE            STATUS            TERMINATION_TIME
===== ========== ================  =======================  ===================
00000 suncat0154 pw.x -in pw.inp   Done                     12/30/2018 19:53:25
00001 suncat0154 pw.x -in pw.inp   Done                     12/30/2018 19:53:25
00002 suncat0154 pw.x -in pw.inp   Done                     12/30/2018 19:53:25
00003 suncat0154 pw.x -in pw.inp   Done                     12/30/2018 19:53:25
00004 suncat0154 pw.x -in pw.inp   Done                     12/30/2018 19:53:25
00005 suncat0154 pw.x -in pw.inp   Done                     12/30/2018 19:53:25
00006 suncat0154 pw.x -in pw.inp   Done                     12/30/2018 19:53:25
00007 suncat0154 pw.x -in pw.inp   Done                     12/30/2018 19:53:25
00008 suncat0143 pw.x -in pw.inp   Done                     12/30/2018 19:53:25
00009 suncat0143 pw.x -in pw.inp   Done                     12/30/2018 19:53:25
00010 suncat0143 pw.x -in pw.inp   Done                     12/30/2018 19:53:25
00011 suncat0143 pw.x -in pw.inp   Done                     12/30/2018 19:53:25
00012 suncat0143 pw.x -in pw.inp   Done                     12/30/2018 19:53:25
00013 suncat0143 pw.x -in pw.inp   Done                     12/30/2018 19:53:25
00014 suncat0143 pw.x -in pw.inp   Done                     12/30/2018 19:53:25
00015 suncat0143 pw.x -in pw.inp   Done                     12/30/2018 19:53:25
00016 suncat0108 pw.x -in pw.inp   Done                     12/30/2018 19:53:25
00017 suncat0108 pw.x -in pw.inp   Done                     12/30/2018 19:53:25
00018 suncat0108 pw.x -in pw.inp   Done                     12/30/2018 19:53:25
00019 suncat0108 pw.x -in pw.inp   Done                     12/30/2018 19:53:25
00020 suncat0108 pw.x -in pw.inp   Done                     12/30/2018 19:53:25
00021 suncat0108 pw.x -in pw.inp   Done                     12/30/2018 19:53:25
00022 suncat0108 pw.x -in pw.inp   Done                     12/30/2018 19:53:25
00023 suncat0108 pw.x -in pw.inp   Done                     12/30/2018 19:53:25
00024 suncat0252 pw.x -in pw.inp   Done                     12/30/2018 19:53:25
00025 suncat0252 pw.x -in pw.inp   Done                     12/30/2018 19:53:25
00026 suncat0252 pw.x -in pw.inp   Done                     12/30/2018 19:53:25
00027 suncat0252 pw.x -in pw.inp   Done                     12/30/2018 19:53:25
00028 suncat0252 pw.x -in pw.inp   Done                     12/30/2018 19:53:25
00029 suncat0252 pw.x -in pw.inp   Done                     12/30/2018 19:53:25
00030 suncat0252 pw.x -in pw.inp   Done                     12/30/2018 19:53:25
00031 suncat0252 pw.x -in pw.inp   Done                     12/30/2018 19:53:25
00032 suncat0226 pw.x -in pw.inp   Done                     12/30/2018 19:53:25
00033 suncat0226 pw.x -in pw.inp   Done                     12/30/2018 19:53:25
00034 suncat0226 pw.x -in pw.inp   Done                     12/30/2018 19:53:25
00035 suncat0226 pw.x -in pw.inp   Done                     12/30/2018 19:53:25
00036 suncat0226 pw.x -in pw.inp   Done                     12/30/2018 19:53:25
00037 suncat0226 pw.x -in pw.inp   Done                     12/30/2018 19:53:25
00038 suncat0226 pw.x -in pw.inp   Done                     12/30/2018 19:53:25
00039 suncat0226 pw.x -in pw.inp   Done                     12/30/2018 19:53:25
00040 suncat0225 pw.x -in pw.inp   Done                     12/30/2018 19:53:25
00041 suncat0225 pw.x -in pw.inp   Done                     12/30/2018 19:53:25
00042 suncat0225 pw.x -in pw.inp   Done                     12/30/2018 19:53:25
00043 suncat0225 pw.x -in pw.inp   Done                     12/30/2018 19:53:25
00044 suncat0225 pw.x -in pw.inp   Done                     12/30/2018 19:53:25
00045 suncat0225 pw.x -in pw.inp   Done                     12/30/2018 19:53:25
00046 suncat0225 pw.x -in pw.inp   Done                     12/30/2018 19:53:25
00047 suncat0225 pw.x -in pw.inp   Done                     12/30/2018 19:53:25
00048 suncat0224 pw.x -in pw.inp   Done                     12/30/2018 19:53:25
00049 suncat0224 pw.x -in pw.inp   Done                     12/30/2018 19:53:25
00050 suncat0224 pw.x -in pw.inp   Done                     12/30/2018 19:53:25
00051 suncat0224 pw.x -in pw.inp   Done                     12/30/2018 19:53:25
00052 suncat0224 pw.x -in pw.inp   Done                     12/30/2018 19:53:25
00053 suncat0224 pw.x -in pw.inp   Done                     12/30/2018 19:53:25
00054 suncat0224 pw.x -in pw.inp   Done                     12/30/2018 19:53:25
00055 suncat0224 pw.x -in pw.inp   Done                     12/30/2018 19:53:25
00056 suncat0223 pw.x -in pw.inp   Done                     12/30/2018 19:53:25
00057 suncat0223 pw.x -in pw.inp   Done                     12/30/2018 19:53:25
00058 suncat0223 pw.x -in pw.inp   Done                     12/30/2018 19:53:25
00059 suncat0223 pw.x -in pw.inp   Done                     12/30/2018 19:53:25
00060 suncat0223 pw.x -in pw.inp   Done                     12/30/2018 19:53:25
00061 suncat0223 pw.x -in pw.inp   Done                     12/30/2018 19:53:25
00062 suncat0223 pw.x -in pw.inp   Done                     12/30/2018 19:53:25
00063 suncat0223 pw.x -in pw.inp   Done                     12/30/2018 19:53:25
