  python dir          : /u/if/mamunm/src/espresso
  espresso dir        : /nfs/slac/g/suncatfs/sw/espv18/espresso-dynpy-beef/bin
  pseudo dir          : /afs/slac.stanford.edu/u/if/mamunm/psp/gbrv1.5pbe
  ase-espresso py git : GITVERSION



     Program PWSCF v.5.1rc2 (svn rev. 11289) starts on 30Dec2018 at  5:24:53 

     This program is part of the open-source Quantum ESPRESSO suite
     for quantum simulation of materials; please cite
         "P. Giannozzi et al., J. Phys.:Condens. Matter 21 395502 (2009);
          URL http://www.quantum-espresso.org", 
     in publications or presentations arising from this work. More details at
     http://www.quantum-espresso.org/quote

     Parallel version (MPI), running on    64 processors
     R & G space division:  proc/nbgrp/npool/nimage =      64
     Reading input from pw.inp
     Message from routine read_cards :
     DEPRECATED: no units specified in CELL_PARAMETERS card

     Current dimensions of program PWSCF are:
     Max number of different atomic species (ntypx) = 10
     Max number of k-points (npk) =  40000
     Max angular momentum in pseudopotentials (lmaxx) =  3
     Presently stress not available with electric field


     **************************************************************************
     Initializing libbeef V0.1.1 with the BEEF-vdW functional.
     Citation: Wellendorff et al., PRB 85, 235149 (2012).
     **************************************************************************


     IMPORTANT: XC functional enforced from input :
     Exchange-correlation      = BEEF-VDW ( 1  4 27 13 2)
     Any further DFT definition will be discarded
     Please, verify this is what you really want


     Subspace diagonalization in iterative solution of the eigenvalue problem:
     a serial algorithm will be used

 
     Parallelization info
     --------------------
     sticks:   dense  smooth     PW     G-vecs:    dense   smooth      PW
     Min          42      17      5                 8064     2023     329
     Max          43      18      8                 8099     2071     345
     Sum        2749    1099    337               517243   130829   21663
 


     bravais-lattice index     =            0
     lattice parameter (alat)  =       1.8897  a.u.
     unit-cell volume          =    4349.2202 (a.u.)^3
     number of atoms/cell      =           12
     number of atomic types    =            2
     number of electrons       =       213.00
     number of Kohn-Sham states=          136
     kinetic-energy cutoff     =      36.7493  Ry
     charge density cutoff     =     367.4932  Ry
     convergence threshold     =      1.0E-06
     mixing beta               =       0.1000
     number of iterations used =           10  plain     mixing
     Exchange-correlation      = BEEF-VDW ( 1  4 27 13 2)
     nstep                     =           50


     celldm(1)=   1.889726  celldm(2)=   0.000000  celldm(3)=   0.000000
     celldm(4)=   0.000000  celldm(5)=   0.000000  celldm(6)=   0.000000

     crystal axes: (cart. coord. in units of alat)
               a(1) = (   5.511362   0.000000   0.000000 )  
               a(2) = (  -2.755681   4.772980   0.000000 )  
               a(3) = (   0.000000   0.000000  24.500009 )  

     reciprocal axes: (cart. coord. in units 2 pi/alat)
               b(1) = (  0.181443  0.104756  0.000000 )  
               b(2) = (  0.000000  0.209513  0.000000 )  
               b(3) = (  0.000000  0.000000  0.040816 )  


     PseudoPot. # 1 for Ga read from file:
     /afs/slac.stanford.edu/u/if/mamunm/psp/gbrv1.5pbe/Ga.UPF
     MD5 check sum: ccd671392a58a050fbb373893b4fcd66
     Pseudo is Ultrasoft + core correction, Zval = 19.0
     Generated by new atomic code, or converted to UPF format
     Using radial grid of  871 points,  6 beta functions with: 
                l(1) =   0
                l(2) =   0
                l(3) =   1
                l(4) =   1
                l(5) =   2
                l(6) =   2
     Q(r) pseudized with  8 coefficients,  rinner =    1.250   1.250   1.250
                                                       1.250   1.250

     PseudoPot. # 2 for Cr read from file:
     /afs/slac.stanford.edu/u/if/mamunm/psp/gbrv1.5pbe/Cr.UPF
     MD5 check sum: 0d52af634a40206e4dee301ad30da4bf
     Pseudo is Ultrasoft + core correction, Zval = 14.0
     Generated by new atomic code, or converted to UPF format
     Using radial grid of  857 points,  6 beta functions with: 
                l(1) =   0
                l(2) =   0
                l(3) =   1
                l(4) =   1
                l(5) =   2
                l(6) =   2
     Q(r) pseudized with  8 coefficients,  rinner =    0.950   0.950   0.950
                                                       0.950   0.950

     vdW kernel table read from file vdW_kernel_table
     MD5 check sum: 095c7af220d748ca6e76c0b4c6cfb241

     atomic species   valence    mass     pseudopotential
        Ga1           19.00    69.72300     Ga( 1.00)
        Cr1           14.00    51.99610     Cr( 1.00)

     No symmetry found



   Cartesian axes

     site n.     atom                  positions (alat units)
         1           Ga1 tau(   1) = (   0.0000000   0.0000000  10.0000000  )
         2           Ga1 tau(   2) = (  -1.3778406   2.3864899  10.0000000  )
         3           Ga1 tau(   3) = (   1.3778406   2.3864899  10.0000000  )
         4           Cr1 tau(   4) = (   2.7556812   0.0000000  10.0000000  )
         5           Ga1 tau(   5) = (   2.7556812   1.5909933  12.2500043  )
         6           Ga1 tau(   6) = (   1.3778406   3.9774832  12.2500043  )
         7           Ga1 tau(   7) = (  -1.3778406   3.9774832  12.2500043  )
         8           Cr1 tau(   8) = (   0.0000000   1.5909933  12.2500043  )
         9           Ga1 tau(   9) = (  -0.0000000   3.1819865  14.5000085  )
        10           Ga1 tau(  10) = (   1.3778406   0.7954966  14.5000085  )
        11           Ga1 tau(  11) = (   4.1335218   0.7954966  14.5000085  )
        12           Cr1 tau(  12) = (   2.7556812   3.1819865  14.5000085  )

     number of k points=    20  Fermi-Dirac smearing, width (Ry)=  0.0110
                       cart. coord. in units 2pi/alat
        k(    1) = (   0.0000000   0.0000000   0.0000000), wk =   0.0555556
        k(    2) = (   0.0000000   0.0349188   0.0000000), wk =   0.1111111
        k(    3) = (   0.0000000   0.0698376   0.0000000), wk =   0.1111111
        k(    4) = (   0.0000000  -0.1047564   0.0000000), wk =   0.0555556
        k(    5) = (   0.0302406   0.0174594   0.0000000), wk =   0.1111111
        k(    6) = (   0.0302406   0.0523782   0.0000000), wk =   0.1111111
        k(    7) = (   0.0302406   0.0872970   0.0000000), wk =   0.1111111
        k(    8) = (   0.0302406  -0.0872970   0.0000000), wk =   0.1111111
        k(    9) = (   0.0302406  -0.0523782   0.0000000), wk =   0.1111111
        k(   10) = (   0.0302406  -0.0174594   0.0000000), wk =   0.1111111
        k(   11) = (   0.0604811   0.0349188   0.0000000), wk =   0.1111111
        k(   12) = (   0.0604811   0.0698376   0.0000000), wk =   0.1111111
        k(   13) = (   0.0604811   0.1047564   0.0000000), wk =   0.1111111
        k(   14) = (   0.0604811  -0.0698376   0.0000000), wk =   0.1111111
        k(   15) = (   0.0604811  -0.0349188   0.0000000), wk =   0.1111111
        k(   16) = (   0.0604811   0.0000000   0.0000000), wk =   0.1111111
        k(   17) = (  -0.0907217  -0.0523782   0.0000000), wk =   0.0555556
        k(   18) = (  -0.0907217  -0.0174594   0.0000000), wk =   0.1111111
        k(   19) = (  -0.0907217   0.0174594   0.0000000), wk =   0.1111111
        k(   20) = (  -0.0907217  -0.1571345   0.0000000), wk =   0.0555556

     Dense  grid:   517243 G-vectors     FFT dimensions: (  64,  64, 288)

     Smooth grid:   130829 G-vectors     FFT dimensions: (  45,  45, 180)

     Largest allocated arrays     est. size (Mb)     dimensions
        Kohn-Sham Wavefunctions         0.60 Mb     (     289,  136)
        NL pseudopotentials             0.95 Mb     (     289,  216)
        Each V/rho on FFT grid          0.31 Mb     (   20480)
        Each G-vector array             0.06 Mb     (    8099)
        G-vector shells                 0.03 Mb     (    3817)
     Largest temporary arrays     est. size (Mb)     dimensions
        Auxiliary wavefunctions         2.40 Mb     (     289,  544)
        Each subspace H/S matrix        4.52 Mb     (     544,  544)
        Each <psi_i|beta_j> matrix      0.45 Mb     (     216,  136)
        Arrays for rho mixing           3.12 Mb     (   20480,   10)

     Check: negative/imaginary core charge=   -0.000002    0.000000

     Initial potential from superposition of free atoms
     Check: negative starting charge=   -0.003846

     starting charge  200.99995, renormalised to  213.00000

     negative rho (up, down):  4.076E-03 0.000E+00


     ************************************************************************
     *
     * You are using vdW-DF for exchange-correlation in this calculation.
     * Please cite the following three references that made this development
     * possible:
     *
     *   M. Dion, H. Rydberg, E. Schroder, D. C. Langreth, and
     *   B. I. Lundqvist, Phys. Rev. Lett. 92, 246401 (2004).
     *
     *   T. Thonhauser, V. R. Cooper, S. Li, A. Puzder, P. Hyldgaard, and
     *   D. C. Langreth, Phys. Rev. B 76, 125112 (2007).
     *
     *   G. Roman-Perez and J. M. Soler, Phys. Rev. Lett. 103, 096102 (2009).
     *
     *
     * If you are using vdW-DF2, please also cite:
     *
     *   K. Lee, E. D. Murray, L. Kong, B. I. Lundqvist, and
     *   D. C. Langreth, Phys. Rev. B 82, 081101(R) (2010).
     *
     *
     * If you are calculating the stress with vdW-DF, please also cite:
     *
     *   R. Sabatini, E. Kucukbenli, B. Kolb, T. Thonhauser, and
     *   S. de Gironcoli, J. Phys.: Condens. Matter 24, 424209 (2012).
     *
     ************************************************************************

     Carrying out vdW-DF run using the following parameters:

     Nqs =      20    Nr_points =    1024   r_max =   100.000
     q_mesh =
               0.00001000     0.04494208     0.09755937     0.15916263
               0.23128650     0.31572767     0.41458969     0.53033537
               0.66584808     0.82450364     1.01025438     1.22772762
               1.48234092     1.78043706     2.12944203     2.53805004
               3.01644009     3.57652955     4.23227104     5.00000000

     Gradients computed in reciprocal space

     ************************************************************************


 
     Adding external electric field

     Computed dipole along edir(3) : 
        Dipole               -0.0000 Ry au,         -0.0000 Debye
        Dipole field         -0.0000 Ry au
 
        Potential amp.        0.0000 Ry
        Total length         45.1408 bohr
 
     Starting wfc are  138 randomized atomic wfcs

     total cpu time spent up to now is       26.4 secs

     per-process dynamical memory:    37.3 Mb

     Self-consistent Calculation

     iteration #  1     ecut=    36.75 Ry     beta=0.10
     Davidson diagonalization with overlap
     ethr =  1.00E-02,  avg # of iterations =  7.0

     negative rho (up, down):  1.798E-03 0.000E+00
 
     Adding external electric field

     Computed dipole along edir(3) : 
        Dipole               -0.7830 Ry au,         -1.9901 Debye
        Dipole field         -0.0023 Ry au
 
        Potential amp.        0.2042 Ry
        Total length         45.1408 bohr
 

     total cpu time spent up to now is      162.3 secs

     total energy              =   -4236.75764920 Ry
     Harris-Foulkes estimate   =   -4303.86041705 Ry
     estimated scf accuracy    <     374.81729301 Ry

     iteration #  2     ecut=    36.75 Ry     beta=0.10
     Davidson diagonalization with overlap
     ethr =  1.00E-02,  avg # of iterations =  3.8

     negative rho (up, down):  2.103E-03 0.000E+00
 
     Adding external electric field

     Computed dipole along edir(3) : 
        Dipole               -0.3369 Ry au,         -0.8563 Debye
        Dipole field         -0.0010 Ry au
 
        Potential amp.        0.0879 Ry
        Total length         45.1408 bohr
 

     total cpu time spent up to now is      261.2 secs

     total energy              =   -4278.31028971 Ry
     Harris-Foulkes estimate   =   -4284.91214418 Ry
     estimated scf accuracy    <      41.62469304 Ry

     iteration #  3     ecut=    36.75 Ry     beta=0.10
     Davidson diagonalization with overlap
     ethr =  1.00E-02,  avg # of iterations =  2.2

     negative rho (up, down):  2.555E-03 0.000E+00
 
     Adding external electric field

     Computed dipole along edir(3) : 
        Dipole               -1.1314 Ry au,         -2.8759 Debye
        Dipole field         -0.0033 Ry au
 
        Potential amp.        0.2951 Ry
        Total length         45.1408 bohr
 

     total cpu time spent up to now is      323.0 secs

     total energy              =   -4278.76551134 Ry
     Harris-Foulkes estimate   =   -4280.90339922 Ry
     estimated scf accuracy    <      16.35638380 Ry

     iteration #  4     ecut=    36.75 Ry     beta=0.10
     Davidson diagonalization with overlap
     ethr =  7.68E-03,  avg # of iterations =  1.0

     negative rho (up, down):  2.568E-03 0.000E+00
 
     Adding external electric field

     Computed dipole along edir(3) : 
        Dipole               -0.0392 Ry au,         -0.0996 Debye
        Dipole field         -0.0001 Ry au
 
        Potential amp.        0.0102 Ry
        Total length         45.1408 bohr
 

     total cpu time spent up to now is      378.9 secs

     total energy              =   -4278.21675925 Ry
     Harris-Foulkes estimate   =   -4279.98602121 Ry
     estimated scf accuracy    <      31.50631383 Ry

     iteration #  5     ecut=    36.75 Ry     beta=0.10
     Davidson diagonalization with overlap
     ethr =  7.68E-03,  avg # of iterations =  1.0

     negative rho (up, down):  2.960E-03 0.000E+00
 
     Adding external electric field

     Computed dipole along edir(3) : 
        Dipole               -0.3251 Ry au,         -0.8263 Debye
        Dipole field         -0.0009 Ry au
 
        Potential amp.        0.0848 Ry
        Total length         45.1408 bohr
 

     total cpu time spent up to now is      436.7 secs

     total energy              =   -4277.76262646 Ry
     Harris-Foulkes estimate   =   -4279.37666525 Ry
     estimated scf accuracy    <      15.88431887 Ry

     iteration #  6     ecut=    36.75 Ry     beta=0.10
     Davidson diagonalization with overlap
     ethr =  7.46E-03,  avg # of iterations =  1.3

     negative rho (up, down):  2.585E-03 0.000E+00
 
     Adding external electric field

     Computed dipole along edir(3) : 
        Dipole               -0.3109 Ry au,         -0.7902 Debye
        Dipole field         -0.0009 Ry au
 
        Potential amp.        0.0811 Ry
        Total length         45.1408 bohr
 

     total cpu time spent up to now is      495.9 secs

     total energy              =   -4277.72695831 Ry
     Harris-Foulkes estimate   =   -4278.39015525 Ry
     estimated scf accuracy    <       3.09027477 Ry

     iteration #  7     ecut=    36.75 Ry     beta=0.10
     Davidson diagonalization with overlap
     ethr =  1.45E-03,  avg # of iterations =  2.6

     negative rho (up, down):  2.317E-03 0.000E+00
 
     Adding external electric field

     Computed dipole along edir(3) : 
        Dipole               -0.2547 Ry au,         -0.6473 Debye
        Dipole field         -0.0007 Ry au
 
        Potential amp.        0.0664 Ry
        Total length         45.1408 bohr
 

     total cpu time spent up to now is      560.6 secs

     total energy              =   -4278.11711107 Ry
     Harris-Foulkes estimate   =   -4278.50737110 Ry
     estimated scf accuracy    <      11.71903083 Ry

     iteration #  8     ecut=    36.75 Ry     beta=0.10
     Davidson diagonalization with overlap
     ethr =  1.45E-03,  avg # of iterations =  1.1

     negative rho (up, down):  2.418E-03 0.000E+00
 
     Adding external electric field

     Computed dipole along edir(3) : 
        Dipole               -0.2238 Ry au,         -0.5688 Debye
        Dipole field         -0.0006 Ry au
 
        Potential amp.        0.0584 Ry
        Total length         45.1408 bohr
 

     total cpu time spent up to now is      619.8 secs

     total energy              =   -4278.17375523 Ry
     Harris-Foulkes estimate   =   -4278.20647639 Ry
     estimated scf accuracy    <       4.88763652 Ry

     iteration #  9     ecut=    36.75 Ry     beta=0.10
     Davidson diagonalization with overlap
     ethr =  1.45E-03,  avg # of iterations =  1.0

     negative rho (up, down):  2.163E-03 0.000E+00
 
     Adding external electric field

     Computed dipole along edir(3) : 
        Dipole               -0.0740 Ry au,         -0.1882 Debye
        Dipole field         -0.0002 Ry au
 
        Potential amp.        0.0193 Ry
        Total length         45.1408 bohr
 

     total cpu time spent up to now is      680.6 secs

     total energy              =   -4277.52363889 Ry
     Harris-Foulkes estimate   =   -4278.20702110 Ry
     estimated scf accuracy    <       7.22407345 Ry

     iteration # 10     ecut=    36.75 Ry     beta=0.10
     Davidson diagonalization with overlap
     ethr =  1.45E-03,  avg # of iterations =  5.3

     negative rho (up, down):  2.133E-03 0.000E+00
 
     Adding external electric field

     Computed dipole along edir(3) : 
        Dipole               -0.0707 Ry au,         -0.1796 Debye
        Dipole field         -0.0002 Ry au
 
        Potential amp.        0.0184 Ry
        Total length         45.1408 bohr
 

     total cpu time spent up to now is      750.4 secs

     total energy              =   -4278.00098309 Ry
     Harris-Foulkes estimate   =   -4278.13563535 Ry
     estimated scf accuracy    <       6.62504263 Ry

     iteration # 11     ecut=    36.75 Ry     beta=0.10
     Davidson diagonalization with overlap
     ethr =  1.45E-03,  avg # of iterations =  1.1

     negative rho (up, down):  1.963E-03 0.000E+00
 
     Adding external electric field

     Computed dipole along edir(3) : 
        Dipole               -0.0220 Ry au,         -0.0560 Debye
        Dipole field         -0.0001 Ry au
 
        Potential amp.        0.0057 Ry
        Total length         45.1408 bohr
 

     total cpu time spent up to now is      808.5 secs

     total energy              =   -4277.93683300 Ry
     Harris-Foulkes estimate   =   -4278.02696813 Ry
     estimated scf accuracy    <       2.54720007 Ry

     iteration # 12     ecut=    36.75 Ry     beta=0.10
     Davidson diagonalization with overlap
     ethr =  1.20E-03,  avg # of iterations =  3.8

     negative rho (up, down):  1.822E-03 0.000E+00
 
     Adding external electric field

     Computed dipole along edir(3) : 
        Dipole               -0.0089 Ry au,         -0.0225 Debye
        Dipole field         -0.0000 Ry au
 
        Potential amp.        0.0023 Ry
        Total length         45.1408 bohr
 

     total cpu time spent up to now is      873.4 secs

     total energy              =   -4277.95851958 Ry
     Harris-Foulkes estimate   =   -4277.96685507 Ry
     estimated scf accuracy    <       0.26777511 Ry

     iteration # 13     ecut=    36.75 Ry     beta=0.10
     Davidson diagonalization with overlap
     ethr =  1.26E-04,  avg # of iterations =  6.3

     negative rho (up, down):  1.818E-03 0.000E+00
 
     Adding external electric field

     Computed dipole along edir(3) : 
        Dipole               -0.0166 Ry au,         -0.0423 Debye
        Dipole field         -0.0000 Ry au
 
        Potential amp.        0.0043 Ry
        Total length         45.1408 bohr
 

     total cpu time spent up to now is      946.7 secs

     total energy              =   -4277.94424443 Ry
     Harris-Foulkes estimate   =   -4277.96679866 Ry
     estimated scf accuracy    <       0.60571461 Ry

     iteration # 14     ecut=    36.75 Ry     beta=0.10
     Davidson diagonalization with overlap
     ethr =  1.26E-04,  avg # of iterations =  1.2

     negative rho (up, down):  1.818E-03 0.000E+00
 
     Adding external electric field

     Computed dipole along edir(3) : 
        Dipole               -0.0081 Ry au,         -0.0205 Debye
        Dipole field         -0.0000 Ry au
 
        Potential amp.        0.0021 Ry
        Total length         45.1408 bohr
 

     total cpu time spent up to now is     1004.9 secs

     total energy              =   -4277.95454479 Ry
     Harris-Foulkes estimate   =   -4277.95486173 Ry
     estimated scf accuracy    <       0.01104008 Ry

     iteration # 15     ecut=    36.75 Ry     beta=0.10
     Davidson diagonalization with overlap
     ethr =  5.18E-06,  avg # of iterations =  4.5

     negative rho (up, down):  1.825E-03 0.000E+00
 
     Adding external electric field

     Computed dipole along edir(3) : 
        Dipole               -0.0035 Ry au,         -0.0089 Debye
        Dipole field         -0.0000 Ry au
 
        Potential amp.        0.0009 Ry
        Total length         45.1408 bohr
 

     total cpu time spent up to now is     1073.1 secs

     total energy              =   -4277.95215762 Ry
     Harris-Foulkes estimate   =   -4277.95545863 Ry
     estimated scf accuracy    <       0.05376462 Ry

     iteration # 16     ecut=    36.75 Ry     beta=0.10
     Davidson diagonalization with overlap
     ethr =  5.18E-06,  avg # of iterations =  5.3

     negative rho (up, down):  2.065E-03 0.000E+00
 
     Adding external electric field

     Computed dipole along edir(3) : 
        Dipole               -0.0015 Ry au,         -0.0038 Debye
        Dipole field         -0.0000 Ry au
 
        Potential amp.        0.0004 Ry
        Total length         45.1408 bohr
 

     total cpu time spent up to now is     1142.6 secs

     total energy              =   -4277.95401470 Ry
     Harris-Foulkes estimate   =   -4277.95500954 Ry
     estimated scf accuracy    <       0.02777273 Ry

     iteration # 17     ecut=    36.75 Ry     beta=0.10
     Davidson diagonalization with overlap
     ethr =  5.18E-06,  avg # of iterations =  5.7

     negative rho (up, down):  2.157E-03 0.000E+00
 
     Adding external electric field

     Computed dipole along edir(3) : 
        Dipole               -0.0002 Ry au,         -0.0006 Debye
        Dipole field         -0.0000 Ry au
 
        Potential amp.        0.0001 Ry
        Total length         45.1408 bohr
 

     total cpu time spent up to now is     1210.8 secs

     total energy              =   -4277.95459087 Ry
     Harris-Foulkes estimate   =   -4277.95458435 Ry
     estimated scf accuracy    <       0.00037971 Ry

     iteration # 18     ecut=    36.75 Ry     beta=0.10
     Davidson diagonalization with overlap
     ethr =  1.78E-07,  avg # of iterations =  2.6

     negative rho (up, down):  2.376E-03 0.000E+00
 
     Adding external electric field

     Computed dipole along edir(3) : 
        Dipole               -0.0009 Ry au,         -0.0024 Debye
        Dipole field         -0.0000 Ry au
 
        Potential amp.        0.0002 Ry
        Total length         45.1408 bohr
 

     total cpu time spent up to now is     1274.5 secs

     total energy              =   -4277.95460250 Ry
     Harris-Foulkes estimate   =   -4277.95459842 Ry
     estimated scf accuracy    <       0.00031514 Ry

     iteration # 19     ecut=    36.75 Ry     beta=0.10
     Davidson diagonalization with overlap
     ethr =  1.48E-07,  avg # of iterations =  2.7

     negative rho (up, down):  2.692E-03 0.000E+00
 
     Adding external electric field

     Computed dipole along edir(3) : 
        Dipole               -0.0002 Ry au,         -0.0005 Debye
        Dipole field         -0.0000 Ry au
 
        Potential amp.        0.0000 Ry
        Total length         45.1408 bohr
 

     total cpu time spent up to now is     1336.6 secs

     total energy              =   -4277.95460810 Ry
     Harris-Foulkes estimate   =   -4277.95460661 Ry
     estimated scf accuracy    <       0.00029789 Ry

     iteration # 20     ecut=    36.75 Ry     beta=0.10
     Davidson diagonalization with overlap
     ethr =  1.40E-07,  avg # of iterations =  1.0

     negative rho (up, down):  2.948E-03 0.000E+00
 
     Adding external electric field

     Computed dipole along edir(3) : 
        Dipole                0.0004 Ry au,          0.0009 Debye
        Dipole field          0.0000 Ry au
 
        Potential amp.       -0.0001 Ry
        Total length         45.1408 bohr
 

     total cpu time spent up to now is     1396.9 secs

     total energy              =   -4277.95460831 Ry
     Harris-Foulkes estimate   =   -4277.95460981 Ry
     estimated scf accuracy    <       0.00015623 Ry

     iteration # 21     ecut=    36.75 Ry     beta=0.10
     Davidson diagonalization with overlap
     ethr =  7.33E-08,  avg # of iterations =  1.0

     negative rho (up, down):  2.853E-03 0.000E+00
 
     Adding external electric field

     Computed dipole along edir(3) : 
        Dipole                0.0002 Ry au,          0.0005 Debye
        Dipole field          0.0000 Ry au
 
        Potential amp.       -0.0000 Ry
        Total length         45.1408 bohr
 

     total cpu time spent up to now is     1454.6 secs

     total energy              =   -4277.95461012 Ry
     Harris-Foulkes estimate   =   -4277.95460973 Ry
     estimated scf accuracy    <       0.00002827 Ry

     iteration # 22     ecut=    36.75 Ry     beta=0.10
     Davidson diagonalization with overlap
     ethr =  1.33E-08,  avg # of iterations =  2.0

     negative rho (up, down):  2.850E-03 0.000E+00
 
     Adding external electric field

     Computed dipole along edir(3) : 
        Dipole                0.0001 Ry au,          0.0003 Debye
        Dipole field          0.0000 Ry au
 
        Potential amp.       -0.0000 Ry
        Total length         45.1408 bohr
 

     total cpu time spent up to now is     1518.1 secs

     total energy              =   -4277.95461083 Ry
     Harris-Foulkes estimate   =   -4277.95461107 Ry
     estimated scf accuracy    <       0.00000871 Ry

     iteration # 23     ecut=    36.75 Ry     beta=0.10
     Davidson diagonalization with overlap
     ethr =  4.09E-09,  avg # of iterations =  2.1

     negative rho (up, down):  2.743E-03 0.000E+00

     negative rho (up, down):  2.743E-03 0.000E+00

     negative rho (up, down):  2.743E-03 0.000E+00

     negative rho (up, down):  2.743E-03 0.000E+00

     negative rho (up, down):  2.743E-03 0.000E+00

     negative rho (up, down):  2.743E-03 0.000E+00

     negative rho (up, down):  2.743E-03 0.000E+00

     negative rho (up, down):  2.743E-03 0.000E+00

     negative rho (up, down):  2.743E-03 0.000E+00

     negative rho (up, down):  2.743E-03 0.000E+00

     negative rho (up, down):  2.743E-03 0.000E+00

     negative rho (up, down):  2.743E-03 0.000E+00

     negative rho (up, down):  2.743E-03 0.000E+00

     negative rho (up, down):  2.743E-03 0.000E+00

     negative rho (up, down):  2.743E-03 0.000E+00

     negative rho (up, down):  2.743E-03 0.000E+00

     negative rho (up, down):  2.743E-03 0.000E+00

     negative rho (up, down):  2.743E-03 0.000E+00

     negative rho (up, down):  2.743E-03 0.000E+00

     negative rho (up, down):  2.743E-03 0.000E+00

     negative rho (up, down):  2.743E-03 0.000E+00

     negative rho (up, down):  2.743E-03 0.000E+00

     negative rho (up, down):  2.743E-03 0.000E+00

     negative rho (up, down):  2.743E-03 0.000E+00

     negative rho (up, down):  2.743E-03 0.000E+00

     negative rho (up, down):  2.743E-03 0.000E+00

     negative rho (up, down):  2.743E-03 0.000E+00

     negative rho (up, down):  2.743E-03 0.000E+00

     negative rho (up, down):  2.743E-03 0.000E+00

     negative rho (up, down):  2.743E-03 0.000E+00

     negative rho (up, down):  2.743E-03 0.000E+00

     negative rho (up, down):  2.743E-03 0.000E+00

     negative rho (up, down):  2.743E-03 0.000E+00

     negative rho (up, down):  2.743E-03 0.000E+00

     negative rho (up, down):  2.743E-03 0.000E+00
 
     Adding external electric field

     Computed dipole along edir(3) : 
        Dipole                0.0001 Ry au,          0.0002 Debye
        Dipole field          0.0000 Ry au
 
        Potential amp.       -0.0000 Ry
        Total length         45.1408 bohr
 

     total cpu time spent up to now is     1626.1 secs

     End of self-consistent calculation

          k = 0.0000 0.0000 0.0000 ( 16283 PWs)   bands (ev):

   -94.2684 -94.2633 -94.2633 -94.2144 -94.2126 -94.2126 -94.2098 -94.2098
   -94.2080 -94.0264 -94.0263 -94.0225 -94.0225 -94.0224 -94.0224 -93.9964
   -93.9964 -93.9926 -93.9926 -93.9925 -93.9925 -93.9525 -93.9525 -93.9524
   -93.9524 -93.9499 -93.9498 -70.9846 -70.9846 -70.8837 -42.3261 -42.3257
   -42.2971 -42.2971 -42.2970 -42.2970 -42.2450 -42.2450 -42.1704 -14.9035
   -14.8345 -14.8322 -14.8322 -14.7034 -14.6930 -14.6930 -14.6392 -14.6377
   -14.6377 -14.6339 -14.5743 -14.5320 -14.5320 -14.5212 -14.5212 -14.5022
   -14.5022 -14.4996 -14.4767 -14.4767 -14.4321 -14.4005 -14.3821 -14.3821
   -14.3692 -14.3172 -14.2920 -14.2920 -14.2693 -14.2693 -14.2506 -14.2498
   -14.2498 -14.2464 -14.2464 -14.2291 -14.2291 -14.2121 -14.2121 -14.1854
   -14.1638 -14.1638 -14.0578 -14.0572 -10.6422  -8.7306  -6.1733  -4.7910
    -4.7910  -4.1004  -4.1004  -3.7178  -2.7973  -2.7973  -2.7105  -2.1896
    -2.0410  -2.0410  -1.5758  -0.1562  -0.1562  -0.0545  -0.0072  -0.0072
     0.4078   0.4078   0.4916   0.4916   0.7213   0.9326   0.9960   0.9960
     1.9443   1.9443   1.9843   1.9843   2.1048   2.4825   2.4825   3.3313
     3.4690   4.0290   4.5813   4.9591   5.4148   5.4148   5.5278   5.5792
     5.5792   5.9243   6.3663   6.5666   7.4499   7.5807   7.8177   8.2017

          k = 0.0000 0.0349 0.0000 ( 16309 PWs)   bands (ev):

   -94.2681 -94.2636 -94.2633 -94.2142 -94.2126 -94.2124 -94.2100 -94.2098
   -94.2081 -94.0262 -94.0261 -94.0227 -94.0227 -94.0225 -94.0224 -93.9962
   -93.9961 -93.9929 -93.9928 -93.9926 -93.9925 -93.9525 -93.9525 -93.9523
   -93.9523 -93.9500 -93.9500 -70.9846 -70.9846 -70.8836 -42.3261 -42.3258
   -42.2972 -42.2971 -42.2971 -42.2970 -42.2451 -42.2450 -42.1704 -14.8806
   -14.8252 -14.8206 -14.8070 -14.6963 -14.6911 -14.6842 -14.6391 -14.6274
   -14.6135 -14.6107 -14.5846 -14.5394 -14.5273 -14.5165 -14.5164 -14.5102
   -14.4978 -14.4882 -14.4697 -14.4600 -14.4245 -14.3897 -14.3795 -14.3700
   -14.3622 -14.3478 -14.3045 -14.2962 -14.2777 -14.2650 -14.2616 -14.2557
   -14.2556 -14.2506 -14.2458 -14.2449 -14.2345 -14.2306 -14.2153 -14.1890
   -14.1879 -14.1689 -14.0823 -14.0816 -10.4587  -8.5707  -6.2287  -5.8783
    -5.1786  -4.8292  -3.8431  -3.7478  -2.7832  -2.7625  -2.1819  -1.8608
    -1.7390  -1.6382  -1.0029  -0.7156  -0.2985  -0.1129  -0.0886   0.1100
     0.2429   0.2644   0.5645   0.6609   0.8352   0.9873   1.0227   1.1085
     1.7868   1.9566   2.0996   2.1084   2.3229   2.8273   3.0613   3.7942
     4.0834   4.1939   4.7523   4.9131   5.1346   5.1655   5.2781   5.8523
     5.8869   6.1143   6.5314   6.8275   7.1375   7.4908   7.8566   8.1137

          k = 0.0000 0.0698 0.0000 ( 16366 PWs)   bands (ev):

   -94.2673 -94.2643 -94.2633 -94.2139 -94.2126 -94.2120 -94.2104 -94.2098
   -94.2085 -94.0255 -94.0254 -94.0233 -94.0232 -94.0225 -94.0224 -93.9957
   -93.9956 -93.9935 -93.9934 -93.9926 -93.9925 -93.9526 -93.9525 -93.9519
   -93.9519 -93.9504 -93.9504 -70.9846 -70.9846 -70.8836 -42.3261 -42.3258
   -42.2973 -42.2973 -42.2972 -42.2971 -42.2453 -42.2451 -42.1704 -14.8428
   -14.7876 -14.7872 -14.7421 -14.7014 -14.6631 -14.6622 -14.6417 -14.6132
   -14.6036 -14.5970 -14.5811 -14.5575 -14.5375 -14.5186 -14.5041 -14.4881
   -14.4695 -14.4417 -14.4293 -14.4164 -14.4043 -14.3999 -14.3716 -14.3631
   -14.3448 -14.3394 -14.3321 -14.3049 -14.3044 -14.2997 -14.2916 -14.2821
   -14.2792 -14.2745 -14.2643 -14.2553 -14.2501 -14.2422 -14.2344 -14.2249
   -14.2027 -14.1965 -14.1317 -14.1278  -9.9166  -8.2424  -7.3961  -6.0695
    -5.6494  -5.5758  -4.4973  -3.9510  -3.0716  -2.1950  -2.0593  -1.6060
    -1.3166  -1.1205  -0.6031  -0.5273  -0.3206  -0.2606  -0.1389   0.0208
     0.4729   0.6236   0.7038   0.8181   1.0334   1.0985   1.1439   1.4967
     1.8113   2.1041   2.2903   2.6603   2.7106   3.5183   3.7383   3.9511
     4.2023   4.3902   4.8602   5.1489   5.2442   5.5570   5.7467   5.8885
     6.1912   6.3403   6.3818   6.5779   6.6196   6.8530   7.1910   7.5826

          k = 0.0000-0.1048 0.0000 ( 16384 PWs)   bands (ev):

   -94.2667 -94.2649 -94.2633 -94.2137 -94.2126 -94.2118 -94.2106 -94.2098
   -94.2086 -94.0250 -94.0250 -94.0237 -94.0236 -94.0225 -94.0224 -93.9953
   -93.9952 -93.9939 -93.9939 -93.9926 -93.9925 -93.9526 -93.9526 -93.9517
   -93.9516 -93.9507 -93.9507 -70.9846 -70.9846 -70.8836 -42.3261 -42.3258
   -42.2974 -42.2974 -42.2972 -42.2971 -42.2454 -42.2451 -42.1704 -14.8336
   -14.7643 -14.7320 -14.7079 -14.6810 -14.6578 -14.6526 -14.6480 -14.6435
   -14.6240 -14.6074 -14.5821 -14.5342 -14.5306 -14.5282 -14.5021 -14.4624
   -14.4338 -14.4272 -14.4155 -14.3839 -14.3796 -14.3680 -14.3627 -14.3486
   -14.3356 -14.3266 -14.3250 -14.3171 -14.3147 -14.3144 -14.3139 -14.3135
   -14.3070 -14.3062 -14.2994 -14.2867 -14.2800 -14.2386 -14.2373 -14.2294
   -14.2263 -14.2255 -14.1454 -14.1440  -9.2075  -8.8264  -7.0521  -7.0442
    -5.7170  -5.5998  -4.6358  -4.0472  -3.2953  -2.6679  -1.6385  -1.4167
    -1.1419  -0.9294  -0.8377  -0.6000  -0.5279  -0.0746   0.0686   0.5699
     0.6091   0.6959   0.8799   0.9922   1.0304   1.1796   1.3340   1.3930
     2.0023   2.1293   2.8379   3.2111   3.2595   3.5940   3.7492   3.9703
     4.1578   4.4592   4.5462   4.7485   5.3743   5.6525   5.7782   5.8435
     5.8987   6.1754   6.4235   6.4799   6.9312   6.9819   7.0757   7.3202

          k = 0.0302 0.0175 0.0000 ( 16309 PWs)   bands (ev):

   -94.2681 -94.2636 -94.2633 -94.2142 -94.2126 -94.2124 -94.2100 -94.2098
   -94.2081 -94.0262 -94.0261 -94.0227 -94.0227 -94.0225 -94.0224 -93.9962
   -93.9961 -93.9929 -93.9928 -93.9926 -93.9925 -93.9525 -93.9525 -93.9523
   -93.9523 -93.9500 -93.9500 -70.9846 -70.9846 -70.8836 -42.3261 -42.3258
   -42.2972 -42.2971 -42.2971 -42.2970 -42.2451 -42.2450 -42.1704 -14.8806
   -14.8252 -14.8206 -14.8070 -14.6963 -14.6911 -14.6842 -14.6391 -14.6274
   -14.6135 -14.6107 -14.5846 -14.5394 -14.5273 -14.5165 -14.5164 -14.5102
   -14.4978 -14.4882 -14.4697 -14.4600 -14.4245 -14.3897 -14.3795 -14.3700
   -14.3622 -14.3478 -14.3045 -14.2962 -14.2777 -14.2650 -14.2616 -14.2557
   -14.2556 -14.2506 -14.2458 -14.2449 -14.2345 -14.2306 -14.2153 -14.1890
   -14.1879 -14.1689 -14.0823 -14.0816 -10.4587  -8.5707  -6.2287  -5.8783
    -5.1786  -4.8292  -3.8431  -3.7478  -2.7832  -2.7625  -2.1819  -1.8608
    -1.7390  -1.6382  -1.0029  -0.7156  -0.2985  -0.1129  -0.0886   0.1100
     0.2429   0.2644   0.5645   0.6609   0.8352   0.9873   1.0227   1.1085
     1.7868   1.9566   2.0996   2.1084   2.3229   2.8273   3.0613   3.7942
     4.0834   4.1939   4.7523   4.9131   5.1346   5.1655   5.2781   5.8523
     5.8869   6.1143   6.5314   6.8275   7.1375   7.4908   7.8566   8.1137

          k = 0.0302 0.0524 0.0000 ( 16362 PWs)   bands (ev):

   -94.2675 -94.2641 -94.2633 -94.2140 -94.2126 -94.2121 -94.2103 -94.2097
   -94.2084 -94.0257 -94.0256 -94.0231 -94.0230 -94.0225 -94.0224 -93.9959
   -93.9958 -93.9933 -93.9932 -93.9926 -93.9925 -93.9526 -93.9525 -93.9520
   -93.9520 -93.9503 -93.9502 -70.9846 -70.9846 -70.8836 -42.3261 -42.3258
   -42.2973 -42.2972 -42.2971 -42.2971 -42.2452 -42.2451 -42.1704 -14.8413
   -14.8139 -14.7963 -14.7598 -14.6986 -14.6753 -14.6650 -14.6421 -14.6100
   -14.6078 -14.5803 -14.5711 -14.5681 -14.5362 -14.5227 -14.5116 -14.4983
   -14.4806 -14.4521 -14.4484 -14.4230 -14.4081 -14.3982 -14.3745 -14.3702
   -14.3492 -14.3483 -14.3240 -14.3086 -14.2899 -14.2881 -14.2767 -14.2740
   -14.2712 -14.2612 -14.2581 -14.2565 -14.2451 -14.2369 -14.2325 -14.2228
   -14.1921 -14.1769 -14.1242 -14.1228 -10.0953  -8.2922  -6.8190  -6.6159
    -5.5069  -5.0110  -4.7386  -3.4724  -3.1652  -2.1596  -2.0820  -1.7517
    -1.2731  -1.2387  -0.7010  -0.6832  -0.4004  -0.1645  -0.0637   0.0155
     0.3409   0.5445   0.5821   0.8398   0.9246   1.0778   1.1396   1.2014
     1.7946   1.9880   2.2143   2.6222   2.9677   3.0964   3.4612   3.7413
     4.0817   4.6173   4.7431   4.8325   5.4914   5.6099   5.8074   5.8912
     6.0484   6.3404   6.6617   6.7152   6.8083   6.9686   7.6271   7.6919

          k = 0.0302 0.0873 0.0000 ( 16397 PWs)   bands (ev):

   -94.2667 -94.2650 -94.2633 -94.2136 -94.2128 -94.2118 -94.2107 -94.2096
   -94.2087 -94.0250 -94.0250 -94.0237 -94.0237 -94.0225 -94.0224 -93.9953
   -93.9952 -93.9939 -93.9939 -93.9926 -93.9925 -93.9526 -93.9526 -93.9516
   -93.9516 -93.9507 -93.9507 -70.9846 -70.9846 -70.8836 -42.3261 -42.3258
   -42.2974 -42.2973 -42.2972 -42.2972 -42.2453 -42.2452 -42.1704 -14.8131
   -14.7635 -14.7612 -14.7081 -14.6932 -14.6624 -14.6548 -14.6480 -14.6309
   -14.6209 -14.5859 -14.5784 -14.5317 -14.5236 -14.5143 -14.5022 -14.4700
   -14.4608 -14.4485 -14.4196 -14.3930 -14.3764 -14.3702 -14.3648 -14.3585
   -14.3511 -14.3414 -14.3291 -14.3263 -14.3178 -14.3128 -14.3082 -14.3016
   -14.2948 -14.2840 -14.2814 -14.2659 -14.2602 -14.2448 -14.2376 -14.2330
   -14.2141 -14.2111 -14.1656 -14.1631  -9.4000  -8.3945  -7.3795  -6.9724
    -6.1364  -5.2842  -4.7736  -3.8867  -2.8475  -2.6603  -1.8476  -1.6037
    -1.0083  -0.9023  -0.6327  -0.5117  -0.4403  -0.1768   0.0449   0.4086
     0.6281   0.6576   0.7611   0.9149   1.0180   1.1991   1.3409   1.5720
     1.7460   2.1684   2.2536   2.8216   2.9637   3.5186   3.8819   4.0564
     4.0956   4.6966   4.9807   5.3203   5.4201   5.5280   5.6694   6.0394
     6.1631   6.5115   6.5343   6.6802   6.9509   7.0792   7.2361   7.2975

          k = 0.0302-0.0873 0.0000 ( 16397 PWs)   bands (ev):

   -94.2667 -94.2650 -94.2633 -94.2136 -94.2128 -94.2118 -94.2107 -94.2096
   -94.2087 -94.0250 -94.0250 -94.0237 -94.0236 -94.0225 -94.0224 -93.9953
   -93.9952 -93.9939 -93.9939 -93.9926 -93.9925 -93.9526 -93.9526 -93.9516
   -93.9516 -93.9507 -93.9507 -70.9846 -70.9846 -70.8836 -42.3261 -42.3258
   -42.2974 -42.2973 -42.2972 -42.2972 -42.2453 -42.2452 -42.1704 -14.8131
   -14.7635 -14.7612 -14.7081 -14.6932 -14.6624 -14.6548 -14.6480 -14.6309
   -14.6209 -14.5859 -14.5784 -14.5317 -14.5236 -14.5143 -14.5022 -14.4700
   -14.4608 -14.4485 -14.4196 -14.3930 -14.3764 -14.3702 -14.3648 -14.3585
   -14.3511 -14.3414 -14.3291 -14.3263 -14.3178 -14.3128 -14.3082 -14.3016
   -14.2948 -14.2840 -14.2814 -14.2659 -14.2602 -14.2448 -14.2376 -14.2330
   -14.2141 -14.2111 -14.1656 -14.1631  -9.4000  -8.3945  -7.3795  -6.9724
    -6.1364  -5.2842  -4.7736  -3.8867  -2.8475  -2.6603  -1.8476  -1.6037
    -1.0083  -0.9023  -0.6327  -0.5117  -0.4403  -0.1768   0.0449   0.4086
     0.6281   0.6576   0.7611   0.9149   1.0180   1.1991   1.3409   1.5720
     1.7460   2.1684   2.2536   2.8216   2.9637   3.5186   3.8819   4.0564
     4.0956   4.6966   4.9807   5.3203   5.4201   5.5280   5.6694   6.0394
     6.1631   6.5115   6.5343   6.6802   6.9509   7.0792   7.2361   7.2975

          k = 0.0302-0.0524 0.0000 ( 16362 PWs)   bands (ev):

   -94.2675 -94.2641 -94.2633 -94.2140 -94.2126 -94.2121 -94.2103 -94.2097
   -94.2084 -94.0257 -94.0256 -94.0231 -94.0230 -94.0225 -94.0224 -93.9959
   -93.9958 -93.9933 -93.9932 -93.9926 -93.9925 -93.9526 -93.9525 -93.9520
   -93.9520 -93.9503 -93.9502 -70.9846 -70.9846 -70.8836 -42.3261 -42.3258
   -42.2973 -42.2972 -42.2971 -42.2971 -42.2452 -42.2451 -42.1704 -14.8413
   -14.8139 -14.7963 -14.7598 -14.6986 -14.6753 -14.6650 -14.6421 -14.6100
   -14.6078 -14.5803 -14.5711 -14.5681 -14.5362 -14.5227 -14.5116 -14.4983
   -14.4806 -14.4521 -14.4484 -14.4230 -14.4081 -14.3982 -14.3745 -14.3702
   -14.3492 -14.3483 -14.3240 -14.3086 -14.2899 -14.2881 -14.2767 -14.2740
   -14.2712 -14.2612 -14.2581 -14.2565 -14.2451 -14.2369 -14.2325 -14.2228
   -14.1921 -14.1769 -14.1242 -14.1228 -10.0953  -8.2922  -6.8190  -6.6159
    -5.5069  -5.0110  -4.7386  -3.4724  -3.1652  -2.1596  -2.0820  -1.7517
    -1.2731  -1.2387  -0.7010  -0.6832  -0.4004  -0.1645  -0.0637   0.0155
     0.3409   0.5445   0.5821   0.8398   0.9246   1.0778   1.1396   1.2014
     1.7946   1.9880   2.2143   2.6222   2.9677   3.0964   3.4612   3.7413
     4.0817   4.6173   4.7431   4.8325   5.4914   5.6099   5.8074   5.8912
     6.0484   6.3404   6.6617   6.7152   6.8083   6.9686   7.6271   7.6918

          k = 0.0302-0.0175 0.0000 ( 16309 PWs)   bands (ev):

   -94.2681 -94.2636 -94.2633 -94.2142 -94.2126 -94.2124 -94.2100 -94.2098
   -94.2081 -94.0262 -94.0261 -94.0227 -94.0227 -94.0225 -94.0224 -93.9962
   -93.9961 -93.9929 -93.9928 -93.9926 -93.9925 -93.9525 -93.9525 -93.9523
   -93.9523 -93.9500 -93.9500 -70.9846 -70.9846 -70.8836 -42.3261 -42.3258
   -42.2972 -42.2971 -42.2971 -42.2970 -42.2451 -42.2450 -42.1704 -14.8806
   -14.8252 -14.8206 -14.8070 -14.6963 -14.6911 -14.6842 -14.6391 -14.6274
   -14.6135 -14.6107 -14.5846 -14.5394 -14.5273 -14.5165 -14.5164 -14.5102
   -14.4978 -14.4882 -14.4697 -14.4600 -14.4245 -14.3897 -14.3795 -14.3700
   -14.3622 -14.3478 -14.3045 -14.2962 -14.2777 -14.2650 -14.2616 -14.2557
   -14.2556 -14.2506 -14.2458 -14.2449 -14.2345 -14.2306 -14.2153 -14.1890
   -14.1879 -14.1689 -14.0823 -14.0816 -10.4587  -8.5707  -6.2287  -5.8783
    -5.1786  -4.8292  -3.8431  -3.7478  -2.7832  -2.7625  -2.1819  -1.8608
    -1.7390  -1.6382  -1.0029  -0.7156  -0.2985  -0.1129  -0.0886   0.1100
     0.2429   0.2644   0.5645   0.6609   0.8352   0.9873   1.0227   1.1085
     1.7868   1.9566   2.0996   2.1084   2.3229   2.8273   3.0613   3.7942
     4.0834   4.1939   4.7523   4.9131   5.1346   5.1655   5.2780   5.8523
     5.8869   6.1143   6.5314   6.8275   7.1375   7.4908   7.8566   8.1137

          k = 0.0605 0.0349 0.0000 ( 16366 PWs)   bands (ev):

   -94.2673 -94.2643 -94.2633 -94.2139 -94.2126 -94.2121 -94.2104 -94.2098
   -94.2085 -94.0255 -94.0254 -94.0233 -94.0232 -94.0225 -94.0224 -93.9957
   -93.9956 -93.9935 -93.9934 -93.9926 -93.9925 -93.9526 -93.9525 -93.9519
   -93.9519 -93.9504 -93.9504 -70.9846 -70.9846 -70.8836 -42.3261 -42.3258
   -42.2973 -42.2973 -42.2972 -42.2971 -42.2453 -42.2451 -42.1704 -14.8428
   -14.7876 -14.7872 -14.7421 -14.7014 -14.6631 -14.6622 -14.6417 -14.6132
   -14.6036 -14.5969 -14.5811 -14.5575 -14.5375 -14.5186 -14.5041 -14.4881
   -14.4695 -14.4417 -14.4293 -14.4164 -14.4043 -14.3999 -14.3716 -14.3631
   -14.3448 -14.3394 -14.3321 -14.3049 -14.3044 -14.2997 -14.2916 -14.2821
   -14.2792 -14.2745 -14.2643 -14.2553 -14.2501 -14.2422 -14.2344 -14.2249
   -14.2027 -14.1965 -14.1317 -14.1278  -9.9166  -8.2424  -7.3961  -6.0695
    -5.6494  -5.5758  -4.4973  -3.9510  -3.0716  -2.1949  -2.0593  -1.6060
    -1.3166  -1.1205  -0.6031  -0.5273  -0.3206  -0.2606  -0.1389   0.0208
     0.4729   0.6236   0.7038   0.8181   1.0334   1.0985   1.1439   1.4967
     1.8113   2.1041   2.2903   2.6603   2.7106   3.5183   3.7383   3.9511
     4.2023   4.3902   4.8602   5.1489   5.2442   5.5570   5.7467   5.8885
     6.1912   6.3403   6.3818   6.5779   6.6196   6.8530   7.1910   7.5825

          k = 0.0605 0.0698 0.0000 ( 16397 PWs)   bands (ev):

   -94.2667 -94.2650 -94.2633 -94.2136 -94.2128 -94.2118 -94.2107 -94.2096
   -94.2087 -94.0250 -94.0250 -94.0237 -94.0237 -94.0225 -94.0224 -93.9953
   -93.9952 -93.9939 -93.9939 -93.9926 -93.9925 -93.9526 -93.9526 -93.9516
   -93.9516 -93.9507 -93.9507 -70.9846 -70.9846 -70.8836 -42.3261 -42.3258
   -42.2974 -42.2973 -42.2972 -42.2972 -42.2453 -42.2452 -42.1704 -14.8131
   -14.7635 -14.7612 -14.7081 -14.6932 -14.6624 -14.6548 -14.6480 -14.6309
   -14.6209 -14.5859 -14.5784 -14.5317 -14.5236 -14.5143 -14.5022 -14.4700
   -14.4608 -14.4485 -14.4196 -14.3930 -14.3764 -14.3702 -14.3648 -14.3585
   -14.3511 -14.3414 -14.3291 -14.3263 -14.3178 -14.3128 -14.3082 -14.3016
   -14.2948 -14.2840 -14.2814 -14.2659 -14.2602 -14.2448 -14.2376 -14.2330
   -14.2141 -14.2111 -14.1656 -14.1631  -9.4000  -8.3945  -7.3795  -6.9724
    -6.1364  -5.2842  -4.7736  -3.8867  -2.8475  -2.6603  -1.8476  -1.6037
    -1.0083  -0.9023  -0.6327  -0.5117  -0.4403  -0.1768   0.0449   0.4086
     0.6281   0.6576   0.7611   0.9149   1.0180   1.1991   1.3409   1.5720
     1.7460   2.1684   2.2536   2.8216   2.9637   3.5186   3.8819   4.0564
     4.0956   4.6966   4.9807   5.3203   5.4201   5.5280   5.6694   6.0394
     6.1631   6.5115   6.5343   6.6802   6.9509   7.0792   7.2361   7.2975

          k = 0.0605 0.1048 0.0000 ( 16392 PWs)   bands (ev):

   -94.2658 -94.2658 -94.2632 -94.2132 -94.2132 -94.2117 -94.2108 -94.2092
   -94.2092 -94.0244 -94.0244 -94.0243 -94.0243 -94.0225 -94.0224 -93.9946
   -93.9946 -93.9945 -93.9945 -93.9925 -93.9925 -93.9527 -93.9526 -93.9512
   -93.9511 -93.9511 -93.9511 -70.9846 -70.9846 -70.8836 -42.3260 -42.3258
   -42.2973 -42.2973 -42.2973 -42.2973 -42.2453 -42.2453 -42.1704 -14.7780
   -14.7339 -14.7339 -14.7264 -14.7264 -14.6511 -14.6502 -14.6502 -14.6498
   -14.5997 -14.5997 -14.5462 -14.5287 -14.5287 -14.5154 -14.4525 -14.4523
   -14.4485 -14.4475 -14.4473 -14.4203 -14.3953 -14.3811 -14.3732 -14.3730
   -14.3344 -14.3341 -14.3306 -14.3289 -14.3205 -14.3203 -14.2916 -14.2877
   -14.2875 -14.2823 -14.2821 -14.2468 -14.2463 -14.2462 -14.2407 -14.2407
   -14.2254 -14.2219 -14.2079 -14.2077  -8.7174  -8.7173  -7.9006  -6.6881
    -6.1890  -6.1890  -4.1205  -3.7358  -3.7358  -1.8459  -1.8459  -1.2694
    -1.2266  -0.7308  -0.7308  -0.5211  -0.5210  -0.3184   0.0563   0.6452
     0.6452   0.7473   0.9278   0.9279   1.2818   1.2818   1.4182   1.4182
     1.6847   1.7652   2.0644   2.7852   2.7852   3.6931   3.8383   3.8383
     4.5102   4.5103   5.0751   5.7393   6.0034   6.0035   6.3097   6.3104
     6.3203   6.7419   6.7419   6.9487   7.0045   7.0050   7.3341   7.3344

          k = 0.0605-0.0698 0.0000 ( 16397 PWs)   bands (ev):

   -94.2667 -94.2650 -94.2633 -94.2136 -94.2128 -94.2118 -94.2107 -94.2096
   -94.2087 -94.0250 -94.0250 -94.0237 -94.0237 -94.0225 -94.0224 -93.9953
   -93.9952 -93.9939 -93.9939 -93.9926 -93.9925 -93.9526 -93.9526 -93.9516
   -93.9516 -93.9507 -93.9507 -70.9846 -70.9846 -70.8836 -42.3261 -42.3258
   -42.2974 -42.2973 -42.2972 -42.2972 -42.2453 -42.2452 -42.1704 -14.8131
   -14.7635 -14.7612 -14.7081 -14.6932 -14.6624 -14.6548 -14.6480 -14.6309
   -14.6209 -14.5859 -14.5784 -14.5317 -14.5236 -14.5143 -14.5022 -14.4700
   -14.4608 -14.4485 -14.4196 -14.3930 -14.3764 -14.3702 -14.3648 -14.3585
   -14.3511 -14.3414 -14.3291 -14.3263 -14.3178 -14.3128 -14.3082 -14.3016
   -14.2948 -14.2840 -14.2814 -14.2659 -14.2602 -14.2448 -14.2376 -14.2330
   -14.2141 -14.2111 -14.1656 -14.1631  -9.4000  -8.3945  -7.3795  -6.9724
    -6.1364  -5.2842  -4.7736  -3.8867  -2.8475  -2.6603  -1.8476  -1.6037
    -1.0083  -0.9023  -0.6327  -0.5117  -0.4403  -0.1768   0.0449   0.4086
     0.6281   0.6576   0.7611   0.9149   1.0180   1.1991   1.3409   1.5720
     1.7460   2.1684   2.2536   2.8216   2.9637   3.5186   3.8819   4.0564
     4.0956   4.6966   4.9807   5.3203   5.4201   5.5280   5.6694   6.0394
     6.1631   6.5115   6.5343   6.6802   6.9509   7.0792   7.2361   7.2975

          k = 0.0605-0.0349 0.0000 ( 16366 PWs)   bands (ev):

   -94.2673 -94.2643 -94.2633 -94.2139 -94.2126 -94.2120 -94.2104 -94.2098
   -94.2085 -94.0255 -94.0254 -94.0233 -94.0232 -94.0225 -94.0224 -93.9957
   -93.9956 -93.9935 -93.9934 -93.9926 -93.9925 -93.9526 -93.9525 -93.9519
   -93.9519 -93.9504 -93.9504 -70.9846 -70.9846 -70.8836 -42.3261 -42.3258
   -42.2973 -42.2973 -42.2972 -42.2971 -42.2453 -42.2451 -42.1704 -14.8428
   -14.7876 -14.7872 -14.7421 -14.7014 -14.6631 -14.6622 -14.6417 -14.6132
   -14.6036 -14.5969 -14.5811 -14.5575 -14.5375 -14.5186 -14.5041 -14.4881
   -14.4695 -14.4417 -14.4293 -14.4164 -14.4043 -14.4000 -14.3716 -14.3631
   -14.3448 -14.3394 -14.3321 -14.3049 -14.3044 -14.2997 -14.2916 -14.2821
   -14.2792 -14.2745 -14.2643 -14.2553 -14.2501 -14.2422 -14.2344 -14.2249
   -14.2027 -14.1965 -14.1317 -14.1278  -9.9166  -8.2424  -7.3961  -6.0695
    -5.6494  -5.5758  -4.4973  -3.9510  -3.0716  -2.1949  -2.0593  -1.6060
    -1.3166  -1.1205  -0.6031  -0.5273  -0.3206  -0.2606  -0.1389   0.0208
     0.4729   0.6236   0.7038   0.8181   1.0334   1.0985   1.1439   1.4967
     1.8113   2.1041   2.2903   2.6603   2.7106   3.5183   3.7383   3.9511
     4.2023   4.3902   4.8602   5.1489   5.2442   5.5570   5.7467   5.8885
     6.1912   6.3403   6.3818   6.5779   6.6196   6.8530   7.1910   7.5825

          k = 0.0605 0.0000 0.0000 ( 16362 PWs)   bands (ev):

   -94.2675 -94.2641 -94.2633 -94.2140 -94.2126 -94.2121 -94.2103 -94.2097
   -94.2084 -94.0257 -94.0256 -94.0231 -94.0230 -94.0225 -94.0224 -93.9959
   -93.9958 -93.9933 -93.9932 -93.9926 -93.9925 -93.9526 -93.9525 -93.9520
   -93.9520 -93.9503 -93.9502 -70.9846 -70.9846 -70.8836 -42.3261 -42.3258
   -42.2973 -42.2972 -42.2971 -42.2971 -42.2452 -42.2451 -42.1704 -14.8413
   -14.8139 -14.7963 -14.7598 -14.6986 -14.6753 -14.6650 -14.6421 -14.6100
   -14.6078 -14.5803 -14.5711 -14.5681 -14.5362 -14.5227 -14.5116 -14.4983
   -14.4806 -14.4521 -14.4484 -14.4230 -14.4081 -14.3982 -14.3745 -14.3702
   -14.3492 -14.3483 -14.3240 -14.3086 -14.2899 -14.2881 -14.2767 -14.2740
   -14.2712 -14.2612 -14.2581 -14.2565 -14.2451 -14.2369 -14.2325 -14.2228
   -14.1921 -14.1769 -14.1242 -14.1228 -10.0953  -8.2922  -6.8190  -6.6159
    -5.5069  -5.0110  -4.7386  -3.4724  -3.1652  -2.1596  -2.0820  -1.7517
    -1.2731  -1.2387  -0.7010  -0.6832  -0.4004  -0.1645  -0.0637   0.0155
     0.3409   0.5445   0.5821   0.8398   0.9246   1.0778   1.1396   1.2014
     1.7946   1.9880   2.2143   2.6222   2.9677   3.0964   3.4612   3.7413
     4.0817   4.6173   4.7431   4.8325   5.4914   5.6099   5.8074   5.8912
     6.0484   6.3404   6.6617   6.7152   6.8083   6.9686   7.6273   7.8699

          k =-0.0907-0.0524 0.0000 ( 16384 PWs)   bands (ev):

   -94.2667 -94.2649 -94.2633 -94.2137 -94.2126 -94.2119 -94.2106 -94.2098
   -94.2086 -94.0250 -94.0250 -94.0237 -94.0236 -94.0225 -94.0224 -93.9953
   -93.9952 -93.9939 -93.9939 -93.9926 -93.9925 -93.9526 -93.9526 -93.9517
   -93.9516 -93.9507 -93.9507 -70.9846 -70.9846 -70.8836 -42.3261 -42.3258
   -42.2974 -42.2974 -42.2972 -42.2971 -42.2454 -42.2451 -42.1704 -14.8336
   -14.7643 -14.7320 -14.7079 -14.6810 -14.6578 -14.6526 -14.6480 -14.6435
   -14.6240 -14.6074 -14.5821 -14.5342 -14.5305 -14.5282 -14.5021 -14.4624
   -14.4338 -14.4272 -14.4155 -14.3839 -14.3796 -14.3680 -14.3627 -14.3486
   -14.3356 -14.3266 -14.3250 -14.3171 -14.3147 -14.3144 -14.3139 -14.3135
   -14.3070 -14.3062 -14.2994 -14.2867 -14.2800 -14.2386 -14.2373 -14.2294
   -14.2263 -14.2255 -14.1454 -14.1440  -9.2075  -8.8264  -7.0521  -7.0442
    -5.7170  -5.5998  -4.6358  -4.0472  -3.2953  -2.6679  -1.6385  -1.4167
    -1.1419  -0.9294  -0.8377  -0.6000  -0.5279  -0.0746   0.0686   0.5699
     0.6091   0.6959   0.8799   0.9922   1.0304   1.1796   1.3340   1.3930
     2.0023   2.1293   2.8379   3.2111   3.2595   3.5940   3.7492   3.9703
     4.1578   4.4592   4.5462   4.7485   5.3743   5.6525   5.7782   5.8435
     5.8987   6.1754   6.4235   6.4799   6.9312   6.9819   7.0757   7.3201

          k =-0.0907-0.0175 0.0000 ( 16397 PWs)   bands (ev):

   -94.2667 -94.2650 -94.2633 -94.2136 -94.2128 -94.2118 -94.2107 -94.2096
   -94.2087 -94.0250 -94.0250 -94.0237 -94.0237 -94.0225 -94.0224 -93.9953
   -93.9952 -93.9939 -93.9939 -93.9926 -93.9925 -93.9526 -93.9526 -93.9516
   -93.9516 -93.9507 -93.9507 -70.9846 -70.9846 -70.8836 -42.3261 -42.3258
   -42.2974 -42.2973 -42.2972 -42.2972 -42.2453 -42.2452 -42.1704 -14.8131
   -14.7635 -14.7612 -14.7081 -14.6932 -14.6624 -14.6548 -14.6480 -14.6309
   -14.6209 -14.5859 -14.5784 -14.5317 -14.5236 -14.5143 -14.5022 -14.4700
   -14.4608 -14.4485 -14.4196 -14.3930 -14.3764 -14.3702 -14.3648 -14.3585
   -14.3511 -14.3414 -14.3291 -14.3263 -14.3178 -14.3128 -14.3082 -14.3016
   -14.2948 -14.2840 -14.2814 -14.2659 -14.2602 -14.2448 -14.2376 -14.2330
   -14.2141 -14.2111 -14.1656 -14.1631  -9.4000  -8.3945  -7.3795  -6.9724
    -6.1364  -5.2842  -4.7736  -3.8867  -2.8475  -2.6603  -1.8476  -1.6037
    -1.0083  -0.9023  -0.6327  -0.5117  -0.4403  -0.1768   0.0449   0.4086
     0.6281   0.6576   0.7611   0.9149   1.0180   1.1991   1.3409   1.5720
     1.7460   2.1684   2.2536   2.8216   2.9637   3.5186   3.8819   4.0564
     4.0956   4.6966   4.9807   5.3203   5.4201   5.5280   5.6694   6.0394
     6.1631   6.5115   6.5343   6.6802   6.9509   7.0792   7.2361   7.2975

          k =-0.0907 0.0175 0.0000 ( 16397 PWs)   bands (ev):

   -94.2667 -94.2650 -94.2633 -94.2136 -94.2128 -94.2118 -94.2107 -94.2096
   -94.2087 -94.0250 -94.0250 -94.0237 -94.0237 -94.0225 -94.0224 -93.9953
   -93.9952 -93.9939 -93.9939 -93.9926 -93.9925 -93.9526 -93.9526 -93.9516
   -93.9516 -93.9507 -93.9507 -70.9846 -70.9846 -70.8836 -42.3261 -42.3258
   -42.2974 -42.2973 -42.2972 -42.2972 -42.2453 -42.2452 -42.1704 -14.8131
   -14.7635 -14.7612 -14.7081 -14.6932 -14.6624 -14.6548 -14.6480 -14.6309
   -14.6209 -14.5859 -14.5784 -14.5317 -14.5236 -14.5143 -14.5022 -14.4700
   -14.4608 -14.4485 -14.4196 -14.3930 -14.3764 -14.3702 -14.3648 -14.3585
   -14.3511 -14.3414 -14.3291 -14.3263 -14.3178 -14.3128 -14.3082 -14.3016
   -14.2948 -14.2840 -14.2814 -14.2659 -14.2602 -14.2448 -14.2376 -14.2330
   -14.2141 -14.2111 -14.1656 -14.1631  -9.4000  -8.3945  -7.3795  -6.9724
    -6.1364  -5.2842  -4.7736  -3.8867  -2.8475  -2.6603  -1.8476  -1.6037
    -1.0083  -0.9023  -0.6327  -0.5117  -0.4403  -0.1768   0.0449   0.4086
     0.6281   0.6576   0.7611   0.9149   1.0180   1.1991   1.3409   1.5720
     1.7460   2.1684   2.2536   2.8216   2.9637   3.5186   3.8819   4.0564
     4.0956   4.6966   4.9807   5.3203   5.4201   5.5280   5.6694   6.0394
     6.1631   6.5115   6.5343   6.6802   6.9509   7.0792   7.2361   7.2975

          k =-0.0907-0.1571 0.0000 ( 16384 PWs)   bands (ev):

   -94.2667 -94.2649 -94.2633 -94.2137 -94.2126 -94.2119 -94.2106 -94.2098
   -94.2086 -94.0250 -94.0250 -94.0237 -94.0236 -94.0225 -94.0224 -93.9953
   -93.9952 -93.9939 -93.9939 -93.9926 -93.9925 -93.9526 -93.9526 -93.9517
   -93.9516 -93.9507 -93.9507 -70.9846 -70.9846 -70.8836 -42.3261 -42.3258
   -42.2974 -42.2974 -42.2972 -42.2971 -42.2454 -42.2451 -42.1704 -14.8336
   -14.7643 -14.7320 -14.7079 -14.6810 -14.6578 -14.6526 -14.6480 -14.6435
   -14.6240 -14.6074 -14.5821 -14.5342 -14.5305 -14.5282 -14.5021 -14.4624
   -14.4338 -14.4272 -14.4155 -14.3839 -14.3796 -14.3680 -14.3627 -14.3486
   -14.3356 -14.3266 -14.3250 -14.3171 -14.3147 -14.3144 -14.3139 -14.3135
   -14.3070 -14.3063 -14.2994 -14.2867 -14.2800 -14.2386 -14.2373 -14.2294
   -14.2263 -14.2255 -14.1454 -14.1440  -9.2075  -8.8264  -7.0521  -7.0442
    -5.7170  -5.5998  -4.6358  -4.0472  -3.2953  -2.6679  -1.6385  -1.4167
    -1.1419  -0.9294  -0.8377  -0.6000  -0.5279  -0.0746   0.0686   0.5699
     0.6091   0.6959   0.8799   0.9922   1.0304   1.1796   1.3340   1.3930
     2.0023   2.1293   2.8379   3.2111   3.2595   3.5940   3.7492   3.9703
     4.1578   4.4592   4.5462   4.7485   5.3743   5.6525   5.7782   5.8435
     5.8987   6.1754   6.4235   6.4799   6.9312   6.9819   7.0757   7.3196

     the Fermi energy is     0.7128 ev

!    total energy              =   -4277.95461249 Ry
     Harris-Foulkes estimate   =   -4277.95461119 Ry
     estimated scf accuracy    <       0.00000065 Ry

     The total energy is the sum of the following terms:

     one-electron contribution =  -28413.09322825 Ry
     hartree contribution      =   14209.76137404 Ry
     xc contribution           =    -517.98441474 Ry
     ewald contribution        =   10443.43842767 Ry
     electric field correction =       0.00000000 Ry
     smearing contrib. (-TS)   =      -0.07677122 Ry

     convergence has been achieved in  23 iterations
 
 BEEF-vdW xc energy contributions
           1 :   -461.341956571919     
           2 :    418.960058985599     
           3 :   -347.821388082276     
           4 :    268.571452598908     
           5 :   -199.624747717537     
           6 :    150.229043272538     
           7 :   -119.062626248847     
           8 :    98.2297373087571     
           9 :   -79.5919039094630     
          10 :    59.4960678008286     
          11 :   -39.5321125104928     
          12 :    23.7280789772900     
          13 :   -14.7275463136770     
          14 :    11.6886831860792     
          15 :   -11.0486609660483     
          16 :    9.17157706403947     
          17 :   -4.74586711978566     
          18 :  -0.745576730565062     
          19 :    4.59001840350675     
          20 :   -5.10027864878140     
          21 :    2.86633173149437     
          22 :  -0.200954897678116     
          23 :  -0.647794378283265     
          24 :  -0.900651940648515     
          25 :    3.50247085217597     
          26 :   -5.06335811740286     
          27 :    4.36966045529039     
          28 :   -1.94127168603120     
          29 :  -0.467714174160619     
          30 :    1.25345383048597     
          31 :   -35.4553152079866     
          32 :   -24.4682828742017     

     Forces acting on atoms (Ry/au):


     negative rho (up, down):  2.743E-03 0.000E+00
     atom    1 type  1   force =    -0.00000045    0.00885867   -0.03325167
     atom    2 type  1   force =     0.00767292   -0.00442963   -0.03324985
     atom    3 type  1   force =    -0.00767243   -0.00442939   -0.03324763
     atom    4 type  2   force =    -0.00000016    0.00000022    0.07134882
     atom    5 type  1   force =    -0.00000017   -0.00016182    0.00008457
     atom    6 type  1   force =    -0.00014002    0.00008152    0.00008404
     atom    7 type  1   force =     0.00014028    0.00008066    0.00008519
     atom    8 type  2   force =     0.00000061   -0.00000038    0.00001037
     atom    9 type  1   force =     0.00000020   -0.00875343    0.03314526
     atom   10 type  1   force =    -0.00758060    0.00437664    0.03314406
     atom   11 type  1   force =     0.00758003    0.00437668    0.03314187
     atom   12 type  2   force =    -0.00000020    0.00000026   -0.07129503

     Total force =     0.131344     Total SCF correction =     0.005618


     entering subroutine stress ...


     negative rho (up, down):  2.743E-03 0.000E+00
          total   stress  (Ry/bohr**3)                   (kbar)     P=  -14.36
  -0.00017254   0.00000000   0.00000000        -25.38      0.00      0.00
   0.00000000  -0.00017254  -0.00000000          0.00    -25.38     -0.00
   0.00000000  -0.00000000   0.00005222          0.00     -0.00      7.68

 !ASE

     Writing output data file calc.save
 
     init_run     :     14.54s CPU     25.94s WALL (       1 calls)
     electrons    :    953.09s CPU   1599.88s WALL (       1 calls)
     forces       :      2.30s CPU      3.01s WALL (       1 calls)
     stress       :      4.89s CPU      6.10s WALL (       1 calls)

     Called by init_run:
     wfcinit      :     12.53s CPU     22.85s WALL (       1 calls)
     potinit      :      1.15s CPU      2.02s WALL (       1 calls)

     Called by electrons:
     c_bands      :    777.76s CPU   1282.28s WALL (      23 calls)
     sum_band     :    129.82s CPU    236.21s WALL (      23 calls)
     v_of_rho     :     16.79s CPU     31.73s WALL (      24 calls)
     newd         :      5.20s CPU      5.60s WALL (      24 calls)
     mix_rho      :      0.90s CPU      1.68s WALL (      23 calls)
     vdW_energy   :      1.99s CPU      2.01s WALL (      60 calls)
     vdW_ffts     :     25.31s CPU     51.38s WALL (     122 calls)
     vdW_v        :      4.76s CPU      8.60s WALL (      60 calls)

     Called by c_bands:
     init_us_2    :      0.80s CPU      0.90s WALL (     980 calls)
     cegterg      :    770.57s CPU   1272.81s WALL (     460 calls)

     Called by *egterg:
     h_psi        :    540.41s CPU   1010.35s WALL (    1798 calls)
     s_psi        :      8.14s CPU      8.31s WALL (    1798 calls)
     g_psi        :      0.44s CPU      0.43s WALL (    1318 calls)
     cdiaghg      :    140.98s CPU    148.26s WALL (    1778 calls)

     Called by h_psi:
     add_vuspsi   :      8.70s CPU      8.79s WALL (    1798 calls)

     General routines
     calbec       :     25.51s CPU     34.57s WALL (    2298 calls)
     fft          :     38.86s CPU     77.47s WALL (    3687 calls)
     ffts         :      0.14s CPU      0.28s WALL (      47 calls)
     fftw         :    620.32s CPU   1184.96s WALL (  340754 calls)
     interpolate  :      0.64s CPU      1.25s WALL (      47 calls)
     davcio       :      0.00s CPU      0.01s WALL (      20 calls)
 
     Parallel routines
     fft_scatter  :    629.53s CPU   1229.61s WALL (  344488 calls)
 
     PWSCF        : 16m15.94s CPU    27m16.90s WALL

 
   This run was terminated on:   5:52:10  30Dec2018            

=------------------------------------------------------------------------------=
   JOB DONE.
=------------------------------------------------------------------------------=
Job  /afs/slac/g/suncat/bin/suncat-tsmpirun -x LD_LIBRARY_PATH -wdir /scratch/qe648449_Jjcva pw.x -in pw.inp

TID   HOST_NAME   COMMAND_LINE            STATUS            TERMINATION_TIME
===== ========== ================  =======================  ===================
00000 suncat0053 pw.x -in pw.inp   Done                     12/30/2018 05:52:10
00001 suncat0053 pw.x -in pw.inp   Done                     12/30/2018 05:52:10
00002 suncat0053 pw.x -in pw.inp   Done                     12/30/2018 05:52:10
00003 suncat0053 pw.x -in pw.inp   Done                     12/30/2018 05:52:10
00004 suncat0053 pw.x -in pw.inp   Done                     12/30/2018 05:52:10
00005 suncat0053 pw.x -in pw.inp   Done                     12/30/2018 05:52:10
00006 suncat0053 pw.x -in pw.inp   Done                     12/30/2018 05:52:10
00007 suncat0053 pw.x -in pw.inp   Done                     12/30/2018 05:52:10
00008 suncat0040 pw.x -in pw.inp   Done                     12/30/2018 05:52:10
00009 suncat0040 pw.x -in pw.inp   Done                     12/30/2018 05:52:10
00010 suncat0040 pw.x -in pw.inp   Done                     12/30/2018 05:52:10
00011 suncat0040 pw.x -in pw.inp   Done                     12/30/2018 05:52:10
00012 suncat0040 pw.x -in pw.inp   Done                     12/30/2018 05:52:10
00013 suncat0040 pw.x -in pw.inp   Done                     12/30/2018 05:52:10
00014 suncat0040 pw.x -in pw.inp   Done                     12/30/2018 05:52:10
00015 suncat0040 pw.x -in pw.inp   Done                     12/30/2018 05:52:10
00016 suncat0195 pw.x -in pw.inp   Done                     12/30/2018 05:52:10
00017 suncat0195 pw.x -in pw.inp   Done                     12/30/2018 05:52:10
00018 suncat0195 pw.x -in pw.inp   Done                     12/30/2018 05:52:10
00019 suncat0195 pw.x -in pw.inp   Done                     12/30/2018 05:52:10
00020 suncat0195 pw.x -in pw.inp   Done                     12/30/2018 05:52:10
00021 suncat0195 pw.x -in pw.inp   Done                     12/30/2018 05:52:10
00022 suncat0195 pw.x -in pw.inp   Done                     12/30/2018 05:52:10
00023 suncat0195 pw.x -in pw.inp   Done                     12/30/2018 05:52:10
00024 suncat0003 pw.x -in pw.inp   Done                     12/30/2018 05:52:10
00025 suncat0003 pw.x -in pw.inp   Done                     12/30/2018 05:52:10
00026 suncat0003 pw.x -in pw.inp   Done                     12/30/2018 05:52:10
00027 suncat0003 pw.x -in pw.inp   Done                     12/30/2018 05:52:10
00028 suncat0003 pw.x -in pw.inp   Done                     12/30/2018 05:52:10
00029 suncat0003 pw.x -in pw.inp   Done                     12/30/2018 05:52:10
00030 suncat0003 pw.x -in pw.inp   Done                     12/30/2018 05:52:10
00031 suncat0003 pw.x -in pw.inp   Done                     12/30/2018 05:52:10
00032 suncat0002 pw.x -in pw.inp   Done                     12/30/2018 05:52:10
00033 suncat0002 pw.x -in pw.inp   Done                     12/30/2018 05:52:10
00034 suncat0002 pw.x -in pw.inp   Done                     12/30/2018 05:52:10
00035 suncat0002 pw.x -in pw.inp   Done                     12/30/2018 05:52:10
00036 suncat0002 pw.x -in pw.inp   Done                     12/30/2018 05:52:10
00037 suncat0002 pw.x -in pw.inp   Done                     12/30/2018 05:52:10
00038 suncat0002 pw.x -in pw.inp   Done                     12/30/2018 05:52:10
00039 suncat0002 pw.x -in pw.inp   Done                     12/30/2018 05:52:10
00040 suncat0179 pw.x -in pw.inp   Done                     12/30/2018 05:52:10
00041 suncat0179 pw.x -in pw.inp   Done                     12/30/2018 05:52:10
00042 suncat0179 pw.x -in pw.inp   Done                     12/30/2018 05:52:10
00043 suncat0179 pw.x -in pw.inp   Done                     12/30/2018 05:52:10
00044 suncat0179 pw.x -in pw.inp   Done                     12/30/2018 05:52:10
00045 suncat0179 pw.x -in pw.inp   Done                     12/30/2018 05:52:10
00046 suncat0179 pw.x -in pw.inp   Done                     12/30/2018 05:52:10
00047 suncat0179 pw.x -in pw.inp   Done                     12/30/2018 05:52:10
00048 suncat0283 pw.x -in pw.inp   Done                     12/30/2018 05:52:10
00049 suncat0283 pw.x -in pw.inp   Done                     12/30/2018 05:52:10
00050 suncat0283 pw.x -in pw.inp   Done                     12/30/2018 05:52:10
00051 suncat0283 pw.x -in pw.inp   Done                     12/30/2018 05:52:10
00052 suncat0283 pw.x -in pw.inp   Done                     12/30/2018 05:52:10
00053 suncat0283 pw.x -in pw.inp   Done                     12/30/2018 05:52:10
00054 suncat0283 pw.x -in pw.inp   Done                     12/30/2018 05:52:10
00055 suncat0283 pw.x -in pw.inp   Done                     12/30/2018 05:52:10
00056 suncat0282 pw.x -in pw.inp   Done                     12/30/2018 05:52:10
00057 suncat0282 pw.x -in pw.inp   Done                     12/30/2018 05:52:10
00058 suncat0282 pw.x -in pw.inp   Done                     12/30/2018 05:52:10
00059 suncat0282 pw.x -in pw.inp   Done                     12/30/2018 05:52:10
00060 suncat0282 pw.x -in pw.inp   Done                     12/30/2018 05:52:10
00061 suncat0282 pw.x -in pw.inp   Done                     12/30/2018 05:52:10
00062 suncat0282 pw.x -in pw.inp   Done                     12/30/2018 05:52:10
00063 suncat0282 pw.x -in pw.inp   Done                     12/30/2018 05:52:10

     Program PWSCF v.5.1rc2 (svn rev. 11289) starts on 30Dec2018 at  5:52:18 

     This program is part of the open-source Quantum ESPRESSO suite
     for quantum simulation of materials; please cite
         "P. Giannozzi et al., J. Phys.:Condens. Matter 21 395502 (2009);
          URL http://www.quantum-espresso.org", 
     in publications or presentations arising from this work. More details at
     http://www.quantum-espresso.org/quote

     Parallel version (MPI), running on    64 processors
     R & G space division:  proc/nbgrp/npool/nimage =      64
     Reading input from pw.inp
     Message from routine read_cards :
     DEPRECATED: no units specified in CELL_PARAMETERS card

     Current dimensions of program PWSCF are:
     Max number of different atomic species (ntypx) = 10
     Max number of k-points (npk) =  40000
     Max angular momentum in pseudopotentials (lmaxx) =  3
     Presently stress not available with electric field


     **************************************************************************
     Initializing libbeef V0.1.1 with the BEEF-vdW functional.
     Citation: Wellendorff et al., PRB 85, 235149 (2012).
     **************************************************************************


     IMPORTANT: XC functional enforced from input :
     Exchange-correlation      = BEEF-VDW ( 1  4 27 13 2)
     Any further DFT definition will be discarded
     Please, verify this is what you really want


     Subspace diagonalization in iterative solution of the eigenvalue problem:
     a serial algorithm will be used

 
     Parallelization info
     --------------------
     sticks:   dense  smooth     PW     G-vecs:    dense   smooth      PW
     Min          42      17      5                 8064     2023     329
     Max          43      18      8                 8099     2071     345
     Sum        2749    1099    337               517243   130829   21663
 


     bravais-lattice index     =            0
     lattice parameter (alat)  =       1.8897  a.u.
     unit-cell volume          =    4349.2202 (a.u.)^3
     number of atoms/cell      =           12
     number of atomic types    =            2
     number of electrons       =       213.00
     number of Kohn-Sham states=          136
     kinetic-energy cutoff     =      36.7493  Ry
     charge density cutoff     =     367.4932  Ry
     convergence threshold     =      1.0E-06
     mixing beta               =       0.1000
     number of iterations used =           10  plain     mixing
     Exchange-correlation      = BEEF-VDW ( 1  4 27 13 2)
     nstep                     =           50


     celldm(1)=   1.889726  celldm(2)=   0.000000  celldm(3)=   0.000000
     celldm(4)=   0.000000  celldm(5)=   0.000000  celldm(6)=   0.000000

     crystal axes: (cart. coord. in units of alat)
               a(1) = (   5.511362   0.000000   0.000000 )  
               a(2) = (  -2.755681   4.772980   0.000000 )  
               a(3) = (   0.000000   0.000000  24.500009 )  

     reciprocal axes: (cart. coord. in units 2 pi/alat)
               b(1) = (  0.181443  0.104756  0.000000 )  
               b(2) = (  0.000000  0.209513  0.000000 )  
               b(3) = (  0.000000  0.000000  0.040816 )  


     PseudoPot. # 1 for Ga read from file:
     /afs/slac.stanford.edu/u/if/mamunm/psp/gbrv1.5pbe/Ga.UPF
     MD5 check sum: ccd671392a58a050fbb373893b4fcd66
     Pseudo is Ultrasoft + core correction, Zval = 19.0
     Generated by new atomic code, or converted to UPF format
     Using radial grid of  871 points,  6 beta functions with: 
                l(1) =   0
                l(2) =   0
                l(3) =   1
                l(4) =   1
                l(5) =   2
                l(6) =   2
     Q(r) pseudized with  8 coefficients,  rinner =    1.250   1.250   1.250
                                                       1.250   1.250

     PseudoPot. # 2 for Cr read from file:
     /afs/slac.stanford.edu/u/if/mamunm/psp/gbrv1.5pbe/Cr.UPF
     MD5 check sum: 0d52af634a40206e4dee301ad30da4bf
     Pseudo is Ultrasoft + core correction, Zval = 14.0
     Generated by new atomic code, or converted to UPF format
     Using radial grid of  857 points,  6 beta functions with: 
                l(1) =   0
                l(2) =   0
                l(3) =   1
                l(4) =   1
                l(5) =   2
                l(6) =   2
     Q(r) pseudized with  8 coefficients,  rinner =    0.950   0.950   0.950
                                                       0.950   0.950

     vdW kernel table read from file vdW_kernel_table
     MD5 check sum: 095c7af220d748ca6e76c0b4c6cfb241

     atomic species   valence    mass     pseudopotential
        Ga1           19.00    69.72300     Ga( 1.00)
        Cr1           14.00    51.99610     Cr( 1.00)

     No symmetry found



   Cartesian axes

     site n.     atom                  positions (alat units)
         1           Ga1 tau(   1) = (   0.0000000   0.0000000  10.0000000  )
         2           Ga1 tau(   2) = (  -1.3778406   2.3864899  10.0000000  )
         3           Ga1 tau(   3) = (   1.3778406   2.3864899  10.0000000  )
         4           Cr1 tau(   4) = (   2.7556812   0.0000000  10.0000000  )
         5           Ga1 tau(   5) = (   2.7556812   1.5909933  12.2500043  )
         6           Ga1 tau(   6) = (   1.3778406   3.9774832  12.2500043  )
         7           Ga1 tau(   7) = (  -1.3778406   3.9774832  12.2500043  )
         8           Cr1 tau(   8) = (   0.0000000   1.5909933  12.2500043  )
         9           Ga1 tau(   9) = (   0.0000005   3.1594806  14.5852284  )
        10           Ga1 tau(  10) = (   1.3583501   0.8067494  14.5852253  )
        11           Ga1 tau(  11) = (   4.1530108   0.8067495  14.5852197  )
        12           Cr1 tau(  12) = (   2.7556807   3.1819872  14.3167016  )

     number of k points=    20  Fermi-Dirac smearing, width (Ry)=  0.0110
                       cart. coord. in units 2pi/alat
        k(    1) = (   0.0000000   0.0000000   0.0000000), wk =   0.0555556
        k(    2) = (   0.0000000   0.0349188   0.0000000), wk =   0.1111111
        k(    3) = (   0.0000000   0.0698376   0.0000000), wk =   0.1111111
        k(    4) = (   0.0000000  -0.1047564   0.0000000), wk =   0.0555556
        k(    5) = (   0.0302406   0.0174594   0.0000000), wk =   0.1111111
        k(    6) = (   0.0302406   0.0523782   0.0000000), wk =   0.1111111
        k(    7) = (   0.0302406   0.0872970   0.0000000), wk =   0.1111111
        k(    8) = (   0.0302406  -0.0872970   0.0000000), wk =   0.1111111
        k(    9) = (   0.0302406  -0.0523782   0.0000000), wk =   0.1111111
        k(   10) = (   0.0302406  -0.0174594   0.0000000), wk =   0.1111111
        k(   11) = (   0.0604811   0.0349188   0.0000000), wk =   0.1111111
        k(   12) = (   0.0604811   0.0698376   0.0000000), wk =   0.1111111
        k(   13) = (   0.0604811   0.1047564   0.0000000), wk =   0.1111111
        k(   14) = (   0.0604811  -0.0698376   0.0000000), wk =   0.1111111
        k(   15) = (   0.0604811  -0.0349188   0.0000000), wk =   0.1111111
        k(   16) = (   0.0604811   0.0000000   0.0000000), wk =   0.1111111
        k(   17) = (  -0.0907217  -0.0523782   0.0000000), wk =   0.0555556
        k(   18) = (  -0.0907217  -0.0174594   0.0000000), wk =   0.1111111
        k(   19) = (  -0.0907217   0.0174594   0.0000000), wk =   0.1111111
        k(   20) = (  -0.0907217  -0.1571345   0.0000000), wk =   0.0555556

     Dense  grid:   517243 G-vectors     FFT dimensions: (  64,  64, 288)

     Smooth grid:   130829 G-vectors     FFT dimensions: (  45,  45, 180)

     Largest allocated arrays     est. size (Mb)     dimensions
        Kohn-Sham Wavefunctions         0.60 Mb     (     289,  136)
        NL pseudopotentials             0.95 Mb     (     289,  216)
        Each V/rho on FFT grid          0.31 Mb     (   20480)
        Each G-vector array             0.06 Mb     (    8099)
        G-vector shells                 0.03 Mb     (    3817)
     Largest temporary arrays     est. size (Mb)     dimensions
        Auxiliary wavefunctions         2.40 Mb     (     289,  544)
        Each subspace H/S matrix        4.52 Mb     (     544,  544)
        Each <psi_i|beta_j> matrix      0.45 Mb     (     216,  136)
        Arrays for rho mixing           3.12 Mb     (   20480,   10)

     Check: negative/imaginary core charge=   -0.000002    0.000000

     Initial potential from superposition of free atoms
     Check: negative starting charge=   -0.004531

     starting charge  200.99995, renormalised to  213.00000

     negative rho (up, down):  4.801E-03 0.000E+00


     ************************************************************************
     *
     * You are using vdW-DF for exchange-correlation in this calculation.
     * Please cite the following three references that made this development
     * possible:
     *
     *   M. Dion, H. Rydberg, E. Schroder, D. C. Langreth, and
     *   B. I. Lundqvist, Phys. Rev. Lett. 92, 246401 (2004).
     *
     *   T. Thonhauser, V. R. Cooper, S. Li, A. Puzder, P. Hyldgaard, and
     *   D. C. Langreth, Phys. Rev. B 76, 125112 (2007).
     *
     *   G. Roman-Perez and J. M. Soler, Phys. Rev. Lett. 103, 096102 (2009).
     *
     *
     * If you are using vdW-DF2, please also cite:
     *
     *   K. Lee, E. D. Murray, L. Kong, B. I. Lundqvist, and
     *   D. C. Langreth, Phys. Rev. B 82, 081101(R) (2010).
     *
     *
     * If you are calculating the stress with vdW-DF, please also cite:
     *
     *   R. Sabatini, E. Kucukbenli, B. Kolb, T. Thonhauser, and
     *   S. de Gironcoli, J. Phys.: Condens. Matter 24, 424209 (2012).
     *
     ************************************************************************

     Carrying out vdW-DF run using the following parameters:

     Nqs =      20    Nr_points =    1024   r_max =   100.000
     q_mesh =
               0.00001000     0.04494208     0.09755937     0.15916263
               0.23128650     0.31572767     0.41458969     0.53033537
               0.66584808     0.82450364     1.01025438     1.22772762
               1.48234092     1.78043706     2.12944203     2.53805004
               3.01644009     3.57652955     4.23227104     5.00000000

     Gradients computed in reciprocal space

     ************************************************************************


 
     Adding external electric field

     Computed dipole along edir(3) : 
        Dipole               -0.1136 Ry au,         -0.2888 Debye
        Dipole field         -0.0003 Ry au
 
        Potential amp.        0.0296 Ry
        Total length         45.1408 bohr
 
     Starting wfc are  138 randomized atomic wfcs

     total cpu time spent up to now is       25.5 secs

     per-process dynamical memory:    37.0 Mb

     Self-consistent Calculation

     iteration #  1     ecut=    36.75 Ry     beta=0.10
     Davidson diagonalization with overlap
     ethr =  1.00E-02,  avg # of iterations =  7.0

     negative rho (up, down):  2.008E-03 0.000E+00
 
     Adding external electric field

     Computed dipole along edir(3) : 
        Dipole                1.9043 Ry au,          4.8402 Debye
        Dipole field          0.0055 Ry au
 
        Potential amp.       -0.4967 Ry
        Total length         45.1408 bohr
 

     total cpu time spent up to now is      162.3 secs

     total energy              =   -4239.91494870 Ry
     Harris-Foulkes estimate   =   -4303.67801186 Ry
     estimated scf accuracy    <     356.32011449 Ry

     iteration #  2     ecut=    36.75 Ry     beta=0.10
     Davidson diagonalization with overlap
     ethr =  1.00E-02,  avg # of iterations =  3.5

     negative rho (up, down):  2.813E-03 0.000E+00
 
     Adding external electric field

     Computed dipole along edir(3) : 
        Dipole               -1.9475 Ry au,         -4.9502 Debye
        Dipole field         -0.0056 Ry au
 
        Potential amp.        0.5080 Ry
        Total length         45.1408 bohr
 

     total cpu time spent up to now is      258.0 secs

     total energy              =   -4276.51642221 Ry
     Harris-Foulkes estimate   =   -4285.05303143 Ry
     estimated scf accuracy    <      54.58570601 Ry

     iteration #  3     ecut=    36.75 Ry     beta=0.10
     Davidson diagonalization with overlap
     ethr =  1.00E-02,  avg # of iterations =  3.0

     negative rho (up, down):  3.108E-03 0.000E+00
 
     Adding external electric field

     Computed dipole along edir(3) : 
        Dipole                0.9000 Ry au,          2.2875 Debye
        Dipole field          0.0026 Ry au
 
        Potential amp.       -0.2348 Ry
        Total length         45.1408 bohr
 

     total cpu time spent up to now is      353.2 secs

     total energy              =   -4275.91742525 Ry
     Harris-Foulkes estimate   =   -4283.49085062 Ry
     estimated scf accuracy    <     112.89451751 Ry

     iteration #  4     ecut=    36.75 Ry     beta=0.10
     Davidson diagonalization with overlap
     ethr =  1.00E-02,  avg # of iterations =  2.9

     negative rho (up, down):  3.345E-03 0.000E+00
 
     Adding external electric field

     Computed dipole along edir(3) : 
        Dipole                0.1485 Ry au,          0.3773 Debye
        Dipole field          0.0004 Ry au
 
[...]
   -14.3291 -14.3231 -14.3047 -14.2924 -14.2896 -14.2802 -14.2539 -14.2480
   -14.2427 -14.2308 -14.2103 -14.2057 -14.1924 -14.1906 -14.1750 -14.1464
   -14.1397 -14.1199 -14.1097 -14.0568  -9.1258  -8.0749  -7.1981  -6.8033
    -6.0056  -5.2352  -4.7012  -3.8576  -2.8940  -2.6009  -1.6996  -1.4664
    -0.9354  -0.7966  -0.6692  -0.5720  -0.3725  -0.1579   0.1101   0.3188
     0.6771   0.7862   0.9321   1.0177   1.1530   1.2240   1.4163   1.6966
     1.7767   2.1867   2.3335   2.8618   3.0252   3.4997   3.8523   4.0927
     4.2741   4.5531   4.9850   5.2668   5.3748   5.4715   5.7877   5.9831
     6.1237   6.4616   6.5015   6.6402   6.9667   7.0344   7.1847   7.3373

          k = 0.0605-0.0349 0.0000 ( 16366 PWs)   bands (ev):

   -94.1256 -94.1226 -94.1216 -94.0681 -94.0674 -94.0658 -94.0638 -94.0630
   -94.0626 -94.0623 -94.0613 -94.0606 -94.0429 -94.0392 -94.0380 -93.9922
   -93.9916 -93.9899 -93.9151 -93.9127 -93.9119 -93.8859 -93.8839 -93.8830
   -93.8436 -93.8429 -93.8414 -70.9355 -70.9166 -70.8152 -42.2922 -42.2921
   -42.2798 -42.2165 -42.2163 -42.2043 -42.1702 -42.1701 -42.1047 -14.6964
   -14.6404 -14.6371 -14.6012 -14.5896 -14.5528 -14.5252 -14.5119 -14.5105
   -14.4886 -14.4744 -14.4724 -14.4642 -14.4563 -14.4370 -14.4350 -14.4102
   -14.3882 -14.3856 -14.3829 -14.3680 -14.3483 -14.3422 -14.3307 -14.3197
   -14.3139 -14.3117 -14.3046 -14.3003 -14.2894 -14.2743 -14.2627 -14.2446
   -14.2402 -14.2253 -14.1878 -14.1860 -14.1721 -14.1637 -14.1593 -14.1423
   -14.1346 -14.1107 -14.0988 -14.0212  -9.6324  -7.9907  -7.2152  -5.9404
    -5.6601  -5.3020  -4.4753  -3.7150  -2.9555  -2.2101  -2.0346  -1.5425
    -1.2345  -1.1440  -0.6665  -0.5125  -0.3389  -0.1640  -0.0413   0.0230
     0.5351   0.6537   0.8605   0.9585   0.9698   1.2017   1.3944   1.5272
     2.0184   2.1014   2.3636   2.6304   2.8002   3.3279   3.7538   3.9111
     4.1596   4.5426   4.7610   5.1684   5.3475   5.6310   5.7104   5.8666
     6.1081   6.1644   6.3397   6.6921   6.7304   6.8079   7.1262   7.5010

          k = 0.0605 0.0000 0.0000 ( 16362 PWs)   bands (ev):

   -94.1258 -94.1224 -94.1216 -94.0681 -94.0676 -94.0656 -94.0639 -94.0630
   -94.0626 -94.0623 -94.0611 -94.0606 -94.0431 -94.0390 -94.0380 -93.9922
   -93.9917 -93.9898 -93.9153 -93.9125 -93.9119 -93.8861 -93.8837 -93.8830
   -93.8435 -93.8430 -93.8413 -70.9355 -70.9166 -70.8152 -42.2922 -42.2921
   -42.2798 -42.2164 -42.2163 -42.2043 -42.1702 -42.1701 -42.1047 -14.6977
   -14.6632 -14.6465 -14.6087 -14.6055 -14.5489 -14.5384 -14.5325 -14.5138
   -14.4907 -14.4849 -14.4763 -14.4682 -14.4528 -14.4457 -14.4283 -14.4069
   -14.3904 -14.3889 -14.3857 -14.3695 -14.3525 -14.3462 -14.3253 -14.3154
   -14.3119 -14.3103 -14.2995 -14.2931 -14.2877 -14.2795 -14.2514 -14.2458
   -14.2365 -14.2124 -14.1885 -14.1718 -14.1640 -14.1550 -14.1468 -14.1392
   -14.1333 -14.1101 -14.0819 -14.0148  -9.8092  -8.0789  -6.6164  -6.4411
    -5.5197  -4.9053  -4.4866  -3.3576  -3.0587  -2.1209  -1.9851  -1.7037
    -1.1858  -1.1518  -0.7737  -0.6615  -0.3553  -0.2360   0.0011   0.0617
     0.4059   0.5144   0.7372   0.9670   1.0098   1.0993   1.3030   1.3342
     1.7290   2.2184   2.2317   2.5656   2.9370   3.0516   3.3691   3.8586
     4.0680   4.6181   4.7482   4.9392   5.3784   5.4893   5.6772   5.8827
     5.9827   6.3484   6.5921   6.7493   6.7889   6.9107   7.6835   7.8411

          k =-0.0907-0.0524 0.0000 ( 16384 PWs)   bands (ev):

   -94.1249 -94.1232 -94.1215 -94.0681 -94.0670 -94.0661 -94.0635 -94.0630
   -94.0623 -94.0623 -94.0617 -94.0607 -94.0423 -94.0398 -94.0379 -93.9922
   -93.9913 -93.9902 -93.9146 -93.9132 -93.9119 -93.8855 -93.8843 -93.8830
   -93.8436 -93.8426 -93.8417 -70.9355 -70.9166 -70.8152 -42.2923 -42.2921
   -42.2798 -42.2166 -42.2164 -42.2043 -42.1703 -42.1701 -42.1047 -14.6850
   -14.6135 -14.5916 -14.5823 -14.5603 -14.5274 -14.5108 -14.5052 -14.4991
   -14.4924 -14.4839 -14.4582 -14.4496 -14.4464 -14.4389 -14.4081 -14.3956
   -14.3873 -14.3859 -14.3763 -14.3610 -14.3608 -14.3447 -14.3436 -14.3378
   -14.3324 -14.3318 -14.3074 -14.2963 -14.2835 -14.2762 -14.2609 -14.2543
   -14.2342 -14.2139 -14.2092 -14.2008 -14.1982 -14.1893 -14.1867 -14.1718
   -14.1398 -14.1225 -14.1131 -14.0367  -8.9554  -8.4896  -6.9910  -6.7909
    -5.5977  -5.4384  -4.7244  -3.8073  -3.2638  -2.5308  -1.7214  -1.5798
    -0.9954  -0.8896  -0.8082  -0.5377  -0.4418  -0.0652   0.1070   0.4211
     0.6680   0.8695   0.9847   1.0131   1.1350   1.3389   1.4393   1.4869
     1.8664   2.4436   3.0330   3.2997   3.3753   3.6537   3.7120   3.9417
     4.2782   4.3916   4.7128   4.7731   5.4054   5.4921   5.6982   5.8260
     5.8830   5.8960   6.3533   6.4540   6.7157   6.9382   7.0221   7.1605

          k =-0.0907-0.0175 0.0000 ( 16397 PWs)   bands (ev):

   -94.1249 -94.1232 -94.1215 -94.0681 -94.0671 -94.0661 -94.0636 -94.0630
   -94.0625 -94.0622 -94.0616 -94.0607 -94.0423 -94.0399 -94.0379 -93.9922
   -93.9913 -93.9902 -93.9146 -93.9132 -93.9119 -93.8855 -93.8843 -93.8830
   -93.8436 -93.8426 -93.8417 -70.9355 -70.9166 -70.8152 -42.2923 -42.2922
   -42.2798 -42.2165 -42.2164 -42.2043 -42.1703 -42.1701 -42.1047 -14.6645
   -14.6161 -14.6115 -14.5703 -14.5553 -14.5419 -14.5169 -14.5084 -14.5041
   -14.4898 -14.4760 -14.4719 -14.4462 -14.4398 -14.4341 -14.4093 -14.3977
   -14.3939 -14.3900 -14.3792 -14.3663 -14.3563 -14.3510 -14.3397 -14.3334
   -14.3291 -14.3231 -14.3047 -14.2924 -14.2896 -14.2802 -14.2539 -14.2480
   -14.2427 -14.2308 -14.2103 -14.2057 -14.1924 -14.1906 -14.1750 -14.1464
   -14.1397 -14.1199 -14.1097 -14.0568  -9.1258  -8.0749  -7.1981  -6.8033
    -6.0056  -5.2352  -4.7012  -3.8576  -2.8940  -2.6009  -1.6996  -1.4664
    -0.9354  -0.7966  -0.6692  -0.5720  -0.3725  -0.1579   0.1101   0.3188
     0.6771   0.7862   0.9321   1.0177   1.1530   1.2240   1.4163   1.6966
     1.7767   2.1867   2.3335   2.8618   3.0252   3.4997   3.8523   4.0927
     4.2741   4.5530   4.9850   5.2668   5.3748   5.4715   5.7877   5.9831
     6.1237   6.4616   6.5015   6.6402   6.9667   7.0344   7.1847   7.3373

          k =-0.0907 0.0175 0.0000 ( 16397 PWs)   bands (ev):

   -94.1249 -94.1232 -94.1215 -94.0681 -94.0671 -94.0661 -94.0636 -94.0630
   -94.0625 -94.0622 -94.0616 -94.0607 -94.0423 -94.0399 -94.0379 -93.9922
   -93.9913 -93.9902 -93.9146 -93.9132 -93.9119 -93.8855 -93.8843 -93.8830
   -93.8436 -93.8426 -93.8417 -70.9355 -70.9166 -70.8152 -42.2923 -42.2922
   -42.2798 -42.2165 -42.2164 -42.2043 -42.1703 -42.1701 -42.1047 -14.6645
   -14.6161 -14.6115 -14.5703 -14.5553 -14.5419 -14.5169 -14.5084 -14.5041
   -14.4898 -14.4760 -14.4719 -14.4462 -14.4398 -14.4341 -14.4093 -14.3977
   -14.3939 -14.3900 -14.3792 -14.3663 -14.3563 -14.3510 -14.3397 -14.3334
   -14.3291 -14.3231 -14.3047 -14.2924 -14.2896 -14.2802 -14.2539 -14.2480
   -14.2427 -14.2308 -14.2103 -14.2057 -14.1924 -14.1906 -14.1750 -14.1464
   -14.1397 -14.1199 -14.1097 -14.0568  -9.1258  -8.0749  -7.1981  -6.8033
    -6.0056  -5.2352  -4.7012  -3.8576  -2.8940  -2.6009  -1.6996  -1.4664
    -0.9354  -0.7966  -0.6692  -0.5720  -0.3725  -0.1579   0.1101   0.3188
     0.6771   0.7862   0.9321   1.0177   1.1530   1.2240   1.4163   1.6966
     1.7767   2.1867   2.3335   2.8618   3.0252   3.4997   3.8523   4.0927
     4.2741   4.5531   4.9850   5.2668   5.3748   5.4715   5.7877   5.9831
     6.1237   6.4616   6.5015   6.6402   6.9667   7.0344   7.1847   7.3373

          k =-0.0907-0.1571 0.0000 ( 16384 PWs)   bands (ev):

   -94.1249 -94.1232 -94.1215 -94.0681 -94.0670 -94.0661 -94.0635 -94.0630
   -94.0623 -94.0623 -94.0617 -94.0607 -94.0423 -94.0398 -94.0379 -93.9922
   -93.9913 -93.9902 -93.9146 -93.9132 -93.9119 -93.8855 -93.8843 -93.8830
   -93.8436 -93.8426 -93.8417 -70.9355 -70.9166 -70.8152 -42.2923 -42.2921
   -42.2798 -42.2166 -42.2164 -42.2043 -42.1703 -42.1701 -42.1047 -14.6850
   -14.6135 -14.5916 -14.5823 -14.5603 -14.5274 -14.5108 -14.5052 -14.4991
   -14.4924 -14.4839 -14.4582 -14.4496 -14.4464 -14.4389 -14.4081 -14.3956
   -14.3873 -14.3859 -14.3763 -14.3610 -14.3608 -14.3447 -14.3436 -14.3378
   -14.3324 -14.3318 -14.3074 -14.2963 -14.2835 -14.2762 -14.2609 -14.2543
   -14.2342 -14.2139 -14.2092 -14.2008 -14.1982 -14.1893 -14.1867 -14.1718
   -14.1398 -14.1225 -14.1131 -14.0367  -8.9554  -8.4896  -6.9910  -6.7909
    -5.5977  -5.4384  -4.7244  -3.8073  -3.2638  -2.5308  -1.7214  -1.5798
    -0.9954  -0.8896  -0.8082  -0.5377  -0.4418  -0.0652   0.1070   0.4211
     0.6680   0.8695   0.9847   1.0131   1.1350   1.3389   1.4393   1.4869
     1.8664   2.4436   3.0329   3.2997   3.3753   3.6537   3.7120   3.9417
     4.2782   4.3916   4.7128   4.7731   5.4054   5.4921   5.6982   5.8260
     5.8830   5.8960   6.3533   6.4540   6.7157   6.9382   7.0221   7.1605

     the Fermi energy is     0.8065 ev

!    total energy              =   -4277.99493719 Ry
     Harris-Foulkes estimate   =   -4277.99494290 Ry
     estimated scf accuracy    <       0.00000020 Ry

     The total energy is the sum of the following terms:

     one-electron contribution =  -27911.44468606 Ry
     hartree contribution      =   13959.41856607 Ry
     xc contribution           =    -517.88337361 Ry
     ewald contribution        =   10191.98558387 Ry
     electric field correction =       0.00001413 Ry
     smearing contrib. (-TS)   =      -0.07104159 Ry

     convergence has been achieved in  25 iterations
 
 BEEF-vdW xc energy contributions
           1 :   -461.238231357726     
           2 :    418.800042948228     
           3 :   -347.587176655447     
           4 :    268.294128280862     
           5 :   -199.360080691200     
           6 :    150.016331663277     
           7 :   -118.897479773784     
           8 :    98.0715831590555     
           9 :   -79.4003350799708     
          10 :    59.2667631115006     
          11 :   -39.3025882640343     
          12 :    23.5473869072489     
          13 :   -14.6146775158032     
          14 :    11.6160860717607     
          15 :   -10.9668375340439     
          16 :    9.05485292362164     
          17 :   -4.61884100907230     
          18 :  -0.827125039083853     
          19 :    4.59092505719997     
          20 :   -5.04645860034799     
          21 :    2.83545853785336     
          22 :  -0.265763599693628     
          23 :  -0.479456291309248     
          24 :   -1.10202187342298     
          25 :    3.63372192009325     
          26 :   -5.05805187239071     
          27 :    4.23737054282674     
          28 :   -1.74918939952806     
          29 :  -0.649820802130705     
          30 :    1.39476316684568     
          31 :   -35.4465626169108     
          32 :   -24.4445177371847     

     Forces acting on atoms (Ry/au):


     negative rho (up, down):  2.693E-03 0.000E+00
     atom    1 type  1   force =     0.00000161    0.01089857   -0.03482697
     atom    2 type  1   force =     0.00943883   -0.00545024   -0.03482832
     atom    3 type  1   force =    -0.00943811   -0.00544995   -0.03482503
     atom    4 type  2   force =    -0.00000029   -0.00000011    0.07893067
     atom    5 type  1   force =    -0.00000122   -0.01478913    0.00128683
     atom    6 type  1   force =    -0.01280832    0.00739496    0.00128966
     atom    7 type  1   force =     0.01280886    0.00739619    0.00128846
     atom    8 type  2   force =    -0.00000025    0.00000004    0.01960967
     atom    9 type  1   force =    -0.00000073    0.00006016    0.00097545
     atom   10 type  1   force =     0.00005118   -0.00002950    0.00097814
     atom   11 type  1   force =    -0.00005164   -0.00003026    0.00097624
     atom   12 type  2   force =     0.00000008   -0.00000075   -0.00085480

     Total force =     0.106181     Total SCF correction =     0.002051


     entering subroutine stress ...


     negative rho (up, down):  2.693E-03 0.000E+00
          total   stress  (Ry/bohr**3)                   (kbar)     P=  -19.97
  -0.00021068   0.00000000  -0.00000000        -30.99      0.00     -0.00
   0.00000000  -0.00021068   0.00000000          0.00    -30.99      0.00
  -0.00000000   0.00000000   0.00001402         -0.00      0.00      2.06

 !ASE

     Writing output data file calc.save
 
     init_run     :     14.54s CPU     24.69s WALL (       1 calls)
     electrons    :   1110.07s CPU   1789.04s WALL (       1 calls)
     forces       :      2.29s CPU      3.07s WALL (       1 calls)
     stress       :      4.86s CPU      6.19s WALL (       1 calls)

     Called by init_run:
     wfcinit      :     12.97s CPU     22.29s WALL (       1 calls)
     potinit      :      0.82s CPU      1.43s WALL (       1 calls)

     Called by electrons:
     c_bands      :    907.62s CPU   1445.12s WALL (      25 calls)
     sum_band     :    152.14s CPU    260.24s WALL (      25 calls)
     v_of_rho     :     21.39s CPU     33.83s WALL (      26 calls)
     newd         :      5.65s CPU      5.99s WALL (      26 calls)
     mix_rho      :      1.14s CPU      1.79s WALL (      25 calls)
     vdW_energy   :      1.99s CPU      2.00s WALL (      62 calls)
     vdW_ffts     :     27.84s CPU     51.66s WALL (     126 calls)
     vdW_v        :      5.19s CPU      8.71s WALL (      62 calls)

     Called by c_bands:
     init_us_2    :      0.85s CPU      0.95s WALL (    1060 calls)
     cegterg      :    899.25s CPU   1434.27s WALL (     500 calls)

     Called by *egterg:
     h_psi        :    637.93s CPU   1136.25s WALL (    1966 calls)
     s_psi        :      9.10s CPU      9.22s WALL (    1966 calls)
     g_psi        :      0.48s CPU      0.48s WALL (    1446 calls)
     cdiaghg      :    162.21s CPU    170.40s WALL (    1946 calls)

     Called by h_psi:
     add_vuspsi   :      9.69s CPU      9.78s WALL (    1966 calls)

     General routines
     calbec       :     28.91s CPU     39.17s WALL (    2506 calls)
     fft          :     42.73s CPU     78.71s WALL (    3819 calls)
     ffts         :      0.19s CPU      0.32s WALL (      51 calls)
     fftw         :    734.32s CPU   1327.64s WALL (  376044 calls)
     interpolate  :      0.79s CPU      1.30s WALL (      51 calls)
     davcio       :      0.00s CPU      0.01s WALL (      20 calls)
 
     Parallel routines
     fft_scatter  :    744.77s CPU   1370.23s WALL (  379914 calls)
 
     PWSCF        : 18m52.75s CPU    30m24.79s WALL

 
   This run was terminated on:   8:48:28  30Dec2018            

=------------------------------------------------------------------------------=
   JOB DONE.
=------------------------------------------------------------------------------=
Job  /afs/slac/g/suncat/bin/suncat-tsmpirun -x LD_LIBRARY_PATH -wdir /scratch/qe648449_Jjcva pw.x -in pw.inp

TID   HOST_NAME   COMMAND_LINE            STATUS            TERMINATION_TIME
===== ========== ================  =======================  ===================
00000 suncat0053 pw.x -in pw.inp   Done                     12/30/2018 08:48:28
00001 suncat0053 pw.x -in pw.inp   Done                     12/30/2018 08:48:28
00002 suncat0053 pw.x -in pw.inp   Done                     12/30/2018 08:48:28
00003 suncat0053 pw.x -in pw.inp   Done                     12/30/2018 08:48:28
00004 suncat0053 pw.x -in pw.inp   Done                     12/30/2018 08:48:28
00005 suncat0053 pw.x -in pw.inp   Done                     12/30/2018 08:48:28
00006 suncat0053 pw.x -in pw.inp   Done                     12/30/2018 08:48:28
00007 suncat0053 pw.x -in pw.inp   Done                     12/30/2018 08:48:28
00008 suncat0040 pw.x -in pw.inp   Done                     12/30/2018 08:48:28
00009 suncat0040 pw.x -in pw.inp   Done                     12/30/2018 08:48:28
00010 suncat0040 pw.x -in pw.inp   Done                     12/30/2018 08:48:28
00011 suncat0040 pw.x -in pw.inp   Done                     12/30/2018 08:48:28
00012 suncat0040 pw.x -in pw.inp   Done                     12/30/2018 08:48:28
00013 suncat0040 pw.x -in pw.inp   Done                     12/30/2018 08:48:28
00014 suncat0040 pw.x -in pw.inp   Done                     12/30/2018 08:48:28
00015 suncat0040 pw.x -in pw.inp   Done                     12/30/2018 08:48:28
00016 suncat0195 pw.x -in pw.inp   Done                     12/30/2018 08:48:28
00017 suncat0195 pw.x -in pw.inp   Done                     12/30/2018 08:48:28
00018 suncat0195 pw.x -in pw.inp   Done                     12/30/2018 08:48:28
00019 suncat0195 pw.x -in pw.inp   Done                     12/30/2018 08:48:28
00020 suncat0195 pw.x -in pw.inp   Done                     12/30/2018 08:48:28
00021 suncat0195 pw.x -in pw.inp   Done                     12/30/2018 08:48:28
00022 suncat0195 pw.x -in pw.inp   Done                     12/30/2018 08:48:28
00023 suncat0195 pw.x -in pw.inp   Done                     12/30/2018 08:48:28
00024 suncat0003 pw.x -in pw.inp   Done                     12/30/2018 08:48:28
00025 suncat0003 pw.x -in pw.inp   Done                     12/30/2018 08:48:28
00026 suncat0003 pw.x -in pw.inp   Done                     12/30/2018 08:48:28
00027 suncat0003 pw.x -in pw.inp   Done                     12/30/2018 08:48:28
00028 suncat0003 pw.x -in pw.inp   Done                     12/30/2018 08:48:28
00029 suncat0003 pw.x -in pw.inp   Done                     12/30/2018 08:48:28
00030 suncat0003 pw.x -in pw.inp   Done                     12/30/2018 08:48:28
00031 suncat0003 pw.x -in pw.inp   Done                     12/30/2018 08:48:28
00032 suncat0002 pw.x -in pw.inp   Done                     12/30/2018 08:48:28
00033 suncat0002 pw.x -in pw.inp   Done                     12/30/2018 08:48:28
00034 suncat0002 pw.x -in pw.inp   Done                     12/30/2018 08:48:28
00035 suncat0002 pw.x -in pw.inp   Done                     12/30/2018 08:48:28
00036 suncat0002 pw.x -in pw.inp   Done                     12/30/2018 08:48:28
00037 suncat0002 pw.x -in pw.inp   Done                     12/30/2018 08:48:28
00038 suncat0002 pw.x -in pw.inp   Done                     12/30/2018 08:48:28
00039 suncat0002 pw.x -in pw.inp   Done                     12/30/2018 08:48:28
00040 suncat0179 pw.x -in pw.inp   Done                     12/30/2018 08:48:28
00041 suncat0179 pw.x -in pw.inp   Done                     12/30/2018 08:48:28
00042 suncat0179 pw.x -in pw.inp   Done                     12/30/2018 08:48:28
00043 suncat0179 pw.x -in pw.inp   Done                     12/30/2018 08:48:28
00044 suncat0179 pw.x -in pw.inp   Done                     12/30/2018 08:48:28
00045 suncat0179 pw.x -in pw.inp   Done                     12/30/2018 08:48:28
00046 suncat0179 pw.x -in pw.inp   Done                     12/30/2018 08:48:28
00047 suncat0179 pw.x -in pw.inp   Done                     12/30/2018 08:48:28
00048 suncat0283 pw.x -in pw.inp   Done                     12/30/2018 08:48:28
00049 suncat0283 pw.x -in pw.inp   Done                     12/30/2018 08:48:28
00050 suncat0283 pw.x -in pw.inp   Done                     12/30/2018 08:48:28
00051 suncat0283 pw.x -in pw.inp   Done                     12/30/2018 08:48:28
00052 suncat0283 pw.x -in pw.inp   Done                     12/30/2018 08:48:28
00053 suncat0283 pw.x -in pw.inp   Done                     12/30/2018 08:48:28
00054 suncat0283 pw.x -in pw.inp   Done                     12/30/2018 08:48:28
00055 suncat0283 pw.x -in pw.inp   Done                     12/30/2018 08:48:28
00056 suncat0282 pw.x -in pw.inp   Done                     12/30/2018 08:48:28
00057 suncat0282 pw.x -in pw.inp   Done                     12/30/2018 08:48:28
00058 suncat0282 pw.x -in pw.inp   Done                     12/30/2018 08:48:28
00059 suncat0282 pw.x -in pw.inp   Done                     12/30/2018 08:48:28
00060 suncat0282 pw.x -in pw.inp   Done                     12/30/2018 08:48:28
00061 suncat0282 pw.x -in pw.inp   Done                     12/30/2018 08:48:28
00062 suncat0282 pw.x -in pw.inp   Done                     12/30/2018 08:48:28
00063 suncat0282 pw.x -in pw.inp   Done                     12/30/2018 08:48:28
