  python dir          : /u/if/mamunm/src/espresso
  espresso dir        : /nfs/slac/g/suncatfs/sw/espv18/espresso-dynpy-beef/bin
  pseudo dir          : /afs/slac.stanford.edu/u/if/mamunm/psp/gbrv1.5pbe
  ase-espresso py git : GITVERSION



     Program PWSCF v.5.1rc2 (svn rev. 11289) starts on 27Dec2018 at  5:32:41 

     This program is part of the open-source Quantum ESPRESSO suite
     for quantum simulation of materials; please cite
         "P. Giannozzi et al., J. Phys.:Condens. Matter 21 395502 (2009);
          URL http://www.quantum-espresso.org", 
     in publications or presentations arising from this work. More details at
     http://www.quantum-espresso.org/quote

     Parallel version (MPI), running on    64 processors
     R & G space division:  proc/nbgrp/npool/nimage =      64
     Reading input from pw.inp
     Message from routine read_cards :
     DEPRECATED: no units specified in CELL_PARAMETERS card

     Current dimensions of program PWSCF are:
     Max number of different atomic species (ntypx) = 10
     Max number of k-points (npk) =  40000
     Max angular momentum in pseudopotentials (lmaxx) =  3
     Presently stress not available with electric field


     **************************************************************************
     Initializing libbeef V0.1.1 with the BEEF-vdW functional.
     Citation: Wellendorff et al., PRB 85, 235149 (2012).
     **************************************************************************


     IMPORTANT: XC functional enforced from input :
     Exchange-correlation      = BEEF-VDW ( 1  4 27 13 2)
     Any further DFT definition will be discarded
     Please, verify this is what you really want


     Subspace diagonalization in iterative solution of the eigenvalue problem:
     a serial algorithm will be used

 
     Parallelization info
     --------------------
     sticks:   dense  smooth     PW     G-vecs:    dense   smooth      PW
     Min          45      18      5                 8745     2204     357
     Max          46      19      6                 8786     2241     376
     Sum        2941    1177    361               561441   142055   23415
 
     Generating pointlists ...
     new r_m :   0.4125 (alat units)  0.7795 (a.u.) for type    1
     new r_m :   0.4125 (alat units)  0.7795 (a.u.) for type    2


     bravais-lattice index     =            0
     lattice parameter (alat)  =       1.8897  a.u.
     unit-cell volume          =    4721.8511 (a.u.)^3
     number of atoms/cell      =           12
     number of atomic types    =            2
     number of electrons       =       171.00
     number of Kohn-Sham states=          115
     kinetic-energy cutoff     =      36.7493  Ry
     charge density cutoff     =     367.4932  Ry
     convergence threshold     =      1.0E-06
     mixing beta               =       0.1000
     number of iterations used =           10  plain     mixing
     Exchange-correlation      = BEEF-VDW ( 1  4 27 13 2)
     nstep                     =           50


     celldm(1)=   1.889726  celldm(2)=   0.000000  celldm(3)=   0.000000
     celldm(4)=   0.000000  celldm(5)=   0.000000  celldm(6)=   0.000000

     crystal axes: (cart. coord. in units of alat)
               a(1) = (   5.722512   0.000000   0.000000 )  
               a(2) = (  -2.861256   4.955841   0.000000 )  
               a(3) = (   0.000000   0.000000  24.672412 )  

     reciprocal axes: (cart. coord. in units 2 pi/alat)
               b(1) = (  0.174748  0.100891  0.000000 )  
               b(2) = (  0.000000  0.201782  0.000000 )  
               b(3) = (  0.000000  0.000000  0.040531 )  


     PseudoPot. # 1 for Nb read from file:
     /afs/slac.stanford.edu/u/if/mamunm/psp/gbrv1.5pbe/Nb.UPF
     MD5 check sum: 573aab8a2fa660278ed4a62cd769473f
     Pseudo is Ultrasoft + core correction, Zval = 13.0
     Generated by new atomic code, or converted to UPF format
     Using radial grid of  887 points,  6 beta functions with: 
                l(1) =   0
                l(2) =   0
                l(3) =   1
                l(4) =   1
                l(5) =   2
                l(6) =   2
     Q(r) pseudized with  6 coefficients,  rinner =    1.000   1.000   1.000
                                                       1.000   1.000

     PseudoPot. # 2 for Ni read from file:
     /afs/slac.stanford.edu/u/if/mamunm/psp/gbrv1.5pbe/Ni.UPF
     MD5 check sum: 1ee80287db30b12d2bc1f57a5b5d6409
     Pseudo is Ultrasoft + core correction, Zval = 18.0
     Generated by new atomic code, or converted to UPF format
     Using radial grid of  865 points,  6 beta functions with: 
                l(1) =   0
                l(2) =   0
                l(3) =   1
                l(4) =   1
                l(5) =   2
                l(6) =   2
     Q(r) pseudized with 10 coefficients,  rinner =    0.980   0.980   0.980
                                                       0.980   0.980

     vdW kernel table read from file vdW_kernel_table
     MD5 check sum: 095c7af220d748ca6e76c0b4c6cfb241

     atomic species   valence    mass     pseudopotential
        Nb1           13.00    92.90637     Nb( 1.00)
        Ni1           18.00    58.69340     Ni( 1.00)

     Starting magnetic structure 
     atomic species   magnetization
        Nb1          0.154
        Ni1          0.111

     No symmetry found



   Cartesian axes

     site n.     atom                  positions (alat units)
         1           Nb1 tau(   1) = (   0.0000000   0.0000000  10.0000000  )
         2           Nb1 tau(   2) = (  -1.4306280   2.4779205  10.0000000  )
         3           Nb1 tau(   3) = (   1.4306280   2.4779205  10.0000000  )
         4           Ni1 tau(   4) = (   2.8612561   0.0000000  10.0000000  )
         5           Nb1 tau(   5) = (   2.8612561   1.6519470  12.3362058  )
         6           Nb1 tau(   6) = (   1.4306280   4.1298674  12.3362058  )
         7           Nb1 tau(   7) = (  -1.4306280   4.1298674  12.3362058  )
         8           Ni1 tau(   8) = (   0.0000000   1.6519470  12.3362058  )
         9           Nb1 tau(   9) = (  -0.0000000   3.3038939  14.6724116  )
        10           Nb1 tau(  10) = (   1.4306280   0.8259735  14.6724116  )
        11           Nb1 tau(  11) = (   4.2918841   0.8259735  14.6724116  )
        12           Ni1 tau(  12) = (   2.8612561   3.3038939  14.6724116  )

     number of k points=    40  Fermi-Dirac smearing, width (Ry)=  0.0110
                       cart. coord. in units 2pi/alat
        k(    1) = (   0.0000000   0.0000000   0.0000000), wk =   0.0277778
        k(    2) = (   0.0000000   0.0336304   0.0000000), wk =   0.0555556
        k(    3) = (   0.0000000   0.0672607   0.0000000), wk =   0.0555556
        k(    4) = (   0.0000000  -0.1008911   0.0000000), wk =   0.0277778
        k(    5) = (   0.0291247   0.0168152   0.0000000), wk =   0.0555556
        k(    6) = (   0.0291247   0.0504455   0.0000000), wk =   0.0555556
        k(    7) = (   0.0291247   0.0840759   0.0000000), wk =   0.0555556
        k(    8) = (   0.0291247  -0.0840759   0.0000000), wk =   0.0555556
        k(    9) = (   0.0291247  -0.0504455   0.0000000), wk =   0.0555556
        k(   10) = (   0.0291247  -0.0168152   0.0000000), wk =   0.0555556
        k(   11) = (   0.0582495   0.0336304   0.0000000), wk =   0.0555556
        k(   12) = (   0.0582495   0.0672607   0.0000000), wk =   0.0555556
        k(   13) = (   0.0582495   0.1008911   0.0000000), wk =   0.0555556
        k(   14) = (   0.0582495  -0.0672607   0.0000000), wk =   0.0555556
        k(   15) = (   0.0582495  -0.0336304   0.0000000), wk =   0.0555556
        k(   16) = (   0.0582495  -0.0000000   0.0000000), wk =   0.0555556
        k(   17) = (  -0.0873742  -0.0504455   0.0000000), wk =   0.0277778
        k(   18) = (  -0.0873742  -0.0168152   0.0000000), wk =   0.0555556
        k(   19) = (  -0.0873742   0.0168152   0.0000000), wk =   0.0555556
        k(   20) = (  -0.0873742  -0.1513366   0.0000000), wk =   0.0277778
        k(   21) = (   0.0000000   0.0000000   0.0000000), wk =   0.0277778
        k(   22) = (   0.0000000   0.0336304   0.0000000), wk =   0.0555556
        k(   23) = (   0.0000000   0.0672607   0.0000000), wk =   0.0555556
        k(   24) = (   0.0000000  -0.1008911   0.0000000), wk =   0.0277778
        k(   25) = (   0.0291247   0.0168152   0.0000000), wk =   0.0555556
        k(   26) = (   0.0291247   0.0504455   0.0000000), wk =   0.0555556
        k(   27) = (   0.0291247   0.0840759   0.0000000), wk =   0.0555556
        k(   28) = (   0.0291247  -0.0840759   0.0000000), wk =   0.0555556
        k(   29) = (   0.0291247  -0.0504455   0.0000000), wk =   0.0555556
        k(   30) = (   0.0291247  -0.0168152   0.0000000), wk =   0.0555556
        k(   31) = (   0.0582495   0.0336304   0.0000000), wk =   0.0555556
        k(   32) = (   0.0582495   0.0672607   0.0000000), wk =   0.0555556
        k(   33) = (   0.0582495   0.1008911   0.0000000), wk =   0.0555556
        k(   34) = (   0.0582495  -0.0672607   0.0000000), wk =   0.0555556
        k(   35) = (   0.0582495  -0.0336304   0.0000000), wk =   0.0555556
        k(   36) = (   0.0582495  -0.0000000   0.0000000), wk =   0.0555556
        k(   37) = (  -0.0873742  -0.0504455   0.0000000), wk =   0.0277778
        k(   38) = (  -0.0873742  -0.0168152   0.0000000), wk =   0.0555556
        k(   39) = (  -0.0873742   0.0168152   0.0000000), wk =   0.0555556
        k(   40) = (  -0.0873742  -0.1513366   0.0000000), wk =   0.0277778

     Dense  grid:   561441 G-vectors     FFT dimensions: (  72,  72, 288)

     Smooth grid:   142055 G-vectors     FFT dimensions: (  45,  45, 180)

     Largest allocated arrays     est. size (Mb)     dimensions
        Kohn-Sham Wavefunctions         0.52 Mb     (     295,  115)
        NL pseudopotentials             0.97 Mb     (     295,  216)
        Each V/rho on FFT grid          0.79 Mb     (   25920,   2)
        Each G-vector array             0.07 Mb     (    8766)
        G-vector shells                 0.03 Mb     (    4148)
     Largest temporary arrays     est. size (Mb)     dimensions
        Auxiliary wavefunctions         2.07 Mb     (     295,  460)
        Each subspace H/S matrix        3.23 Mb     (     460,  460)
        Each <psi_i|beta_j> matrix      0.38 Mb     (     216,  115)
        Arrays for rho mixing           3.96 Mb     (   25920,   10)

     Initial potential from superposition of free atoms
     Check: negative starting charge=(component1):   -0.002498
     Check: negative starting charge=(component2):   -0.001835

     starting charge  164.97540, renormalised to  171.00000

     negative rho (up, down):  2.590E-03 1.902E-03


     ************************************************************************
     *
     * You are using vdW-DF for exchange-correlation in this calculation.
     * Please cite the following three references that made this development
     * possible:
     *
     *   M. Dion, H. Rydberg, E. Schroder, D. C. Langreth, and
     *   B. I. Lundqvist, Phys. Rev. Lett. 92, 246401 (2004).
     *
     *   T. Thonhauser, V. R. Cooper, S. Li, A. Puzder, P. Hyldgaard, and
     *   D. C. Langreth, Phys. Rev. B 76, 125112 (2007).
     *
     *   G. Roman-Perez and J. M. Soler, Phys. Rev. Lett. 103, 096102 (2009).
     *
     *
     * If you are using vdW-DF2, please also cite:
     *
     *   K. Lee, E. D. Murray, L. Kong, B. I. Lundqvist, and
     *   D. C. Langreth, Phys. Rev. B 82, 081101(R) (2010).
     *
     *
     * If you are calculating the stress with vdW-DF, please also cite:
     *
     *   R. Sabatini, E. Kucukbenli, B. Kolb, T. Thonhauser, and
     *   S. de Gironcoli, J. Phys.: Condens. Matter 24, 424209 (2012).
     *
     ************************************************************************

     Carrying out vdW-DF run using the following parameters:

     Nqs =      20    Nr_points =    1024   r_max =   100.000
     q_mesh =
               0.00001000     0.04494208     0.09755937     0.15916263
               0.23128650     0.31572767     0.41458969     0.53033537
               0.66584808     0.82450364     1.01025438     1.22772762
               1.48234092     1.78043706     2.12944203     2.53805004
               3.01644009     3.57652955     4.23227104     5.00000000

     Gradients computed in reciprocal space

     ************************************************************************


 
     Adding external electric field

     Computed dipole along edir(3) : 
        Dipole               -0.0000 Ry au,         -0.0000 Debye
        Dipole field         -0.0000 Ry au
 
        Potential amp.        0.0000 Ry
        Total length         45.4585 bohr
 
 
     Adding external electric field

     Computed dipole along edir(3) : 
        Dipole               -0.0000 Ry au,         -0.0000 Debye
        Dipole field         -0.0000 Ry au
 
        Potential amp.        0.0000 Ry
        Total length         45.4585 bohr
 
     Starting wfc are  156 randomized atomic wfcs

     total cpu time spent up to now is       30.6 secs

     per-process dynamical memory:    51.0 Mb

     Self-consistent Calculation

     iteration #  1     ecut=    36.75 Ry     beta=0.10
     Davidson diagonalization with overlap
     ethr =  1.00E-02,  avg # of iterations =  2.6

     negative rho (up, down):  2.454E-03 1.821E-03
 
     Adding external electric field

     Computed dipole along edir(3) : 
        Dipole               -0.0001 Ry au,         -0.0002 Debye
        Dipole field         -0.0000 Ry au
 
        Potential amp.        0.0000 Ry
        Total length         45.4585 bohr
 
 
     Adding external electric field

     Computed dipole along edir(3) : 
        Dipole               -0.0001 Ry au,         -0.0002 Debye
        Dipole field         -0.0000 Ry au
 
        Potential amp.        0.0000 Ry
        Total length         45.4585 bohr
 
 
     Magnetic moment per site:
     atom:    1    charge:    1.5129    magn:    0.2148    constr:    0.0000
     atom:    2    charge:    1.5129    magn:    0.2148    constr:    0.0000
     atom:    3    charge:    1.5129    magn:    0.2148    constr:    0.0000
     atom:    4    charge:    9.5489    magn:    1.0238    constr:    0.0000
     atom:    5    charge:    1.5182    magn:    0.2152    constr:    0.0000
     atom:    6    charge:    1.5182    magn:    0.2152    constr:    0.0000
     atom:    7    charge:    1.5182    magn:    0.2152    constr:    0.0000
     atom:    8    charge:    9.5197    magn:    1.0316    constr:    0.0000
     atom:    9    charge:    1.5129    magn:    0.2148    constr:    0.0000
     atom:   10    charge:    1.5129    magn:    0.2148    constr:    0.0000
     atom:   11    charge:    1.5129    magn:    0.2148    constr:    0.0000
     atom:   12    charge:    9.5489    magn:    1.0238    constr:    0.0000

     total cpu time spent up to now is      101.9 secs

     total energy              =   -2100.81780168 Ry
     Harris-Foulkes estimate   =   -2103.13461930 Ry
     estimated scf accuracy    <      16.10631591 Ry

     total magnetization       =     8.96 Bohr mag/cell
     absolute magnetization    =     9.07 Bohr mag/cell

     iteration #  2     ecut=    36.75 Ry     beta=0.10
     Davidson diagonalization with overlap
     ethr =  9.42E-03,  avg # of iterations =  1.0

     negative rho (up, down):  2.352E-03 1.789E-03
 
     Adding external electric field

     Computed dipole along edir(3) : 
        Dipole               -0.0002 Ry au,         -0.0005 Debye
        Dipole field         -0.0000 Ry au
 
        Potential amp.        0.0000 Ry
        Total length         45.4585 bohr
 
 
     Adding external electric field

     Computed dipole along edir(3) : 
        Dipole               -0.0002 Ry au,         -0.0005 Debye
        Dipole field         -0.0000 Ry au
 
        Potential amp.        0.0000 Ry
        Total length         45.4585 bohr
 
 
     Magnetic moment per site:
     atom:    1    charge:    1.5007    magn:    0.1967    constr:    0.0000
     atom:    2    charge:    1.5007    magn:    0.1967    constr:    0.0000
     atom:    3    charge:    1.5007    magn:    0.1967    constr:    0.0000
     atom:    4    charge:    9.5062    magn:    0.9526    constr:    0.0000
     atom:    5    charge:    1.5044    magn:    0.1965    constr:    0.0000
     atom:    6    charge:    1.5044    magn:    0.1965    constr:    0.0000
     atom:    7    charge:    1.5044    magn:    0.1965    constr:    0.0000
     atom:    8    charge:    9.4827    magn:    0.9609    constr:    0.0000
     atom:    9    charge:    1.5007    magn:    0.1967    constr:    0.0000
     atom:   10    charge:    1.5007    magn:    0.1967    constr:    0.0000
     atom:   11    charge:    1.5007    magn:    0.1967    constr:    0.0000
     atom:   12    charge:    9.5062    magn:    0.9526    constr:    0.0000

     total cpu time spent up to now is      157.1 secs

     total energy              =   -2100.58674191 Ry
     Harris-Foulkes estimate   =   -2101.52531007 Ry
     estimated scf accuracy    <       7.26681067 Ry

     total magnetization       =     7.57 Bohr mag/cell
     absolute magnetization    =     7.82 Bohr mag/cell

     iteration #  3     ecut=    36.75 Ry     beta=0.10
     Davidson diagonalization with overlap
     ethr =  4.25E-03,  avg # of iterations =  1.0

     negative rho (up, down):  2.834E-03 1.912E-03
 
     Adding external electric field

     Computed dipole along edir(3) : 
        Dipole                0.0024 Ry au,          0.0062 Debye
        Dipole field          0.0000 Ry au
 
        Potential amp.       -0.0006 Ry
        Total length         45.4585 bohr
 
 
     Adding external electric field

     Computed dipole along edir(3) : 
        Dipole                0.0024 Ry au,          0.0062 Debye
        Dipole field          0.0000 Ry au
 
        Potential amp.       -0.0006 Ry
        Total length         45.4585 bohr
 
 
     Magnetic moment per site:
     atom:    1    charge:    1.4677    magn:    0.1351    constr:    0.0000
     atom:    2    charge:    1.4677    magn:    0.1351    constr:    0.0000
     atom:    3    charge:    1.4677    magn:    0.1351    constr:    0.0000
     atom:    4    charge:    9.3304    magn:    0.7329    constr:    0.0000
     atom:    5    charge:    1.4660    magn:    0.1327    constr:    0.0000
     atom:    6    charge:    1.4660    magn:    0.1327    constr:    0.0000
     atom:    7    charge:    1.4660    magn:    0.1327    constr:    0.0000
     atom:    8    charge:    9.3199    magn:    0.7438    constr:    0.0000
     atom:    9    charge:    1.4677    magn:    0.1351    constr:    0.0000
     atom:   10    charge:    1.4677    magn:    0.1351    constr:    0.0000
     atom:   11    charge:    1.4677    magn:    0.1351    constr:    0.0000
     atom:   12    charge:    9.3303    magn:    0.7329    constr:    0.0000

     total cpu time spent up to now is      211.7 secs

     total energy              =   -2099.05842215 Ry
     Harris-Foulkes estimate   =   -2100.71758824 Ry
     estimated scf accuracy    <       4.04067468 Ry

     total magnetization       =     7.67 Bohr mag/cell
     absolute magnetization    =     7.91 Bohr mag/cell

     iteration #  4     ecut=    36.75 Ry     beta=0.10
     Davidson diagonalization with overlap
     ethr =  2.36E-03,  avg # of iterations =  2.1

     negative rho (up, down):  2.661E-03 1.892E-03
 
     Adding external electric field

     Computed dipole along edir(3) : 
        Dipole               -0.0300 Ry au,         -0.0763 Debye
        Dipole field         -0.0001 Ry au
 
        Potential amp.        0.0073 Ry
        Total length         45.4585 bohr
 
 
     Adding external electric field

     Computed dipole along edir(3) : 
        Dipole               -0.0300 Ry au,         -0.0763 Debye
        Dipole field         -0.0001 Ry au
 
        Potential amp.        0.0073 Ry
        Total length         45.4585 bohr
 
 
     Magnetic moment per site:
     atom:    1    charge:    1.4716    magn:    0.1269    constr:    0.0000
     atom:    2    charge:    1.4716    magn:    0.1269    constr:    0.0000
     atom:    3    charge:    1.4716    magn:    0.1269    constr:    0.0000
     atom:    4    charge:    9.3192    magn:    0.7197    constr:    0.0000
     atom:    5    charge:    1.4700    magn:    0.1240    constr:    0.0000
     atom:    6    charge:    1.4700    magn:    0.1240    constr:    0.0000
     atom:    7    charge:    1.4700    magn:    0.1240    constr:    0.0000
     atom:    8    charge:    9.2851    magn:    0.7440    constr:    0.0000
     atom:    9    charge:    1.4717    magn:    0.1269    constr:    0.0000
     atom:   10    charge:    1.4717    magn:    0.1269    constr:    0.0000
     atom:   11    charge:    1.4717    magn:    0.1269    constr:    0.0000
     atom:   12    charge:    9.3199    magn:    0.7193    constr:    0.0000

     total cpu time spent up to now is      276.8 secs

     total energy              =   -2099.65865169 Ry
     Harris-Foulkes estimate   =   -2099.83366102 Ry
     estimated scf accuracy    <       1.09869701 Ry

     total magnetization       =     8.37 Bohr mag/cell
     absolute magnetization    =     8.41 Bohr mag/cell

     iteration #  5     ecut=    36.75 Ry     beta=0.10
     Davidson diagonalization with overlap
     ethr =  6.43E-04,  avg # of iterations =  1.6

     negative rho (up, down):  2.505E-03 1.856E-03
 
     Adding external electric field

     Computed dipole along edir(3) : 
        Dipole                0.0747 Ry au,          0.1899 Debye
        Dipole field          0.0002 Ry au
 
        Potential amp.       -0.0181 Ry
        Total length         45.4585 bohr
 
 
     Adding external electric field

     Computed dipole along edir(3) : 
        Dipole                0.0747 Ry au,          0.1899 Debye
        Dipole field          0.0002 Ry au
 
        Potential amp.       -0.0181 Ry
        Total length         45.4585 bohr
 
 
     Magnetic moment per site:
     atom:    1    charge:    1.4715    magn:    0.1212    constr:    0.0000
     atom:    2    charge:    1.4715    magn:    0.1212    constr:    0.0000
     atom:    3    charge:    1.4715    magn:    0.1212    constr:    0.0000
     atom:    4    charge:    9.3242    magn:    0.6975    constr:    0.0000
     atom:    5    charge:    1.4697    magn:    0.1180    constr:    0.0000
     atom:    6    charge:    1.4697    magn:    0.1180    constr:    0.0000
     atom:    7    charge:    1.4697    magn:    0.1180    constr:    0.0000
     atom:    8    charge:    9.2948    magn:    0.7214    constr:    0.0000
     atom:    9    charge:    1.4713    magn:    0.1212    constr:    0.0000
     atom:   10    charge:    1.4713    magn:    0.1212    constr:    0.0000
     atom:   11    charge:    1.4713    magn:    0.1212    constr:    0.0000
     atom:   12    charge:    9.3235    magn:    0.6977    constr:    0.0000

     total cpu time spent up to now is      332.5 secs

     total energy              =   -2099.80904558 Ry
     Harris-Foulkes estimate   =   -2099.84813294 Ry
     estimated scf accuracy    <       1.10066169 Ry

     total magnetization       =     6.53 Bohr mag/cell
     absolute magnetization    =     6.70 Bohr mag/cell

     iteration #  6     ecut=    36.75 Ry     beta=0.10
     Davidson diagonalization with overlap
     ethr =  6.43E-04,  avg # of iterations =  1.0

     negative rho (up, down):  2.355E-03 1.821E-03
 
     Adding external electric field

     Computed dipole along edir(3) : 
        Dipole               -0.0425 Ry au,         -0.1080 Debye
        Dipole field         -0.0001 Ry au
 
        Potential amp.        0.0103 Ry
        Total length         45.4585 bohr
 
 
     Adding external electric field

     Computed dipole along edir(3) : 
        Dipole               -0.0425 Ry au,         -0.1080 Debye
        Dipole field         -0.0001 Ry au
 
        Potential amp.        0.0103 Ry
        Total length         45.4585 bohr
 
 
     Magnetic moment per site:
     atom:    1    charge:    1.4713    magn:    0.1183    constr:    0.0000
     atom:    2    charge:    1.4713    magn:    0.1183    constr:    0.0000
     atom:    3    charge:    1.4713    magn:    0.1183    constr:    0.0000
     atom:    4    charge:    9.3251    magn:    0.6870    constr:    0.0000
     atom:    5    charge:    1.4695    magn:    0.1150    constr:    0.0000
     atom:    6    charge:    1.4695    magn:    0.1150    constr:    0.0000
     atom:    7    charge:    1.4695    magn:    0.1150    constr:    0.0000
     atom:    8    charge:    9.2987    magn:    0.7105    constr:    0.0000
     atom:    9    charge:    1.4714    magn:    0.1183    constr:    0.0000
     atom:   10    charge:    1.4714    magn:    0.1183    constr:    0.0000
     atom:   11    charge:    1.4714    magn:    0.1183    constr:    0.0000
     atom:   12    charge:    9.3258    magn:    0.6865    constr:    0.0000

     total cpu time spent up to now is      386.6 secs

     total energy              =   -2099.80466059 Ry
     Harris-Foulkes estimate   =   -2099.82880851 Ry
     estimated scf accuracy    <       1.04750228 Ry

     total magnetization       =     6.69 Bohr mag/cell
     absolute magnetization    =     6.84 Bohr mag/cell

     iteration #  7     ecut=    36.75 Ry     beta=0.10
     Davidson diagonalization with overlap
     ethr =  6.13E-04,  avg # of iterations =  1.0

     negative rho (up, down):  2.593E-03 2.081E-03
 
     Adding external electric field

     Computed dipole along edir(3) : 
        Dipole                0.0008 Ry au,          0.0020 Debye
        Dipole field          0.0000 Ry au
 
        Potential amp.       -0.0002 Ry
        Total length         45.4585 bohr
 
 
     Adding external electric field

     Computed dipole along edir(3) : 
        Dipole                0.0008 Ry au,          0.0020 Debye
        Dipole field          0.0000 Ry au
 
        Potential amp.       -0.0002 Ry
        Total length         45.4585 bohr
 
 
     Magnetic moment per site:
     atom:    1    charge:    1.4730    magn:    0.0873    constr:    0.0000
     atom:    2    charge:    1.4730    magn:    0.0873    constr:    0.0000
     atom:    3    charge:    1.4730    magn:    0.0873    constr:    0.0000
     atom:    4    charge:    9.3353    magn:    0.5761    constr:    0.0000
     atom:    5    charge:    1.4695    magn:    0.0824    constr:    0.0000
     atom:    6    charge:    1.4695    magn:    0.0824    constr:    0.0000
     atom:    7    charge:    1.4695    magn:    0.0824    constr:    0.0000
     atom:    8    charge:    9.3169    magn:    0.6060    constr:    0.0000
     atom:    9    charge:    1.4731    magn:    0.0873    constr:    0.0000
     atom:   10    charge:    1.4731    magn:    0.0873    constr:    0.0000
     atom:   11    charge:    1.4731    magn:    0.0873    constr:    0.0000
     atom:   12    charge:    9.3338    magn:    0.5766    constr:    0.0000

     total cpu time spent up to now is      441.5 secs

     total energy              =   -2099.80741263 Ry
     Harris-Foulkes estimate   =   -2099.81942642 Ry
     estimated scf accuracy    <       0.56424888 Ry

     total magnetization       =     6.73 Bohr mag/cell
     absolute magnetization    =     6.86 Bohr mag/cell

     iteration #  8     ecut=    36.75 Ry     beta=0.10
     Davidson diagonalization with overlap
     ethr =  3.30E-04,  avg # of iterations =  1.2

     negative rho (up, down):  2.866E-03 2.377E-03
 
     Adding external electric field

     Computed dipole along edir(3) : 
        Dipole                0.0031 Ry au,          0.0080 Debye
        Dipole field          0.0000 Ry au
 
        Potential amp.       -0.0008 Ry
        Total length         45.4585 bohr
 
 
     Adding external electric field

     Computed dipole along edir(3) : 
        Dipole                0.0031 Ry au,          0.0080 Debye
        Dipole field          0.0000 Ry au
 
        Potential amp.       -0.0008 Ry
        Total length         45.4585 bohr
 
 
     Magnetic moment per site:
     atom:    1    charge:    1.4711    magn:    0.0605    constr:    0.0000
     atom:    2    charge:    1.4711    magn:    0.0605    constr:    0.0000
     atom:    3    charge:    1.4711    magn:    0.0605    constr:    0.0000
     atom:    4    charge:    9.3232    magn:    0.4739    constr:    0.0000
     atom:    5    charge:    1.4695    magn:    0.0548    constr:    0.0000
     atom:    6    charge:    1.4695    magn:    0.0548    constr:    0.0000
     atom:    7    charge:    1.4695    magn:    0.0548    constr:    0.0000
     atom:    8    charge:    9.3030    magn:    0.5156    constr:    0.0000
     atom:    9    charge:    1.4710    magn:    0.0605    constr:    0.0000
     atom:   10    charge:    1.4710    magn:    0.0605    constr:    0.0000
     atom:   11    charge:    1.4709    magn:    0.0605    constr:    0.0000
     atom:   12    charge:    9.3276    magn:    0.4718    constr:    0.0000

     total cpu time spent up to now is      496.4 secs

     total energy              =   -2099.87082307 Ry
     Harris-Foulkes estimate   =   -2099.84120870 Ry
     estimated scf accuracy    <       0.10853286 Ry

     total magnetization       =     6.38 Bohr mag/cell
     absolute magnetization    =     6.48 Bohr mag/cell

     iteration #  9     ecut=    36.75 Ry     beta=0.10
     Davidson diagonalization with overlap
     ethr =  6.35E-05,  avg # of iterations =  3.7

     negative rho (up, down):  3.082E-03 2.767E-03
 
     Adding external electric field

     Computed dipole along edir(3) : 
        Dipole               -0.0027 Ry au,         -0.0069 Debye
        Dipole field         -0.0000 Ry au
 
        Potential amp.        0.0007 Ry
        Total length         45.4585 bohr
 
 
     Adding external electric field

     Computed dipole along edir(3) : 
        Dipole               -0.0027 Ry au,         -0.0069 Debye
        Dipole field         -0.0000 Ry au
 
        Potential amp.        0.0007 Ry
        Total length         45.4585 bohr
 
 
     Magnetic moment per site:
     atom:    1    charge:    1.4737    magn:    0.0372    constr:    0.0000
     atom:    2    charge:    1.4737    magn:    0.0372    constr:    0.0000
     atom:    3    charge:    1.4737    magn:    0.0372    constr:    0.0000
     atom:    4    charge:    9.3086    magn:    0.3892    constr:    0.0000
     atom:    5    charge:    1.4756    magn:    0.0308    constr:    0.0000
     atom:    6    charge:    1.4756    magn:    0.0308    constr:    0.0000
     atom:    7    charge:    1.4756    magn:    0.0308    constr:    0.0000
     atom:    8    charge:    9.2810    magn:    0.4469    constr:    0.0000
     atom:    9    charge:    1.4737    magn:    0.0372    constr:    0.0000
     atom:   10    charge:    1.4737    magn:    0.0372    constr:    0.0000
     atom:   11    charge:    1.4737    magn:    0.0372    constr:    0.0000
     atom:   12    charge:    9.3087    magn:    0.3886    constr:    0.0000

     total cpu time spent up to now is      567.6 secs

     total energy              =   -2099.84311182 Ry
     Harris-Foulkes estimate   =   -2099.89621727 Ry
     estimated scf accuracy    <       0.50821554 Ry

     total magnetization       =     5.90 Bohr mag/cell
     absolute magnetization    =     5.97 Bohr mag/cell

     iteration # 10     ecut=    36.75 Ry     beta=0.10
     Davidson diagonalization with overlap
     ethr =  6.35E-05,  avg # of iterations =  2.5

     negative rho (up, down):  2.923E-03 2.738E-03
 
     Adding external electric field

     Computed dipole along edir(3) : 
        Dipole               -0.0011 Ry au,         -0.0029 Debye
        Dipole field         -0.0000 Ry au
 
        Potential amp.        0.0003 Ry
        Total length         45.4585 bohr
 
 
     Adding external electric field

     Computed dipole along edir(3) : 
        Dipole               -0.0011 Ry au,         -0.0029 Debye
        Dipole field         -0.0000 Ry au
 
        Potential amp.        0.0003 Ry
        Total length         45.4585 bohr
 
 
     Magnetic moment per site:
     atom:    1    charge:    1.4763    magn:    0.0336    constr:    0.0000
     atom:    2    charge:    1.4763    magn:    0.0336    constr:    0.0000
     atom:    3    charge:    1.4763    magn:    0.0336    constr:    0.0000
     atom:    4    charge:    9.3225    magn:    0.3705    constr:    0.0000
     atom:    5    charge:    1.4782    magn:    0.0271    constr:    0.0000
     atom:    6    charge:    1.4782    magn:    0.0271    constr:    0.0000
     atom:    7    charge:    1.4782    magn:    0.0271    constr:    0.0000
     atom:    8    charge:    9.2998    magn:    0.4297    constr:    0.0000
     atom:    9    charge:    1.4763    magn:    0.0336    constr:    0.0000
     atom:   10    charge:    1.4763    magn:    0.0336    constr:    0.0000
     atom:   11    charge:    1.4763    magn:    0.0336    constr:    0.0000
     atom:   12    charge:    9.3237    magn:    0.3694    constr:    0.0000

     total cpu time spent up to now is      660.4 secs

     total energy              =   -2099.89478553 Ry
     Harris-Foulkes estimate   =   -2099.92379862 Ry
     estimated scf accuracy    <       0.48339620 Ry

     total magnetization       =     4.24 Bohr mag/cell
     absolute magnetization    =     4.42 Bohr mag/cell

     iteration # 11     ecut=    36.75 Ry     beta=0.10
     Davidson diagonalization with overlap
     ethr =  6.35E-05,  avg # of iterations =  1.1

     negative rho (up, down):  2.895E-03 2.795E-03
 
     Adding external electric field

     Computed dipole along edir(3) : 
        Dipole               -0.0016 Ry au,         -0.0039 Debye
        Dipole field         -0.0000 Ry au
 
        Potential amp.        0.0004 Ry
        Total length         45.4585 bohr
 
 
     Adding external electric field

     Computed dipole along edir(3) : 
        Dipole               -0.0016 Ry au,         -0.0039 Debye
        Dipole field         -0.0000 Ry au
 
        Potential amp.        0.0004 Ry
        Total length         45.4585 bohr
 
 
     Magnetic moment per site:
     atom:    1    charge:    1.4779    magn:    0.0247    constr:    0.0000
     atom:    2    charge:    1.4779    magn:    0.0247    constr:    0.0000
     atom:    3    charge:    1.4779    magn:    0.0247    constr:    0.0000
     atom:    4    charge:    9.3314    magn:    0.3243    constr:    0.0000
     atom:    5    charge:    1.4799    magn:    0.0181    constr:    0.0000
     atom:    6    charge:    1.4799    magn:    0.0181    constr:    0.0000
     atom:    7    charge:    1.4799    magn:    0.0181    constr:    0.0000
     atom:    8    charge:    9.3149    magn:    0.3869    constr:    0.0000
     atom:    9    charge:    1.4779    magn:    0.0247    constr:    0.0000
     atom:   10    charge:    1.4779    magn:    0.0247    constr:    0.0000
     atom:   11    charge:    1.4779    magn:    0.0247    constr:    0.0000
     atom:   12    charge:    9.3311    magn:    0.3232    constr:    0.0000

     total cpu time spent up to now is      719.6 secs

     total energy              =   -2099.88655403 Ry
     Harris-Foulkes estimate   =   -2099.90106580 Ry
     estimated scf accuracy    <       0.18946921 Ry

     total magnetization       =     4.13 Bohr mag/cell
     absolute magnetization    =     4.31 Bohr mag/cell

     iteration # 12     ecut=    36.75 Ry     beta=0.10
     Davidson diagonalization with overlap
     ethr =  6.35E-05,  avg # of iterations =  1.8

     negative rho (up, down):  2.812E-03 2.762E-03
 
     Adding external electric field

     Computed dipole along edir(3) : 
        Dipole               -0.0006 Ry au,         -0.0016 Debye
        Dipole field         -0.0000 Ry au
 
        Potential amp.        0.0001 Ry
        Total length         45.4585 bohr
 
 
     Adding external electric field

     Computed dipole along edir(3) : 
        Dipole               -0.0006 Ry au,         -0.0016 Debye
        Dipole field         -0.0000 Ry au
 
        Potential amp.        0.0001 Ry
        Total length         45.4585 bohr
 
 
     Magnetic moment per site:
     atom:    1    charge:    1.4799    magn:    0.0191    constr:    0.0000
     atom:    2    charge:    1.4799    magn:    0.0191    constr:    0.0000
     atom:    3    charge:    1.4799    magn:    0.0191    constr:    0.0000
     atom:    4    charge:    9.3376    magn:    0.2906    constr:    0.0000
     atom:    5    charge:    1.4818    magn:    0.0126    constr:    0.0000
     atom:    6    charge:    1.4818    magn:    0.0126    constr:    0.0000
     atom:    7    charge:    1.4818    magn:    0.0126    constr:    0.0000
     atom:    8    charge:    9.3217    magn:    0.3575    constr:    0.0000
     atom:    9    charge:    1.4799    magn:    0.0192    constr:    0.0000
     atom:   10    charge:    1.4799    magn:    0.0192    constr:    0.0000
     atom:   11    charge:    1.4799    magn:    0.0192    constr:    0.0000
     atom:   12    charge:    9.3371    magn:    0.2894    constr:    0.0000

     total cpu time spent up to now is      777.0 secs

     total energy              =   -2099.89844740 Ry
     Harris-Foulkes estimate   =   -2099.89736683 Ry
     estimated scf accuracy    <       0.02154293 Ry

     total magnetization       =     3.91 Bohr mag/cell
     absolute magnetization    =     4.07 Bohr mag/cell

     iteration # 13     ecut=    36.75 Ry     beta=0.10
     Davidson diagonalization with overlap
     ethr =  1.26E-05,  avg # of iterations =  3.0

     negative rho (up, down):  2.725E-03 2.647E-03
 
     Adding external electric field

     Computed dipole along edir(3) : 
        Dipole                0.0016 Ry au,          0.0041 Debye
        Dipole field          0.0000 Ry au
 
        Potential amp.       -0.0004 Ry
        Total length         45.4585 bohr
 
 
     Adding external electric field

     Computed dipole along edir(3) : 
        Dipole                0.0016 Ry au,          0.0041 Debye
        Dipole field          0.0000 Ry au
 
        Potential amp.       -0.0004 Ry
        Total length         45.4585 bohr
 
 
     Magnetic moment per site:
     atom:    1    charge:    1.4808    magn:    0.0143    constr:    0.0000
     atom:    2    charge:    1.4808    magn:    0.0143    constr:    0.0000
     atom:    3    charge:    1.4808    magn:    0.0143    constr:    0.0000
     atom:    4    charge:    9.3388    magn:    0.2445    constr:    0.0000
     atom:    5    charge:    1.4826    magn:    0.0081    constr:    0.0000
     atom:    6    charge:    1.4826    magn:    0.0081    constr:    0.0000
     atom:    7    charge:    1.4826    magn:    0.0081    constr:    0.0000
     atom:    8    charge:    9.3285    magn:    0.3137    constr:    0.0000
     atom:    9    charge:    1.4807    magn:    0.0143    constr:    0.0000
     atom:   10    charge:    1.4807    magn:    0.0143    constr:    0.0000
     atom:   11    charge:    1.4807    magn:    0.0143    constr:    0.0000
     atom:   12    charge:    9.3404    magn:    0.2430    constr:    0.0000

     total cpu time spent up to now is      840.7 secs

     total energy              =   -2099.90463298 Ry
     Harris-Foulkes estimate   =   -2099.89999626 Ry
     estimated scf accuracy    <       0.02096649 Ry

     total magnetization       =     3.57 Bohr mag/cell
     absolute magnetization    =     3.72 Bohr mag/cell

     iteration # 14     ecut=    36.75 Ry     beta=0.10
     Davidson diagonalization with overlap
     ethr =  1.23E-05,  avg # of iterations =  1.8

     negative rho (up, down):  2.621E-03 2.527E-03
 
     Adding external electric field

     Computed dipole along edir(3) : 
        Dipole                0.0004 Ry au,          0.0010 Debye
        Dipole field          0.0000 Ry au
 
        Potential amp.       -0.0001 Ry
        Total length         45.4585 bohr
 
 
     Adding external electric field

     Computed dipole along edir(3) : 
        Dipole                0.0004 Ry au,          0.0010 Debye
        Dipole field          0.0000 Ry au
 
        Potential amp.       -0.0001 Ry
        Total length         45.4585 bohr
 
 
     Magnetic moment per site:
     atom:    1    charge:    1.4811    magn:    0.0121    constr:    0.0000
     atom:    2    charge:    1.4811    magn:    0.0121    constr:    0.0000
     atom:    3    charge:    1.4811    magn:    0.0121    constr:    0.0000
     atom:    4    charge:    9.3389    magn:    0.2217    constr:    0.0000
     atom:    5    charge:    1.4830    magn:    0.0061    constr:    0.0000
     atom:    6    charge:    1.4830    magn:    0.0061    constr:    0.0000
     atom:    7    charge:    1.4830    magn:    0.0061    constr:    0.0000
     atom:    8    charge:    9.3253    magn:    0.2933    constr:    0.0000
     atom:    9    charge:    1.4811    magn:    0.0121    constr:    0.0000
     atom:   10    charge:    1.4811    magn:    0.0121    constr:    0.0000
     atom:   11    charge:    1.4811    magn:    0.0121    constr:    0.0000
     atom:   12    charge:    9.3396    magn:    0.2206    constr:    0.0000

     total cpu time spent up to now is      898.5 secs

     total energy              =   -2099.90322105 Ry
     Harris-Foulkes estimate   =   -2099.90734386 Ry
     estimated scf accuracy    <       0.11685411 Ry

     total magnetization       =     3.16 Bohr mag/cell
     absolute magnetization    =     3.31 Bohr mag/cell

     iteration # 15     ecut=    36.75 Ry     beta=0.10
     Davidson diagonalization with overlap
     ethr =  1.23E-05,  avg # of iterations =  1.0

     negative rho (up, down):  2.676E-03 2.559E-03
 
     Adding external electric field

     Computed dipole along edir(3) : 
        Dipole               -0.0005 Ry au,         -0.0013 Debye
        Dipole field         -0.0000 Ry au
 
        Potential amp.        0.0001 Ry
        Total length         45.4585 bohr
 
 
     Adding external electric field

     Computed dipole along edir(3) : 
        Dipole               -0.0005 Ry au,         -0.0013 Debye
        Dipole field         -0.0000 Ry au
 
        Potential amp.        0.0001 Ry
        Total length         45.4585 bohr
 
 
     Magnetic moment per site:
     atom:    1    charge:    1.4816    magn:    0.0009    constr:    0.0000
     atom:    2    charge:    1.4816    magn:    0.0009    constr:    0.0000
     atom:    3    charge:    1.4816    magn:    0.0009    constr:    0.0000
     atom:    4    charge:    9.3370    magn:    0.1249    constr:    0.0000
     atom:    5    charge:    1.4832    magn:   -0.0045    constr:    0.0000
     atom:    6    charge:    1.4831    magn:   -0.0045    constr:    0.0000
     atom:    7    charge:    1.4832    magn:   -0.0045    constr:    0.0000
     atom:    8    charge:    9.3223    magn:    0.2027    constr:    0.0000
     atom:    9    charge:    1.4816    magn:    0.0009    constr:    0.0000
     atom:   10    charge:    1.4816    magn:    0.0009    constr:    0.0000
     atom:   11    charge:    1.4816    magn:    0.0009    constr:    0.0000
     atom:   12    charge:    9.3368    magn:    0.1241    constr:    0.0000

     total cpu time spent up to now is      954.0 secs

     total energy              =   -2099.90503059 Ry
     Harris-Foulkes estimate   =   -2099.90509593 Ry
     estimated scf accuracy    <       0.02135409 Ry

     total magnetization       =     2.85 Bohr mag/cell
     absolute magnetization    =     3.01 Bohr mag/cell

     iteration # 16     ecut=    36.75 Ry     beta=0.10
     Davidson diagonalization with overlap
     ethr =  1.23E-05,  avg # of iterations =  1.5

     negative rho (up, down):  2.564E-03 2.460E-03
 
     Adding external electric field

     Computed dipole along edir(3) : 
        Dipole               -0.0003 Ry au,         -0.0007 Debye
        Dipole field         -0.0000 Ry au
 
        Potential amp.        0.0001 Ry
        Total length         45.4585 bohr
 
 
     Adding external electric field

     Computed dipole along edir(3) : 
        Dipole               -0.0003 Ry au,         -0.0007 Debye
        Dipole field         -0.0000 Ry au
 
        Potential amp.        0.0001 Ry
        Total length         45.4585 bohr
 
 
     Magnetic moment per site:
     atom:    1    charge:    1.4816    magn:    0.0007    constr:    0.0000
     atom:    2    charge:    1.4816    magn:    0.0007    constr:    0.0000
     atom:    3    charge:    1.4816    magn:    0.0007    constr:    0.0000
     atom:    4    charge:    9.3373    magn:    0.1146    constr:    0.0000
     atom:    5    charge:    1.4831    magn:   -0.0046    constr:    0.0000
     atom:    6    charge:    1.4831    magn:   -0.0046    constr:    0.0000
     atom:    7    charge:    1.4831    magn:   -0.0046    constr:    0.0000
     atom:    8    charge:    9.3226    magn:    0.1923    constr:    0.0000
     atom:    9    charge:    1.4817    magn:    0.0007    constr:    0.0000
     atom:   10    charge:    1.4817    magn:    0.0007    constr:    0.0000
     atom:   11    charge:    1.4817    magn:    0.0007    constr:    0.0000
     atom:   12    charge:    9.3371    magn:    0.1137    constr:    0.0000

     total cpu time spent up to now is     1010.9 secs

     total energy              =   -2099.90891458 Ry
     Harris-Foulkes estimate   =   -2099.90855657 Ry
     estimated scf accuracy    <       0.00166690 Ry

     total magnetization       =     1.82 Bohr mag/cell
     absolute magnetization    =     2.00 Bohr mag/cell

     iteration # 17     ecut=    36.75 Ry     beta=0.10
     Davidson diagonalization with overlap
     ethr =  9.75E-07,  avg # of iterations =  4.5

     negative rho (up, down):  2.535E-03 2.352E-03
 
     Adding external electric field

     Computed dipole along edir(3) : 
        Dipole               -0.0005 Ry au,         -0.0014 Debye
        Dipole field         -0.0000 Ry au
 
        Potential amp.        0.0001 Ry
        Total length         45.4585 bohr
 
 
     Adding external electric field

     Computed dipole along edir(3) : 
        Dipole               -0.0005 Ry au,         -0.0014 Debye
        Dipole field         -0.0000 Ry au
 
        Potential amp.        0.0001 Ry
        Total length         45.4585 bohr
 
 
     Magnetic moment per site:
     atom:    1    charge:    1.4803    magn:    0.0022    constr:    0.0000
     atom:    2    charge:    1.4803    magn:    0.0022    constr:    0.0000
     atom:    3    charge:    1.4803    magn:    0.0022    constr:    0.0000
     atom:    4    charge:    9.3368    magn:    0.0441    constr:    0.0000
     atom:    5    charge:    1.4811    magn:   -0.0015    constr:    0.0000
     atom:    6    charge:    1.4811    magn:   -0.0015    constr:    0.0000
     atom:    7    charge:    1.4811    magn:   -0.0015    constr:    0.0000
     atom:    8    charge:    9.3193    magn:    0.1176    constr:    0.0000
     atom:    9    charge:    1.4803    magn:    0.0022    constr:    0.0000
     atom:   10    charge:    1.4803    magn:    0.0022    constr:    0.0000
     atom:   11    charge:    1.4803    magn:    0.0022    constr:    0.0000
     atom:   12    charge:    9.3365    magn:    0.0434    constr:    0.0000

     total cpu time spent up to now is     1080.8 secs

     total energy              =   -2099.90938889 Ry
     Harris-Foulkes estimate   =   -2099.90901733 Ry
     estimated scf accuracy    <       0.00127841 Ry

     total magnetization       =     1.70 Bohr mag/cell
     absolute magnetization    =     1.87 Bohr mag/cell

     iteration # 18     ecut=    36.75 Ry     beta=0.10
     Davidson diagonalization with overlap
     ethr =  7.48E-07,  avg # of iterations =  3.8

     negative rho (up, down):  2.464E-03 2.306E-03
 
     Adding external electric field

     Computed dipole along edir(3) : 
        Dipole                0.0008 Ry au,          0.0021 Debye
        Dipole field          0.0000 Ry au
 
        Potential amp.       -0.0002 Ry
        Total length         45.4585 bohr
 
 
     Adding external electric field

     Computed dipole along edir(3) : 
        Dipole                0.0008 Ry au,          0.0021 Debye
        Dipole field          0.0000 Ry au
 
        Potential amp.       -0.0002 Ry
        Total length         45.4585 bohr
 
 
     Magnetic moment per site:
     atom:    1    charge:    1.4802    magn:    0.0016    constr:    0.0000
     atom:    2    charge:    1.4802    magn:    0.0016    constr:    0.0000
     atom:    3    charge:    1.4802    magn:    0.0016    constr:    0.0000
     atom:    4    charge:    9.3366    magn:    0.0290    constr:    0.0000
     atom:    5    charge:    1.4809    magn:   -0.0018    constr:    0.0000
     atom:    6    charge:    1.4809    magn:   -0.0018    constr:    0.0000
     atom:    7    charge:    1.4809    magn:   -0.0018    constr:    0.0000
     atom:    8    charge:    9.3186    magn:    0.1014    constr:    0.0000
     atom:    9    charge:    1.4802    magn:    0.0016    constr:    0.0000
     atom:   10    charge:    1.4802    magn:    0.0016    constr:    0.0000
     atom:   11    charge:    1.4802    magn:    0.0016    constr:    0.0000
     atom:   12    charge:    9.3364    magn:    0.0284    constr:    0.0000

     total cpu time spent up to now is     1160.7 secs

     total energy              =   -2099.91145391 Ry
     Harris-Foulkes estimate   =   -2099.91138643 Ry
     estimated scf accuracy    <       0.00183682 Ry

     total magnetization       =     0.93 Bohr mag/cell
     absolute magnetization    =     1.05 Bohr mag/cell

     iteration # 19     ecut=    36.75 Ry     beta=0.10
     Davidson diagonalization with overlap
     ethr =  7.48E-07,  avg # of iterations =  1.0

     negative rho (up, down):  2.388E-03 2.252E-03
 
     Adding external electric field

     Computed dipole along edir(3) : 
        Dipole               -0.0019 Ry au,         -0.0049 Debye
        Dipole field         -0.0000 Ry au
 
        Potential amp.        0.0005 Ry
        Total length         45.4585 bohr
 
 
     Adding external electric field

     Computed dipole along edir(3) : 
        Dipole               -0.0019 Ry au,         -0.0049 Debye
        Dipole field         -0.0000 Ry au
 
        Potential amp.        0.0005 Ry
        Total length         45.4585 bohr
 
 
     Magnetic moment per site:
     atom:    1    charge:    1.4801    magn:    0.0013    constr:    0.0000
     atom:    2    charge:    1.4801    magn:    0.0013    constr:    0.0000
     atom:    3    charge:    1.4801    magn:    0.0013    constr:    0.0000
     atom:    4    charge:    9.3365    magn:    0.0212    constr:    0.0000
     atom:    5    charge:    1.4808    magn:   -0.0020    constr:    0.0000
     atom:    6    charge:    1.4808    magn:   -0.0020    constr:    0.0000
     atom:    7    charge:    1.4808    magn:   -0.0020    constr:    0.0000
     atom:    8    charge:    9.3184    magn:    0.0924    constr:    0.0000
     atom:    9    charge:    1.4801    magn:    0.0013    constr:    0.0000
     atom:   10    charge:    1.4801    magn:    0.0013    constr:    0.0000
     atom:   11    charge:    1.4801    magn:    0.0013    constr:    0.0000
     atom:   12    charge:    9.3364    magn:    0.0207    constr:    0.0000

     total cpu time spent up to now is     1214.8 secs

     total energy              =   -2099.91161159 Ry
     Harris-Foulkes estimate   =   -2099.91155705 Ry
     estimated scf accuracy    <       0.00062573 Ry

     total magnetization       =     0.76 Bohr mag/cell
     absolute magnetization    =     0.89 Bohr mag/cell

     iteration # 20     ecut=    36.75 Ry     beta=0.10
     Davidson diagonalization with overlap
     ethr =  3.66E-07,  avg # of iterations =  1.4

     negative rho (up, down):  2.337E-03 2.225E-03
 
     Adding external electric field

     Computed dipole along edir(3) : 
        Dipole               -0.0001 Ry au,         -0.0001 Debye
        Dipole field         -0.0000 Ry au
 
        Potential amp.        0.0000 Ry
        Total length         45.4585 bohr
 
 
     Adding external electric field

     Computed dipole along edir(3) : 
        Dipole               -0.0001 Ry au,         -0.0001 Debye
        Dipole field         -0.0000 Ry au
 
        Potential amp.        0.0000 Ry
        Total length         45.4585 bohr
 
 
     Magnetic moment per site:
     atom:    1    charge:    1.4800    magn:    0.0018    constr:    0.0000
     atom:    2    charge:    1.4800    magn:    0.0018    constr:    0.0000
     atom:    3    charge:    1.4800    magn:    0.0018    constr:    0.0000
     atom:    4    charge:    9.3365    magn:    0.0111    constr:    0.0000
     atom:    5    charge:    1.4806    magn:   -0.0011    constr:    0.0000
     atom:    6    charge:    1.4806    magn:   -0.0011    constr:    0.0000
     atom:    7    charge:    1.4806    magn:   -0.0011    constr:    0.0000
     atom:    8    charge:    9.3184    magn:    0.0790    constr:    0.0000
     atom:    9    charge:    1.4800    magn:    0.0019    constr:    0.0000
     atom:   10    charge:    1.4800    magn:    0.0019    constr:    0.0000
     atom:   11    charge:    1.4800    magn:    0.0019    constr:    0.0000
     atom:   12    charge:    9.3364    magn:    0.0105    constr:    0.0000

     total cpu time spent up to now is     1270.6 secs

     total energy              =   -2099.91179202 Ry
     Harris-Foulkes estimate   =   -2099.91165596 Ry
     estimated scf accuracy    <       0.00050347 Ry

     total magnetization       =     0.67 Bohr mag/cell
     absolute magnetization    =     0.80 Bohr mag/cell

     iteration # 21     ecut=    36.75 Ry     beta=0.10
     Davidson diagonalization with overlap
     ethr =  2.94E-07,  avg # of iterations =  1.5

     negative rho (up, down):  2.308E-03 2.217E-03
 
     Adding external electric field

     Computed dipole along edir(3) : 
        Dipole               -0.0002 Ry au,         -0.0005 Debye
        Dipole field         -0.0000 Ry au
 
        Potential amp.        0.0000 Ry
        Total length         45.4585 bohr
 
 
     Adding external electric field

     Computed dipole along edir(3) : 
        Dipole               -0.0002 Ry au,         -0.0005 Debye
        Dipole field         -0.0000 Ry au
 
        Potential amp.        0.0000 Ry
        Total length         45.4585 bohr
 
 
     Magnetic moment per site:
     atom:    1    charge:    1.4800    magn:    0.0025    constr:    0.0000
     atom:    2    charge:    1.4800    magn:    0.0025    constr:    0.0000
     atom:    3    charge:    1.4800    magn:    0.0025    constr:    0.0000
     atom:    4    charge:    9.3360    magn:    0.0049    constr:    0.0000
     atom:    5    charge:    1.4807    magn:   -0.0000    constr:    0.0000
     atom:    6    charge:    1.4807    magn:   -0.0000    constr:    0.0000
     atom:    7    charge:    1.4807    magn:   -0.0000    constr:    0.0000
     atom:    8    charge:    9.3188    magn:    0.0657    constr:    0.0000
     atom:    9    charge:    1.4800    magn:    0.0025    constr:    0.0000
     atom:   10    charge:    1.4800    magn:    0.0025    constr:    0.0000
     atom:   11    charge:    1.4800    magn:    0.0025    constr:    0.0000
     atom:   12    charge:    9.3360    magn:    0.0043    constr:    0.0000

     total cpu time spent up to now is     1358.4 secs

     total energy              =   -2099.91198200 Ry
     Harris-Foulkes estimate   =   -2099.91185443 Ry
     estimated scf accuracy    <       0.00013576 Ry

     total magnetization       =     0.55 Bohr mag/cell
     absolute magnetization    =     0.67 Bohr mag/cell

     iteration # 22     ecut=    36.75 Ry     beta=0.10
     Davidson diagonalization with overlap
     ethr =  7.94E-08,  avg # of iterations =  3.6

     negative rho (up, down):  2.273E-03 2.198E-03
 
     Adding external electric field

     Computed dipole along edir(3) : 
        Dipole                0.0000 Ry au,          0.0001 Debye
        Dipole field          0.0000 Ry au
 
        Potential amp.       -0.0000 Ry
        Total length         45.4585 bohr
 
 
     Adding external electric field

     Computed dipole along edir(3) : 
        Dipole                0.0000 Ry au,          0.0001 Debye
        Dipole field          0.0000 Ry au
 
        Potential amp.       -0.0000 Ry
        Total length         45.4585 bohr
 
 
     Magnetic moment per site:
     atom:    1    charge:    1.4801    magn:    0.0023    constr:    0.0000
     atom:    2    charge:    1.4801    magn:    0.0023    constr:    0.0000
     atom:    3    charge:    1.4801    magn:    0.0023    constr:    0.0000
     atom:    4    charge:    9.3360    magn:   -0.0016    constr:    0.0000
     atom:    5    charge:    1.4809    magn:    0.0000    constr:    0.0000
     atom:    6    charge:    1.4809    magn:    0.0000    constr:    0.0000
     atom:    7    charge:    1.4809    magn:    0.0000    constr:    0.0000
     atom:    8    charge:    9.3189    magn:    0.0546    constr:    0.0000
     atom:    9    charge:    1.4801    magn:    0.0023    constr:    0.0000
     atom:   10    charge:    1.4801    magn:    0.0023    constr:    0.0000
     atom:   11    charge:    1.4801    magn:    0.0023    constr:    0.0000
     atom:   12    charge:    9.3361    magn:   -0.0021    constr:    0.0000

     total cpu time spent up to now is     1434.2 secs

     total energy              =   -2099.91210920 Ry
     Harris-Foulkes estimate   =   -2099.91204545 Ry
     estimated scf accuracy    <       0.00006853 Ry

     total magnetization       =     0.46 Bohr mag/cell
     absolute magnetization    =     0.55 Bohr mag/cell

     iteration # 23     ecut=    36.75 Ry     beta=0.10
     Davidson diagonalization with overlap
     ethr =  4.01E-08,  avg # of iterations =  2.5

     negative rho (up, down):  2.253E-03 2.188E-03
 
     Adding external electric field

     Computed dipole along edir(3) : 
        Dipole               -0.0001 Ry au,         -0.0001 Debye
        Dipole field         -0.0000 Ry au
 
        Potential amp.        0.0000 Ry
        Total length         45.4585 bohr
 
 
     Adding external electric field

     Computed dipole along edir(3) : 
        Dipole               -0.0001 Ry au,         -0.0001 Debye
        Dipole field         -0.0000 Ry au
 
        Potential amp.        0.0000 Ry
        Total length         45.4585 bohr
 
 
     Magnetic moment per site:
     atom:    1    charge:    1.4802    magn:    0.0021    constr:    0.0000
     atom:    2    charge:    1.4802    magn:    0.0021    constr:    0.0000
     atom:    3    charge:    1.4802    magn:    0.0021    constr:    0.0000
     atom:    4    charge:    9.3360    magn:   -0.0048    constr:    0.0000
     atom:    5    charge:    1.4811    magn:    0.0001    constr:    0.0000
     atom:    6    charge:    1.4811    magn:    0.0001    constr:    0.0000
     atom:    7    charge:    1.4811    magn:    0.0001    constr:    0.0000
     atom:    8    charge:    9.3188    magn:    0.0435    constr:    0.0000
     atom:    9    charge:    1.4802    magn:    0.0021    constr:    0.0000
     atom:   10    charge:    1.4802    magn:    0.0021    constr:    0.0000
     atom:   11    charge:    1.4802    magn:    0.0021    constr:    0.0000
     atom:   12    charge:    9.3359    magn:   -0.0054    constr:    0.0000

     total cpu time spent up to now is     1501.2 secs

     total energy              =   -2099.91221140 Ry
     Harris-Foulkes estimate   =   -2099.91214184 Ry
     estimated scf accuracy    <       0.00005535 Ry

     total magnetization       =     0.37 Bohr mag/cell
     absolute magnetization    =     0.47 Bohr mag/cell

     iteration # 24     ecut=    36.75 Ry     beta=0.10
     Davidson diagonalization with overlap
     ethr =  3.24E-08,  avg # of iterations =  3.0

     negative rho (up, down):  2.227E-03 2.169E-03
 
     Adding external electric field

     Computed dipole along edir(3) : 
        Dipole                0.0001 Ry au,          0.0003 Debye
        Dipole field          0.0000 Ry au
 
        Potential amp.       -0.0000 Ry
        Total length         45.4585 bohr
 
 
     Adding external electric field

     Computed dipole along edir(3) : 
        Dipole                0.0001 Ry au,          0.0003 Debye
        Dipole field          0.0000 Ry au
 
        Potential amp.       -0.0000 Ry
        Total length         45.4585 bohr
 
 
     Magnetic moment per site:
     atom:    1    charge:    1.4803    magn:    0.0014    constr:    0.0000
     atom:    2    charge:    1.4803    magn:    0.0014    constr:    0.0000
     atom:    3    charge:    1.4803    magn:    0.0014    constr:    0.0000
     atom:    4    charge:    9.3362    magn:   -0.0106    constr:    0.0000
     atom:    5    charge:    1.4814    magn:   -0.0003    constr:    0.0000
     atom:    6    charge:    1.4814    magn:   -0.0003    constr:    0.0000
     atom:    7    charge:    1.4814    magn:   -0.0003    constr:    0.0000
     atom:    8    charge:    9.3191    magn:    0.0321    constr:    0.0000
     atom:    9    charge:    1.4803    magn:    0.0014    constr:    0.0000
     atom:   10    charge:    1.4803    magn:    0.0014    constr:    0.0000
     atom:   11    charge:    1.4803    magn:    0.0014    constr:    0.0000
     atom:   12    charge:    9.3362    magn:   -0.0113    constr:    0.0000

     total cpu time spent up to now is     1571.7 secs

     total energy              =   -2099.91227676 Ry
     Harris-Foulkes estimate   =   -2099.91224941 Ry
     estimated scf accuracy    <       0.00002873 Ry

     total magnetization       =     0.31 Bohr mag/cell
     absolute magnetization    =     0.40 Bohr mag/cell

     iteration # 25     ecut=    36.75 Ry     beta=0.10
     Davidson diagonalization with overlap
     ethr =  1.68E-08,  avg # of iterations =  3.0

     negative rho (up, down):  2.183E-03 2.132E-03
 
     Adding external electric field

     Computed dipole along edir(3) : 
        Dipole                0.0001 Ry au,          0.0001 Debye
        Dipole field          0.0000 Ry au
 
        Potential amp.       -0.0000 Ry
        Total length         45.4585 bohr
 
 
     Adding external electric field

     Computed dipole along edir(3) : 
        Dipole                0.0001 Ry au,          0.0001 Debye
        Dipole field          0.0000 Ry au
 
        Potential amp.       -0.0000 Ry
        Total length         45.4585 bohr
 
 
     Magnetic moment per site:
     atom:    1    charge:    1.4804    magn:    0.0014    constr:    0.0000
     atom:    2    charge:    1.4804    magn:    0.0014    constr:    0.0000
     atom:    3    charge:    1.4804    magn:    0.0014    constr:    0.0000
     atom:    4    charge:    9.3363    magn:   -0.0107    constr:    0.0000
     atom:    5    charge:    1.4814    magn:   -0.0003    constr:    0.0000
     atom:    6    charge:    1.4814    magn:   -0.0003    constr:    0.0000
     atom:    7    charge:    1.4814    magn:   -0.0003    constr:    0.0000
     atom:    8    charge:    9.3191    magn:    0.0297    constr:    0.0000
     atom:    9    charge:    1.4804    magn:    0.0014    constr:    0.0000
     atom:   10    charge:    1.4804    magn:    0.0014    constr:    0.0000
     atom:   11    charge:    1.4804    magn:    0.0014    constr:    0.0000
     atom:   12    charge:    9.3363    magn:   -0.0114    constr:    0.0000

     total cpu time spent up to now is     1642.0 secs

     total energy              =   -2099.91232763 Ry
     Harris-Foulkes estimate   =   -2099.91230753 Ry
     estimated scf accuracy    <       0.00002125 Ry

     total magnetization       =     0.23 Bohr mag/cell
     absolute magnetization    =     0.34 Bohr mag/cell

     iteration # 26     ecut=    36.75 Ry     beta=0.10
     Davidson diagonalization with overlap
     ethr =  1.24E-08,  avg # of iterations =  2.0

     negative rho (up, down):  2.156E-03 2.106E-03
 
     Adding external electric field

     Computed dipole along edir(3) : 
        Dipole               -0.0001 Ry au,         -0.0004 Debye
        Dipole field         -0.0000 Ry au
 
        Potential amp.        0.0000 Ry
        Total length         45.4585 bohr
 
 
     Adding external electric field

     Computed dipole along edir(3) : 
        Dipole               -0.0001 Ry au,         -0.0004 Debye
        Dipole field         -0.0000 Ry au
 
        Potential amp.        0.0000 Ry
        Total length         45.4585 bohr
 
 
     Magnetic moment per site:
     atom:    1    charge:    1.4804    magn:    0.0013    constr:    0.0000
     atom:    2    charge:    1.4804    magn:    0.0013    constr:    0.0000
     atom:    3    charge:    1.4804    magn:    0.0013    constr:    0.0000
     atom:    4    charge:    9.3362    magn:   -0.0087    constr:    0.0000
     atom:    5    charge:    1.4815    magn:   -0.0001    constr:    0.0000
     atom:    6    charge:    1.4815    magn:   -0.0001    constr:    0.0000
     atom:    7    charge:    1.4815    magn:   -0.0001    constr:    0.0000
     atom:    8    charge:    9.3190    magn:    0.0235    constr:    0.0000
     atom:    9    charge:    1.4804    magn:    0.0014    constr:    0.0000
     atom:   10    charge:    1.4804    magn:    0.0014    constr:    0.0000
     atom:   11    charge:    1.4804    magn:    0.0014    constr:    0.0000
     atom:   12    charge:    9.3362    magn:   -0.0093    constr:    0.0000

     total cpu time spent up to now is     1700.2 secs

     total energy              =   -2099.91236402 Ry
     Harris-Foulkes estimate   =   -2099.91232970 Ry
     estimated scf accuracy    <       0.00001660 Ry

     total magnetization       =     0.21 Bohr mag/cell
     absolute magnetization    =     0.33 Bohr mag/cell

     iteration # 27     ecut=    36.75 Ry     beta=0.10
     Davidson diagonalization with overlap
     ethr =  9.71E-09,  avg # of iterations =  3.3

     negative rho (up, down):  2.130E-03 2.083E-03
 
     Adding external electric field

     Computed dipole along edir(3) : 
        Dipole               -0.0001 Ry au,         -0.0003 Debye
        Dipole field         -0.0000 Ry au
 
        Potential amp.        0.0000 Ry
        Total length         45.4585 bohr
 
 
     Adding external electric field

     Computed dipole along edir(3) : 
        Dipole               -0.0001 Ry au,         -0.0003 Debye
        Dipole field         -0.0000 Ry au
 
        Potential amp.        0.0000 Ry
        Total length         45.4585 bohr
 
 
     Magnetic moment per site:
     atom:    1    charge:    1.4804    magn:    0.0013    constr:    0.0000
     atom:    2    charge:    1.4804    magn:    0.0013    constr:    0.0000
     atom:    3    charge:    1.4804    magn:    0.0013    constr:    0.0000
     atom:    4    charge:    9.3362    magn:   -0.0076    constr:    0.0000
     atom:    5    charge:    1.4815    magn:    0.0001    constr:    0.0000
     atom:    6    charge:    1.4815    magn:    0.0001    constr:    0.0000
     atom:    7    charge:    1.4815    magn:    0.0001    constr:    0.0000
     atom:    8    charge:    9.3189    magn:    0.0178    constr:    0.0000
     atom:    9    charge:    1.4804    magn:    0.0013    constr:    0.0000
     atom:   10    charge:    1.4804    magn:    0.0013    constr:    0.0000
     atom:   11    charge:    1.4804    magn:    0.0013    constr:    0.0000
     atom:   12    charge:    9.3362    magn:   -0.0080    constr:    0.0000

     total cpu time spent up to now is     1773.6 secs

     total energy              =   -2099.91240161 Ry
     Harris-Foulkes estimate   =   -2099.91238366 Ry
     estimated scf accuracy    <       0.00001025 Ry

     total magnetization       =     0.20 Bohr mag/cell
     absolute magnetization    =     0.28 Bohr mag/cell

     iteration # 28     ecut=    36.75 Ry     beta=0.10
     Davidson diagonalization with overlap
     ethr =  5.99E-09,  avg # of iterations =  3.4

     negative rho (up, down):  2.106E-03 2.063E-03
 
     Adding external electric field

     Computed dipole along edir(3) : 
        Dipole               -0.0000 Ry au,         -0.0001 Debye
        Dipole field         -0.0000 Ry au
 
        Potential amp.        0.0000 Ry
        Total length         45.4585 bohr
 
 
     Adding external electric field

     Computed dipole along edir(3) : 
        Dipole               -0.0000 Ry au,         -0.0001 Debye
        Dipole field         -0.0000 Ry au
 
        Potential amp.        0.0000 Ry
        Total length         45.4585 bohr
 
 
     Magnetic moment per site:
     atom:    1    charge:    1.4804    magn:    0.0011    constr:    0.0000
     atom:    2    charge:    1.4804    magn:    0.0011    constr:    0.0000
     atom:    3    charge:    1.4804    magn:    0.0011    constr:    0.0000
     atom:    4    charge:    9.3362    magn:   -0.0083    constr:    0.0000
     atom:    5    charge:    1.4814    magn:    0.0001    constr:    0.0000
     atom:    6    charge:    1.4814    magn:    0.0001    constr:    0.0000
     atom:    7    charge:    1.4814    magn:    0.0001    constr:    0.0000
     atom:    8    charge:    9.3188    magn:    0.0114    constr:    0.0000
     atom:    9    charge:    1.4804    magn:    0.0011    constr:    0.0000
     atom:   10    charge:    1.4804    magn:    0.0011    constr:    0.0000
     atom:   11    charge:    1.4804    magn:    0.0011    constr:    0.0000
     atom:   12    charge:    9.3362    magn:   -0.0086    constr:    0.0000

     total cpu time spent up to now is     1847.6 secs

     total energy              =   -2099.91242540 Ry
     Harris-Foulkes estimate   =   -2099.91241549 Ry
     estimated scf accuracy    <       0.00000617 Ry

     total magnetization       =     0.18 Bohr mag/cell
     absolute magnetization    =     0.24 Bohr mag/cell

     iteration # 29     ecut=    36.75 Ry     beta=0.10
     Davidson diagonalization with overlap
     ethr =  3.61E-09,  avg # of iterations =  3.5

     negative rho (up, down):  2.078E-03 2.039E-03
 
     Adding external electric field

     Computed dipole along edir(3) : 
        Dipole               -0.0000 Ry au,         -0.0001 Debye
        Dipole field         -0.0000 Ry au
 
        Potential amp.        0.0000 Ry
        Total length         45.4585 bohr
 
 
     Adding external electric field

     Computed dipole along edir(3) : 
        Dipole               -0.0000 Ry au,         -0.0001 Debye
        Dipole field         -0.0000 Ry au
 
        Potential amp.        0.0000 Ry
        Total length         45.4585 bohr
 
 
     Magnetic moment per site:
     atom:    1    charge:    1.4804    magn:    0.0008    constr:    0.0000
     atom:    2    charge:    1.4804    magn:    0.0008    constr:    0.0000
     atom:    3    charge:    1.4804    magn:    0.0008    constr:    0.0000
     atom:    4    charge:    9.3362    magn:   -0.0081    constr:    0.0000
     atom:    5    charge:    1.4814    magn:   -0.0000    constr:    0.0000
     atom:    6    charge:    1.4814    magn:   -0.0000    constr:    0.0000
     atom:    7    charge:    1.4814    magn:   -0.0000    constr:    0.0000
     atom:    8    charge:    9.3188    magn:    0.0082    constr:    0.0000
     atom:    9    charge:    1.4804    magn:    0.0008    constr:    0.0000
     atom:   10    charge:    1.4804    magn:    0.0008    constr:    0.0000
     atom:   11    charge:    1.4804    magn:    0.0008    constr:    0.0000
     atom:   12    charge:    9.3362    magn:   -0.0083    constr:    0.0000

     total cpu time spent up to now is     1923.7 secs

     total energy              =   -2099.91244585 Ry
     Harris-Foulkes estimate   =   -2099.91243738 Ry
     estimated scf accuracy    <       0.00000440 Ry

     total magnetization       =     0.14 Bohr mag/cell
     absolute magnetization    =     0.20 Bohr mag/cell

     iteration # 30     ecut=    36.75 Ry     beta=0.10
     Davidson diagonalization with overlap
     ethr =  2.57E-09,  avg # of iterations =  3.0

     negative rho (up, down):  2.051E-03 2.015E-03
 
     Adding external electric field

     Computed dipole along edir(3) : 
        Dipole               -0.0001 Ry au,         -0.0004 Debye
        Dipole field         -0.0000 Ry au
 
        Potential amp.        0.0000 Ry
        Total length         45.4585 bohr
 
 
     Adding external electric field

     Computed dipole along edir(3) : 
        Dipole               -0.0001 Ry au,         -0.0004 Debye
        Dipole field         -0.0000 Ry au
 
        Potential amp.        0.0000 Ry
        Total length         45.4585 bohr
 
 
     Magnetic moment per site:
     atom:    1    charge:    1.4804    magn:    0.0007    constr:    0.0000
     atom:    2    charge:    1.4804    magn:    0.0007    constr:    0.0000
     atom:    3    charge:    1.4804    magn:    0.0007    constr:    0.0000
     atom:    4    charge:    9.3361    magn:   -0.0065    constr:    0.0000
     atom:    5    charge:    1.4814    magn:   -0.0001    constr:    0.0000
     atom:    6    charge:    1.4814    magn:   -0.0001    constr:    0.0000
     atom:    7    charge:    1.4814    magn:   -0.0001    constr:    0.0000
     atom:    8    charge:    9.3188    magn:    0.0076    constr:    0.0000
     atom:    9    charge:    1.4804    magn:    0.0007    constr:    0.0000
     atom:   10    charge:    1.4804    magn:    0.0007    constr:    0.0000
     atom:   11    charge:    1.4804    magn:    0.0007    constr:    0.0000
     atom:   12    charge:    9.3361    magn:   -0.0067    constr:    0.0000

     total cpu time spent up to now is     1996.5 secs

     total energy              =   -2099.91245506 Ry
     Harris-Foulkes estimate   =   -2099.91244955 Ry
     estimated scf accuracy    <       0.00000321 Ry

     total magnetization       =     0.12 Bohr mag/cell
     absolute magnetization    =     0.17 Bohr mag/cell

     iteration # 31     ecut=    36.75 Ry     beta=0.10
     Davidson diagonalization with overlap
     ethr =  1.88E-09,  avg # of iterations =  2.9

     negative rho (up, down):  2.034E-03 2.003E-03
 
     Adding external electric field

     Computed dipole along edir(3) : 
        Dipole                0.0004 Ry au,          0.0010 Debye
        Dipole field          0.0000 Ry au
 
        Potential amp.       -0.0001 Ry
        Total length         45.4585 bohr
 
 
     Adding external electric field

     Computed dipole along edir(3) : 
        Dipole                0.0004 Ry au,          0.0010 Debye
        Dipole field          0.0000 Ry au
 
        Potential amp.       -0.0001 Ry
        Total length         45.4585 bohr
 
 
     Magnetic moment per site:
     atom:    1    charge:    1.4804    magn:    0.0007    constr:    0.0000
     atom:    2    charge:    1.4804    magn:    0.0007    constr:    0.0000
     atom:    3    charge:    1.4804    magn:    0.0007    constr:    0.0000
     atom:    4    charge:    9.3362    magn:   -0.0072    constr:    0.0000
     atom:    5    charge:    1.4814    magn:   -0.0001    constr:    0.0000
     atom:    6    charge:    1.4814    magn:   -0.0001    constr:    0.0000
     atom:    7    charge:    1.4814    magn:   -0.0001    constr:    0.0000
     atom:    8    charge:    9.3188    magn:    0.0068    constr:    0.0000
     atom:    9    charge:    1.4804    magn:    0.0007    constr:    0.0000
     atom:   10    charge:    1.4804    magn:    0.0007    constr:    0.0000
     atom:   11    charge:    1.4804    magn:    0.0007    constr:    0.0000
     atom:   12    charge:    9.3362    magn:   -0.0074    constr:    0.0000

     total cpu time spent up to now is     2063.9 secs

     total energy              =   -2099.91245757 Ry
     Harris-Foulkes estimate   =   -2099.91245642 Ry
     estimated scf accuracy    <       0.00000340 Ry

     total magnetization       =     0.12 Bohr mag/cell
     absolute magnetization    =     0.16 Bohr mag/cell

     iteration # 32     ecut=    36.75 Ry     beta=0.10
     Davidson diagonalization with overlap
     ethr =  1.88E-09,  avg # of iterations =  1.0

     negative rho (up, down):  2.013E-03 1.983E-03
 
     Adding external electric field

     Computed dipole along edir(3) : 
        Dipole               -0.0001 Ry au,         -0.0002 Debye
        Dipole field         -0.0000 Ry au
 
        Potential amp.        0.0000 Ry
        Total length         45.4585 bohr
 
 
     Adding external electric field

     Computed dipole along edir(3) : 
        Dipole               -0.0001 Ry au,         -0.0002 Debye
        Dipole field         -0.0000 Ry au
 
        Potential amp.        0.0000 Ry
        Total length         45.4585 bohr
 
 
     Magnetic moment per site:
     atom:    1    charge:    1.4804    magn:    0.0005    constr:    0.0000
     atom:    2    charge:    1.4804    magn:    0.0005    constr:    0.0000
     atom:    3    charge:    1.4804    magn:    0.0005    constr:    0.0000
     atom:    4    charge:    9.3361    magn:   -0.0035    constr:    0.0000
     atom:    5    charge:    1.4814    magn:   -0.0001    constr:    0.0000
     atom:    6    charge:    1.4814    magn:   -0.0001    constr:    0.0000
     atom:    7    charge:    1.4814    magn:   -0.0001    constr:    0.0000
     atom:    8    charge:    9.3189    magn:    0.0065    constr:    0.0000
     atom:    9    charge:    1.4804    magn:    0.0005    constr:    0.0000
     atom:   10    charge:    1.4804    magn:    0.0005    constr:    0.0000
     atom:   11    charge:    1.4804    magn:    0.0005    constr:    0.0000
     atom:   12    charge:    9.3361    magn:   -0.0036    constr:    0.0000

     total cpu time spent up to now is     2118.4 secs

     total energy              =   -2099.91246014 Ry
     Harris-Foulkes estimate   =   -2099.91245804 Ry
     estimated scf accuracy    <       0.00001974 Ry

     total magnetization       =     0.11 Bohr mag/cell
     absolute magnetization    =     0.16 Bohr mag/cell

     iteration # 33     ecut=    36.75 Ry     beta=0.10
     Davidson diagonalization with overlap
     ethr =  1.88E-09,  avg # of iterations =  3.5

     negative rho (up, down):  2.000E-03 1.973E-03
 
     Adding external electric field

     Computed dipole along edir(3) : 
        Dipole               -0.0000 Ry au,         -0.0001 Debye
        Dipole field         -0.0000 Ry au
 
        Potential amp.        0.0000 Ry
        Total length         45.4585 bohr
 
 
     Adding external electric field

     Computed dipole along edir(3) : 
        Dipole               -0.0000 Ry au,         -0.0001 Debye
        Dipole field         -0.0000 Ry au
 
        Potential amp.        0.0000 Ry
        Total length         45.4585 bohr
 
 
     Magnetic moment per site:
     atom:    1    charge:    1.4804    magn:    0.0004    constr:    0.0000
     atom:    2    charge:    1.4804    magn:    0.0004    constr:    0.0000
     atom:    3    charge:    1.4804    magn:    0.0004    constr:    0.0000
     atom:    4    charge:    9.3361    magn:   -0.0025    constr:    0.0000
     atom:    5    charge:    1.4814    magn:   -0.0001    constr:    0.0000
     atom:    6    charge:    1.4814    magn:   -0.0001    constr:    0.0000
     atom:    7    charge:    1.4814    magn:   -0.0001    constr:    0.0000
     atom:    8    charge:    9.3189    magn:    0.0057    constr:    0.0000
     atom:    9    charge:    1.4804    magn:    0.0005    constr:    0.0000
     atom:   10    charge:    1.4804    magn:    0.0005    constr:    0.0000
     atom:   11    charge:    1.4804    magn:    0.0005    constr:    0.0000
     atom:   12    charge:    9.3361    magn:   -0.0026    constr:    0.0000

[...]
    -2.2620  -2.0597  -2.0061  -1.0923  -1.0660  -1.0153  -0.7550  -0.6631
    -0.6324  -0.5006  -0.4984  -0.4976  -0.3721  -0.2943  -0.1618  -0.1387
    -0.0783  -0.0775  -0.0404  -0.0162   0.1540   0.1615   0.1869   0.2156
     0.2801   0.4586   0.4681   0.6691   0.6764   0.7551   0.8048   0.9679
     1.0215   1.0546   1.1064   1.2811   1.5346   1.6304   1.6995   1.7767
     1.8255   2.0055   2.1896   2.3377   2.4906   2.8701   2.9389   2.9696
     3.3100   3.7311   3.7351   3.8257   4.0430   4.1093   4.1300   4.1572
     4.3017   4.3915   4.5481   4.6069   4.9461   5.0507   5.2639   5.4395
     5.4496   5.4550   6.0834

          k = 0.0582-0.0673 0.0000 ( 17742 PWs)   bands (ev):

  -101.4997-101.2829-101.2333 -61.9075 -61.8375 -61.8374 -61.6668 -61.6528
   -61.6526 -61.6079 -61.6064 -61.6063 -53.2643 -53.2418 -53.2107 -53.1723
   -53.1545 -53.1180 -53.0314 -52.9919 -52.9493 -29.7351 -29.6636 -29.6067
   -29.5605 -29.5333 -29.4863 -29.4422 -29.3838 -29.3671 -29.3614 -29.3282
   -29.2951 -29.2532 -29.2229 -29.1447 -29.1225 -29.0581 -29.0226 -28.9537
   -28.9309 -28.8423 -28.8273 -28.7698 -28.7497 -28.7266 -28.6974 -28.6369
    -2.8196  -2.1425  -1.6827  -1.4637  -1.3679  -1.1143  -1.0033  -0.8903
    -0.7339  -0.6947  -0.6139  -0.4689  -0.4412  -0.3952  -0.2911  -0.1301
    -0.0572  -0.0104   0.0407   0.0622   0.1863   0.2482   0.2825   0.3851
     0.4393   0.5111   0.6725   0.7500   0.7858   0.8099   0.9320   1.0027
     1.1231   1.2824   1.4049   1.5476   1.5710   1.6461   1.6990   1.8368
     2.0050   2.0477   2.3536   2.4212   2.5179   2.6978   2.7645   2.8974
     3.2593   3.4857   3.5813   3.8265   3.8867   4.0015   4.2713   4.3229
     4.4668   4.5896   4.6233   4.8196   5.0382   5.0879   5.2655   5.4451
     5.5543   5.8555   6.0714

          k = 0.0582-0.0336 0.0000 ( 17788 PWs)   bands (ev):

  -101.4997-101.2829-101.2333 -61.9075 -61.8376 -61.8376 -61.6668 -61.6528
   -61.6528 -61.6079 -61.6065 -61.6065 -53.2851 -53.2568 -53.1921 -53.1568
   -53.1526 -53.1165 -53.0485 -52.9770 -52.9480 -29.8251 -29.7091 -29.6629
   -29.5823 -29.5421 -29.5121 -29.4921 -29.4525 -29.4081 -29.3824 -29.3491
   -29.2960 -29.2950 -29.1210 -29.0938 -29.0566 -29.0133 -29.0060 -28.9358
   -28.8580 -28.8122 -28.7822 -28.7534 -28.7353 -28.7215 -28.6845 -28.5996
    -3.3415  -2.1875  -1.9916  -1.8007  -1.5822  -1.3048  -1.1758  -1.0920
    -0.9069  -0.9059  -0.8704  -0.7430  -0.7317  -0.5030  -0.3707  -0.1797
    -0.1133  -0.0395   0.0984   0.1641   0.2431   0.2829   0.4163   0.5710
     0.6405   0.6737   0.7465   0.9181   1.0529   1.0794   1.1576   1.2281
     1.3455   1.4111   1.4123   1.5972   1.7018   1.8043   1.8925   2.0870
     2.1436   2.2124   2.2999   2.3405   2.5722   2.6062   2.7413   3.2984
     3.4329   3.5025   3.8183   3.9350   4.1019   4.2509   4.3489   4.5473
     4.6004   4.6230   4.8066   4.9287   4.9921   5.1864   5.4710   5.5556
     5.7944   5.8325   6.1169

          k = 0.0582-0.0000 0.0000 ( 17775 PWs)   bands (ev):

  -101.4997-101.2829-101.2333 -61.9074 -61.8376 -61.8375 -61.6667 -61.6528
   -61.6528 -61.6078 -61.6065 -61.6064 -53.2929 -53.2628 -53.1836 -53.1587
   -53.1442 -53.1171 -53.0551 -52.9701 -52.9486 -29.8556 -29.7253 -29.6410
   -29.6146 -29.5684 -29.5641 -29.5147 -29.4670 -29.4363 -29.3891 -29.3684
   -29.2939 -29.2854 -29.1267 -29.0718 -29.0491 -29.0156 -28.9188 -28.8804
   -28.8260 -28.7986 -28.7662 -28.7520 -28.7363 -28.7083 -28.6681 -28.6208
    -3.5299  -2.2180  -2.1626  -1.9229  -1.5232  -1.3910  -1.2793  -1.2538
    -0.9965  -0.9739  -0.9412  -0.8522  -0.8377  -0.6329  -0.4801  -0.1923
    -0.1122  -0.0911   0.1444   0.2025   0.2548   0.3852   0.4408   0.5944
     0.6287   0.6972   0.9351   0.9666   0.9840   1.0257   1.1694   1.3229
     1.3732   1.5079   1.5647   1.6471   1.8033   1.9320   2.0309   2.0717
     2.1013   2.2533   2.2847   2.5470   2.6505   2.6851   2.8010   3.4024
     3.5535   3.5750   3.8397   3.9237   4.2291   4.2654   4.4324   4.5741
     4.6683   4.9719   5.0538   5.2118   5.2550   5.4495   5.4593   5.5150
     5.7627   5.8508   5.8924

          k =-0.0874-0.0504 0.0000 ( 17764 PWs)   bands (ev):

  -101.4997-101.2829-101.2333 -61.9076 -61.8376 -61.8373 -61.6669 -61.6529
   -61.6526 -61.6080 -61.6065 -61.6062 -53.2629 -53.2425 -53.2131 -53.1693
   -53.1568 -53.1166 -53.0298 -52.9953 -52.9479 -29.7424 -29.7105 -29.6383
   -29.5577 -29.4889 -29.4572 -29.4048 -29.3913 -29.3462 -29.3298 -29.3031
   -29.2750 -29.2468 -29.2023 -29.1752 -29.1295 -29.1220 -29.0792 -28.9531
   -28.9454 -28.9149 -28.7921 -28.7544 -28.7375 -28.7297 -28.6933 -28.6013
    -2.6200  -2.5181  -1.5552  -1.5244  -1.3456  -1.2147  -0.9085  -0.8454
    -0.8212  -0.7856  -0.5703  -0.4225  -0.4180  -0.3470  -0.2329  -0.2284
    -0.1419   0.0608   0.0844   0.1136   0.2657   0.3126   0.3152   0.3279
     0.3664   0.3679   0.7048   0.8457   0.9376   0.9389   1.0986   1.1829
     1.2245   1.2511   1.3003   1.4512   1.4933   1.5131   1.6580   1.7936
     1.9741   2.2862   2.3677   2.4692   2.4878   2.6201   2.6681   2.7653
     3.1500   3.5792   3.6687   3.7901   3.9836   4.0725   4.0815   4.1713
     4.2304   4.3473   4.4634   4.6677   4.8843   4.9698   5.5652   5.6271
     5.6610   5.7916   6.2310

          k =-0.0874-0.0168 0.0000 ( 17742 PWs)   bands (ev):

  -101.4997-101.2829-101.2333 -61.9075 -61.8375 -61.8374 -61.6668 -61.6528
   -61.6526 -61.6079 -61.6064 -61.6063 -53.2643 -53.2418 -53.2107 -53.1723
   -53.1545 -53.1180 -53.0314 -52.9919 -52.9493 -29.7351 -29.6636 -29.6067
   -29.5605 -29.5333 -29.4863 -29.4422 -29.3838 -29.3671 -29.3614 -29.3282
   -29.2951 -29.2532 -29.2229 -29.1447 -29.1225 -29.0581 -29.0226 -28.9537
   -28.9309 -28.8423 -28.8273 -28.7698 -28.7497 -28.7266 -28.6974 -28.6369
    -2.8196  -2.1425  -1.6827  -1.4637  -1.3679  -1.1143  -1.0033  -0.8903
    -0.7339  -0.6947  -0.6139  -0.4689  -0.4412  -0.3952  -0.2911  -0.1301
    -0.0572  -0.0104   0.0407   0.0622   0.1863   0.2482   0.2825   0.3851
     0.4393   0.5111   0.6725   0.7500   0.7858   0.8099   0.9320   1.0027
     1.1231   1.2824   1.4049   1.5476   1.5710   1.6461   1.6990   1.8368
     2.0050   2.0477   2.3536   2.4212   2.5179   2.6978   2.7645   2.8974
     3.2593   3.4857   3.5813   3.8265   3.8867   4.0015   4.2713   4.3229
     4.4668   4.5896   4.6233   4.8196   5.0382   5.0879   5.2655   5.4451
     5.5543   5.8555   6.0714

          k =-0.0874 0.0168 0.0000 ( 17742 PWs)   bands (ev):

  -101.4997-101.2829-101.2333 -61.9075 -61.8375 -61.8374 -61.6668 -61.6528
   -61.6526 -61.6079 -61.6064 -61.6063 -53.2643 -53.2418 -53.2107 -53.1723
   -53.1545 -53.1180 -53.0314 -52.9919 -52.9493 -29.7351 -29.6636 -29.6067
   -29.5605 -29.5333 -29.4863 -29.4422 -29.3838 -29.3671 -29.3614 -29.3282
   -29.2951 -29.2532 -29.2229 -29.1447 -29.1225 -29.0581 -29.0226 -28.9537
   -28.9309 -28.8423 -28.8273 -28.7698 -28.7497 -28.7266 -28.6974 -28.6369
    -2.8196  -2.1425  -1.6827  -1.4637  -1.3679  -1.1143  -1.0033  -0.8903
    -0.7339  -0.6947  -0.6139  -0.4689  -0.4412  -0.3952  -0.2911  -0.1301
    -0.0572  -0.0104   0.0407   0.0622   0.1863   0.2482   0.2825   0.3851
     0.4393   0.5111   0.6725   0.7500   0.7858   0.8099   0.9320   1.0027
     1.1231   1.2824   1.4049   1.5476   1.5710   1.6461   1.6990   1.8368
     2.0050   2.0477   2.3536   2.4212   2.5179   2.6978   2.7645   2.8974
     3.2593   3.4857   3.5813   3.8265   3.8867   4.0015   4.2713   4.3229
     4.4668   4.5896   4.6233   4.8196   5.0382   5.0879   5.2655   5.4451
     5.5543   5.8555   6.0714

          k =-0.0874-0.1513 0.0000 ( 17764 PWs)   bands (ev):

  -101.4997-101.2829-101.2333 -61.9076 -61.8376 -61.8373 -61.6669 -61.6529
   -61.6526 -61.6080 -61.6065 -61.6062 -53.2629 -53.2425 -53.2131 -53.1693
   -53.1568 -53.1166 -53.0298 -52.9953 -52.9479 -29.7424 -29.7105 -29.6383
   -29.5577 -29.4889 -29.4572 -29.4048 -29.3913 -29.3462 -29.3298 -29.3031
   -29.2750 -29.2468 -29.2023 -29.1752 -29.1295 -29.1220 -29.0792 -28.9531
   -28.9454 -28.9149 -28.7921 -28.7544 -28.7375 -28.7297 -28.6933 -28.6013
    -2.6200  -2.5181  -1.5552  -1.5244  -1.3456  -1.2147  -0.9085  -0.8454
    -0.8212  -0.7856  -0.5703  -0.4225  -0.4180  -0.3470  -0.2329  -0.2284
    -0.1419   0.0608   0.0844   0.1136   0.2657   0.3126   0.3152   0.3279
     0.3664   0.3679   0.7048   0.8457   0.9376   0.9389   1.0986   1.1829
     1.2245   1.2511   1.3003   1.4512   1.4933   1.5131   1.6580   1.7936
     1.9741   2.2862   2.3677   2.4692   2.4878   2.6201   2.6681   2.7653
     3.1500   3.5792   3.6687   3.7901   3.9836   4.0725   4.0815   4.1713
     4.2304   4.3473   4.4634   4.6677   4.8843   4.9698   5.5652   5.6271
     5.6610   5.7916   6.2310

     the Fermi energy is     1.7771 ev

!    total energy              =   -2099.92047176 Ry
     Harris-Foulkes estimate   =   -2099.92046291 Ry
     estimated scf accuracy    <       0.00000089 Ry

     The total energy is the sum of the following terms:

     one-electron contribution =  -15939.05777222 Ry
     hartree contribution      =    7968.40426578 Ry
     xc contribution           =    -281.67228038 Ry
     ewald contribution        =    6152.50910850 Ry
     electric field correction =       0.00000133 Ry
     smearing contrib. (-TS)   =      -0.10379477 Ry

     total magnetization       =     0.11 Bohr mag/cell
     absolute magnetization    =     0.13 Bohr mag/cell

     convergence has been achieved in  33 iterations
 
 BEEF-vdW xc energy contributions
           1 :   -244.210592113648     
           2 :    221.939135719782     
           3 :   -184.090162333977     
           4 :    141.046001328435     
           5 :   -102.679797162147     
           6 :    74.9011166666360     
           7 :   -58.4348841627407     
           8 :    49.9577721282970     
           9 :   -44.6599566557036     
          10 :    38.7435767268657     
          11 :   -30.7670931251706     
          12 :    21.4881932590381     
          13 :   -12.7068572068269     
          14 :    5.92947719905527     
          15 :   -1.59013918798286     
          16 :  -0.937331279741557     
          17 :    2.73658644413848     
          18 :   -4.65045080506951     
          19 :    6.88476058313057     
          20 :   -9.07751246514511     
          21 :    10.6639779933498     
          22 :   -11.2645898601789     
          23 :    10.8556852489971     
          24 :   -9.70172941442826     
          25 :    8.15738138146509     
          26 :   -6.51235576306823     
          27 :    4.94296627529314     
          28 :   -3.55447709900665     
          29 :    2.42076592461626     
          30 :   -1.58260830819745     
          31 :   -24.9726743025186     
          32 :   -18.4341187140229     

     Forces acting on atoms (Ry/au):


     negative rho (up, down):  2.116E-03 2.122E-03
     atom    1 type  1   force =     0.00000001    0.02460106    0.00664899
     atom    2 type  1   force =     0.02130515   -0.01230058    0.00664901
     atom    3 type  1   force =    -0.02130505   -0.01230050    0.00664905
     atom    4 type  2   force =    -0.00000025   -0.00000011    0.01941773
     atom    5 type  1   force =     0.00000002   -0.00293374   -0.00898456
     atom    6 type  1   force =    -0.00254072    0.00146693   -0.00898457
     atom    7 type  1   force =     0.00254074    0.00146687   -0.00898466
     atom    8 type  2   force =     0.00000010   -0.00000000   -0.01252364
     atom    9 type  1   force =     0.00000013    0.00021188    0.00005710
     atom   10 type  1   force =     0.00018343   -0.00010581    0.00005712
     atom   11 type  1   force =    -0.00018341   -0.00010584    0.00005697
     atom   12 type  2   force =    -0.00000015   -0.00000015   -0.00005853

     Total force =     0.052443     Total SCF correction =     0.003462


     entering subroutine stress ...


     negative rho (up, down):  2.116E-03 2.122E-03
          total   stress  (Ry/bohr**3)                   (kbar)     P=  -27.97
  -0.00022379   0.00000000   0.00000000        -32.92      0.00      0.00
   0.00000000  -0.00022379   0.00000000          0.00    -32.92      0.00
   0.00000000   0.00000000  -0.00012283          0.00      0.00    -18.07

 !ASE

     Writing output data file calc.save
 
     init_run     :     17.27s CPU     29.30s WALL (       1 calls)
     electrons    :   1303.96s CPU   2123.96s WALL (       1 calls)
     forces       :      3.55s CPU      4.19s WALL (       1 calls)
     stress       :      7.89s CPU      8.89s WALL (       1 calls)

     Called by init_run:
     wfcinit      :     15.33s CPU     26.77s WALL (       1 calls)
     potinit      :      1.03s CPU      1.50s WALL (       1 calls)

     Called by electrons:
     c_bands      :   1062.10s CPU   1712.89s WALL (      33 calls)
     sum_band     :    173.86s CPU    311.50s WALL (      33 calls)
     v_of_rho     :     28.94s CPU     43.84s WALL (      34 calls)
     newd         :      8.62s CPU      9.30s WALL (      34 calls)
     mix_rho      :      2.00s CPU      3.13s WALL (      33 calls)
     vdW_energy   :      2.06s CPU      2.08s WALL (      70 calls)
     vdW_ffts     :     31.94s CPU     50.68s WALL (     142 calls)
     vdW_v        :      5.98s CPU      8.80s WALL (      70 calls)

     Called by c_bands:
     init_us_2    :      1.50s CPU      1.56s WALL (    2760 calls)
     cegterg      :   1040.33s CPU   1685.55s WALL (    1320 calls)

     Called by *egterg:
     h_psi        :    667.81s CPU   1254.79s WALL (    4289 calls)
     s_psi        :     19.67s CPU     19.75s WALL (    4289 calls)
     g_psi        :      1.03s CPU      1.03s WALL (    2929 calls)
     cdiaghg      :    196.94s CPU    206.52s WALL (    4249 calls)

     Called by h_psi:
     add_vuspsi   :     20.18s CPU     20.33s WALL (    4289 calls)

     General routines
     calbec       :     53.95s CPU     70.61s WALL (    5689 calls)
     fft          :     57.97s CPU     92.36s WALL (    5108 calls)
     ffts         :      0.39s CPU      0.60s WALL (     134 calls)
     fftw         :    721.21s CPU   1423.60s WALL (  828380 calls)
     interpolate  :      1.84s CPU      2.95s WALL (     134 calls)
     davcio       :      0.00s CPU      0.03s WALL (      40 calls)
 
     Parallel routines
     fft_scatter  :    707.05s CPU   1439.20s WALL (  833622 calls)
 
     PWSCF        : 22m14.07s CPU    36m 8.47s WALL

 
   This run was terminated on:   8: 4:36  27Dec2018            

=------------------------------------------------------------------------------=
   JOB DONE.
=------------------------------------------------------------------------------=
Job  /afs/slac/g/suncat/bin/suncat-tsmpirun -x LD_LIBRARY_PATH -wdir /scratch/qe110196_GqFgs pw.x -in pw.inp

TID   HOST_NAME   COMMAND_LINE            STATUS            TERMINATION_TIME
===== ========== ================  =======================  ===================
00000 suncat0048 pw.x -in pw.inp   Done                     12/27/2018 08:04:36
00001 suncat0048 pw.x -in pw.inp   Done                     12/27/2018 08:04:36
00002 suncat0048 pw.x -in pw.inp   Done                     12/27/2018 08:04:36
00003 suncat0048 pw.x -in pw.inp   Done                     12/27/2018 08:04:36
00004 suncat0048 pw.x -in pw.inp   Done                     12/27/2018 08:04:36
00005 suncat0048 pw.x -in pw.inp   Done                     12/27/2018 08:04:36
00006 suncat0048 pw.x -in pw.inp   Done                     12/27/2018 08:04:36
00007 suncat0048 pw.x -in pw.inp   Done                     12/27/2018 08:04:36
00008 suncat0047 pw.x -in pw.inp   Done                     12/27/2018 08:04:36
00009 suncat0047 pw.x -in pw.inp   Done                     12/27/2018 08:04:36
00010 suncat0047 pw.x -in pw.inp   Done                     12/27/2018 08:04:36
00011 suncat0047 pw.x -in pw.inp   Done                     12/27/2018 08:04:36
00012 suncat0047 pw.x -in pw.inp   Done                     12/27/2018 08:04:36
00013 suncat0047 pw.x -in pw.inp   Done                     12/27/2018 08:04:36
00014 suncat0047 pw.x -in pw.inp   Done                     12/27/2018 08:04:36
00015 suncat0047 pw.x -in pw.inp   Done                     12/27/2018 08:04:36
00016 suncat0024 pw.x -in pw.inp   Done                     12/27/2018 08:04:36
00017 suncat0024 pw.x -in pw.inp   Done                     12/27/2018 08:04:36
00018 suncat0024 pw.x -in pw.inp   Done                     12/27/2018 08:04:36
00019 suncat0024 pw.x -in pw.inp   Done                     12/27/2018 08:04:36
00020 suncat0024 pw.x -in pw.inp   Done                     12/27/2018 08:04:36
00021 suncat0024 pw.x -in pw.inp   Done                     12/27/2018 08:04:36
00022 suncat0024 pw.x -in pw.inp   Done                     12/27/2018 08:04:36
00023 suncat0024 pw.x -in pw.inp   Done                     12/27/2018 08:04:36
00024 suncat0023 pw.x -in pw.inp   Done                     12/27/2018 08:04:36
00025 suncat0023 pw.x -in pw.inp   Done                     12/27/2018 08:04:36
00026 suncat0023 pw.x -in pw.inp   Done                     12/27/2018 08:04:36
00027 suncat0023 pw.x -in pw.inp   Done                     12/27/2018 08:04:36
00028 suncat0023 pw.x -in pw.inp   Done                     12/27/2018 08:04:36
00029 suncat0023 pw.x -in pw.inp   Done                     12/27/2018 08:04:36
00030 suncat0023 pw.x -in pw.inp   Done                     12/27/2018 08:04:36
00031 suncat0023 pw.x -in pw.inp   Done                     12/27/2018 08:04:36
00032 suncat0022 pw.x -in pw.inp   Done                     12/27/2018 08:04:36
00033 suncat0022 pw.x -in pw.inp   Done                     12/27/2018 08:04:36
00034 suncat0022 pw.x -in pw.inp   Done                     12/27/2018 08:04:36
00035 suncat0022 pw.x -in pw.inp   Done                     12/27/2018 08:04:36
00036 suncat0022 pw.x -in pw.inp   Done                     12/27/2018 08:04:36
00037 suncat0022 pw.x -in pw.inp   Done                     12/27/2018 08:04:36
00038 suncat0022 pw.x -in pw.inp   Done                     12/27/2018 08:04:36
00039 suncat0022 pw.x -in pw.inp   Done                     12/27/2018 08:04:36
00040 suncat0018 pw.x -in pw.inp   Done                     12/27/2018 08:04:36
00041 suncat0018 pw.x -in pw.inp   Done                     12/27/2018 08:04:36
00042 suncat0018 pw.x -in pw.inp   Done                     12/27/2018 08:04:36
00043 suncat0018 pw.x -in pw.inp   Done                     12/27/2018 08:04:36
00044 suncat0018 pw.x -in pw.inp   Done                     12/27/2018 08:04:36
00045 suncat0018 pw.x -in pw.inp   Done                     12/27/2018 08:04:36
00046 suncat0018 pw.x -in pw.inp   Done                     12/27/2018 08:04:36
00047 suncat0018 pw.x -in pw.inp   Done                     12/27/2018 08:04:36
00048 suncat0017 pw.x -in pw.inp   Done                     12/27/2018 08:04:36
00049 suncat0017 pw.x -in pw.inp   Done                     12/27/2018 08:04:36
00050 suncat0017 pw.x -in pw.inp   Done                     12/27/2018 08:04:36
00051 suncat0017 pw.x -in pw.inp   Done                     12/27/2018 08:04:36
00052 suncat0017 pw.x -in pw.inp   Done                     12/27/2018 08:04:36
00053 suncat0017 pw.x -in pw.inp   Done                     12/27/2018 08:04:36
00054 suncat0017 pw.x -in pw.inp   Done                     12/27/2018 08:04:36
00055 suncat0017 pw.x -in pw.inp   Done                     12/27/2018 08:04:36
00056 suncat0016 pw.x -in pw.inp   Done                     12/27/2018 08:04:36
00057 suncat0016 pw.x -in pw.inp   Done                     12/27/2018 08:04:36
00058 suncat0016 pw.x -in pw.inp   Done                     12/27/2018 08:04:36
00059 suncat0016 pw.x -in pw.inp   Done                     12/27/2018 08:04:36
00060 suncat0016 pw.x -in pw.inp   Done                     12/27/2018 08:04:36
00061 suncat0016 pw.x -in pw.inp   Done                     12/27/2018 08:04:36
00062 suncat0016 pw.x -in pw.inp   Done                     12/27/2018 08:04:36
00063 suncat0016 pw.x -in pw.inp   Done                     12/27/2018 08:04:36
