  python dir          : /u/if/mamunm/src/espresso
  espresso dir        : /nfs/slac/g/suncatfs/sw/espv18/espresso-dynpy-beef/bin
  pseudo dir          : /afs/slac.stanford.edu/u/if/mamunm/psp/gbrv1.5pbe
  ase-espresso py git : GITVERSION



     Program PWSCF v.5.1rc2 (svn rev. 11289) starts on 27Dec2018 at 14:59:25 

     This program is part of the open-source Quantum ESPRESSO suite
     for quantum simulation of materials; please cite
         "P. Giannozzi et al., J. Phys.:Condens. Matter 21 395502 (2009);
          URL http://www.quantum-espresso.org", 
     in publications or presentations arising from this work. More details at
     http://www.quantum-espresso.org/quote

     Parallel version (MPI), running on    64 processors
     R & G space division:  proc/nbgrp/npool/nimage =      64
     Reading input from pw.inp
     Message from routine read_cards :
     DEPRECATED: no units specified in CELL_PARAMETERS card

     Current dimensions of program PWSCF are:
     Max number of different atomic species (ntypx) = 10
     Max number of k-points (npk) =  40000
     Max angular momentum in pseudopotentials (lmaxx) =  3
     Presently stress not available with electric field


     **************************************************************************
     Initializing libbeef V0.1.1 with the BEEF-vdW functional.
     Citation: Wellendorff et al., PRB 85, 235149 (2012).
     **************************************************************************


     IMPORTANT: XC functional enforced from input :
     Exchange-correlation      = BEEF-VDW ( 1  4 27 13 2)
     Any further DFT definition will be discarded
     Please, verify this is what you really want


     Subspace diagonalization in iterative solution of the eigenvalue problem:
     a serial algorithm will be used

 
     Parallelization info
     --------------------
     sticks:   dense  smooth     PW     G-vecs:    dense   smooth      PW
     Min          64      25      7                12590     3165     495
     Max          65      26      8                12608     3210     512
     Sum        4105    1651    475               806383   204229   32171
 


     bravais-lattice index     =            0
     lattice parameter (alat)  =       1.8897  a.u.
     unit-cell volume          =    6779.0412 (a.u.)^3
     number of atoms/cell      =           12
     number of atomic types    =            2
     number of electrons       =       174.00
     number of Kohn-Sham states=          117
     kinetic-energy cutoff     =      36.7493  Ry
     charge density cutoff     =     367.4932  Ry
     convergence threshold     =      1.0E-06
     mixing beta               =       0.1000
     number of iterations used =           10  plain     mixing
     Exchange-correlation      = BEEF-VDW ( 1  4 27 13 2)
     nstep                     =           50


     celldm(1)=   1.889726  celldm(2)=   0.000000  celldm(3)=   0.000000
     celldm(4)=   0.000000  celldm(5)=   0.000000  celldm(6)=   0.000000

     crystal axes: (cart. coord. in units of alat)
               a(1) = (   6.743691   0.000000   0.000000 )  
               a(2) = (  -3.371845   5.840207   0.000000 )  
               a(3) = (   0.000000   0.000000  25.506200 )  

     reciprocal axes: (cart. coord. in units 2 pi/alat)
               b(1) = (  0.148287  0.085613  0.000000 )  
               b(2) = (  0.000000  0.171227  0.000000 )  
               b(3) = (  0.000000  0.000000  0.039206 )  


     PseudoPot. # 1 for Pb read from file:
     /afs/slac.stanford.edu/u/if/mamunm/psp/gbrv1.5pbe/Pb.UPF
     MD5 check sum: 3d1c1779aa92214d1e8f3a7db79003e2
     Pseudo is Ultrasoft + core correction, Zval = 14.0
     Generated by new atomic code, or converted to UPF format
     Using radial grid of  899 points,  6 beta functions with: 
                l(1) =   0
                l(2) =   0
                l(3) =   1
                l(4) =   1
                l(5) =   2
                l(6) =   2
     Q(r) pseudized with  6 coefficients,  rinner =    1.000   1.000   1.000
                                                       1.000   1.000

     PseudoPot. # 2 for Pd read from file:
     /afs/slac.stanford.edu/u/if/mamunm/psp/gbrv1.5pbe/Pd.UPF
     MD5 check sum: 2d733d2bc2cbfd217af676df1668a4bc
     Pseudo is Ultrasoft + core correction, Zval = 16.0
     Generated by new atomic code, or converted to UPF format
     Using radial grid of  887 points,  6 beta functions with: 
                l(1) =   0
                l(2) =   0
                l(3) =   1
                l(4) =   1
                l(5) =   2
                l(6) =   2
     Q(r) pseudized with  8 coefficients,  rinner =    1.130   1.130   1.130
                                                       1.130   1.130

     vdW kernel table read from file vdW_kernel_table
     MD5 check sum: 095c7af220d748ca6e76c0b4c6cfb241

     atomic species   valence    mass     pseudopotential
        Pb1           14.00   207.20000     Pb( 1.00)
        Pd1           16.00   106.42000     Pd( 1.00)

     No symmetry found



   Cartesian axes

     site n.     atom                  positions (alat units)
         1           Pb1 tau(   1) = (   0.0000000   0.0000000  10.0000000  )
         2           Pb1 tau(   2) = (  -1.6859226   2.9201037  10.0000000  )
         3           Pb1 tau(   3) = (   1.6859226   2.9201037  10.0000000  )
         4           Pd1 tau(   4) = (   3.3718453   0.0000000  10.0000000  )
         5           Pb1 tau(   5) = (   3.3718453   1.9467358  12.7531002  )
         6           Pb1 tau(   6) = (   1.6859226   4.8668395  12.7531002  )
         7           Pb1 tau(   7) = (  -1.6859226   4.8668395  12.7531002  )
         8           Pd1 tau(   8) = (   0.0000000   1.9467358  12.7531002  )
         9           Pb1 tau(   9) = (  -0.0000000   3.8934716  15.5062003  )
        10           Pb1 tau(  10) = (   1.6859226   0.9733679  15.5062003  )
        11           Pb1 tau(  11) = (   5.0577679   0.9733679  15.5062003  )
        12           Pd1 tau(  12) = (   3.3718453   3.8934716  15.5062003  )

     number of k points=    20  Fermi-Dirac smearing, width (Ry)=  0.0110
                       cart. coord. in units 2pi/alat
        k(    1) = (   0.0000000   0.0000000   0.0000000), wk =   0.0555556
        k(    2) = (   0.0000000   0.0285378   0.0000000), wk =   0.1111111
        k(    3) = (   0.0000000   0.0570756   0.0000000), wk =   0.1111111
        k(    4) = (   0.0000000  -0.0856134   0.0000000), wk =   0.0555556
        k(    5) = (   0.0247145   0.0142689   0.0000000), wk =   0.1111111
        k(    6) = (   0.0247145   0.0428067   0.0000000), wk =   0.1111111
        k(    7) = (   0.0247145   0.0713445   0.0000000), wk =   0.1111111
        k(    8) = (   0.0247145  -0.0713445   0.0000000), wk =   0.1111111
        k(    9) = (   0.0247145  -0.0428067   0.0000000), wk =   0.1111111
        k(   10) = (   0.0247145  -0.0142689   0.0000000), wk =   0.1111111
        k(   11) = (   0.0494289   0.0285378   0.0000000), wk =   0.1111111
        k(   12) = (   0.0494289   0.0570756   0.0000000), wk =   0.1111111
        k(   13) = (   0.0494289   0.0856134   0.0000000), wk =   0.1111111
        k(   14) = (   0.0494289  -0.0570756   0.0000000), wk =   0.1111111
        k(   15) = (   0.0494289  -0.0285378   0.0000000), wk =   0.1111111
        k(   16) = (   0.0494289   0.0000000   0.0000000), wk =   0.1111111
        k(   17) = (  -0.0741434  -0.0428067   0.0000000), wk =   0.0555556
        k(   18) = (  -0.0741434  -0.0142689   0.0000000), wk =   0.1111111
        k(   19) = (  -0.0741434   0.0142689   0.0000000), wk =   0.1111111
        k(   20) = (  -0.0741434  -0.1284201   0.0000000), wk =   0.0555556

     Dense  grid:   806383 G-vectors     FFT dimensions: (  80,  80, 300)

     Smooth grid:   204229 G-vectors     FFT dimensions: (  50,  50, 192)

     Largest allocated arrays     est. size (Mb)     dimensions
        Kohn-Sham Wavefunctions         0.73 Mb     (     409,  117)
        NL pseudopotentials             1.35 Mb     (     409,  216)
        Each V/rho on FFT grid          0.49 Mb     (   32000)
        Each G-vector array             0.10 Mb     (   12602)
        G-vector shells                 0.05 Mb     (    6003)
     Largest temporary arrays     est. size (Mb)     dimensions
        Auxiliary wavefunctions         2.92 Mb     (     409,  468)
        Each subspace H/S matrix        3.34 Mb     (     468,  468)
        Each <psi_i|beta_j> matrix      0.39 Mb     (     216,  117)
        Arrays for rho mixing           4.88 Mb     (   32000,   10)

     Check: negative/imaginary core charge=   -0.000001    0.000000

     Initial potential from superposition of free atoms
     Check: negative starting charge=   -0.375739

     starting charge  172.47882, renormalised to  174.00000

     negative rho (up, down):  3.791E-01 0.000E+00


     ************************************************************************
     *
     * You are using vdW-DF for exchange-correlation in this calculation.
     * Please cite the following three references that made this development
     * possible:
     *
     *   M. Dion, H. Rydberg, E. Schroder, D. C. Langreth, and
     *   B. I. Lundqvist, Phys. Rev. Lett. 92, 246401 (2004).
     *
     *   T. Thonhauser, V. R. Cooper, S. Li, A. Puzder, P. Hyldgaard, and
     *   D. C. Langreth, Phys. Rev. B 76, 125112 (2007).
     *
     *   G. Roman-Perez and J. M. Soler, Phys. Rev. Lett. 103, 096102 (2009).
     *
     *
     * If you are using vdW-DF2, please also cite:
     *
     *   K. Lee, E. D. Murray, L. Kong, B. I. Lundqvist, and
     *   D. C. Langreth, Phys. Rev. B 82, 081101(R) (2010).
     *
     *
     * If you are calculating the stress with vdW-DF, please also cite:
     *
     *   R. Sabatini, E. Kucukbenli, B. Kolb, T. Thonhauser, and
     *   S. de Gironcoli, J. Phys.: Condens. Matter 24, 424209 (2012).
     *
     ************************************************************************

     Carrying out vdW-DF run using the following parameters:

     Nqs =      20    Nr_points =    1024   r_max =   100.000
     q_mesh =
               0.00001000     0.04494208     0.09755937     0.15916263
               0.23128650     0.31572767     0.41458969     0.53033537
               0.66584808     0.82450364     1.01025438     1.22772762
               1.48234092     1.78043706     2.12944203     2.53805004
               3.01644009     3.57652955     4.23227104     5.00000000

     Gradients computed in reciprocal space

     ************************************************************************


 
     Adding external electric field

     Computed dipole along edir(3) : 
        Dipole               -0.0000 Ry au,         -0.0000 Debye
        Dipole field         -0.0000 Ry au
 
        Potential amp.        0.0000 Ry
        Total length         46.9947 bohr
 
     Starting wfc are  117 randomized atomic wfcs

     total cpu time spent up to now is       21.8 secs

     per-process dynamical memory:    45.3 Mb

     Self-consistent Calculation

     iteration #  1     ecut=    36.75 Ry     beta=0.10
     Davidson diagonalization with overlap
     ethr =  1.00E-02,  avg # of iterations =  7.5

     Threshold (ethr) on eigenvalues was too large:
     Diagonalizing with lowered threshold

     Davidson diagonalization with overlap
     ethr =  3.50E-04,  avg # of iterations =  5.0

     negative rho (up, down):  3.789E-01 0.000E+00
 
     Adding external electric field

     Computed dipole along edir(3) : 
        Dipole                0.0000 Ry au,          0.0001 Debye
        Dipole field          0.0000 Ry au
 
        Potential amp.       -0.0000 Ry
        Total length         46.9947 bohr
 

     total cpu time spent up to now is      148.9 secs

     total energy              =   -2093.57604780 Ry
     Harris-Foulkes estimate   =   -2093.67992843 Ry
     estimated scf accuracy    <       0.70823206 Ry

     iteration #  2     ecut=    36.75 Ry     beta=0.10
     Davidson diagonalization with overlap
     ethr =  4.07E-04,  avg # of iterations =  1.1

     negative rho (up, down):  3.794E-01 0.000E+00
 
     Adding external electric field

     Computed dipole along edir(3) : 
        Dipole               -0.0001 Ry au,         -0.0003 Debye
        Dipole field         -0.0000 Ry au
 
        Potential amp.        0.0000 Ry
        Total length         46.9947 bohr
 

     total cpu time spent up to now is      197.1 secs

     total energy              =   -2093.54624997 Ry
     Harris-Foulkes estimate   =   -2093.59953207 Ry
     estimated scf accuracy    <       0.26364560 Ry

     iteration #  3     ecut=    36.75 Ry     beta=0.10
     Davidson diagonalization with overlap
     ethr =  1.52E-04,  avg # of iterations =  2.1

     negative rho (up, down):  3.812E-01 0.000E+00
 
     Adding external electric field

     Computed dipole along edir(3) : 
        Dipole                0.0008 Ry au,          0.0021 Debye
        Dipole field          0.0000 Ry au
 
        Potential amp.       -0.0001 Ry
        Total length         46.9947 bohr
 

     total cpu time spent up to now is      248.4 secs

     total energy              =   -2093.52046284 Ry
     Harris-Foulkes estimate   =   -2093.55633017 Ry
     estimated scf accuracy    <       0.10654054 Ry

     iteration #  4     ecut=    36.75 Ry     beta=0.10
     Davidson diagonalization with overlap
     ethr =  6.12E-05,  avg # of iterations =  6.5

     negative rho (up, down):  3.826E-01 0.000E+00
 
     Adding external electric field

     Computed dipole along edir(3) : 
        Dipole               -0.0026 Ry au,         -0.0065 Debye
        Dipole field         -0.0000 Ry au
 
        Potential amp.        0.0004 Ry
        Total length         46.9947 bohr
 

     total cpu time spent up to now is      310.3 secs

     total energy              =   -2093.52517466 Ry
     Harris-Foulkes estimate   =   -2093.52919713 Ry
     estimated scf accuracy    <       0.01972012 Ry

     iteration #  5     ecut=    36.75 Ry     beta=0.10
     Davidson diagonalization with overlap
     ethr =  1.13E-05,  avg # of iterations =  6.0

     negative rho (up, down):  3.854E-01 0.000E+00
 
     Adding external electric field

     Computed dipole along edir(3) : 
        Dipole                0.0149 Ry au,          0.0380 Debye
        Dipole field          0.0000 Ry au
 
        Potential amp.       -0.0026 Ry
        Total length         46.9947 bohr
 

     total cpu time spent up to now is      379.5 secs

     total energy              =   -2093.52840568 Ry
     Harris-Foulkes estimate   =   -2093.52858459 Ry
     estimated scf accuracy    <       0.00651620 Ry

     iteration #  6     ecut=    36.75 Ry     beta=0.10
     Davidson diagonalization with overlap
     ethr =  3.74E-06,  avg # of iterations =  4.2

     negative rho (up, down):  3.868E-01 0.000E+00
 
     Adding external electric field

     Computed dipole along edir(3) : 
        Dipole               -0.0151 Ry au,         -0.0383 Debye
        Dipole field         -0.0000 Ry au
 
        Potential amp.        0.0026 Ry
        Total length         46.9947 bohr
 

     total cpu time spent up to now is      438.3 secs

     total energy              =   -2093.52877913 Ry
     Harris-Foulkes estimate   =   -2093.52873756 Ry
     estimated scf accuracy    <       0.00432138 Ry

     iteration #  7     ecut=    36.75 Ry     beta=0.10
     Davidson diagonalization with overlap
     ethr =  2.48E-06,  avg # of iterations =  3.5

     negative rho (up, down):  3.897E-01 0.000E+00
 
     Adding external electric field

     Computed dipole along edir(3) : 
        Dipole                0.0006 Ry au,          0.0015 Debye
        Dipole field          0.0000 Ry au
 
        Potential amp.       -0.0001 Ry
        Total length         46.9947 bohr
 

     total cpu time spent up to now is      492.3 secs

     total energy              =   -2093.52910819 Ry
     Harris-Foulkes estimate   =   -2093.52901987 Ry
     estimated scf accuracy    <       0.00321462 Ry

     iteration #  8     ecut=    36.75 Ry     beta=0.10
     Davidson diagonalization with overlap
     ethr =  1.85E-06,  avg # of iterations =  1.0

     negative rho (up, down):  3.917E-01 0.000E+00
 
     Adding external electric field

     Computed dipole along edir(3) : 
        Dipole               -0.0002 Ry au,         -0.0004 Debye
        Dipole field         -0.0000 Ry au
 
        Potential amp.        0.0000 Ry
        Total length         46.9947 bohr
 

     total cpu time spent up to now is      537.6 secs

     total energy              =   -2093.52945972 Ry
     Harris-Foulkes estimate   =   -2093.52925282 Ry
     estimated scf accuracy    <       0.00060311 Ry

     iteration #  9     ecut=    36.75 Ry     beta=0.10
     Davidson diagonalization with overlap
     ethr =  3.47E-07,  avg # of iterations =  4.0

     negative rho (up, down):  3.936E-01 0.000E+00
 
     Adding external electric field

     Computed dipole along edir(3) : 
        Dipole               -0.0001 Ry au,         -0.0003 Debye
        Dipole field         -0.0000 Ry au
 
        Potential amp.        0.0000 Ry
        Total length         46.9947 bohr
 

     total cpu time spent up to now is      597.1 secs

     total energy              =   -2093.52964630 Ry
     Harris-Foulkes estimate   =   -2093.52953099 Ry
     estimated scf accuracy    <       0.00025165 Ry

     iteration # 10     ecut=    36.75 Ry     beta=0.10
     Davidson diagonalization with overlap
     ethr =  1.45E-07,  avg # of iterations =  2.9

     negative rho (up, down):  3.937E-01 0.000E+00
 
     Adding external electric field

     Computed dipole along edir(3) : 
        Dipole               -0.0000 Ry au,         -0.0001 Debye
        Dipole field         -0.0000 Ry au
 
        Potential amp.        0.0000 Ry
        Total length         46.9947 bohr
 

     total cpu time spent up to now is      654.9 secs

     total energy              =   -2093.52981200 Ry
     Harris-Foulkes estimate   =   -2093.52969596 Ry
     estimated scf accuracy    <       0.00004970 Ry

     iteration # 11     ecut=    36.75 Ry     beta=0.10
     Davidson diagonalization with overlap
     ethr =  2.86E-08,  avg # of iterations =  4.5

     negative rho (up, down):  3.940E-01 0.000E+00
 
     Adding external electric field

     Computed dipole along edir(3) : 
        Dipole               -0.0001 Ry au,         -0.0002 Debye
        Dipole field         -0.0000 Ry au
 
        Potential amp.        0.0000 Ry
        Total length         46.9947 bohr
 

     total cpu time spent up to now is      718.3 secs

     total energy              =   -2093.52991819 Ry
     Harris-Foulkes estimate   =   -2093.52982487 Ry
     estimated scf accuracy    <       0.00001572 Ry

     iteration # 12     ecut=    36.75 Ry     beta=0.10
     Davidson diagonalization with overlap
     ethr =  9.03E-09,  avg # of iterations =  4.6

     negative rho (up, down):  3.939E-01 0.000E+00
 
     Adding external electric field

     Computed dipole along edir(3) : 
        Dipole               -0.0000 Ry au,         -0.0001 Debye
        Dipole field         -0.0000 Ry au
 
        Potential amp.        0.0000 Ry
        Total length         46.9947 bohr
 

     total cpu time spent up to now is      786.4 secs

     total energy              =   -2093.52999038 Ry
     Harris-Foulkes estimate   =   -2093.52992342 Ry
     estimated scf accuracy    <       0.00002687 Ry

     iteration # 13     ecut=    36.75 Ry     beta=0.10
     Davidson diagonalization with overlap
     ethr =  9.03E-09,  avg # of iterations =  2.0

     negative rho (up, down):  3.928E-01 0.000E+00

     negative rho (up, down):  3.928E-01 0.000E+00

     negative rho (up, down):  3.928E-01 0.000E+00

     negative rho (up, down):  3.928E-01 0.000E+00

     negative rho (up, down):  3.928E-01 0.000E+00

     negative rho (up, down):  3.928E-01 0.000E+00

     negative rho (up, down):  3.928E-01 0.000E+00

     negative rho (up, down):  3.928E-01 0.000E+00

     negative rho (up, down):  3.928E-01 0.000E+00

     negative rho (up, down):  3.928E-01 0.000E+00

     negative rho (up, down):  3.928E-01 0.000E+00

     negative rho (up, down):  3.928E-01 0.000E+00

     negative rho (up, down):  3.928E-01 0.000E+00

     negative rho (up, down):  3.928E-01 0.000E+00

     negative rho (up, down):  3.928E-01 0.000E+00

     negative rho (up, down):  3.928E-01 0.000E+00

     negative rho (up, down):  3.928E-01 0.000E+00

     negative rho (up, down):  3.928E-01 0.000E+00

     negative rho (up, down):  3.928E-01 0.000E+00

     negative rho (up, down):  3.928E-01 0.000E+00

     negative rho (up, down):  3.928E-01 0.000E+00

     negative rho (up, down):  3.928E-01 0.000E+00

     negative rho (up, down):  3.928E-01 0.000E+00

     negative rho (up, down):  3.928E-01 0.000E+00

     negative rho (up, down):  3.928E-01 0.000E+00

     negative rho (up, down):  3.928E-01 0.000E+00

     negative rho (up, down):  3.928E-01 0.000E+00

     negative rho (up, down):  3.928E-01 0.000E+00

     negative rho (up, down):  3.928E-01 0.000E+00

     negative rho (up, down):  3.928E-01 0.000E+00

     negative rho (up, down):  3.928E-01 0.000E+00

     negative rho (up, down):  3.928E-01 0.000E+00

     negative rho (up, down):  3.928E-01 0.000E+00

     negative rho (up, down):  3.928E-01 0.000E+00

     negative rho (up, down):  3.928E-01 0.000E+00
 
     Adding external electric field

     Computed dipole along edir(3) : 
        Dipole                0.0005 Ry au,          0.0013 Debye
        Dipole field          0.0000 Ry au
 
        Potential amp.       -0.0001 Ry
        Total length         46.9947 bohr
 

     total cpu time spent up to now is      900.4 secs

     End of self-consistent calculation

          k = 0.0000 0.0000 0.0000 ( 25557 PWs)   bands (ev):

   -48.5874 -48.5721 -48.5721 -48.2200 -48.2200 -48.2199 -48.2199 -48.1464
   -48.1463 -16.5371 -16.5139 -16.5043 -16.5043 -16.4806 -16.4542 -16.4542
   -16.4523 -16.4072 -16.4072 -16.3975 -16.3869 -16.3869 -16.3651 -16.3417
   -16.3412 -16.3412 -16.3284 -16.3284 -16.3221 -16.2466 -16.2441 -16.2422
   -16.2422 -16.2351 -16.2351 -16.2280 -16.2280 -16.2269 -16.2022 -16.2022
   -16.1644 -16.1644 -16.1622 -16.1622 -16.1577 -16.1577 -16.1027 -16.1027
   -16.0926 -16.0596 -16.0596 -16.0595 -16.0570 -16.0188  -9.9811  -8.9598
    -7.6497  -6.8606  -6.8606  -6.3259  -6.3259  -5.6396  -5.6396  -2.8874
    -2.3493  -1.9221  -1.6247  -1.6247  -1.4402  -1.1527  -1.1527  -0.7830
    -0.7830  -0.7694  -0.6549  -0.6549  -0.5390  -0.5311  -0.5311  -0.5232
    -0.5232  -0.4779  -0.4779  -0.4610  -0.4610  -0.3068   0.0374   0.0374
     0.2011   1.7646   1.9262   2.6542   2.9437   2.9437   3.1328   3.1328
     3.9906   4.3295   4.4083   4.5380   4.8998   5.2196   5.2196   5.5339
     5.6985   5.7066   5.8051   5.8051   6.5679   6.6689   6.6689   6.9697
     7.2409   7.2981   7.4455   7.4664   7.4669

          k = 0.0000 0.0285 0.0000 ( 25515 PWs)   bands (ev):

   -48.5874 -48.5721 -48.5721 -48.2200 -48.2200 -48.2199 -48.2199 -48.1464
   -48.1463 -16.5218 -16.5056 -16.4899 -16.4845 -16.4712 -16.4482 -16.4357
   -16.4320 -16.4041 -16.3940 -16.3879 -16.3828 -16.3801 -16.3571 -16.3509
   -16.3453 -16.3382 -16.3184 -16.3171 -16.3123 -16.2584 -16.2505 -16.2459
   -16.2458 -16.2408 -16.2360 -16.2350 -16.2304 -16.2156 -16.2130 -16.2005
   -16.1833 -16.1692 -16.1685 -16.1659 -16.1639 -16.1574 -16.1154 -16.1060
   -16.0979 -16.0829 -16.0800 -16.0746 -16.0608 -16.0353  -9.8676  -8.8667
    -7.6093  -7.2121  -6.9513  -6.6064  -6.3217  -5.8675  -5.5881  -2.4790
    -2.0074  -1.8305  -1.7639  -1.5523  -1.4036  -1.2162  -1.1466  -1.0290
    -0.9404  -0.7959  -0.7170  -0.7155  -0.6810  -0.6409  -0.5195  -0.4793
    -0.4575  -0.4254  -0.3365  -0.2943  -0.2453  -0.1814   0.2483   0.4806
     0.6696   2.1135   2.2874   2.5526   2.6677   2.9328   3.1241   3.3578
     4.1122   4.1240   4.4469   4.5572   4.7938   4.8230   4.9612   5.1408
     5.5653   5.5655   5.7068   5.7906   6.0242   6.4810   6.5140   6.6038
     6.6367   6.8977   7.1857   7.2224   7.3679

          k = 0.0000 0.0571 0.0000 ( 25469 PWs)   bands (ev):

   -48.5874 -48.5721 -48.5721 -48.2200 -48.2200 -48.2200 -48.2199 -48.1464
   -48.1463 -16.5068 -16.4774 -16.4673 -16.4360 -16.4326 -16.4266 -16.4130
   -16.3983 -16.3799 -16.3771 -16.3755 -16.3561 -16.3535 -16.3437 -16.3340
   -16.3314 -16.3181 -16.3075 -16.3021 -16.2917 -16.2856 -16.2751 -16.2661
   -16.2599 -16.2522 -16.2422 -16.2415 -16.2358 -16.2349 -16.2212 -16.1990
   -16.1979 -16.1910 -16.1889 -16.1823 -16.1661 -16.1593 -16.1429 -16.1393
   -16.1334 -16.1298 -16.1111 -16.0947 -16.0909 -16.0445  -9.5380  -8.6669
    -7.9792  -7.2993  -7.1843  -7.0941  -6.3485  -6.3446  -5.4930  -2.4468
    -2.0345  -1.7200  -1.4490  -1.3681  -1.2010  -1.1901  -1.1378  -1.0819
    -0.9883  -0.9336  -0.7679  -0.6626  -0.5665  -0.4953  -0.4841  -0.4505
    -0.3146  -0.2035  -0.0439   0.1077   0.1435   0.3941   0.7482   1.0937
     1.2525   1.6550   2.1028   2.6093   2.8713   3.1928   3.3313   3.5489
     3.6794   3.6954   3.8573   4.2234   4.5091   4.5720   4.7637   4.9507
     5.0786   5.1849   5.5071   5.7520   5.8228   5.9195   6.0565   6.2454
     6.7146   6.7995   6.8649   7.0964   7.2529

          k = 0.0000-0.0856 0.0000 ( 25506 PWs)   bands (ev):

   -48.5874 -48.5721 -48.5721 -48.2200 -48.2200 -48.2200 -48.2199 -48.1464
   -48.1463 -16.5027 -16.4725 -16.4384 -16.4315 -16.4190 -16.3921 -16.3881
   -16.3878 -16.3738 -16.3587 -16.3541 -16.3431 -16.3238 -16.3172 -16.3113
   -16.3098 -16.3054 -16.3036 -16.3031 -16.3008 -16.2954 -16.2799 -16.2758
   -16.2700 -16.2636 -16.2602 -16.2557 -16.2530 -16.2314 -16.2250 -16.2140
   -16.2090 -16.2019 -16.1951 -16.1800 -16.1784 -16.1711 -16.1703 -16.1589
   -16.1571 -16.1566 -16.1401 -16.0961 -16.0954 -16.0447  -9.1474  -8.8562
    -7.9968  -7.7126  -7.1540  -6.9871  -6.7301  -6.3629  -5.4504  -2.5881
    -2.1879  -1.7996  -1.4407  -1.2562  -1.1443  -1.1283  -1.0912  -1.0432
    -1.0415  -0.7719  -0.6598  -0.6375  -0.5035  -0.4879  -0.4449  -0.3229
    -0.2387   0.1034   0.2742   0.6573   0.6806   0.7331   0.7977   1.4682
     1.5182   1.6583   1.7734   2.2313   2.3551   2.6094   3.1149   3.2048
     3.2255   3.4458   4.0619   4.2581   4.5530   4.8516   4.9291   5.1800
     5.3095   5.4103   5.5136   5.8516   5.9150   6.0287   6.1702   6.2539
     6.2766   6.3166   6.5069   6.7180   6.7812

          k = 0.0247 0.0143 0.0000 ( 25515 PWs)   bands (ev):

   -48.5874 -48.5721 -48.5721 -48.2200 -48.2200 -48.2199 -48.2199 -48.1464
   -48.1463 -16.5218 -16.5056 -16.4899 -16.4845 -16.4712 -16.4482 -16.4357
   -16.4320 -16.4041 -16.3940 -16.3879 -16.3828 -16.3801 -16.3571 -16.3509
   -16.3453 -16.3381 -16.3185 -16.3171 -16.3123 -16.2584 -16.2505 -16.2459
   -16.2458 -16.2408 -16.2360 -16.2350 -16.2304 -16.2156 -16.2130 -16.2005
   -16.1833 -16.1692 -16.1685 -16.1659 -16.1639 -16.1574 -16.1154 -16.1060
   -16.0979 -16.0829 -16.0800 -16.0746 -16.0608 -16.0353  -9.8676  -8.8667
    -7.6093  -7.2121  -6.9513  -6.6064  -6.3217  -5.8675  -5.5881  -2.4790
    -2.0074  -1.8305  -1.7639  -1.5523  -1.4036  -1.2162  -1.1466  -1.0290
    -0.9404  -0.7959  -0.7170  -0.7155  -0.6810  -0.6409  -0.5195  -0.4793
    -0.4575  -0.4254  -0.3365  -0.2943  -0.2453  -0.1814   0.2483   0.4806
     0.6696   2.1135   2.2874   2.5526   2.6677   2.9328   3.1241   3.3578
     4.1122   4.1240   4.4469   4.5572   4.7938   4.8230   4.9612   5.1408
     5.5653   5.5655   5.7068   5.7906   6.0242   6.4810   6.5140   6.6038
     6.6367   6.8977   7.1857   7.2224   7.3678

          k = 0.0247 0.0428 0.0000 ( 25506 PWs)   bands (ev):

   -48.5874 -48.5721 -48.5721 -48.2200 -48.2200 -48.2200 -48.2199 -48.1464
   -48.1463 -16.4955 -16.4953 -16.4644 -16.4597 -16.4469 -16.4302 -16.4131
   -16.4038 -16.3966 -16.3872 -16.3787 -16.3711 -16.3554 -16.3430 -16.3400
   -16.3377 -16.3337 -16.3090 -16.3025 -16.2980 -16.2772 -16.2634 -16.2621
   -16.2555 -16.2525 -16.2370 -16.2368 -16.2318 -16.2280 -16.2211 -16.2028
   -16.1978 -16.1846 -16.1779 -16.1746 -16.1647 -16.1592 -16.1418 -16.1271
   -16.1184 -16.1100 -16.1051 -16.0943 -16.0650 -16.0626  -9.6452  -8.7057
    -7.6533  -7.6442  -7.1232  -6.6864  -6.6662  -5.9346  -5.6756  -2.0847
    -1.9639  -1.8055  -1.5115  -1.4923  -1.3373  -1.3001  -1.1325  -1.1189
    -0.9047  -0.8441  -0.8006  -0.7479  -0.6235  -0.5594  -0.5318  -0.4717
    -0.4167  -0.3279  -0.2953  -0.2141   0.2739   0.4281   0.5556   0.8863
     1.2739   1.9197   1.9501   2.6806   3.0648   3.0998   3.3662   3.4433
     3.5838   3.6658   4.4485   4.5657   4.6945   4.7468   4.7826   4.8758
     5.0555   5.3061   5.3812   5.7616   5.7679   5.9528   6.2138   6.4124
     6.5359   6.5832   6.7666   6.8109   7.0380

          k = 0.0247 0.0713 0.0000 ( 25514 PWs)   bands (ev):

   -48.5874 -48.5721 -48.5721 -48.2200 -48.2200 -48.2200 -48.2199 -48.1464
   -48.1463 -16.4879 -16.4531 -16.4512 -16.4214 -16.4173 -16.4078 -16.3919
   -16.3883 -16.3801 -16.3776 -16.3636 -16.3415 -16.3389 -16.3218 -16.3188
   -16.3160 -16.3078 -16.3043 -16.3002 -16.2916 -16.2866 -16.2850 -16.2727
   -16.2671 -16.2645 -16.2570 -16.2479 -16.2469 -16.2331 -16.2246 -16.2132
   -16.1991 -16.1983 -16.1903 -16.1801 -16.1794 -16.1732 -16.1680 -16.1634
   -16.1481 -16.1450 -16.1232 -16.1051 -16.0988 -16.0642  -9.2338  -8.6722
    -8.0264  -7.8139  -7.2698  -6.9691  -6.6173  -6.1912  -5.6913  -2.2849
    -1.8824  -1.6266  -1.5098  -1.2956  -1.2535  -1.1691  -1.1242  -1.0510
    -0.9384  -0.8220  -0.7502  -0.6988  -0.6273  -0.5570  -0.5103  -0.4371
    -0.3303  -0.2964   0.2480   0.4039   0.5094   0.9948   1.1534   1.1960
     1.6656   1.7634   1.9291   2.1873   2.4181   2.6578   3.1908   3.4956
     3.5634   3.7962   4.0616   4.4925   4.5993   4.8220   4.9452   5.0643
     5.1981   5.3403   5.4589   5.7234   5.7447   5.7647   5.9041   5.9463
     6.2211   6.3760   6.4914   6.5616   6.6403

          k = 0.0247-0.0713 0.0000 ( 25514 PWs)   bands (ev):

   -48.5874 -48.5721 -48.5721 -48.2200 -48.2200 -48.2200 -48.2199 -48.1464
   -48.1463 -16.4879 -16.4531 -16.4512 -16.4214 -16.4173 -16.4078 -16.3919
   -16.3883 -16.3801 -16.3776 -16.3636 -16.3415 -16.3389 -16.3218 -16.3188
   -16.3160 -16.3078 -16.3043 -16.3002 -16.2916 -16.2866 -16.2850 -16.2727
   -16.2671 -16.2645 -16.2570 -16.2479 -16.2469 -16.2331 -16.2246 -16.2132
   -16.1991 -16.1983 -16.1903 -16.1801 -16.1794 -16.1732 -16.1680 -16.1634
   -16.1481 -16.1450 -16.1232 -16.1051 -16.0988 -16.0642  -9.2338  -8.6722
    -8.0264  -7.8139  -7.2698  -6.9691  -6.6173  -6.1912  -5.6913  -2.2849
    -1.8824  -1.6266  -1.5098  -1.2956  -1.2535  -1.1691  -1.1242  -1.0510
    -0.9384  -0.8220  -0.7502  -0.6988  -0.6273  -0.5570  -0.5103  -0.4371
    -0.3303  -0.2964   0.2480   0.4039   0.5094   0.9948   1.1534   1.1960
     1.6656   1.7634   1.9291   2.1873   2.4181   2.6578   3.1908   3.4956
     3.5634   3.7962   4.0616   4.4925   4.5993   4.8220   4.9452   5.0643
     5.1981   5.3403   5.4589   5.7234   5.7447   5.7647   5.9041   5.9463
     6.2211   6.3760   6.4914   6.5616   6.6402

          k = 0.0247-0.0428 0.0000 ( 25506 PWs)   bands (ev):

   -48.5874 -48.5721 -48.5721 -48.2200 -48.2200 -48.2200 -48.2199 -48.1464
   -48.1463 -16.4955 -16.4953 -16.4644 -16.4597 -16.4469 -16.4302 -16.4131
   -16.4038 -16.3966 -16.3872 -16.3787 -16.3711 -16.3554 -16.3430 -16.3400
   -16.3377 -16.3337 -16.3090 -16.3025 -16.2980 -16.2772 -16.2634 -16.2621
   -16.2555 -16.2525 -16.2370 -16.2368 -16.2318 -16.2280 -16.2211 -16.2028
   -16.1978 -16.1846 -16.1779 -16.1746 -16.1647 -16.1592 -16.1418 -16.1271
   -16.1184 -16.1100 -16.1051 -16.0943 -16.0650 -16.0626  -9.6452  -8.7057
    -7.6533  -7.6442  -7.1232  -6.6864  -6.6662  -5.9346  -5.6756  -2.0847
    -1.9639  -1.8055  -1.5115  -1.4923  -1.3373  -1.3001  -1.1325  -1.1189
    -0.9047  -0.8441  -0.8006  -0.7479  -0.6235  -0.5594  -0.5318  -0.4717
    -0.4167  -0.3279  -0.2953  -0.2141   0.2739   0.4281   0.5556   0.8863
     1.2739   1.9197   1.9501   2.6806   3.0648   3.0998   3.3662   3.4433
     3.5838   3.6658   4.4485   4.5657   4.6945   4.7468   4.7826   4.8758
     5.0555   5.3061   5.3812   5.7616   5.7679   5.9528   6.2138   6.4124
     6.5359   6.5832   6.7666   6.8107   7.0380

          k = 0.0247-0.0143 0.0000 ( 25515 PWs)   bands (ev):

   -48.5874 -48.5721 -48.5721 -48.2200 -48.2200 -48.2199 -48.2199 -48.1464
   -48.1463 -16.5218 -16.5056 -16.4899 -16.4845 -16.4712 -16.4482 -16.4357
   -16.4320 -16.4041 -16.3940 -16.3879 -16.3828 -16.3801 -16.3571 -16.3509
   -16.3453 -16.3382 -16.3185 -16.3171 -16.3123 -16.2584 -16.2505 -16.2459
   -16.2458 -16.2408 -16.2360 -16.2350 -16.2304 -16.2156 -16.2130 -16.2005
   -16.1833 -16.1692 -16.1685 -16.1659 -16.1639 -16.1574 -16.1154 -16.1060
   -16.0979 -16.0829 -16.0800 -16.0746 -16.0608 -16.0353  -9.8676  -8.8667
    -7.6093  -7.2121  -6.9513  -6.6064  -6.3217  -5.8675  -5.5881  -2.4790
    -2.0074  -1.8305  -1.7639  -1.5523  -1.4036  -1.2162  -1.1466  -1.0290
    -0.9404  -0.7959  -0.7170  -0.7155  -0.6810  -0.6409  -0.5195  -0.4793
    -0.4575  -0.4254  -0.3365  -0.2943  -0.2453  -0.1814   0.2483   0.4806
     0.6696   2.1135   2.2874   2.5526   2.6677   2.9328   3.1241   3.3578
     4.1122   4.1240   4.4469   4.5572   4.7938   4.8229   4.9612   5.1408
     5.5653   5.5655   5.7068   5.7906   6.0242   6.4810   6.5140   6.6038
     6.6368   6.8977   7.1857   7.2224   7.3677

          k = 0.0494 0.0285 0.0000 ( 25469 PWs)   bands (ev):

   -48.5874 -48.5721 -48.5721 -48.2200 -48.2200 -48.2200 -48.2199 -48.1464
   -48.1463 -16.5068 -16.4774 -16.4673 -16.4360 -16.4326 -16.4266 -16.4130
   -16.3983 -16.3799 -16.3771 -16.3755 -16.3561 -16.3535 -16.3437 -16.3340
   -16.3314 -16.3181 -16.3075 -16.3021 -16.2917 -16.2856 -16.2751 -16.2661
   -16.2599 -16.2522 -16.2422 -16.2415 -16.2358 -16.2349 -16.2212 -16.1990
   -16.1979 -16.1910 -16.1889 -16.1823 -16.1661 -16.1593 -16.1429 -16.1393
   -16.1334 -16.1298 -16.1111 -16.0947 -16.0909 -16.0445  -9.5380  -8.6669
    -7.9792  -7.2993  -7.1843  -7.0941  -6.3485  -6.3446  -5.4930  -2.4468
    -2.0345  -1.7200  -1.4490  -1.3681  -1.2010  -1.1901  -1.1378  -1.0819
    -0.9883  -0.9336  -0.7679  -0.6626  -0.5665  -0.4953  -0.4841  -0.4505
    -0.3146  -0.2035  -0.0439   0.1077   0.1435   0.3941   0.7482   1.0937
     1.2525   1.6550   2.1028   2.6093   2.8713   3.1928   3.3313   3.5489
     3.6794   3.6954   3.8573   4.2234   4.5091   4.5720   4.7637   4.9507
     5.0786   5.1849   5.5071   5.7520   5.8228   5.9195   6.0565   6.2454
     6.7146   6.7995   6.8649   7.0964   7.2528

          k = 0.0494 0.0571 0.0000 ( 25514 PWs)   bands (ev):

   -48.5874 -48.5721 -48.5721 -48.2200 -48.2200 -48.2200 -48.2199 -48.1464
   -48.1463 -16.4879 -16.4531 -16.4512 -16.4214 -16.4173 -16.4078 -16.3919
   -16.3883 -16.3801 -16.3776 -16.3636 -16.3415 -16.3389 -16.3218 -16.3188
   -16.3160 -16.3078 -16.3043 -16.3002 -16.2916 -16.2866 -16.2850 -16.2727
   -16.2671 -16.2645 -16.2570 -16.2479 -16.2469 -16.2331 -16.2246 -16.2132
   -16.1991 -16.1983 -16.1903 -16.1801 -16.1794 -16.1732 -16.1680 -16.1634
   -16.1481 -16.1450 -16.1232 -16.1051 -16.0988 -16.0642  -9.2338  -8.6722
    -8.0264  -7.8139  -7.2698  -6.9691  -6.6173  -6.1912  -5.6913  -2.2849
    -1.8824  -1.6266  -1.5098  -1.2956  -1.2535  -1.1691  -1.1242  -1.0510
    -0.9384  -0.8220  -0.7502  -0.6988  -0.6273  -0.5570  -0.5103  -0.4371
    -0.3303  -0.2964   0.2480   0.4039   0.5094   0.9948   1.1534   1.1960
     1.6656   1.7634   1.9291   2.1873   2.4181   2.6578   3.1908   3.4956
     3.5634   3.7962   4.0616   4.4925   4.5993   4.8220   4.9452   5.0643
     5.1981   5.3403   5.4589   5.7234   5.7447   5.7647   5.9041   5.9463
     6.2211   6.3760   6.4914   6.5616   6.6403

          k = 0.0494 0.0856 0.0000 ( 25464 PWs)   bands (ev):

   -48.5874 -48.5721 -48.5721 -48.2200 -48.2200 -48.2200 -48.2200 -48.1464
   -48.1463 -16.4611 -16.4398 -16.4398 -16.3995 -16.3995 -16.3938 -16.3933
   -16.3933 -16.3877 -16.3654 -16.3625 -16.3625 -16.3405 -16.3405 -16.3168
   -16.3103 -16.3061 -16.3061 -16.2996 -16.2826 -16.2821 -16.2820 -16.2694
   -16.2694 -16.2677 -16.2572 -16.2572 -16.2263 -16.2229 -16.2182 -16.2182
   -16.2030 -16.2030 -16.1990 -16.1990 -16.1885 -16.1885 -16.1683 -16.1547
   -16.1534 -16.1395 -16.1395 -16.1077 -16.1077 -16.0939  -8.8473  -8.8472
    -8.2260  -7.8356  -7.2727  -7.2727  -6.1945  -6.1455  -6.1455  -1.7150
    -1.7150  -1.6868  -1.3836  -1.3510  -1.3510  -1.1953  -1.1953  -1.1146
    -0.8991  -0.8991  -0.8609  -0.7531  -0.7230  -0.7230  -0.4457  -0.3248
    -0.3248   0.0327   0.0327   0.4163   0.7971   1.0857   1.0857   1.1907
     1.7243   1.7243   2.1303   2.1303   2.7905   3.1054   3.1054   3.1903
     3.4950   4.0279   4.0279   4.6245   4.6245   4.6560   4.9260   4.9260
     5.2169   5.4839   5.4840   5.6552   5.6959   5.7848   5.7850   5.9008
     5.9447   5.9448   6.4166   6.4171   6.4624

          k = 0.0494-0.0571 0.0000 ( 25514 PWs)   bands (ev):

   -48.5874 -48.5721 -48.5721 -48.2200 -48.2200 -48.2200 -48.2199 -48.1464
   -48.1463 -16.4879 -16.4531 -16.4512 -16.4214 -16.4173 -16.4078 -16.3919
   -16.3883 -16.3801 -16.3776 -16.3636 -16.3415 -16.3389 -16.3218 -16.3188
   -16.3160 -16.3078 -16.3043 -16.3002 -16.2916 -16.2866 -16.2850 -16.2727
   -16.2671 -16.2645 -16.2570 -16.2479 -16.2469 -16.2331 -16.2246 -16.2132
   -16.1991 -16.1983 -16.1903 -16.1801 -16.1794 -16.1732 -16.1680 -16.1634
   -16.1481 -16.1450 -16.1232 -16.1051 -16.0988 -16.0642  -9.2338  -8.6722
    -8.0264  -7.8139  -7.2698  -6.9691  -6.6173  -6.1912  -5.6913  -2.2849
    -1.8824  -1.6266  -1.5098  -1.2956  -1.2535  -1.1691  -1.1242  -1.0510
    -0.9384  -0.8220  -0.7502  -0.6988  -0.6273  -0.5570  -0.5103  -0.4371
    -0.3303  -0.2964   0.2480   0.4039   0.5094   0.9948   1.1534   1.1960
     1.6656   1.7634   1.9291   2.1873   2.4181   2.6578   3.1908   3.4956
     3.5634   3.7962   4.0616   4.4925   4.5993   4.8220   4.9452   5.0643
     5.1981   5.3403   5.4589   5.7234   5.7447   5.7647   5.9041   5.9463
     6.2211   6.3760   6.4914   6.5616   6.6402

          k = 0.0494-0.0285 0.0000 ( 25469 PWs)   bands (ev):

   -48.5874 -48.5721 -48.5721 -48.2200 -48.2200 -48.2200 -48.2199 -48.1464
   -48.1463 -16.5068 -16.4774 -16.4673 -16.4360 -16.4326 -16.4266 -16.4130
   -16.3983 -16.3799 -16.3771 -16.3755 -16.3561 -16.3535 -16.3437 -16.3340
   -16.3314 -16.3181 -16.3075 -16.3021 -16.2917 -16.2856 -16.2751 -16.2661
   -16.2599 -16.2522 -16.2422 -16.2415 -16.2358 -16.2349 -16.2212 -16.1990
   -16.1979 -16.1910 -16.1889 -16.1823 -16.1661 -16.1593 -16.1429 -16.1393
   -16.1334 -16.1298 -16.1111 -16.0947 -16.0909 -16.0445  -9.5380  -8.6669
    -7.9792  -7.2993  -7.1843  -7.0941  -6.3485  -6.3446  -5.4930  -2.4468
    -2.0345  -1.7200  -1.4490  -1.3681  -1.2010  -1.1901  -1.1378  -1.0819
    -0.9883  -0.9336  -0.7679  -0.6626  -0.5665  -0.4953  -0.4841  -0.4505
    -0.3146  -0.2035  -0.0439   0.1077   0.1435   0.3941   0.7482   1.0937
     1.2525   1.6550   2.1028   2.6093   2.8713   3.1928   3.3313   3.5489
     3.6794   3.6954   3.8573   4.2234   4.5091   4.5720   4.7637   4.9507
     5.0786   5.1849   5.5071   5.7520   5.8228   5.9195   6.0565   6.2454
     6.7146   6.7995   6.8649   7.0964   7.2528

          k = 0.0494 0.0000 0.0000 ( 25506 PWs)   bands (ev):

   -48.5874 -48.5721 -48.5721 -48.2200 -48.2200 -48.2200 -48.2199 -48.1464
   -48.1463 -16.4955 -16.4953 -16.4644 -16.4597 -16.4469 -16.4302 -16.4131
   -16.4038 -16.3966 -16.3872 -16.3787 -16.3711 -16.3554 -16.3430 -16.3400
   -16.3377 -16.3337 -16.3090 -16.3025 -16.2980 -16.2772 -16.2634 -16.2621
   -16.2555 -16.2525 -16.2370 -16.2368 -16.2318 -16.2280 -16.2211 -16.2028
   -16.1978 -16.1846 -16.1779 -16.1746 -16.1647 -16.1592 -16.1418 -16.1271
   -16.1184 -16.1100 -16.1051 -16.0943 -16.0650 -16.0626  -9.6452  -8.7057
    -7.6533  -7.6442  -7.1232  -6.6864  -6.6662  -5.9346  -5.6756  -2.0847
    -1.9639  -1.8055  -1.5115  -1.4923  -1.3373  -1.3001  -1.1325  -1.1189
    -0.9047  -0.8441  -0.8006  -0.7479  -0.6235  -0.5594  -0.5318  -0.4717
    -0.4167  -0.3279  -0.2953  -0.2141   0.2739   0.4281   0.5556   0.8863
     1.2739   1.9197   1.9501   2.6806   3.0648   3.0998   3.3662   3.4433
     3.5838   3.6658   4.4485   4.5657   4.6945   4.7468   4.7826   4.8758
     5.0555   5.3061   5.3812   5.7616   5.7679   5.9528   6.2138   6.4124
     6.5359   6.5832   6.7666   6.8108   7.0380

          k =-0.0741-0.0428 0.0000 ( 25506 PWs)   bands (ev):

   -48.5874 -48.5721 -48.5721 -48.2200 -48.2200 -48.2200 -48.2199 -48.1464
   -48.1463 -16.5027 -16.4725 -16.4384 -16.4315 -16.4190 -16.3921 -16.3881
   -16.3878 -16.3738 -16.3587 -16.3541 -16.3431 -16.3238 -16.3172 -16.3113
   -16.3098 -16.3054 -16.3036 -16.3031 -16.3008 -16.2954 -16.2799 -16.2758
   -16.2700 -16.2636 -16.2602 -16.2557 -16.2530 -16.2314 -16.2250 -16.2140
   -16.2090 -16.2019 -16.1951 -16.1800 -16.1784 -16.1711 -16.1703 -16.1589
   -16.1571 -16.1566 -16.1401 -16.0961 -16.0954 -16.0447  -9.1474  -8.8562
    -7.9968  -7.7126  -7.1540  -6.9871  -6.7301  -6.3629  -5.4504  -2.5881
    -2.1879  -1.7996  -1.4407  -1.2562  -1.1443  -1.1283  -1.0912  -1.0432
    -1.0415  -0.7719  -0.6598  -0.6375  -0.5035  -0.4879  -0.4449  -0.3229
    -0.2387   0.1034   0.2742   0.6573   0.6806   0.7331   0.7977   1.4682
     1.5182   1.6583   1.7734   2.2313   2.3551   2.6094   3.1149   3.2048
     3.2255   3.4458   4.0619   4.2581   4.5530   4.8516   4.9291   5.1800
     5.3095   5.4103   5.5136   5.8516   5.9150   6.0287   6.1702   6.2539
     6.2766   6.3166   6.5069   6.7180   6.7812

          k =-0.0741-0.0143 0.0000 ( 25514 PWs)   bands (ev):

   -48.5874 -48.5721 -48.5721 -48.2200 -48.2200 -48.2200 -48.2199 -48.1464
   -48.1463 -16.4879 -16.4531 -16.4512 -16.4214 -16.4173 -16.4078 -16.3919
   -16.3883 -16.3801 -16.3776 -16.3636 -16.3415 -16.3389 -16.3218 -16.3188
   -16.3160 -16.3078 -16.3043 -16.3002 -16.2916 -16.2866 -16.2850 -16.2727
   -16.2671 -16.2645 -16.2570 -16.2479 -16.2469 -16.2331 -16.2246 -16.2132
   -16.1991 -16.1983 -16.1903 -16.1801 -16.1794 -16.1732 -16.1680 -16.1634
   -16.1481 -16.1450 -16.1232 -16.1051 -16.0988 -16.0642  -9.2338  -8.6722
    -8.0264  -7.8139  -7.2698  -6.9691  -6.6173  -6.1912  -5.6913  -2.2849
    -1.8824  -1.6266  -1.5098  -1.2956  -1.2535  -1.1691  -1.1242  -1.0510
    -0.9384  -0.8220  -0.7502  -0.6988  -0.6273  -0.5570  -0.5103  -0.4371
    -0.3303  -0.2964   0.2480   0.4039   0.5094   0.9948   1.1534   1.1960
     1.6656   1.7634   1.9291   2.1873   2.4181   2.6578   3.1908   3.4956
     3.5634   3.7962   4.0616   4.4925   4.5993   4.8220   4.9452   5.0643
     5.1981   5.3403   5.4589   5.7234   5.7447   5.7647   5.9041   5.9463
     6.2211   6.3760   6.4914   6.5616   6.6403

          k =-0.0741 0.0143 0.0000 ( 25514 PWs)   bands (ev):

   -48.5874 -48.5721 -48.5721 -48.2200 -48.2200 -48.2200 -48.2199 -48.1464
   -48.1463 -16.4879 -16.4531 -16.4512 -16.4214 -16.4173 -16.4078 -16.3919
   -16.3883 -16.3801 -16.3776 -16.3636 -16.3415 -16.3389 -16.3218 -16.3188
   -16.3160 -16.3078 -16.3043 -16.3002 -16.2916 -16.2866 -16.2850 -16.2727
   -16.2671 -16.2645 -16.2570 -16.2479 -16.2469 -16.2331 -16.2246 -16.2132
   -16.1991 -16.1983 -16.1903 -16.1801 -16.1794 -16.1732 -16.1680 -16.1634
   -16.1481 -16.1450 -16.1232 -16.1051 -16.0988 -16.0642  -9.2338  -8.6722
    -8.0264  -7.8139  -7.2698  -6.9691  -6.6173  -6.1912  -5.6913  -2.2849
    -1.8824  -1.6266  -1.5098  -1.2956  -1.2535  -1.1691  -1.1242  -1.0510
    -0.9384  -0.8220  -0.7502  -0.6988  -0.6273  -0.5570  -0.5103  -0.4371
    -0.3303  -0.2964   0.2480   0.4039   0.5094   0.9948   1.1534   1.1960
     1.6656   1.7634   1.9291   2.1873   2.4181   2.6578   3.1908   3.4956
     3.5634   3.7962   4.0616   4.4925   4.5993   4.8220   4.9452   5.0643
     5.1981   5.3403   5.4589   5.7234   5.7447   5.7647   5.9041   5.9463
     6.2211   6.3760   6.4914   6.5616   6.6402

          k =-0.0741-0.1284 0.0000 ( 25506 PWs)   bands (ev):

   -48.5874 -48.5721 -48.5721 -48.2200 -48.2200 -48.2200 -48.2199 -48.1464
   -48.1463 -16.5027 -16.4725 -16.4384 -16.4315 -16.4190 -16.3921 -16.3881
   -16.3878 -16.3738 -16.3587 -16.3541 -16.3431 -16.3238 -16.3172 -16.3113
   -16.3098 -16.3054 -16.3036 -16.3031 -16.3008 -16.2954 -16.2799 -16.2758
   -16.2701 -16.2636 -16.2602 -16.2557 -16.2530 -16.2314 -16.2250 -16.2140
   -16.2090 -16.2019 -16.1951 -16.1800 -16.1784 -16.1711 -16.1703 -16.1589
   -16.1571 -16.1566 -16.1401 -16.0961 -16.0954 -16.0447  -9.1474  -8.8562
    -7.9968  -7.7126  -7.1540  -6.9871  -6.7301  -6.3629  -5.4504  -2.5881
    -2.1879  -1.7996  -1.4407  -1.2562  -1.1443  -1.1283  -1.0912  -1.0432
    -1.0415  -0.7719  -0.6598  -0.6375  -0.5035  -0.4879  -0.4449  -0.3229
    -0.2387   0.1034   0.2742   0.6573   0.6806   0.7331   0.7977   1.4682
     1.5182   1.6583   1.7734   2.2313   2.3551   2.6094   3.1149   3.2048
     3.2255   3.4458   4.0619   4.2581   4.5530   4.8516   4.9291   5.1800
     5.3095   5.4103   5.5136   5.8516   5.9150   6.0287   6.1702   6.2539
     6.2766   6.3166   6.5069   6.7180   6.7812

     the Fermi energy is     0.9748 ev

!    total energy              =   -2093.53012695 Ry
     Harris-Foulkes estimate   =   -2093.52999361 Ry
     estimated scf accuracy    <       0.00000070 Ry

     The total energy is the sum of the following terms:

     one-electron contribution =  -10842.54363445 Ry
     hartree contribution      =    5485.85590474 Ry
     xc contribution           =    -685.36189740 Ry
     ewald contribution        =    3948.55619432 Ry
     electric field correction =       0.00000000 Ry
     smearing contrib. (-TS)   =      -0.03669416 Ry

     convergence has been achieved in  13 iterations
 
 BEEF-vdW xc energy contributions
           1 :   -608.950415884001     
           2 :    564.151490672742     
           3 :   -485.846334283042     
           4 :    392.067928534204     
           5 :   -301.018515610959     
           6 :    225.405991492683     
           7 :   -169.748357510861     
           8 :    131.214771393755     
           9 :   -103.074469873130     
          10 :    78.8372584075605     
          11 :   -55.1552005483637     
          12 :    32.4276736587806     
          13 :   -13.3337716256497     
          14 :   0.482941513691117     
          15 :    5.40565012242712     
          16 :   -5.92908899989129     
          17 :    4.05376128712464     
          18 :   -2.54799720788606     
          19 :    2.74372183741127     
          20 :   -4.25015417858685     
          21 :    5.63181458219515     
          22 :   -5.53596564346071     
          23 :    3.57603285496771     
          24 :  -0.515513434481363     
          25 :   -2.25193823386667     
          26 :    3.53622347853866     
          27 :   -2.99151558609560     
          28 :    1.22691234742092     
          29 :   0.615657867008508     
          30 :   -1.52842755820348     
          31 :   -50.0827656285484     
          32 :   -36.6977562258527     

     Forces acting on atoms (Ry/au):


     negative rho (up, down):  3.928E-01 0.000E+00
     atom    1 type  1   force =     0.00000462    0.01567425   -0.00356176
     atom    2 type  1   force =     0.01357560   -0.00782756   -0.00354233
     atom    3 type  1   force =    -0.01357723   -0.00784344   -0.00354433
     atom    4 type  2   force =    -0.00000049    0.00000023    0.02692602
     atom    5 type  1   force =    -0.00000599   -0.00000600   -0.00000394
     atom    6 type  1   force =    -0.00000130    0.00000177   -0.00000899
     atom    7 type  1   force =    -0.00000083    0.00000411   -0.00000277
     atom    8 type  2   force =     0.00000009    0.00000116   -0.00000904
     atom    9 type  1   force =    -0.00000784   -0.01566489    0.00356564
     atom   10 type  1   force =    -0.01356304    0.00782570    0.00356215
     atom   11 type  1   force =     0.01357433    0.00783171    0.00355458
     atom   12 type  2   force =     0.00000207    0.00000294   -0.02693523

     Total force =     0.054769     Total SCF correction =     0.002181


     entering subroutine stress ...


     negative rho (up, down):  3.928E-01 0.000E+00
          total   stress  (Ry/bohr**3)                   (kbar)     P=   -6.17
  -0.00004985   0.00000000  -0.00000000         -7.33      0.00     -0.00
   0.00000000  -0.00004985   0.00000000          0.00     -7.33      0.00
  -0.00000000   0.00000000  -0.00002614         -0.00      0.00     -3.84

 !ASE

     Writing output data file calc.save
 
     init_run     :     12.94s CPU     20.95s WALL (       1 calls)
     electrons    :    561.93s CPU    878.90s WALL (       1 calls)
     forces       :      3.47s CPU      4.19s WALL (       1 calls)
     stress       :      7.76s CPU      9.23s WALL (       1 calls)

     Called by init_run:
     wfcinit      :     10.08s CPU     17.19s WALL (       1 calls)
     potinit      :      1.52s CPU      2.16s WALL (       1 calls)

     Called by electrons:
     c_bands      :    427.49s CPU    667.53s WALL (      14 calls)
     sum_band     :     70.14s CPU    118.64s WALL (      14 calls)
     v_of_rho     :     17.95s CPU     26.75s WALL (      14 calls)
     newd         :      4.58s CPU      4.87s WALL (      14 calls)
     mix_rho      :      0.72s CPU      1.09s WALL (      14 calls)
     vdW_energy   :      1.87s CPU      1.88s WALL (      50 calls)
     vdW_ffts     :     40.97s CPU     61.63s WALL (     102 calls)
     vdW_v        :      7.14s CPU     10.30s WALL (      50 calls)

     Called by c_bands:
     init_us_2    :      0.44s CPU      0.46s WALL (     620 calls)
     cegterg      :    420.62s CPU    658.33s WALL (     280 calls)

     Called by *egterg:
     h_psi        :    290.33s CPU    508.40s WALL (    1396 calls)
     s_psi        :      6.13s CPU      6.21s WALL (    1396 calls)
     g_psi        :      0.35s CPU      0.35s WALL (    1096 calls)
     cdiaghg      :     77.67s CPU     81.55s WALL (    1356 calls)

     Called by h_psi:
     add_vuspsi   :      6.32s CPU      6.34s WALL (    1396 calls)

     General routines
     calbec       :     17.21s CPU     22.57s WALL (    1716 calls)
     fft          :     61.18s CPU     92.22s WALL (    3031 calls)
     ffts         :      0.14s CPU      0.23s WALL (      28 calls)
     fftw         :    323.14s CPU    583.04s WALL (  183938 calls)
     interpolate  :      0.62s CPU      1.07s WALL (      28 calls)
     davcio       :      0.00s CPU      0.03s WALL (      20 calls)
 
     Parallel routines
     fft_scatter  :    363.73s CPU    653.07s WALL (  186997 calls)
 
     PWSCF        :  9m47.32s CPU    15m15.39s WALL

 
   This run was terminated on:  15:14:40  27Dec2018            

=------------------------------------------------------------------------------=
   JOB DONE.
=------------------------------------------------------------------------------=
Job  /afs/slac/g/suncat/bin/suncat-tsmpirun -x LD_LIBRARY_PATH -wdir /scratch/qe110402_Hy1XH pw.x -in pw.inp

TID   HOST_NAME   COMMAND_LINE            STATUS            TERMINATION_TIME
===== ========== ================  =======================  ===================
00000 suncat0083 pw.x -in pw.inp   Done                     12/27/2018 15:14:40
00001 suncat0083 pw.x -in pw.inp   Done                     12/27/2018 15:14:40
00002 suncat0083 pw.x -in pw.inp   Done                     12/27/2018 15:14:40
00003 suncat0083 pw.x -in pw.inp   Done                     12/27/2018 15:14:40
00004 suncat0083 pw.x -in pw.inp   Done                     12/27/2018 15:14:40
00005 suncat0083 pw.x -in pw.inp   Done                     12/27/2018 15:14:40
00006 suncat0083 pw.x -in pw.inp   Done                     12/27/2018 15:14:40
00007 suncat0083 pw.x -in pw.inp   Done                     12/27/2018 15:14:40
00008 suncat0081 pw.x -in pw.inp   Done                     12/27/2018 15:14:41
00009 suncat0081 pw.x -in pw.inp   Done                     12/27/2018 15:14:41
00010 suncat0081 pw.x -in pw.inp   Done                     12/27/2018 15:14:41
00011 suncat0081 pw.x -in pw.inp   Done                     12/27/2018 15:14:41
00012 suncat0081 pw.x -in pw.inp   Done                     12/27/2018 15:14:41
00013 suncat0081 pw.x -in pw.inp   Done                     12/27/2018 15:14:41
00014 suncat0081 pw.x -in pw.inp   Done                     12/27/2018 15:14:41
00015 suncat0081 pw.x -in pw.inp   Done                     12/27/2018 15:14:41
00016 suncat0079 pw.x -in pw.inp   Done                     12/27/2018 15:14:40
00017 suncat0079 pw.x -in pw.inp   Done                     12/27/2018 15:14:40
00018 suncat0079 pw.x -in pw.inp   Done                     12/27/2018 15:14:40
00019 suncat0079 pw.x -in pw.inp   Done                     12/27/2018 15:14:40
00020 suncat0079 pw.x -in pw.inp   Done                     12/27/2018 15:14:40
00021 suncat0079 pw.x -in pw.inp   Done                     12/27/2018 15:14:40
00022 suncat0079 pw.x -in pw.inp   Done                     12/27/2018 15:14:40
00023 suncat0079 pw.x -in pw.inp   Done                     12/27/2018 15:14:40
00024 suncat0076 pw.x -in pw.inp   Done                     12/27/2018 15:14:41
00025 suncat0076 pw.x -in pw.inp   Done                     12/27/2018 15:14:41
00026 suncat0076 pw.x -in pw.inp   Done                     12/27/2018 15:14:41
00027 suncat0076 pw.x -in pw.inp   Done                     12/27/2018 15:14:40
00028 suncat0076 pw.x -in pw.inp   Done                     12/27/2018 15:14:41
00029 suncat0076 pw.x -in pw.inp   Done                     12/27/2018 15:14:41
00030 suncat0076 pw.x -in pw.inp   Done                     12/27/2018 15:14:41
00031 suncat0076 pw.x -in pw.inp   Done                     12/27/2018 15:14:41
00032 suncat0064 pw.x -in pw.inp   Done                     12/27/2018 15:14:40
00033 suncat0064 pw.x -in pw.inp   Done                     12/27/2018 15:14:40
00034 suncat0064 pw.x -in pw.inp   Done                     12/27/2018 15:14:40
00035 suncat0064 pw.x -in pw.inp   Done                     12/27/2018 15:14:40
00036 suncat0064 pw.x -in pw.inp   Done                     12/27/2018 15:14:40
00037 suncat0064 pw.x -in pw.inp   Done                     12/27/2018 15:14:40
00038 suncat0064 pw.x -in pw.inp   Done                     12/27/2018 15:14:40
00039 suncat0064 pw.x -in pw.inp   Done                     12/27/2018 15:14:40
00040 suncat0129 pw.x -in pw.inp   Done                     12/27/2018 15:14:40
00041 suncat0129 pw.x -in pw.inp   Done                     12/27/2018 15:14:40
00042 suncat0129 pw.x -in pw.inp   Done                     12/27/2018 15:14:40
00043 suncat0129 pw.x -in pw.inp   Done                     12/27/2018 15:14:40
00044 suncat0129 pw.x -in pw.inp   Done                     12/27/2018 15:14:40
00045 suncat0129 pw.x -in pw.inp   Done                     12/27/2018 15:14:40
00046 suncat0129 pw.x -in pw.inp   Done                     12/27/2018 15:14:40
00047 suncat0129 pw.x -in pw.inp   Done                     12/27/2018 15:14:40
00048 suncat0254 pw.x -in pw.inp   Done                     12/27/2018 15:14:40
00049 suncat0254 pw.x -in pw.inp   Done                     12/27/2018 15:14:40
00050 suncat0254 pw.x -in pw.inp   Done                     12/27/2018 15:14:40
00051 suncat0254 pw.x -in pw.inp   Done                     12/27/2018 15:14:40
00052 suncat0254 pw.x -in pw.inp   Done                     12/27/2018 15:14:40
00053 suncat0254 pw.x -in pw.inp   Done                     12/27/2018 15:14:40
00054 suncat0254 pw.x -in pw.inp   Done                     12/27/2018 15:14:40
00055 suncat0254 pw.x -in pw.inp   Done                     12/27/2018 15:14:40
00056 suncat0253 pw.x -in pw.inp   Done                     12/27/2018 15:14:40
00057 suncat0253 pw.x -in pw.inp   Done                     12/27/2018 15:14:40
00058 suncat0253 pw.x -in pw.inp   Done                     12/27/2018 15:14:40
00059 suncat0253 pw.x -in pw.inp   Done                     12/27/2018 15:14:40
00060 suncat0253 pw.x -in pw.inp   Done                     12/27/2018 15:14:40
00061 suncat0253 pw.x -in pw.inp   Done                     12/27/2018 15:14:40
00062 suncat0253 pw.x -in pw.inp   Done                     12/27/2018 15:14:40
00063 suncat0253 pw.x -in pw.inp   Done                     12/27/2018 15:14:40

     Program PWSCF v.5.1rc2 (svn rev. 11289) starts on 27Dec2018 at 15:14:48 

     This program is part of the open-source Quantum ESPRESSO suite
     for quantum simulation of materials; please cite
         "P. Giannozzi et al., J. Phys.:Condens. Matter 21 395502 (2009);
          URL http://www.quantum-espresso.org", 
     in publications or presentations arising from this work. More details at
     http://www.quantum-espresso.org/quote

     Parallel version (MPI), running on    64 processors
     R & G space division:  proc/nbgrp/npool/nimage =      64
     Reading input from pw.inp
     Message from routine read_cards :
     DEPRECATED: no units specified in CELL_PARAMETERS card

     Current dimensions of program PWSCF are:
     Max number of different atomic species (ntypx) = 10
     Max number of k-points (npk) =  40000
     Max angular momentum in pseudopotentials (lmaxx) =  3
     Presently stress not available with electric field


     **************************************************************************
     Initializing libbeef V0.1.1 with the BEEF-vdW functional.
     Citation: Wellendorff et al., PRB 85, 235149 (2012).
     **************************************************************************


     IMPORTANT: XC functional enforced from input :
     Exchange-correlation      = BEEF-VDW ( 1  4 27 13 2)
     Any further DFT definition will be discarded
     Please, verify this is what you really want


     Subspace diagonalization in iterative solution of the eigenvalue problem:
     a serial algorithm will be used

 
     Parallelization info
     --------------------
     sticks:   dense  smooth     PW     G-vecs:    dense   smooth      PW
     Min          64      25      7                12590     3165     495
     Max          65      26      8                12608     3210     512
     Sum        4105    1651    475               806383   204229   32171
 


     bravais-lattice index     =            0
     lattice parameter (alat)  =       1.8897  a.u.
     unit-cell volume          =    6779.0412 (a.u.)^3
     number of atoms/cell      =           12
     number of atomic types    =            2
     number of electrons       =       174.00
     number of Kohn-Sham states=          117
     kinetic-energy cutoff     =      36.7493  Ry
     charge density cutoff     =     367.4932  Ry
     convergence threshold     =      1.0E-06
     mixing beta               =       0.1000
     number of iterations used =           10  plain     mixing
     Exchange-correlation      = BEEF-VDW ( 1  4 27 13 2)
     nstep                     =           50


     celldm(1)=   1.889726  celldm(2)=   0.000000  celldm(3)=   0.000000
     celldm(4)=   0.000000  celldm(5)=   0.000000  celldm(6)=   0.000000

     crystal axes: (cart. coord. in units of alat)
               a(1) = (   6.743691   0.000000   0.000000 )  
               a(2) = (  -3.371845   5.840207   0.000000 )  
               a(3) = (   0.000000   0.000000  25.506200 )  

     reciprocal axes: (cart. coord. in units 2 pi/alat)
               b(1) = (  0.148287  0.085613  0.000000 )  
               b(2) = (  0.000000  0.171227  0.000000 )  
               b(3) = (  0.000000  0.000000  0.039206 )  


     PseudoPot. # 1 for Pb read from file:
     /afs/slac.stanford.edu/u/if/mamunm/psp/gbrv1.5pbe/Pb.UPF
     MD5 check sum: 3d1c1779aa92214d1e8f3a7db79003e2
     Pseudo is Ultrasoft + core correction, Zval = 14.0
     Generated by new atomic code, or converted to UPF format
     Using radial grid of  899 points,  6 beta functions with: 
                l(1) =   0
                l(2) =   0
                l(3) =   1
                l(4) =   1
                l(5) =   2
                l(6) =   2
     Q(r) pseudized with  6 coefficients,  rinner =    1.000   1.000   1.000
                                                       1.000   1.000

     PseudoPot. # 2 for Pd read from file:
     /afs/slac.stanford.edu/u/if/mamunm/psp/gbrv1.5pbe/Pd.UPF
     MD5 check sum: 2d733d2bc2cbfd217af676df1668a4bc
     Pseudo is Ultrasoft + core correction, Zval = 16.0
     Generated by new atomic code, or converted to UPF format
     Using radial grid of  887 points,  6 beta functions with: 
                l(1) =   0
                l(2) =   0
                l(3) =   1
                l(4) =   1
                l(5) =   2
                l(6) =   2
     Q(r) pseudized with  8 coefficients,  rinner =    1.130   1.130   1.130
                                                       1.130   1.130

     vdW kernel table read from file vdW_kernel_table
     MD5 check sum: 095c7af220d748ca6e76c0b4c6cfb241

     atomic species   valence    mass     pseudopotential
        Pb1           14.00   207.20000     Pb( 1.00)
        Pd1           16.00   106.42000     Pd( 1.00)

     No symmetry found



   Cartesian axes

     site n.     atom                  positions (alat units)
         1           Pb1 tau(   1) = (   0.0000000   0.0000000  10.0000000  )
         2           Pb1 tau(   2) = (  -1.6859226   2.9201037  10.0000000  )
         3           Pb1 tau(   3) = (   1.6859226   2.9201037  10.0000000  )
         4           Pd1 tau(   4) = (   3.3718453   0.0000000  10.0000000  )
         5           Pb1 tau(   5) = (   3.3718453   1.9467358  12.7531002  )
         6           Pb1 tau(   6) = (   1.6859226   4.8668395  12.7531002  )
         7           Pb1 tau(   7) = (  -1.6859226   4.8668395  12.7531002  )
         8           Pd1 tau(   8) = (   0.0000000   1.9467358  12.7531002  )
         9           Pb1 tau(   9) = (  -0.0000202   3.8531955  15.5153679  )
        10           Pb1 tau(  10) = (   1.6510507   0.9934886  15.5153590  )
        11           Pb1 tau(  11) = (   5.0926689   0.9935040  15.5153395  )
        12           Pd1 tau(  12) = (   3.3718506   3.8934791  15.4369471  )

     number of k points=    20  Fermi-Dirac smearing, width (Ry)=  0.0110
                       cart. coord. in units 2pi/alat
        k(    1) = (   0.0000000   0.0000000   0.0000000), wk =   0.0555556
        k(    2) = (   0.0000000   0.0285378   0.0000000), wk =   0.1111111
        k(    3) = (   0.0000000   0.0570756   0.0000000), wk =   0.1111111
        k(    4) = (   0.0000000  -0.0856134   0.0000000), wk =   0.0555556
        k(    5) = (   0.0247145   0.0142689   0.0000000), wk =   0.1111111
        k(    6) = (   0.0247145   0.0428067   0.0000000), wk =   0.1111111
        k(    7) = (   0.0247145   0.0713445   0.0000000), wk =   0.1111111
        k(    8) = (   0.0247145  -0.0713445   0.0000000), wk =   0.1111111
        k(    9) = (   0.0247145  -0.0428067   0.0000000), wk =   0.1111111
        k(   10) = (   0.0247145  -0.0142689   0.0000000), wk =   0.1111111
        k(   11) = (   0.0494289   0.0285378   0.0000000), wk =   0.1111111
        k(   12) = (   0.0494289   0.0570756   0.0000000), wk =   0.1111111
        k(   13) = (   0.0494289   0.0856134   0.0000000), wk =   0.1111111
        k(   14) = (   0.0494289  -0.0570756   0.0000000), wk =   0.1111111
        k(   15) = (   0.0494289  -0.0285378   0.0000000), wk =   0.1111111
        k(   16) = (   0.0494289   0.0000000   0.0000000), wk =   0.1111111
        k(   17) = (  -0.0741434  -0.0428067   0.0000000), wk =   0.0555556
        k(   18) = (  -0.0741434  -0.0142689   0.0000000), wk =   0.1111111
        k(   19) = (  -0.0741434   0.0142689   0.0000000), wk =   0.1111111
        k(   20) = (  -0.0741434  -0.1284201   0.0000000), wk =   0.0555556

     Dense  grid:   806383 G-vectors     FFT dimensions: (  80,  80, 300)

     Smooth grid:   204229 G-vectors     FFT dimensions: (  50,  50, 192)

     Largest allocated arrays     est. size (Mb)     dimensions
        Kohn-Sham Wavefunctions         0.73 Mb     (     409,  117)
        NL pseudopotentials             1.35 Mb     (     409,  216)
        Each V/rho on FFT grid          0.49 Mb     (   32000)
        Each G-vector array             0.10 Mb     (   12602)
        G-vector shells                 0.05 Mb     (    6003)
     Largest temporary arrays     est. size (Mb)     dimensions
        Auxiliary wavefunctions         2.92 Mb     (     409,  468)
        Each subspace H/S matrix        3.34 Mb     (     468,  468)
        Each <psi_i|beta_j> matrix      0.39 Mb     (     216,  117)
        Arrays for rho mixing           4.88 Mb     (   32000,   10)

     Check: negative/imaginary core charge=   -0.000001    0.000000

     Initial potential from superposition of free atoms
     Check: negative starting charge=   -0.375584

     starting charge  172.47882, renormalised to  174.00000

     negative rho (up, down):  3.789E-01 0.000E+00


     ************************************************************************
     *
     * You are using vdW-DF for exchange-correlation in this calculation.
     * Please cite the following three references that made this development
     * possible:
     *
     *   M. Dion, H. Rydberg, E. Schroder, D. C. Langreth, and
     *   B. I. Lundqvist, Phys. Rev. Lett. 92, 246401 (2004).
     *
     *   T. Thonhauser, V. R. Cooper, S. Li, A. Puzder, P. Hyldgaard, and
     *   D. C. Langreth, Phys. Rev. B 76, 125112 (2007).
     *
     *   G. Roman-Perez and J. M. Soler, Phys. Rev. Lett. 103, 096102 (2009).
     *
     *
     * If you are using vdW-DF2, please also cite:
     *
     *   K. Lee, E. D. Murray, L. Kong, B. I. Lundqvist, and
     *   D. C. Langreth, Phys. Rev. B 82, 081101(R) (2010).
     *
     *
     * If you are calculating the stress with vdW-DF, please also cite:
     *
     *   R. Sabatini, E. Kucukbenli, B. Kolb, T. Thonhauser, and
     *   S. de Gironcoli, J. Phys.: Condens. Matter 24, 424209 (2012).
     *
     ************************************************************************

     Carrying out vdW-DF run using the following parameters:

     Nqs =      20    Nr_points =    1024   r_max =   100.000
     q_mesh =
               0.00001000     0.04494208     0.09755937     0.15916263
               0.23128650     0.31572767     0.41458969     0.53033537
               0.66584808     0.82450364     1.01025438     1.22772762
               1.48234092     1.78043706     2.12944203     2.53805004
               3.01644009     3.57652955     4.23227104     5.00000000

     Gradients computed in reciprocal space

     ************************************************************************


 
     Adding external electric field

     Computed dipole along edir(3) : 
        Dipole               -0.0538 Ry au,         -0.1368 Debye
        Dipole field         -0.0001 Ry au
 
        Potential amp.        0.0094 Ry
        Total length         46.9947 bohr
 
     Starting wfc are  117 randomized atomic wfcs

     total cpu time spent up to now is       20.7 secs

     per-process dynamical memory:    44.4 Mb

     Self-consistent Calculation

     iteration #  1     ecut=    36.75 Ry     beta=0.10
     Davidson diagonalization with overlap
     ethr =  1.00E-02,  avg # of iterations =  7.3

     Threshold (ethr) on eigenvalues was too large:
     Diagonalizing with lowered threshold

     Davidson diagonalization with overlap
     ethr =  3.65E-04,  avg # of iterations =  4.7

     negative rho (up, down):  3.788E-01 0.000E+00
 
     Adding external electric field

     Computed dipole along edir(3) : 
        Dipole                0.0828 Ry au,          0.2105 Debye
        Dipole field          0.0002 Ry au
 
        Potential amp.       -0.0144 Ry
        Total length         46.9947 bohr
 

     total cpu time spent up to now is      155.7 secs

     total energy              =   -2093.58031872 Ry
     Harris-Foulkes estimate   =   -2093.68895456 Ry
     estimated scf accuracy    <       0.73507471 Ry

     iteration #  2     ecut=    36.75 Ry     beta=0.10
     Davidson diagonalization with overlap
     ethr =  4.22E-04,  avg # of iterations =  1.0

     negative rho (up, down):  3.790E-01 0.000E+00
 
     Adding external electric field

     Computed dipole along edir(3) : 
        Dipole               -0.2405 Ry au,         -0.6114 Debye
        Dipole field         -0.0004 Ry au
 
        Potential amp.        0.0419 Ry
        Total length         46.9947 bohr
 

     total cpu time spent up to now is      200.1 secs

     total energy              =   -2093.55713340 Ry
     Harris-Foulkes estimate   =   -2093.60767567 Ry
     estimated scf accuracy    <       0.31832675 Ry

     iteration #  3     ecut=    36.75 Ry     beta=0.10
     Davidson diagonalization with overlap
     ethr =  1.83E-04,  avg # of iterations =  4.9

     negative rho (up, down):  3.792E-01 0.000E+00
 
     Adding external electric field

     Computed dipole along edir(3) : 
        Dipole                0.0270 Ry au,          0.0686 Debye
        Dipole field          0.0001 Ry au
 
        Potential amp.       -0.0047 Ry
        Total length         46.9947 bohr
 

     total cpu time spent up to now is      256.7 secs

     total energy              =   -2093.54183844 Ry
     Harris-Foulkes estimate   =   -2093.58387010 Ry
     estimated scf accuracy    <       0.47792151 Ry

     iteration #  4     ecut=    36.75 Ry     beta=0.10
     Davidson diagonalization with overlap
     ethr =  1.83E-04,  avg # of iterations =  3.2

     negative rho (up, down):  3.814E-01 0.000E+00
 
     Adding external electric field

     Computed dipole along edir(3) : 
        Dipole                0.0179 Ry au,          0.0454 Debye
        Dipole field          0.0000 Ry au
 
        Potential amp.       -0.0031 Ry
        Total length         46.9947 bohr
 

     total cpu time spent up to now is      312.7 secs

     total energy              =   -2093.52543845 Ry
     Harris-Foulkes estimate   =   -2093.55684020 Ry
     estimated scf accuracy    <       0.08933131 Ry

     iteration #  5     ecut=    36.75 Ry     beta=0.10
     Davidson diagonalization with overlap
     ethr =  5.13E-05,  avg # of iterations =  5.2

     negative rho (up, down):  3.826E-01 0.000E+00
 
     Adding external electric field

     Computed dipole along edir(3) : 
        Dipole                0.0141 Ry au,          0.0359 Debye
        Dipole field          0.0000 Ry au
 
        Potential amp.       -0.0025 Ry
        Total length         46.9947 bohr
 

     total cpu time spent up to now is      377.8 secs

     total energy              =   -2093.53273121 Ry
     Harris-Foulkes estimate   =   -2093.53421258 Ry
     estimated scf accuracy    <       0.01318248 Ry

     iteration #  6     ecut=    36.75 Ry     beta=0.10
     Davidson diagonalization with overlap
     ethr =  7.58E-06,  avg # of iterations =  7.0

     negative rho (up, down):  3.858E-01 0.000E+00
 
     Adding external electric field

     Computed dipole along edir(3) : 
        Dipole                0.0115 Ry au,          0.0292 Debye
        Dipole field          0.0000 Ry au
 
        Potential amp.       -0.0020 Ry
        Total length         46.9947 bohr
 

     total cpu time spent up to now is      453.0 secs

     total energy              =   -2093.53480051 Ry
     Harris-Foulkes estimate   =   -2093.53498426 Ry
     estimated scf accuracy    <       0.00587036 Ry

     iteration #  7     ecut=    36.75 Ry     beta=0.10
     Davidson diagonalization with overlap
     ethr =  3.37E-06,  avg # of iterations =  2.8

     negative rho (up, down):  3.892E-01 0.000E+00
 
     Adding external electric field

     Computed dipole along edir(3) : 
        Dipole                0.0110 Ry au,          0.0278 Debye
        Dipole field          0.0000 Ry au
 
        Potential amp.       -0.0019 Ry
        Total length         46.9947 bohr
 

     total cpu time spent up to now is      506.9 secs

     total energy              =   -2093.53518730 Ry
     Harris-Foulkes estimate   =   -2093.53507601 Ry
     estimated scf accuracy    <       0.00243137 Ry

     iteration #  8     ecut=    36.75 Ry     beta=0.10
     Davidson diagonalization with overlap
     ethr =  1.40E-06,  avg # of iterations =  2.6

     negative rho (up, down):  3.913E-01 0.000E+00
 
     Adding external electric field

     Computed dipole along edir(3) : 
        Dipole                0.0114 Ry au,          0.0289 Debye
        Dipole field          0.0000 Ry au
 
        Potential amp.       -0.0020 Ry
        Total length         46.9947 bohr
 

     total cpu time spent up to now is      561.5 secs

     total energy              =   -2093.53553620 Ry
     Harris-Foulkes estimate   =   -2093.53533185 Ry
     estimated scf accuracy    <       0.00071247 Ry

     iteration #  9     ecut=    36.75 Ry     beta=0.10
     Davidson diagonalization with overlap
     ethr =  4.09E-07,  avg # of iterations =  3.5

     negative rho (up, down):  3.931E-01 0.000E+00
 
     Adding external electric field

     Computed dipole along edir(3) : 
        Dipole                0.0112 Ry au,          0.0284 Debye
        Dipole field          0.0000 Ry au
 
        Potential amp.       -0.0019 Ry
        Total length         46.9947 bohr
 

     total cpu time spent up to now is      618.2 secs

     total energy              =   -2093.53573884 Ry
     Harris-Foulkes estimate   =   -2093.53559495 Ry
     estimated scf accuracy    <       0.00026900 Ry

     iteration # 10     ecut=    36.75 Ry     beta=0.10
     Davidson diagonalization with overlap
     ethr =  1.55E-07,  avg # of iterations =  2.9

     negative rho (up, down):  3.935E-01 0.000E+00
 
     Adding external electric field

     Computed dipole along edir(3) : 
        Dipole                0.0125 Ry au,          0.0317 Debye
        Dipole field          0.0000 Ry au
 
        Potential amp.       -0.0022 Ry
        Total length         46.9947 bohr
 

     total cpu time spent up to now is      670.9 secs

     total energy              =   -2093.53588107 Ry
     Harris-Foulkes estimate   =   -2093.53577183 Ry
     estimated scf accuracy    <       0.00006037 Ry

     iteration # 11     ecut=    36.75 Ry     beta=0.10
     Davidson diagonalization with overlap
     ethr =  3.47E-08,  avg # of iterations =  4.4

     negative rho (up, down):  3.934E-01 0.000E+00
 
     Adding external electric field

     Computed dipole along edir(3) : 
        Dipole                0.0123 Ry au,          0.0314 Debye
        Dipole field          0.0000 Ry au
 
        Potential amp.       -0.0022 Ry
        Total length         46.9947 bohr
 

     total cpu time spent up to now is      747.5 secs

     total energy              =   -2093.53599534 Ry
     Harris-Foulkes estimate   =   -2093.53590102 Ry
     estimated scf accuracy    <       0.00001779 Ry

     iteration # 12     ecut=    36.75 Ry     beta=0.10
     Davidson diagonalization with overlap
     ethr =  1.02E-08,  avg # of iterations =  2.0

     negative rho (up, down):  3.937E-01 0.000E+00
 
     Adding external electric field

     Computed dipole along edir(3) : 
        Dipole                0.0117 Ry au,          0.0296 Debye
        Dipole field          0.0000 Ry au
 
        Potential amp.       -0.0020 Ry
        Total length         46.9947 bohr
 

     total cpu time spent up to now is      801.4 secs

     total energy              =   -2093.53607049 Ry
     Harris-Foulkes estimate   =   -2093.53599587 Ry
     estimated scf accuracy    <       0.00001377 Ry

     iteration # 13     ecut=    36.75 Ry     beta=0.10
     Davidson diagonalization with overlap
     ethr =  7.91E-09,  avg # of iterations =  2.8

     negative rho (up, down):  3.936E-01 0.000E+00
 
     Adding external electric field

     Computed dipole along edir(3) : 
        Dipole                0.0117 Ry au,          0.0299 Debye
        Dipole field          0.0000 Ry au
 
        Potential amp.       -0.0020 Ry
        Total length         46.9947 bohr
 

     total cpu time spent up to now is      860.5 secs

     total energy              =   -2093.53612891 Ry
     Harris-Foulkes estimate   =   -2093.53607326 Ry
     estimated scf accuracy    <       0.00000107 Ry

     iteration # 14     ecut=    36.75 Ry     beta=0.10
     Davidson diagonalization with overlap
     ethr =  6.17E-10,  avg # of iterations =  4.8

     negative rho (up, down):  3.926E-01 0.000E+00

     negative rho (up, down):  3.926E-01 0.000E+00

     negative rho (up, down):  3.926E-01 0.000E+00

     negative rho (up, down):  3.926E-01 0.000E+00

     negative rho (up, down):  3.926E-01 0.000E+00

     negative rho (up, down):  3.926E-01 0.000E+00

     negative rho (up, down):  3.926E-01 0.000E+00

     negative rho (up, down):  3.926E-01 0.000E+00

     negative rho (up, down):  3.926E-01 0.000E+00

     negative rho (up, down):  3.926E-01 0.000E+00

     negative rho (up, down):  3.926E-01 0.000E+00

     negative rho (up, down):  3.926E-01 0.000E+00

     negative rho (up, down):  3.926E-01 0.000E+00

     negative rho (up, down):  3.926E-01 0.000E+00

     negative rho (up, down):  3.926E-01 0.000E+00

     negative rho (up, down):  3.926E-01 0.000E+00

     negative rho (up, down):  3.926E-01 0.000E+00

     negative rho (up, down):  3.926E-01 0.000E+00

     negative rho (up, down):  3.926E-01 0.000E+00

     negative rho (up, down):  3.926E-01 0.000E+00

     negative rho (up, down):  3.926E-01 0.000E+00

     negative rho (up, down):  3.926E-01 0.000E+00

     negative rho (up, down):  3.926E-01 0.000E+00

     negative rho (up, down):  3.926E-01 0.000E+00

     negative rho (up, down):  3.926E-01 0.000E+00

     negative rho (up, down):  3.926E-01 0.000E+00

     negative rho (up, down):  3.926E-01 0.000E+00

     negative rho (up, down):  3.926E-01 0.000E+00

     negative rho (up, down):  3.926E-01 0.000E+00

     negative rho (up, down):  3.926E-01 0.000E+00

     negative rho (up, down):  3.926E-01 0.000E+00

     negative rho (up, down):  3.926E-01 0.000E+00

     negative rho (up, down):  3.926E-01 0.000E+00

     negative rho (up, down):  3.926E-01 0.000E+00

     negative rho (up, down):  3.926E-01 0.000E+00
 
     Adding external electric field

     Computed dipole along edir(3) : 
        Dipole                0.0130 Ry au,          0.0330 Debye
        Dipole field          0.0000 Ry au
 
        Potential amp.       -0.0023 Ry
        Total length         46.9947 bohr
 

     total cpu time spent up to now is     1012.9 secs

     End of self-consistent calculation

          k = 0.0000 0.0000 0.0000 ( 25557 PWs)   bands (ev):

   -48.5936 -48.5718 -48.5718 -48.2543 -48.2543 -48.2044 -48.2044 -48.1908
   -48.1275 -16.5261 -16.5044 -16.4912 -16.4912 -16.4661 -16.4448 -16.4448
   -16.4400 -16.3951 -16.3951 -16.3871 -16.3720 -16.3720 -16.3529 -16.3275
   -16.3275 -16.3265 -16.3172 -16.3172 -16.3115 -16.2349 -16.2345 -16.2307
   -16.2307 -16.2234 -16.2234 -16.2161 -16.2161 -16.2153 -16.1897 -16.1897
   -16.1512 -16.1512 -16.1503 -16.1503 -16.1462 -16.1462 -16.0918 -16.0918
   -16.0823 -16.0486 -16.0486 -16.0472 -16.0439 -16.0062  -9.9573  -8.9477
    -7.6651  -6.8356  -6.8356  -6.3101  -6.3101  -5.6436  -5.6436  -2.8797
    -2.3350  -1.9567  -1.6102  -1.6102  -1.4041  -1.1500  -1.1500  -0.7858
    -0.7858  -0.7747  -0.6705  -0.6705  -0.5664  -0.5618  -0.5618  -0.5181
    -0.5181  -0.4955  -0.4955  -0.4527  -0.4527  -0.3184   0.0624   0.0624
     0.2165   1.7916   1.9215   2.6662   2.9520   2.9520   3.1671   3.1671
     3.9849   4.3514   4.4287   4.5000   4.9224   5.2074   5.2074   5.5389
     5.7136   5.7296   5.8256   5.8256   6.6131   6.6818   6.6818   6.9750
     7.2473   7.2785   7.4604   7.4604   7.4744

[...]
    -1.8075  -1.7306  -1.5417  -1.4641  -1.3698  -1.2632  -1.2313  -1.1512
    -1.0800  -1.0158  -0.9380  -0.7938  -0.7164  -0.6698  -0.4732  -0.3200
    -0.2880   0.1281   0.1454   0.2881   0.7829   1.0315   1.1219   1.1507
     1.7528   1.8501   2.1353   2.2281   2.8168   3.1656   3.1893   3.2089
     3.5730   4.0607   4.1618   4.5238   4.6745   4.6855   4.9884   4.9913
     5.2763   5.5311   5.6012   5.6093   5.7615   5.8175   5.8706   5.9158
     5.9316   5.9914   6.4056   6.4210   6.4608

          k = 0.0494-0.0571 0.0000 ( 25514 PWs)   bands (ev):

   -48.5779 -48.5518 -48.5518 -48.5371 -48.5246 -48.5246 -48.1420 -48.1420
   -48.0471 -16.4594 -16.4229 -16.4152 -16.3846 -16.3780 -16.3672 -16.3539
   -16.3475 -16.3446 -16.3357 -16.3229 -16.3115 -16.3012 -16.2914 -16.2869
   -16.2793 -16.2727 -16.2700 -16.2572 -16.2555 -16.2488 -16.2454 -16.2411
   -16.2316 -16.2260 -16.2195 -16.2173 -16.2034 -16.1798 -16.1759 -16.1687
   -16.1587 -16.1550 -16.1427 -16.1326 -16.1260 -16.1233 -16.1188 -16.1040
   -16.0993 -16.0951 -16.0617 -16.0563 -16.0469 -16.0045  -9.2057  -8.6218
    -8.1156  -7.8243  -7.2323  -6.9014  -6.6239  -6.1608  -5.6991  -2.3540
    -1.9715  -1.6804  -1.5601  -1.4372  -1.3195  -1.2394  -1.2266  -1.1376
    -1.0757  -1.0052  -0.8148  -0.7448  -0.6619  -0.5371  -0.4928  -0.4064
    -0.3078  -0.2557   0.2230   0.3909   0.5232   1.0463   1.1448   1.2622
     1.6485   1.8313   1.9243   2.2442   2.5297   2.7415   3.2440   3.5127
     3.6077   3.8623   4.1164   4.5145   4.6496   4.8765   4.9854   5.1292
     5.2239   5.4270   5.5208   5.7426   5.7824   5.8211   5.9359   5.9907
     6.2431   6.4011   6.5037   6.5598   6.6578

          k = 0.0494-0.0285 0.0000 ( 25469 PWs)   bands (ev):

   -48.5779 -48.5518 -48.5518 -48.5371 -48.5246 -48.5246 -48.1420 -48.1420
   -48.0471 -16.4791 -16.4449 -16.4306 -16.4006 -16.3992 -16.3835 -16.3737
   -16.3546 -16.3522 -16.3406 -16.3306 -16.3217 -16.3129 -16.3034 -16.2976
   -16.2972 -16.2719 -16.2690 -16.2593 -16.2537 -16.2517 -16.2408 -16.2274
   -16.2254 -16.2159 -16.2107 -16.2061 -16.1970 -16.1958 -16.1714 -16.1687
   -16.1521 -16.1440 -16.1369 -16.1236 -16.1176 -16.1047 -16.0956 -16.0927
   -16.0861 -16.0705 -16.0537 -16.0489 -16.0386 -15.9849  -9.5195  -8.6281
    -8.0308  -7.3443  -7.1031  -7.0779  -6.3281  -6.3111  -5.5052  -2.5040
    -2.1201  -1.7435  -1.5345  -1.4949  -1.3656  -1.2590  -1.1678  -1.1591
    -1.0578  -1.0186  -0.8246  -0.7868  -0.6999  -0.5349  -0.4820  -0.4388
    -0.3723  -0.1456  -0.0190   0.1120   0.1984   0.4201   0.7663   1.1212
     1.3021   1.7544   2.1527   2.6542   2.9701   3.2185   3.3807   3.5974
     3.7114   3.7268   3.9640   4.2981   4.5338   4.6017   4.8674   4.9829
     5.1499   5.2203   5.5348   5.8388   5.8892   5.9705   6.0926   6.2520
     6.7545   6.8219   6.9292   7.1016   7.2730

          k = 0.0494 0.0000 0.0000 ( 25506 PWs)   bands (ev):

   -48.5779 -48.5518 -48.5518 -48.5371 -48.5246 -48.5246 -48.1420 -48.1420
   -48.0471 -16.4737 -16.4558 -16.4323 -16.4237 -16.4123 -16.3951 -16.3677
   -16.3629 -16.3591 -16.3501 -16.3376 -16.3284 -16.3190 -16.3090 -16.3056
   -16.2919 -16.2851 -16.2753 -16.2573 -16.2568 -16.2455 -16.2335 -16.2232
   -16.2190 -16.2165 -16.2086 -16.2010 -16.1941 -16.1861 -16.1760 -16.1653
   -16.1485 -16.1437 -16.1280 -16.1188 -16.1097 -16.1038 -16.0951 -16.0823
   -16.0709 -16.0642 -16.0557 -16.0379 -16.0060 -16.0039  -9.6292  -8.6736
    -7.7271  -7.6370  -7.0611  -6.6585  -6.6387  -5.9234  -5.6836  -2.1389
    -2.0796  -1.9028  -1.6201  -1.5229  -1.4599  -1.3165  -1.1784  -1.1274
    -1.0984  -0.9972  -0.8838  -0.8270  -0.6841  -0.6031  -0.5030  -0.4894
    -0.4032  -0.3433  -0.2633  -0.1831   0.2870   0.4374   0.5431   0.9488
     1.3215   1.9505   2.0691   2.7556   3.1282   3.1514   3.3906   3.4947
     3.6891   3.7419   4.5337   4.6160   4.7213   4.7849   4.8462   4.9142
     5.1224   5.3747   5.4039   5.7702   5.8236   5.9908   6.2876   6.4686
     6.5861   6.5981   6.7850   6.8315   7.0758

          k =-0.0741-0.0428 0.0000 ( 25506 PWs)   bands (ev):

   -48.5779 -48.5518 -48.5518 -48.5371 -48.5246 -48.5246 -48.1420 -48.1420
   -48.0471 -16.4746 -16.4401 -16.4034 -16.3874 -16.3734 -16.3533 -16.3478
   -16.3451 -16.3413 -16.3302 -16.3135 -16.3040 -16.2965 -16.2941 -16.2873
   -16.2732 -16.2722 -16.2690 -16.2626 -16.2609 -16.2562 -16.2489 -16.2373
   -16.2368 -16.2221 -16.2217 -16.2142 -16.2098 -16.1856 -16.1735 -16.1697
   -16.1606 -16.1576 -16.1380 -16.1350 -16.1247 -16.1179 -16.1152 -16.1142
   -16.1038 -16.0987 -16.0898 -16.0507 -16.0430 -15.9849  -9.1055  -8.8419
    -8.0899  -7.6413  -7.1375  -7.0470  -6.6424  -6.3292  -5.4658  -2.6508
    -2.2410  -1.7915  -1.5082  -1.3497  -1.3443  -1.2117  -1.2107  -1.0899
    -1.0825  -0.8961  -0.7927  -0.7545  -0.5796  -0.4763  -0.4117  -0.3695
    -0.2347   0.1086   0.2601   0.6409   0.7193   0.8227   0.8282   1.5648
     1.5850   1.7151   1.8251   2.2823   2.3757   2.6786   3.1073   3.2125
     3.2336   3.5528   4.2324   4.2550   4.5771   4.8724   5.0059   5.2172
     5.3788   5.3939   5.5544   5.8687   6.0394   6.0439   6.2158   6.3306
     6.3432   6.3613   6.5422   6.7404   6.7967

          k =-0.0741-0.0143 0.0000 ( 25514 PWs)   bands (ev):

   -48.5779 -48.5518 -48.5518 -48.5371 -48.5246 -48.5246 -48.1420 -48.1420
   -48.0471 -16.4594 -16.4229 -16.4152 -16.3846 -16.3780 -16.3672 -16.3539
   -16.3475 -16.3446 -16.3357 -16.3229 -16.3115 -16.3012 -16.2914 -16.2869
   -16.2793 -16.2727 -16.2700 -16.2572 -16.2555 -16.2488 -16.2454 -16.2411
   -16.2316 -16.2260 -16.2195 -16.2173 -16.2034 -16.1798 -16.1759 -16.1687
   -16.1587 -16.1550 -16.1427 -16.1326 -16.1260 -16.1233 -16.1188 -16.1040
   -16.0993 -16.0951 -16.0617 -16.0563 -16.0469 -16.0045  -9.2057  -8.6218
    -8.1156  -7.8243  -7.2324  -6.9014  -6.6239  -6.1608  -5.6991  -2.3540
    -1.9714  -1.6803  -1.5601  -1.4372  -1.3196  -1.2394  -1.2266  -1.1376
    -1.0757  -1.0052  -0.8148  -0.7448  -0.6619  -0.5371  -0.4928  -0.4064
    -0.3078  -0.2557   0.2230   0.3908   0.5232   1.0463   1.1448   1.2622
     1.6485   1.8313   1.9243   2.2441   2.5297   2.7415   3.2441   3.5127
     3.6077   3.8623   4.1164   4.5145   4.6496   4.8765   4.9854   5.1292
     5.2239   5.4270   5.5208   5.7426   5.7824   5.8211   5.9359   5.9907
     6.2432   6.4011   6.5037   6.5598   6.6578

          k =-0.0741 0.0143 0.0000 ( 25514 PWs)   bands (ev):

   -48.5779 -48.5518 -48.5518 -48.5371 -48.5246 -48.5246 -48.1420 -48.1420
   -48.0471 -16.4594 -16.4229 -16.4152 -16.3846 -16.3780 -16.3672 -16.3539
   -16.3475 -16.3446 -16.3357 -16.3229 -16.3115 -16.3012 -16.2914 -16.2869
   -16.2793 -16.2727 -16.2700 -16.2572 -16.2555 -16.2488 -16.2454 -16.2411
   -16.2316 -16.2260 -16.2195 -16.2173 -16.2034 -16.1798 -16.1759 -16.1687
   -16.1587 -16.1550 -16.1427 -16.1326 -16.1260 -16.1233 -16.1188 -16.1040
   -16.0993 -16.0951 -16.0617 -16.0563 -16.0469 -16.0045  -9.2057  -8.6218
    -8.1156  -7.8243  -7.2323  -6.9014  -6.6239  -6.1608  -5.6991  -2.3540
    -1.9714  -1.6803  -1.5601  -1.4372  -1.3196  -1.2395  -1.2266  -1.1376
    -1.0757  -1.0052  -0.8148  -0.7448  -0.6619  -0.5371  -0.4928  -0.4064
    -0.3078  -0.2557   0.2230   0.3909   0.5231   1.0463   1.1448   1.2622
     1.6485   1.8313   1.9243   2.2442   2.5296   2.7415   3.2440   3.5127
     3.6077   3.8624   4.1164   4.5144   4.6496   4.8765   4.9854   5.1292
     5.2239   5.4270   5.5208   5.7426   5.7824   5.8211   5.9359   5.9907
     6.2432   6.4011   6.5037   6.5598   6.6578

          k =-0.0741-0.1284 0.0000 ( 25506 PWs)   bands (ev):

   -48.5779 -48.5518 -48.5518 -48.5371 -48.5246 -48.5246 -48.1420 -48.1420
   -48.0471 -16.4746 -16.4401 -16.4034 -16.3874 -16.3734 -16.3533 -16.3478
   -16.3451 -16.3413 -16.3302 -16.3135 -16.3040 -16.2965 -16.2941 -16.2873
   -16.2732 -16.2722 -16.2690 -16.2626 -16.2609 -16.2562 -16.2489 -16.2373
   -16.2368 -16.2221 -16.2217 -16.2142 -16.2098 -16.1856 -16.1735 -16.1697
   -16.1606 -16.1576 -16.1380 -16.1350 -16.1247 -16.1179 -16.1152 -16.1142
   -16.1038 -16.0987 -16.0898 -16.0507 -16.0430 -15.9849  -9.1055  -8.8419
    -8.0899  -7.6413  -7.1375  -7.0469  -6.6424  -6.3292  -5.4659  -2.6508
    -2.2410  -1.7915  -1.5082  -1.3497  -1.3443  -1.2117  -1.2107  -1.0899
    -1.0825  -0.8961  -0.7927  -0.7545  -0.5796  -0.4763  -0.4117  -0.3695
    -0.2347   0.1086   0.2601   0.6409   0.7193   0.8227   0.8283   1.5648
     1.5851   1.7151   1.8251   2.2823   2.3757   2.6786   3.1073   3.2125
     3.2336   3.5529   4.2324   4.2550   4.5771   4.8724   5.0059   5.2172
     5.3788   5.3939   5.5544   5.8687   6.0393   6.0438   6.2158   6.3307
     6.3432   6.3614   6.5422   6.7404   6.7967

     the Fermi energy is     1.0085 ev

!    total energy              =   -2093.54955801 Ry
     Harris-Foulkes estimate   =   -2093.54946737 Ry
     estimated scf accuracy    <       0.00000096 Ry

     The total energy is the sum of the following terms:

     one-electron contribution =  -11058.97849532 Ry
     hartree contribution      =    5594.11814193 Ry
     xc contribution           =    -685.43799274 Ry
     ewald contribution        =    4056.78521517 Ry
     electric field correction =       0.00000743 Ry
     smearing contrib. (-TS)   =      -0.03643447 Ry

     convergence has been achieved in  14 iterations
 
 BEEF-vdW xc energy contributions
           1 :   -609.039445258063     
           2 :    564.310724431158     
           3 :   -486.082242163283     
           4 :    392.307860501910     
           5 :   -301.155249538517     
           6 :    225.370959181152     
           7 :   -169.562112775329     
           8 :    130.981466255915     
           9 :   -102.923537441970     
          10 :    78.8482201911046     
          11 :   -55.3114383354059     
          12 :    32.6276154504139     
          13 :   -13.4526221419505     
          14 :   0.447319961104768     
          15 :    5.57471418938758     
          16 :   -6.13075948700543     
          17 :    4.17058232990098     
          18 :   -2.51769855290934     
          19 :    2.59543375695841     
          20 :   -4.08380795610731     
          21 :    5.55459089794783     
          22 :   -5.59650136881783     
          23 :    3.73757982391396     
          24 :  -0.682392657440801     
          25 :   -2.17351886987819     
          26 :    3.58190498027204     
          27 :   -3.12048619252141     
          28 :    1.35042768528103     
          29 :   0.578462290127277     
          30 :   -1.60222434644118     
          31 :   -50.0909075287427     
          32 :   -36.7213311319081     

     Forces acting on atoms (Ry/au):


     negative rho (up, down):  3.922E-01 0.000E+00
     atom    1 type  1   force =    -0.00000401    0.01484445   -0.00296868
     atom    2 type  1   force =     0.01285909   -0.00742583   -0.00297001
     atom    3 type  1   force =    -0.01286475   -0.00742307   -0.00297167
     atom    4 type  2   force =     0.00000116    0.00000084    0.02127934
     atom    5 type  1   force =     0.00000218   -0.00579985   -0.00447309
     atom    6 type  1   force =    -0.00502347    0.00289968   -0.00447737
     atom    7 type  1   force =     0.00502550    0.00290536   -0.00447396
     atom    8 type  2   force =    -0.00000031    0.00000088    0.00134871
     atom    9 type  1   force =    -0.00000078   -0.00017501   -0.00050763
     atom   10 type  1   force =    -0.00014982    0.00008483   -0.00050964
     atom   11 type  1   force =     0.00015588    0.00008635   -0.00051070
     atom   12 type  2   force =    -0.00000066    0.00000136    0.00123471

     Total force =     0.036139     Total SCF correction =     0.003692
     SCF correction compared to forces is large: reduce conv_thr to get better values


     entering subroutine stress ...


     negative rho (up, down):  3.922E-01 0.000E+00
          total   stress  (Ry/bohr**3)                   (kbar)     P=   -4.25
  -0.00003803  -0.00000000  -0.00000000         -5.59     -0.00     -0.00
  -0.00000000  -0.00003803  -0.00000000         -0.00     -5.59     -0.00
  -0.00000000  -0.00000000  -0.00001062         -0.00     -0.00     -1.56

 !ASE

     Writing output data file calc.save
 
     init_run     :     11.19s CPU     17.91s WALL (       1 calls)
     electrons    :    528.69s CPU    815.93s WALL (       1 calls)
     forces       :      3.27s CPU      4.01s WALL (       1 calls)
     stress       :      7.43s CPU      8.96s WALL (       1 calls)

     Called by init_run:
     wfcinit      :      8.62s CPU     14.36s WALL (       1 calls)
     potinit      :      1.33s CPU      2.01s WALL (       1 calls)

     Called by electrons:
     c_bands      :    406.60s CPU    618.34s WALL (      15 calls)
     sum_band     :     63.67s CPU    108.06s WALL (      15 calls)
     v_of_rho     :     16.76s CPU     27.53s WALL (      15 calls)
     newd         :      4.82s CPU      5.04s WALL (      15 calls)
     mix_rho      :      0.66s CPU      1.04s WALL (      15 calls)
     vdW_energy   :      1.89s CPU      1.90s WALL (      51 calls)
     vdW_ffts     :     36.30s CPU     59.55s WALL (     104 calls)
     vdW_v        :      6.44s CPU      9.47s WALL (      51 calls)

     Called by c_bands:
     init_us_2    :      0.47s CPU      0.48s WALL (     660 calls)
     cegterg      :    399.64s CPU    609.47s WALL (     300 calls)

     Called by *egterg:
     h_psi        :    257.52s CPU    447.92s WALL (    1527 calls)
     s_psi        :      6.69s CPU      6.72s WALL (    1527 calls)
     g_psi        :      0.37s CPU      0.38s WALL (    1207 calls)
     cdiaghg      :     84.71s CPU     89.29s WALL (    1487 calls)

     Called by h_psi:
     add_vuspsi   :      6.88s CPU      6.95s WALL (    1527 calls)

     General routines
     calbec       :     17.78s CPU     22.71s WALL (    1867 calls)
     fft          :     54.12s CPU     88.16s WALL (    3097 calls)
     ffts         :      0.10s CPU      0.17s WALL (      30 calls)
     fftw         :    281.24s CPU    509.74s WALL (  198302 calls)
     interpolate  :      0.65s CPU      1.04s WALL (      30 calls)
     davcio       :      0.00s CPU      0.02s WALL (      20 calls)
 
     Parallel routines
     fft_scatter  :    313.17s CPU    574.44s WALL (  201429 calls)
 
     PWSCF        :  9m11.58s CPU    14m 8.63s WALL

 
   This run was terminated on:  17:37: 7  27Dec2018            

=------------------------------------------------------------------------------=
   JOB DONE.
=------------------------------------------------------------------------------=
Job  /afs/slac/g/suncat/bin/suncat-tsmpirun -x LD_LIBRARY_PATH -wdir /scratch/qe110402_Hy1XH pw.x -in pw.inp

TID   HOST_NAME   COMMAND_LINE            STATUS            TERMINATION_TIME
===== ========== ================  =======================  ===================
00000 suncat0083 pw.x -in pw.inp   Done                     12/27/2018 17:37:07
00001 suncat0083 pw.x -in pw.inp   Done                     12/27/2018 17:37:07
00002 suncat0083 pw.x -in pw.inp   Done                     12/27/2018 17:37:07
00003 suncat0083 pw.x -in pw.inp   Done                     12/27/2018 17:37:07
00004 suncat0083 pw.x -in pw.inp   Done                     12/27/2018 17:37:07
00005 suncat0083 pw.x -in pw.inp   Done                     12/27/2018 17:37:07
00006 suncat0083 pw.x -in pw.inp   Done                     12/27/2018 17:37:07
00007 suncat0083 pw.x -in pw.inp   Done                     12/27/2018 17:37:07
00008 suncat0081 pw.x -in pw.inp   Done                     12/27/2018 17:37:07
00009 suncat0081 pw.x -in pw.inp   Done                     12/27/2018 17:37:07
00010 suncat0081 pw.x -in pw.inp   Done                     12/27/2018 17:37:07
00011 suncat0081 pw.x -in pw.inp   Done                     12/27/2018 17:37:07
00012 suncat0081 pw.x -in pw.inp   Done                     12/27/2018 17:37:07
00013 suncat0081 pw.x -in pw.inp   Done                     12/27/2018 17:37:07
00014 suncat0081 pw.x -in pw.inp   Done                     12/27/2018 17:37:07
00015 suncat0081 pw.x -in pw.inp   Done                     12/27/2018 17:37:07
00016 suncat0079 pw.x -in pw.inp   Done                     12/27/2018 17:37:07
00017 suncat0079 pw.x -in pw.inp   Done                     12/27/2018 17:37:07
00018 suncat0079 pw.x -in pw.inp   Done                     12/27/2018 17:37:07
00019 suncat0079 pw.x -in pw.inp   Done                     12/27/2018 17:37:07
00020 suncat0079 pw.x -in pw.inp   Done                     12/27/2018 17:37:07
00021 suncat0079 pw.x -in pw.inp   Done                     12/27/2018 17:37:07
00022 suncat0079 pw.x -in pw.inp   Done                     12/27/2018 17:37:07
00023 suncat0079 pw.x -in pw.inp   Done                     12/27/2018 17:37:07
00024 suncat0076 pw.x -in pw.inp   Done                     12/27/2018 17:37:07
00025 suncat0076 pw.x -in pw.inp   Done                     12/27/2018 17:37:07
00026 suncat0076 pw.x -in pw.inp   Done                     12/27/2018 17:37:07
00027 suncat0076 pw.x -in pw.inp   Done                     12/27/2018 17:37:07
00028 suncat0076 pw.x -in pw.inp   Done                     12/27/2018 17:37:07
00029 suncat0076 pw.x -in pw.inp   Done                     12/27/2018 17:37:07
00030 suncat0076 pw.x -in pw.inp   Done                     12/27/2018 17:37:07
00031 suncat0076 pw.x -in pw.inp   Done                     12/27/2018 17:37:07
00032 suncat0064 pw.x -in pw.inp   Done                     12/27/2018 17:37:07
00033 suncat0064 pw.x -in pw.inp   Done                     12/27/2018 17:37:07
00034 suncat0064 pw.x -in pw.inp   Done                     12/27/2018 17:37:07
00035 suncat0064 pw.x -in pw.inp   Done                     12/27/2018 17:37:07
00036 suncat0064 pw.x -in pw.inp   Done                     12/27/2018 17:37:07
00037 suncat0064 pw.x -in pw.inp   Done                     12/27/2018 17:37:07
00038 suncat0064 pw.x -in pw.inp   Done                     12/27/2018 17:37:07
00039 suncat0064 pw.x -in pw.inp   Done                     12/27/2018 17:37:07
00040 suncat0129 pw.x -in pw.inp   Done                     12/27/2018 17:37:07
00041 suncat0129 pw.x -in pw.inp   Done                     12/27/2018 17:37:07
00042 suncat0129 pw.x -in pw.inp   Done                     12/27/2018 17:37:07
00043 suncat0129 pw.x -in pw.inp   Done                     12/27/2018 17:37:07
00044 suncat0129 pw.x -in pw.inp   Done                     12/27/2018 17:37:07
00045 suncat0129 pw.x -in pw.inp   Done                     12/27/2018 17:37:07
00046 suncat0129 pw.x -in pw.inp   Done                     12/27/2018 17:37:07
00047 suncat0129 pw.x -in pw.inp   Done                     12/27/2018 17:37:07
00048 suncat0254 pw.x -in pw.inp   Done                     12/27/2018 17:37:07
00049 suncat0254 pw.x -in pw.inp   Done                     12/27/2018 17:37:07
00050 suncat0254 pw.x -in pw.inp   Done                     12/27/2018 17:37:07
00051 suncat0254 pw.x -in pw.inp   Done                     12/27/2018 17:37:07
00052 suncat0254 pw.x -in pw.inp   Done                     12/27/2018 17:37:07
00053 suncat0254 pw.x -in pw.inp   Done                     12/27/2018 17:37:07
00054 suncat0254 pw.x -in pw.inp   Done                     12/27/2018 17:37:07
00055 suncat0254 pw.x -in pw.inp   Done                     12/27/2018 17:37:07
00056 suncat0253 pw.x -in pw.inp   Done                     12/27/2018 17:37:07
00057 suncat0253 pw.x -in pw.inp   Done                     12/27/2018 17:37:07
00058 suncat0253 pw.x -in pw.inp   Done                     12/27/2018 17:37:07
00059 suncat0253 pw.x -in pw.inp   Done                     12/27/2018 17:37:07
00060 suncat0253 pw.x -in pw.inp   Done                     12/27/2018 17:37:07
00061 suncat0253 pw.x -in pw.inp   Done                     12/27/2018 17:37:07
00062 suncat0253 pw.x -in pw.inp   Done                     12/27/2018 17:37:07
00063 suncat0253 pw.x -in pw.inp   Done                     12/27/2018 17:37:07
