  python dir          : /u/if/mamunm/src/espresso
  espresso dir        : /nfs/slac/g/suncatfs/sw/espv18/espresso-dynpy-beef/bin
  pseudo dir          : /afs/slac.stanford.edu/u/if/mamunm/psp/gbrv1.5pbe
  ase-espresso py git : GITVERSION



     Program PWSCF v.5.1rc2 (svn rev. 11289) starts on 31Dec2018 at 23:14: 7 

     This program is part of the open-source Quantum ESPRESSO suite
     for quantum simulation of materials; please cite
         "P. Giannozzi et al., J. Phys.:Condens. Matter 21 395502 (2009);
          URL http://www.quantum-espresso.org", 
     in publications or presentations arising from this work. More details at
     http://www.quantum-espresso.org/quote

     Parallel version (MPI), running on    64 processors
     R & G space division:  proc/nbgrp/npool/nimage =      64
     Reading input from pw.inp
     Message from routine read_cards :
     DEPRECATED: no units specified in CELL_PARAMETERS card

     Current dimensions of program PWSCF are:
     Max number of different atomic species (ntypx) = 10
     Max number of k-points (npk) =  40000
     Max angular momentum in pseudopotentials (lmaxx) =  3
     Presently stress not available with electric field


     **************************************************************************
     Initializing libbeef V0.1.1 with the BEEF-vdW functional.
     Citation: Wellendorff et al., PRB 85, 235149 (2012).
     **************************************************************************


     IMPORTANT: XC functional enforced from input :
     Exchange-correlation      = BEEF-VDW ( 1  4 27 13 2)
     Any further DFT definition will be discarded
     Please, verify this is what you really want


     Subspace diagonalization in iterative solution of the eigenvalue problem:
     a serial algorithm will be used

 
     Parallelization info
     --------------------
     sticks:   dense  smooth     PW     G-vecs:    dense   smooth      PW
     Min          45      18      5                 8739     2204     357
     Max          46      19      6                 8778     2245     376
     Sum        2941    1177    361               560949   142007   23391
 


     bravais-lattice index     =            0
     lattice parameter (alat)  =       1.8897  a.u.
     unit-cell volume          =    4719.6290 (a.u.)^3
     number of atoms/cell      =           12
     number of atomic types    =            2
     number of electrons       =       177.00
     number of Kohn-Sham states=          118
     kinetic-energy cutoff     =      36.7493  Ry
     charge density cutoff     =     367.4932  Ry
     convergence threshold     =      1.0E-06
     mixing beta               =       0.1000
     number of iterations used =           10  plain     mixing
     Exchange-correlation      = BEEF-VDW ( 1  4 27 13 2)
     nstep                     =           50


     celldm(1)=   1.889726  celldm(2)=   0.000000  celldm(3)=   0.000000
     celldm(4)=   0.000000  celldm(5)=   0.000000  celldm(6)=   0.000000

     crystal axes: (cart. coord. in units of alat)
               a(1) = (   5.721282   0.000000   0.000000 )  
               a(2) = (  -2.860641   4.954776   0.000000 )  
               a(3) = (   0.000000   0.000000  24.671407 )  

     reciprocal axes: (cart. coord. in units 2 pi/alat)
               b(1) = (  0.174786  0.100913  0.000000 )  
               b(2) = (  0.000000  0.201825  0.000000 )  
               b(3) = (  0.000000  0.000000  0.040533 )  


     PseudoPot. # 1 for Rh read from file:
     /afs/slac.stanford.edu/u/if/mamunm/psp/gbrv1.5pbe/Rh.UPF
     MD5 check sum: 761627e959a2e3a1f56b0b5fe687810e
     Pseudo is Ultrasoft + core correction, Zval = 15.0
     Generated by new atomic code, or converted to UPF format
     Using radial grid of  969 points,  7 beta functions with: 
                l(1) =   0
                l(2) =   0
                l(3) =   1
                l(4) =   1
                l(5) =   2
                l(6) =   2
                l(7) =   2
     Q(r) pseudized with  8 coefficients,  rinner =    1.200   1.200   1.200
                                                       1.200   1.200

     PseudoPot. # 2 for Pb read from file:
     /afs/slac.stanford.edu/u/if/mamunm/psp/gbrv1.5pbe/Pb.UPF
     MD5 check sum: 3d1c1779aa92214d1e8f3a7db79003e2
     Pseudo is Ultrasoft + core correction, Zval = 14.0
     Generated by new atomic code, or converted to UPF format
     Using radial grid of  899 points,  6 beta functions with: 
                l(1) =   0
                l(2) =   0
                l(3) =   1
                l(4) =   1
                l(5) =   2
                l(6) =   2
     Q(r) pseudized with  6 coefficients,  rinner =    1.000   1.000   1.000
                                                       1.000   1.000

     vdW kernel table read from file vdW_kernel_table
     MD5 check sum: 095c7af220d748ca6e76c0b4c6cfb241

     atomic species   valence    mass     pseudopotential
        Rh1           15.00   102.90550     Rh( 1.00)
        Pb1           14.00   207.20000     Pb( 1.00)

     No symmetry found



   Cartesian axes

     site n.     atom                  positions (alat units)
         1           Rh1 tau(   1) = (   0.0000000   0.0000000  10.0000000  )
         2           Rh1 tau(   2) = (  -1.4303205   2.4773878  10.0000000  )
         3           Rh1 tau(   3) = (   1.4303205   2.4773878  10.0000000  )
         4           Pb1 tau(   4) = (   2.8606410   0.0000000  10.0000000  )
         5           Rh1 tau(   5) = (   2.8606410   1.6515918  12.3357036  )
         6           Rh1 tau(   6) = (   1.4303205   4.1289796  12.3357036  )
         7           Rh1 tau(   7) = (  -1.4303205   4.1289796  12.3357036  )
         8           Pb1 tau(   8) = (   0.0000000   1.6515918  12.3357036  )
         9           Rh1 tau(   9) = (  -0.0000000   3.3031837  14.6714072  )
        10           Rh1 tau(  10) = (   1.4303205   0.8257959  14.6714072  )
        11           Rh1 tau(  11) = (   4.2909615   0.8257959  14.6714072  )
        12           Pb1 tau(  12) = (   2.8606410   3.3031837  14.6714072  )

     number of k points=    20  Fermi-Dirac smearing, width (Ry)=  0.0110
                       cart. coord. in units 2pi/alat
        k(    1) = (   0.0000000   0.0000000   0.0000000), wk =   0.0555556
        k(    2) = (   0.0000000   0.0336376   0.0000000), wk =   0.1111111
        k(    3) = (   0.0000000   0.0672752   0.0000000), wk =   0.1111111
        k(    4) = (   0.0000000  -0.1009127   0.0000000), wk =   0.0555556
        k(    5) = (   0.0291310   0.0168188   0.0000000), wk =   0.1111111
        k(    6) = (   0.0291310   0.0504564   0.0000000), wk =   0.1111111
        k(    7) = (   0.0291310   0.0840940   0.0000000), wk =   0.1111111
        k(    8) = (   0.0291310  -0.0840940   0.0000000), wk =   0.1111111
        k(    9) = (   0.0291310  -0.0504564   0.0000000), wk =   0.1111111
        k(   10) = (   0.0291310  -0.0168188   0.0000000), wk =   0.1111111
        k(   11) = (   0.0582620   0.0336376   0.0000000), wk =   0.1111111
        k(   12) = (   0.0582620   0.0672752   0.0000000), wk =   0.1111111
        k(   13) = (   0.0582620   0.1009127   0.0000000), wk =   0.1111111
        k(   14) = (   0.0582620  -0.0672752   0.0000000), wk =   0.1111111
        k(   15) = (   0.0582620  -0.0336376   0.0000000), wk =   0.1111111
        k(   16) = (   0.0582620   0.0000000   0.0000000), wk =   0.1111111
        k(   17) = (  -0.0873930  -0.0504564   0.0000000), wk =   0.0555556
        k(   18) = (  -0.0873930  -0.0168188   0.0000000), wk =   0.1111111
        k(   19) = (  -0.0873930   0.0168188   0.0000000), wk =   0.1111111
        k(   20) = (  -0.0873930  -0.1513691   0.0000000), wk =   0.0555556

     Dense  grid:   560949 G-vectors     FFT dimensions: (  72,  72, 288)

     Smooth grid:   142007 G-vectors     FFT dimensions: (  45,  45, 180)

     Largest allocated arrays     est. size (Mb)     dimensions
        Kohn-Sham Wavefunctions         0.53 Mb     (     295,  118)
        NL pseudopotentials             1.17 Mb     (     295,  261)
        Each V/rho on FFT grid          0.40 Mb     (   25920)
        Each G-vector array             0.07 Mb     (    8772)
        G-vector shells                 0.03 Mb     (    4385)
     Largest temporary arrays     est. size (Mb)     dimensions
        Auxiliary wavefunctions         2.12 Mb     (     295,  472)
        Each subspace H/S matrix        3.40 Mb     (     472,  472)
        Each <psi_i|beta_j> matrix      0.47 Mb     (     261,  118)
        Arrays for rho mixing           3.96 Mb     (   25920,   10)

     Initial potential from superposition of free atoms
     Check: negative starting charge=   -0.541210

     starting charge  172.49206, renormalised to  177.00000

     negative rho (up, down):  5.554E-01 0.000E+00


     ************************************************************************
     *
     * You are using vdW-DF for exchange-correlation in this calculation.
     * Please cite the following three references that made this development
     * possible:
     *
     *   M. Dion, H. Rydberg, E. Schroder, D. C. Langreth, and
     *   B. I. Lundqvist, Phys. Rev. Lett. 92, 246401 (2004).
     *
     *   T. Thonhauser, V. R. Cooper, S. Li, A. Puzder, P. Hyldgaard, and
     *   D. C. Langreth, Phys. Rev. B 76, 125112 (2007).
     *
     *   G. Roman-Perez and J. M. Soler, Phys. Rev. Lett. 103, 096102 (2009).
     *
     *
     * If you are using vdW-DF2, please also cite:
     *
     *   K. Lee, E. D. Murray, L. Kong, B. I. Lundqvist, and
     *   D. C. Langreth, Phys. Rev. B 82, 081101(R) (2010).
     *
     *
     * If you are calculating the stress with vdW-DF, please also cite:
     *
     *   R. Sabatini, E. Kucukbenli, B. Kolb, T. Thonhauser, and
     *   S. de Gironcoli, J. Phys.: Condens. Matter 24, 424209 (2012).
     *
     ************************************************************************

     Carrying out vdW-DF run using the following parameters:

     Nqs =      20    Nr_points =    1024   r_max =   100.000
     q_mesh =
               0.00001000     0.04494208     0.09755937     0.15916263
               0.23128650     0.31572767     0.41458969     0.53033537
               0.66584808     0.82450364     1.01025438     1.22772762
               1.48234092     1.78043706     2.12944203     2.53805004
               3.01644009     3.57652955     4.23227104     5.00000000

     Gradients computed in reciprocal space

     ************************************************************************


 
     Adding external electric field

     Computed dipole along edir(3) : 
        Dipole               -0.0000 Ry au,         -0.0000 Debye
        Dipole field         -0.0000 Ry au
 
        Potential amp.        0.0000 Ry
        Total length         45.4566 bohr
 
     Starting wfc are  135 randomized atomic wfcs

     total cpu time spent up to now is       23.7 secs

     per-process dynamical memory:    40.0 Mb

     Self-consistent Calculation

     iteration #  1     ecut=    36.75 Ry     beta=0.10
     Davidson diagonalization with overlap
     ethr =  1.00E-02,  avg # of iterations =  7.5

     negative rho (up, down):  5.561E-01 0.000E+00
 
     Adding external electric field

     Computed dipole along edir(3) : 
        Dipole               -0.0002 Ry au,         -0.0004 Debye
        Dipole field         -0.0000 Ry au
 
        Potential amp.        0.0000 Ry
        Total length         45.4566 bohr
 

     total cpu time spent up to now is      104.8 secs

     total energy              =   -2048.16848461 Ry
     Harris-Foulkes estimate   =   -2048.44613870 Ry
     estimated scf accuracy    <       1.91201033 Ry

     iteration #  2     ecut=    36.75 Ry     beta=0.10
     Davidson diagonalization with overlap
     ethr =  1.08E-03,  avg # of iterations =  1.1

     negative rho (up, down):  5.580E-01 0.000E+00
 
     Adding external electric field

     Computed dipole along edir(3) : 
        Dipole                0.0029 Ry au,          0.0073 Debye
        Dipole field          0.0000 Ry au
 
        Potential amp.       -0.0007 Ry
        Total length         45.4566 bohr
 

     total cpu time spent up to now is      157.7 secs

     total energy              =   -2047.69633855 Ry
     Harris-Foulkes estimate   =   -2048.20342859 Ry
     estimated scf accuracy    <       1.14353473 Ry

     iteration #  3     ecut=    36.75 Ry     beta=0.10
     Davidson diagonalization with overlap
     ethr =  6.46E-04,  avg # of iterations =  2.0

     negative rho (up, down):  5.576E-01 0.000E+00
 
     Adding external electric field

     Computed dipole along edir(3) : 
        Dipole               -0.0104 Ry au,         -0.0263 Debye
        Dipole field         -0.0000 Ry au
 
        Potential amp.        0.0025 Ry
        Total length         45.4566 bohr
 

     total cpu time spent up to now is      221.2 secs

     total energy              =   -2047.84942976 Ry
     Harris-Foulkes estimate   =   -2047.87835839 Ry
     estimated scf accuracy    <       0.27250265 Ry

     iteration #  4     ecut=    36.75 Ry     beta=0.10
     Davidson diagonalization with overlap
     ethr =  1.54E-04,  avg # of iterations =  1.4

     negative rho (up, down):  5.567E-01 0.000E+00
 
     Adding external electric field

     Computed dipole along edir(3) : 
        Dipole                0.1208 Ry au,          0.3071 Debye
        Dipole field          0.0003 Ry au
 
        Potential amp.       -0.0292 Ry
        Total length         45.4566 bohr
 

     total cpu time spent up to now is      282.4 secs

     total energy              =   -2047.83868068 Ry
     Harris-Foulkes estimate   =   -2047.86041779 Ry
     estimated scf accuracy    <       0.10001320 Ry

     iteration #  5     ecut=    36.75 Ry     beta=0.10
     Davidson diagonalization with overlap
     ethr =  5.65E-05,  avg # of iterations =  6.2

     negative rho (up, down):  5.562E-01 0.000E+00
 
     Adding external electric field

     Computed dipole along edir(3) : 
        Dipole               -0.0080 Ry au,         -0.0202 Debye
        Dipole field         -0.0000 Ry au
 
        Potential amp.        0.0019 Ry
        Total length         45.4566 bohr
 

     total cpu time spent up to now is      352.3 secs

     total energy              =   -2047.82564069 Ry
     Harris-Foulkes estimate   =   -2047.86373518 Ry
     estimated scf accuracy    <       1.50944163 Ry

     iteration #  6     ecut=    36.75 Ry     beta=0.10
     Davidson diagonalization with overlap
     ethr =  5.65E-05,  avg # of iterations =  3.5

     negative rho (up, down):  5.567E-01 0.000E+00
 
     Adding external electric field

     Computed dipole along edir(3) : 
        Dipole               -0.0006 Ry au,         -0.0014 Debye
        Dipole field         -0.0000 Ry au
 
        Potential amp.        0.0001 Ry
        Total length         45.4566 bohr
 

     total cpu time spent up to now is      409.5 secs

     total energy              =   -2047.83230144 Ry
     Harris-Foulkes estimate   =   -2047.84507202 Ry
     estimated scf accuracy    <       0.03885569 Ry

     iteration #  7     ecut=    36.75 Ry     beta=0.10
     Davidson diagonalization with overlap
     ethr =  2.20E-05,  avg # of iterations =  2.0

     negative rho (up, down):  5.570E-01 0.000E+00
 
     Adding external electric field

     Computed dipole along edir(3) : 
        Dipole               -0.0001 Ry au,         -0.0004 Debye
        Dipole field         -0.0000 Ry au
 
        Potential amp.        0.0000 Ry
        Total length         45.4566 bohr
 

     total cpu time spent up to now is      478.8 secs

     total energy              =   -2047.83508827 Ry
     Harris-Foulkes estimate   =   -2047.83980973 Ry
     estimated scf accuracy    <       0.01086630 Ry

     iteration #  8     ecut=    36.75 Ry     beta=0.10
     Davidson diagonalization with overlap
     ethr =  6.14E-06,  avg # of iterations =  5.8

     negative rho (up, down):  5.578E-01 0.000E+00
 
     Adding external electric field

     Computed dipole along edir(3) : 
        Dipole                0.0003 Ry au,          0.0008 Debye
        Dipole field          0.0000 Ry au
 
        Potential amp.       -0.0001 Ry
        Total length         45.4566 bohr
 

     total cpu time spent up to now is      557.3 secs

     total energy              =   -2047.83728587 Ry
     Harris-Foulkes estimate   =   -2047.83890974 Ry
     estimated scf accuracy    <       0.00612935 Ry

     iteration #  9     ecut=    36.75 Ry     beta=0.10
     Davidson diagonalization with overlap
     ethr =  3.46E-06,  avg # of iterations =  2.4

     negative rho (up, down):  5.584E-01 0.000E+00
 
     Adding external electric field

     Computed dipole along edir(3) : 
        Dipole                0.0003 Ry au,          0.0007 Debye
        Dipole field          0.0000 Ry au
 
        Potential amp.       -0.0001 Ry
        Total length         45.4566 bohr
 

     total cpu time spent up to now is      614.6 secs

     total energy              =   -2047.83565744 Ry
     Harris-Foulkes estimate   =   -2047.83759520 Ry
     estimated scf accuracy    <       0.00161273 Ry

     iteration # 10     ecut=    36.75 Ry     beta=0.10
     Davidson diagonalization with overlap
     ethr =  9.11E-07,  avg # of iterations =  5.4

     negative rho (up, down):  5.587E-01 0.000E+00
 
     Adding external electric field

     Computed dipole along edir(3) : 
        Dipole               -0.0001 Ry au,         -0.0003 Debye
        Dipole field         -0.0000 Ry au
 
        Potential amp.        0.0000 Ry
        Total length         45.4566 bohr
 

     total cpu time spent up to now is      697.9 secs

     total energy              =   -2047.83622115 Ry
     Harris-Foulkes estimate   =   -2047.83610907 Ry
     estimated scf accuracy    <       0.00043869 Ry

     iteration # 11     ecut=    36.75 Ry     beta=0.10
     Davidson diagonalization with overlap
     ethr =  2.48E-07,  avg # of iterations =  2.1

     negative rho (up, down):  5.590E-01 0.000E+00
 
     Adding external electric field

     Computed dipole along edir(3) : 
        Dipole               -0.0003 Ry au,         -0.0008 Debye
        Dipole field         -0.0000 Ry au
 
        Potential amp.        0.0001 Ry
        Total length         45.4566 bohr
 

     total cpu time spent up to now is      763.0 secs

     total energy              =   -2047.83604149 Ry
     Harris-Foulkes estimate   =   -2047.83627200 Ry
     estimated scf accuracy    <       0.00078224 Ry

     iteration # 12     ecut=    36.75 Ry     beta=0.10
     Davidson diagonalization with overlap
     ethr =  2.48E-07,  avg # of iterations =  2.0

     negative rho (up, down):  5.590E-01 0.000E+00
 
     Adding external electric field

     Computed dipole along edir(3) : 
        Dipole               -0.0002 Ry au,         -0.0004 Debye
        Dipole field         -0.0000 Ry au
 
        Potential amp.        0.0000 Ry
        Total length         45.4566 bohr
 

     total cpu time spent up to now is      831.3 secs

     total energy              =   -2047.83606027 Ry
     Harris-Foulkes estimate   =   -2047.83610274 Ry
     estimated scf accuracy    <       0.00010797 Ry

     iteration # 13     ecut=    36.75 Ry     beta=0.10
     Davidson diagonalization with overlap
     ethr =  6.10E-08,  avg # of iterations =  2.2

     negative rho (up, down):  5.593E-01 0.000E+00
 
     Adding external electric field

     Computed dipole along edir(3) : 
        Dipole                0.0001 Ry au,          0.0004 Debye
        Dipole field          0.0000 Ry au
 
        Potential amp.       -0.0000 Ry
        Total length         45.4566 bohr
 

     total cpu time spent up to now is      898.3 secs

     total energy              =   -2047.83607683 Ry
     Harris-Foulkes estimate   =   -2047.83607965 Ry
     estimated scf accuracy    <       0.00001600 Ry

     iteration # 14     ecut=    36.75 Ry     beta=0.10
     Davidson diagonalization with overlap
     ethr =  9.04E-09,  avg # of iterations =  4.8

     negative rho (up, down):  5.592E-01 0.000E+00
 
     Adding external electric field

     Computed dipole along edir(3) : 
        Dipole                0.0001 Ry au,          0.0002 Debye
        Dipole field          0.0000 Ry au
 
        Potential amp.       -0.0000 Ry
        Total length         45.4566 bohr
 

     total cpu time spent up to now is      970.3 secs

     total energy              =   -2047.83607427 Ry
     Harris-Foulkes estimate   =   -2047.83607949 Ry
     estimated scf accuracy    <       0.00000192 Ry

     iteration # 15     ecut=    36.75 Ry     beta=0.10
     Davidson diagonalization with overlap
     ethr =  1.09E-09,  avg # of iterations =  5.5

     negative rho (up, down):  5.592E-01 0.000E+00
 
     Adding external electric field

     Computed dipole along edir(3) : 
        Dipole                0.0000 Ry au,          0.0000 Debye
        Dipole field          0.0000 Ry au
 
        Potential amp.       -0.0000 Ry
        Total length         45.4566 bohr
 

     total cpu time spent up to now is     1045.7 secs

     total energy              =   -2047.83606708 Ry
     Harris-Foulkes estimate   =   -2047.83607465 Ry
     estimated scf accuracy    <       0.00000103 Ry

     iteration # 16     ecut=    36.75 Ry     beta=0.10
     Davidson diagonalization with overlap
     ethr =  5.80E-10,  avg # of iterations =  2.4

     negative rho (up, down):  5.589E-01 0.000E+00

     negative rho (up, down):  5.589E-01 0.000E+00

     negative rho (up, down):  5.589E-01 0.000E+00

     negative rho (up, down):  5.589E-01 0.000E+00

     negative rho (up, down):  5.589E-01 0.000E+00

     negative rho (up, down):  5.589E-01 0.000E+00

     negative rho (up, down):  5.589E-01 0.000E+00

     negative rho (up, down):  5.589E-01 0.000E+00

     negative rho (up, down):  5.589E-01 0.000E+00

     negative rho (up, down):  5.589E-01 0.000E+00

     negative rho (up, down):  5.589E-01 0.000E+00

     negative rho (up, down):  5.589E-01 0.000E+00

     negative rho (up, down):  5.589E-01 0.000E+00

     negative rho (up, down):  5.589E-01 0.000E+00

     negative rho (up, down):  5.589E-01 0.000E+00

     negative rho (up, down):  5.589E-01 0.000E+00

     negative rho (up, down):  5.589E-01 0.000E+00

     negative rho (up, down):  5.589E-01 0.000E+00

     negative rho (up, down):  5.589E-01 0.000E+00

     negative rho (up, down):  5.589E-01 0.000E+00

     negative rho (up, down):  5.589E-01 0.000E+00

     negative rho (up, down):  5.589E-01 0.000E+00

     negative rho (up, down):  5.589E-01 0.000E+00

     negative rho (up, down):  5.589E-01 0.000E+00

     negative rho (up, down):  5.589E-01 0.000E+00

     negative rho (up, down):  5.589E-01 0.000E+00

     negative rho (up, down):  5.589E-01 0.000E+00

     negative rho (up, down):  5.589E-01 0.000E+00

     negative rho (up, down):  5.589E-01 0.000E+00

     negative rho (up, down):  5.589E-01 0.000E+00

     negative rho (up, down):  5.589E-01 0.000E+00

     negative rho (up, down):  5.589E-01 0.000E+00

     negative rho (up, down):  5.589E-01 0.000E+00

     negative rho (up, down):  5.589E-01 0.000E+00

     negative rho (up, down):  5.589E-01 0.000E+00
 
     Adding external electric field

     Computed dipole along edir(3) : 
        Dipole               -0.0002 Ry au,         -0.0006 Debye
        Dipole field         -0.0000 Ry au
 
        Potential amp.        0.0001 Ry
        Total length         45.4566 bohr
 

     total cpu time spent up to now is     1162.7 secs

     End of self-consistent calculation

          k = 0.0000 0.0000 0.0000 ( 17825 PWs)   bands (ev):

   -44.5911 -44.5691 -44.5690 -44.5477 -44.5156 -44.5156 -44.4433 -44.3325
   -44.3282 -44.3281 -44.3248 -44.2291 -44.2291 -44.2155 -44.2155 -44.0983
   -44.0936 -44.0908 -44.0768 -44.0741 -44.0741 -44.0670 -44.0670 -44.0592
   -44.0592 -44.0540 -44.0540 -15.4750 -15.4750 -15.4628 -15.4352 -15.4352
   -15.2193 -15.2052 -15.1839 -15.1839 -15.1735 -15.1735 -15.1546 -15.1546
   -15.1541 -15.1541  -8.5821  -7.3870  -7.2021  -2.7973  -2.5963  -2.4214
    -1.9261  -1.9261  -1.7750  -1.7103  -1.7103  -1.6432  -1.6432  -1.4635
    -1.4635  -1.4467  -0.9876  -0.9876  -0.7285  -0.6190  -0.6190  -0.4463
    -0.2526  -0.0457  -0.0457   0.0451   0.0451   0.1329   0.6416   0.6416
     0.7967   0.8863   0.8863   0.9196   0.9293   0.9835   0.9835   1.1497
     1.1497   1.2649   1.2649   1.3083   1.3083   1.4587   1.4587   1.8358
     1.9640   1.9640   2.1873   2.2073   2.4355   2.4738   2.5120   3.0870
     3.0870   3.1119   3.1119   3.3389   3.5664   4.3961   5.4225   5.9147
     6.0208   6.4788   7.3302   7.5577   7.5577   7.7646   7.7646   8.0696
     8.3840   8.3840   8.6323   8.8082   9.7005  10.0542

          k = 0.0000 0.0336 0.0000 ( 17770 PWs)   bands (ev):

   -44.5808 -44.5654 -44.5601 -44.5433 -44.5177 -44.5149 -44.4496 -44.3447
   -44.3308 -44.3189 -44.3121 -44.2266 -44.2193 -44.2145 -44.2072 -44.0997
   -44.0975 -44.0957 -44.0836 -44.0807 -44.0753 -44.0742 -44.0693 -44.0670
   -44.0609 -44.0577 -44.0551 -15.4717 -15.4666 -15.4581 -15.4339 -15.4322
   -15.2150 -15.2028 -15.1800 -15.1795 -15.1700 -15.1660 -15.1565 -15.1545
   -15.1510 -15.1488  -8.4332  -7.2902  -7.1492  -2.7078  -2.6102  -2.3675
    -2.1568  -2.1009  -1.8170  -1.7680  -1.6799  -1.6729  -1.6092  -1.4132
    -1.3246  -1.2617  -1.1498  -0.9841  -0.8111  -0.6479  -0.5345  -0.5098
    -0.4204  -0.2133  -0.0798  -0.0176   0.0134   0.0383   0.1838   0.3895
     0.4374   0.5445   0.6656   0.7211   0.8581   0.9533   0.9568   1.0353
     1.1808   1.3232   1.3446   1.3679   1.4826   1.4968   1.6351   1.6673
     1.7678   1.8967   1.9115   2.0090   2.2475   2.2807   2.6702   3.0234
     3.2274   3.7228   3.7439   3.8221   4.5006   4.7875   5.1516   5.9731
     6.1723   6.6136   7.3636   7.4935   7.6011   7.8264   7.8588   8.3811
     8.5278   8.5574   8.6321   9.3592   9.6986   9.7980

          k = 0.0000 0.0673 0.0000 ( 17780 PWs)   bands (ev):

   -44.5745 -44.5473 -44.5365 -44.5246 -44.5180 -44.5138 -44.4689 -44.3884
   -44.3360 -44.2896 -44.2828 -44.2138 -44.2064 -44.1927 -44.1847 -44.1227
   -44.1217 -44.1213 -44.1202 -44.0886 -44.0771 -44.0747 -44.0722 -44.0717
   -44.0623 -44.0618 -44.0570 -15.4679 -15.4506 -15.4461 -15.4305 -15.4258
   -15.2071 -15.2002 -15.1747 -15.1712 -15.1638 -15.1564 -15.1537 -15.1492
   -15.1442 -15.1387  -8.0461  -7.1486  -7.0208  -3.1628  -2.6614  -2.4292
    -2.3680  -2.0577  -1.9150  -1.7592  -1.6220  -1.6024  -1.5534  -1.3415
    -1.2998  -1.2070  -1.0614  -1.0491  -0.8251  -0.7857  -0.6957  -0.6779
    -0.4889  -0.3470  -0.3210  -0.1389   0.0378   0.1028   0.1137   0.1572
     0.2809   0.3755   0.5033   0.5533   0.6327   0.6909   0.7247   0.8315
     0.8480   1.0957   1.1297   1.1398   1.2189   1.2363   1.2932   1.4826
     1.5563   1.6387   1.8829   2.0127   2.2211   2.6128   3.1984   3.2213
     3.5555   3.5711   4.3564   4.5912   5.2101   5.7698   5.9428   6.5355
     6.6705   7.0780   7.2139   7.4710   7.8714   8.0346   8.1537   8.1805
     8.6348   8.7548   8.8159   8.9862   9.2685   9.7977

          k = 0.0000-0.1009 0.0000 ( 17748 PWs)   bands (ev):

   -44.5740 -44.5385 -44.5301 -44.5149 -44.5124 -44.4891 -44.4817 -44.4290
   -44.3385 -44.2747 -44.2662 -44.1792 -44.1780 -44.1723 -44.1678 -44.1598
   -44.1555 -44.1551 -44.1467 -44.0817 -44.0787 -44.0764 -44.0752 -44.0730
   -44.0630 -44.0622 -44.0581 -15.4666 -15.4438 -15.4400 -15.4275 -15.4222
   -15.2026 -15.2008 -15.1739 -15.1645 -15.1640 -15.1538 -15.1493 -15.1491
   -15.1369 -15.1320  -7.7351  -7.2199  -6.9004  -3.4075  -2.8465  -2.6893
    -2.4870  -1.9648  -1.7687  -1.6416  -1.6169  -1.5349  -1.4696  -1.4583
    -1.3101  -1.1907  -1.0349  -0.9516  -0.9330  -0.9158  -0.6417  -0.4846
    -0.3734  -0.2834  -0.2629  -0.1866  -0.0073   0.0292   0.0426   0.1497
     0.1903   0.2322   0.2412   0.4970   0.5749   0.5771   0.6289   0.6669
     0.6790   0.8668   0.8962   1.0319   1.0348   1.0492   1.1506   1.4115
     1.4709   1.5755   1.8757   2.2350   2.2355   2.4721   3.3316   3.4574
     3.7096   3.8027   4.6789   4.7412   4.9801   6.4164   6.4362   6.9362
     7.1921   7.4391   7.4784   7.6971   7.7549   8.0142   8.2490   8.3163
     8.5643   8.7563   8.8471   8.9016   9.0983   9.4970

          k = 0.0291 0.0168 0.0000 ( 17770 PWs)   bands (ev):

   -44.5808 -44.5654 -44.5600 -44.5433 -44.5177 -44.5150 -44.4496 -44.3447
   -44.3308 -44.3189 -44.3121 -44.2266 -44.2193 -44.2145 -44.2072 -44.0997
   -44.0975 -44.0957 -44.0836 -44.0807 -44.0753 -44.0742 -44.0693 -44.0670
   -44.0609 -44.0577 -44.0551 -15.4717 -15.4666 -15.4581 -15.4339 -15.4322
   -15.2150 -15.2028 -15.1800 -15.1795 -15.1700 -15.1660 -15.1565 -15.1545
   -15.1510 -15.1488  -8.4332  -7.2902  -7.1492  -2.7078  -2.6102  -2.3675
    -2.1568  -2.1009  -1.8170  -1.7680  -1.6799  -1.6729  -1.6092  -1.4132
    -1.3246  -1.2617  -1.1498  -0.9841  -0.8111  -0.6479  -0.5345  -0.5098
    -0.4204  -0.2133  -0.0798  -0.0176   0.0134   0.0383   0.1838   0.3895
     0.4374   0.5445   0.6656   0.7211   0.8581   0.9533   0.9568   1.0353
     1.1808   1.3232   1.3445   1.3679   1.4826   1.4968   1.6351   1.6673
     1.7678   1.8967   1.9115   2.0090   2.2475   2.2807   2.6702   3.0234
     3.2274   3.7228   3.7439   3.8221   4.5006   4.7875   5.1516   5.9731
     6.1723   6.6136   7.3636   7.4935   7.6011   7.8264   7.8588   8.3811
     8.5278   8.5574   8.6321   9.3592   9.6987   9.7980

          k = 0.0291 0.0505 0.0000 ( 17763 PWs)   bands (ev):

   -44.5662 -44.5629 -44.5445 -44.5264 -44.5215 -44.5140 -44.4631 -44.3725
   -44.3368 -44.2959 -44.2901 -44.2226 -44.2133 -44.1987 -44.1899 -44.1215
   -44.1209 -44.0969 -44.0958 -44.0906 -44.0783 -44.0775 -44.0758 -44.0691
   -44.0650 -44.0603 -44.0572 -15.4638 -15.4603 -15.4481 -15.4310 -15.4281
   -15.2085 -15.1997 -15.1752 -15.1740 -15.1652 -15.1589 -15.1537 -15.1517
   -15.1456 -15.1429  -8.1627  -7.1388  -7.0875  -2.8443  -2.7829  -2.3727
    -2.3496  -2.0333  -1.8566  -1.7746  -1.7639  -1.7357  -1.3982  -1.3771
    -1.2337  -1.1841  -1.1568  -1.0783  -0.9491  -0.7535  -0.6687  -0.5230
    -0.4636  -0.3115  -0.2922  -0.1287  -0.0922   0.0560   0.1181   0.2166
     0.2406   0.4075   0.5436   0.6731   0.7400   0.7759   0.8413   0.8554
     0.9333   1.0693   1.1220   1.2258   1.2873   1.3709   1.5193   1.5588
     1.6254   1.8199   1.8885   1.9841   2.1330   2.2618   2.8995   3.4885
     3.5196   3.8209   4.2897   4.3403   5.0084   5.6689   5.6949   6.3149
     6.5576   6.8232   6.9197   6.9985   7.8131   8.1677   8.3219   8.3588
     8.5765   8.6277   9.0684   9.4707   9.5009   9.7254

          k = 0.0291 0.0841 0.0000 ( 17734 PWs)   bands (ev):

   -44.5638 -44.5426 -44.5295 -44.5273 -44.5145 -44.4887 -44.4828 -44.4153
   -44.3436 -44.2668 -44.2605 -44.2095 -44.2045 -44.1664 -44.1662 -44.1627
   -44.1554 -44.1221 -44.1210 -44.0850 -44.0835 -44.0819 -44.0770 -44.0733
   -44.0674 -44.0609 -44.0591 -15.4602 -15.4479 -15.4415 -15.4270 -15.4237
   -15.2012 -15.1978 -15.1734 -15.1663 -15.1622 -15.1550 -15.1493 -15.1471
   -15.1388 -15.1356  -7.7698  -7.1280  -6.9635  -3.2431  -2.8780  -2.6680
    -2.4281  -1.9753  -1.8864  -1.8206  -1.6214  -1.6016  -1.5199  -1.3245
    -1.2190  -1.1951  -1.0521  -1.0002  -0.9240  -0.8537  -0.7123  -0.6666
    -0.5064  -0.4874  -0.1939  -0.1561  -0.0020   0.0172   0.1227   0.1845
     0.2223   0.2682   0.3392   0.4488   0.5430   0.5736   0.6636   0.7205
     0.7858   0.8701   1.0059   1.0623   1.1437   1.2149   1.2555   1.3972
     1.4115   1.6209   1.7804   1.9954   2.0651   2.3447   3.1077   3.4488
     3.9272   4.2373   4.7173   5.2429   5.4941   6.1233   6.2280   6.4497
     6.8500   7.0410   7.2897   7.5699   7.7463   8.0095   8.1409   8.3639
     8.5235   8.5373   9.0019   9.0945   9.2081   9.4039

          k = 0.0291-0.0841 0.0000 ( 17734 PWs)   bands (ev):

   -44.5638 -44.5426 -44.5295 -44.5273 -44.5145 -44.4888 -44.4828 -44.4153
   -44.3436 -44.2668 -44.2605 -44.2095 -44.2045 -44.1664 -44.1662 -44.1627
   -44.1554 -44.1221 -44.1210 -44.0849 -44.0835 -44.0819 -44.0770 -44.0733
   -44.0674 -44.0609 -44.0591 -15.4602 -15.4479 -15.4415 -15.4270 -15.4237
   -15.2012 -15.1978 -15.1734 -15.1663 -15.1622 -15.1550 -15.1493 -15.1471
   -15.1388 -15.1356  -7.7698  -7.1280  -6.9635  -3.2431  -2.8780  -2.6680
    -2.4281  -1.9753  -1.8864  -1.8206  -1.6214  -1.6017  -1.5199  -1.3245
    -1.2190  -1.1951  -1.0522  -1.0002  -0.9240  -0.8537  -0.7123  -0.6666
    -0.5064  -0.4874  -0.1939  -0.1561  -0.0020   0.0172   0.1227   0.1845
     0.2223   0.2683   0.3392   0.4488   0.5430   0.5736   0.6636   0.7205
     0.7857   0.8701   1.0059   1.0623   1.1437   1.2149   1.2555   1.3972
     1.4115   1.6209   1.7804   1.9954   2.0651   2.3447   3.1077   3.4488
     3.9272   4.2373   4.7173   5.2429   5.4941   6.1233   6.2280   6.4497
     6.8500   7.0410   7.2897   7.5699   7.7463   8.0095   8.1409   8.3639
     8.5235   8.5373   9.0019   9.0945   9.2082   9.4039

          k = 0.0291-0.0505 0.0000 ( 17763 PWs)   bands (ev):

   -44.5662 -44.5629 -44.5445 -44.5264 -44.5216 -44.5140 -44.4631 -44.3725
   -44.3368 -44.2959 -44.2901 -44.2226 -44.2133 -44.1987 -44.1899 -44.1215
   -44.1209 -44.0969 -44.0958 -44.0906 -44.0783 -44.0776 -44.0758 -44.0691
   -44.0650 -44.0603 -44.0572 -15.4638 -15.4603 -15.4481 -15.4310 -15.4281
   -15.2085 -15.1997 -15.1752 -15.1740 -15.1652 -15.1589 -15.1537 -15.1517
   -15.1456 -15.1429  -8.1627  -7.1388  -7.0875  -2.8443  -2.7829  -2.3727
    -2.3496  -2.0333  -1.8566  -1.7746  -1.7639  -1.7357  -1.3982  -1.3771
    -1.2337  -1.1841  -1.1568  -1.0783  -0.9491  -0.7535  -0.6687  -0.5230
    -0.4636  -0.3115  -0.2922  -0.1287  -0.0922   0.0560   0.1181   0.2166
     0.2406   0.4075   0.5436   0.6731   0.7400   0.7759   0.8413   0.8554
     0.9333   1.0693   1.1220   1.2258   1.2873   1.3709   1.5193   1.5588
     1.6254   1.8199   1.8884   1.9841   2.1330   2.2618   2.8995   3.4885
     3.5196   3.8209   4.2897   4.3403   5.0084   5.6689   5.6949   6.3149
     6.5576   6.8232   6.9197   6.9985   7.8131   8.1677   8.3219   8.3588
     8.5765   8.6277   9.0684   9.4707   9.5008   9.7255

          k = 0.0291-0.0168 0.0000 ( 17770 PWs)   bands (ev):

   -44.5808 -44.5654 -44.5601 -44.5433 -44.5177 -44.5149 -44.4496 -44.3447
   -44.3308 -44.3189 -44.3121 -44.2266 -44.2193 -44.2145 -44.2072 -44.0997
   -44.0975 -44.0957 -44.0836 -44.0807 -44.0753 -44.0742 -44.0693 -44.0670
   -44.0610 -44.0577 -44.0551 -15.4717 -15.4666 -15.4581 -15.4339 -15.4322
   -15.2150 -15.2028 -15.1800 -15.1795 -15.1700 -15.1660 -15.1565 -15.1545
   -15.1510 -15.1488  -8.4332  -7.2902  -7.1492  -2.7078  -2.6102  -2.3675
    -2.1568  -2.1009  -1.8170  -1.7680  -1.6799  -1.6729  -1.6092  -1.4132
    -1.3246  -1.2617  -1.1498  -0.9841  -0.8111  -0.6479  -0.5345  -0.5098
    -0.4204  -0.2133  -0.0798  -0.0176   0.0134   0.0383   0.1838   0.3895
     0.4374   0.5445   0.6656   0.7211   0.8581   0.9533   0.9568   1.0353
     1.1808   1.3232   1.3445   1.3679   1.4826   1.4968   1.6351   1.6673
     1.7678   1.8967   1.9115   2.0090   2.2475   2.2807   2.6702   3.0234
     3.2274   3.7228   3.7439   3.8221   4.5006   4.7875   5.1516   5.9731
     6.1723   6.6136   7.3636   7.4935   7.6011   7.8264   7.8588   8.3811
     8.5278   8.5574   8.6321   9.3592   9.6987   9.7981

          k = 0.0583 0.0336 0.0000 ( 17780 PWs)   bands (ev):

   -44.5746 -44.5473 -44.5365 -44.5246 -44.5180 -44.5139 -44.4689 -44.3884
   -44.3360 -44.2896 -44.2828 -44.2138 -44.2064 -44.1927 -44.1847 -44.1227
   -44.1217 -44.1213 -44.1202 -44.0886 -44.0771 -44.0747 -44.0722 -44.0717
   -44.0623 -44.0618 -44.0570 -15.4679 -15.4506 -15.4461 -15.4305 -15.4258
   -15.2071 -15.2002 -15.1747 -15.1712 -15.1638 -15.1564 -15.1537 -15.1492
   -15.1442 -15.1387  -8.0461  -7.1486  -7.0208  -3.1628  -2.6614  -2.4292
    -2.3680  -2.0578  -1.9150  -1.7592  -1.6220  -1.6025  -1.5534  -1.3415
    -1.2998  -1.2070  -1.0614  -1.0491  -0.8251  -0.7857  -0.6957  -0.6779
    -0.4889  -0.3470  -0.3210  -0.1389   0.0378   0.1028   0.1137   0.1572
     0.2809   0.3755   0.5033   0.5533   0.6327   0.6909   0.7247   0.8315
     0.8480   1.0957   1.1297   1.1398   1.2189   1.2363   1.2932   1.4826
     1.5563   1.6387   1.8829   2.0127   2.2211   2.6128   3.1984   3.2213
     3.5555   3.5711   4.3564   4.5912   5.2100   5.7698   5.9428   6.5355
     6.6705   7.0780   7.2139   7.4710   7.8714   8.0346   8.1537   8.1805
     8.6348   8.7548   8.8159   8.9862   9.2685   9.7977

          k = 0.0583 0.0673 0.0000 ( 17734 PWs)   bands (ev):

   -44.5638 -44.5426 -44.5295 -44.5272 -44.5145 -44.4888 -44.4828 -44.4153
   -44.3436 -44.2668 -44.2604 -44.2095 -44.2045 -44.1664 -44.1662 -44.1627
   -44.1554 -44.1221 -44.1210 -44.0849 -44.0835 -44.0819 -44.0770 -44.0733
   -44.0674 -44.0609 -44.0591 -15.4602 -15.4479 -15.4415 -15.4270 -15.4237
   -15.2012 -15.1978 -15.1734 -15.1663 -15.1622 -15.1550 -15.1493 -15.1471
   -15.1388 -15.1356  -7.7698  -7.1280  -6.9635  -3.2431  -2.8780  -2.6680
    -2.4281  -1.9753  -1.8864  -1.8206  -1.6214  -1.6017  -1.5199  -1.3245
    -1.2190  -1.1951  -1.0522  -1.0002  -0.9240  -0.8537  -0.7123  -0.6666
    -0.5064  -0.4874  -0.1939  -0.1561  -0.0020   0.0172   0.1227   0.1845
     0.2223   0.2682   0.3392   0.4488   0.5430   0.5736   0.6636   0.7205
     0.7857   0.8701   1.0059   1.0623   1.1437   1.2149   1.2555   1.3972
     1.4115   1.6209   1.7804   1.9954   2.0651   2.3447   3.1077   3.4488
     3.9272   4.2373   4.7173   5.2429   5.4941   6.1233   6.2280   6.4497
     6.8500   7.0410   7.2897   7.5699   7.7463   8.0095   8.1409   8.3639
     8.5235   8.5373   9.0019   9.0945   9.2081   9.4039

          k = 0.0583 0.1009 0.0000 ( 17712 PWs)   bands (ev):

   -44.5477 -44.5374 -44.5374 -44.5159 -44.5159 -44.5149 -44.4440 -44.4440
   -44.3506 -44.2320 -44.2269 -44.2269 -44.2264 -44.1885 -44.1885 -44.1292
   -44.1279 -44.1278 -44.1253 -44.1013 -44.1012 -44.0772 -44.0768 -44.0737
   -44.0736 -44.0603 -44.0603 -15.4481 -15.4481 -15.4449 -15.4243 -15.4243
   -15.1963 -15.1961 -15.1726 -15.1626 -15.1624 -15.1556 -15.1433 -15.1422
   -15.1397 -15.1396  -7.5970  -7.0426  -7.0425  -3.0486  -3.0486  -2.8901
    -2.3494  -2.1105  -2.1105  -1.6770  -1.6476  -1.6476  -1.3029  -1.3028
    -1.2898  -1.1345  -1.1345  -0.8858  -0.8042  -0.8042  -0.7133  -0.7133
    -0.6895  -0.6676  -0.4584  -0.4583  -0.1086   0.1419   0.1759   0.1759
     0.2959   0.3805   0.3805   0.4771   0.6766   0.6766   0.7088   0.8159
     0.8159   0.8416   0.9393   0.9394   1.1244   1.1244   1.1984   1.2895
     1.2895   1.6490   1.7047   1.7047   1.8016   2.4344   3.1145   3.1145
     4.7862   4.7863   5.3935   5.4032   5.6820   5.6820   6.3596   6.5220
     6.5220   7.3485   7.6321   7.6322   7.7287   7.7288   8.0796   8.2331
     8.3679   8.3679   8.4788   8.4788   8.6123   9.3673

          k = 0.0583-0.0673 0.0000 ( 17734 PWs)   bands (ev):

   -44.5638 -44.5426 -44.5295 -44.5273 -44.5145 -44.4888 -44.4828 -44.4153
   -44.3436 -44.2668 -44.2605 -44.2095 -44.2045 -44.1664 -44.1662 -44.1627
   -44.1554 -44.1221 -44.1210 -44.0850 -44.0835 -44.0819 -44.0770 -44.0733
   -44.0674 -44.0609 -44.0591 -15.4602 -15.4479 -15.4415 -15.4270 -15.4237
   -15.2012 -15.1978 -15.1734 -15.1663 -15.1622 -15.1550 -15.1493 -15.1471
   -15.1388 -15.1356  -7.7698  -7.1280  -6.9635  -3.2431  -2.8780  -2.6680
    -2.4281  -1.9753  -1.8864  -1.8206  -1.6214  -1.6017  -1.5199  -1.3245
    -1.2190  -1.1951  -1.0522  -1.0002  -0.9240  -0.8537  -0.7123  -0.6666
    -0.5064  -0.4874  -0.1939  -0.1561  -0.0020   0.0172   0.1227   0.1845
     0.2223   0.2683   0.3392   0.4488   0.5430   0.5736   0.6636   0.7205
     0.7857   0.8701   1.0059   1.0623   1.1437   1.2149   1.2555   1.3972
     1.4115   1.6209   1.7804   1.9954   2.0651   2.3447   3.1077   3.4488
     3.9272   4.2373   4.7173   5.2429   5.4941   6.1233   6.2280   6.4497
     6.8500   7.0410   7.2897   7.5699   7.7463   8.0095   8.1409   8.3639
     8.5235   8.5373   9.0019   9.0945   9.2084   9.4040

          k = 0.0583-0.0336 0.0000 ( 17780 PWs)   bands (ev):

   -44.5746 -44.5473 -44.5365 -44.5246 -44.5180 -44.5138 -44.4689 -44.3884
   -44.3360 -44.2897 -44.2828 -44.2138 -44.2064 -44.1927 -44.1847 -44.1227
   -44.1217 -44.1213 -44.1202 -44.0886 -44.0771 -44.0747 -44.0722 -44.0717
   -44.0623 -44.0618 -44.0570 -15.4679 -15.4506 -15.4461 -15.4305 -15.4258
   -15.2071 -15.2002 -15.1747 -15.1712 -15.1638 -15.1564 -15.1537 -15.1492
   -15.1442 -15.1387  -8.0461  -7.1486  -7.0208  -3.1628  -2.6614  -2.4292
    -2.3680  -2.0578  -1.9150  -1.7592  -1.6220  -1.6024  -1.5534  -1.3415
    -1.2998  -1.2070  -1.0614  -1.0491  -0.8251  -0.7857  -0.6957  -0.6779
    -0.4889  -0.3470  -0.3210  -0.1389   0.0378   0.1028   0.1137   0.1572
     0.2809   0.3755   0.5033   0.5533   0.6327   0.6909   0.7247   0.8315
     0.8480   1.0957   1.1297   1.1398   1.2190   1.2363   1.2932   1.4826
     1.5563   1.6387   1.8829   2.0127   2.2211   2.6128   3.1984   3.2213
     3.5555   3.5711   4.3564   4.5912   5.2101   5.7698   5.9428   6.5355
     6.6705   7.0780   7.2139   7.4710   7.8714   8.0346   8.1537   8.1805
     8.6348   8.7548   8.8159   8.9862   9.2685   9.7977

          k = 0.0583 0.0000 0.0000 ( 17763 PWs)   bands (ev):

   -44.5662 -44.5629 -44.5445 -44.5264 -44.5215 -44.5140 -44.4631 -44.3725
   -44.3368 -44.2959 -44.2901 -44.2226 -44.2133 -44.1987 -44.1899 -44.1215
   -44.1209 -44.0969 -44.0958 -44.0906 -44.0783 -44.0776 -44.0758 -44.0691
   -44.0650 -44.0603 -44.0572 -15.4638 -15.4603 -15.4481 -15.4310 -15.4281
   -15.2085 -15.1997 -15.1752 -15.1740 -15.1652 -15.1589 -15.1537 -15.1517
   -15.1456 -15.1429  -8.1627  -7.1388  -7.0875  -2.8443  -2.7829  -2.3727
    -2.3496  -2.0333  -1.8566  -1.7746  -1.7639  -1.7357  -1.3982  -1.3771
    -1.2337  -1.1841  -1.1568  -1.0783  -0.9491  -0.7535  -0.6687  -0.5230
    -0.4636  -0.3115  -0.2922  -0.1287  -0.0922   0.0560   0.1181   0.2166
     0.2406   0.4075   0.5436   0.6731   0.7400   0.7759   0.8413   0.8554
     0.9333   1.0693   1.1220   1.2258   1.2873   1.3709   1.5193   1.5588
     1.6254   1.8199   1.8884   1.9841   2.1330   2.2618   2.8995   3.4885
     3.5196   3.8209   4.2897   4.3403   5.0084   5.6689   5.6949   6.3149
     6.5576   6.8232   6.9197   6.9985   7.8131   8.1677   8.3219   8.3588
     8.5765   8.6277   9.0684   9.4707   9.5010   9.7254

          k =-0.0874-0.0505 0.0000 ( 17748 PWs)   bands (ev):

   -44.5741 -44.5386 -44.5300 -44.5149 -44.5123 -44.4891 -44.4817 -44.4289
   -44.3385 -44.2747 -44.2662 -44.1792 -44.1780 -44.1723 -44.1678 -44.1598
   -44.1555 -44.1551 -44.1467 -44.0817 -44.0787 -44.0764 -44.0752 -44.0730
   -44.0630 -44.0622 -44.0581 -15.4666 -15.4438 -15.4400 -15.4275 -15.4222
   -15.2026 -15.2008 -15.1739 -15.1645 -15.1640 -15.1538 -15.1493 -15.1491
   -15.1369 -15.1320  -7.7351  -7.2199  -6.9004  -3.4075  -2.8465  -2.6893
    -2.4870  -1.9648  -1.7688  -1.6417  -1.6169  -1.5349  -1.4696  -1.4583
    -1.3101  -1.1907  -1.0350  -0.9516  -0.9330  -0.9158  -0.6417  -0.4846
    -0.3734  -0.2834  -0.2629  -0.1866  -0.0073   0.0292   0.0426   0.1497
     0.1903   0.2322   0.2412   0.4970   0.5749   0.5771   0.6289   0.6669
     0.6790   0.8668   0.8963   1.0319   1.0348   1.0492   1.1506   1.4115
     1.4709   1.5755   1.8758   2.2350   2.2354   2.4721   3.3316   3.4574
     3.7096   3.8027   4.6789   4.7412   4.9801   6.4164   6.4362   6.9362
     7.1921   7.4391   7.4784   7.6971   7.7549   8.0142   8.2490   8.3163
     8.5643   8.7563   8.8472   8.9016   9.0988   9.4982

          k =-0.0874-0.0168 0.0000 ( 17734 PWs)   bands (ev):

   -44.5638 -44.5426 -44.5295 -44.5272 -44.5145 -44.4888 -44.4828 -44.4153
   -44.3436 -44.2668 -44.2605 -44.2095 -44.2045 -44.1664 -44.1662 -44.1627
   -44.1554 -44.1221 -44.1210 -44.0849 -44.0835 -44.0819 -44.0770 -44.0733
   -44.0674 -44.0609 -44.0591 -15.4602 -15.4479 -15.4415 -15.4270 -15.4237
   -15.2012 -15.1978 -15.1734 -15.1663 -15.1622 -15.1550 -15.1493 -15.1471
   -15.1388 -15.1356  -7.7698  -7.1280  -6.9635  -3.2431  -2.8780  -2.6680
    -2.4281  -1.9753  -1.8864  -1.8206  -1.6214  -1.6017  -1.5199  -1.3245
    -1.2190  -1.1951  -1.0522  -1.0002  -0.9240  -0.8537  -0.7123  -0.6666
    -0.5064  -0.4874  -0.1939  -0.1561  -0.0020   0.0172   0.1227   0.1845
     0.2223   0.2683   0.3392   0.4488   0.5430   0.5736   0.6636   0.7205
     0.7857   0.8701   1.0059   1.0623   1.1437   1.2149   1.2555   1.3972
     1.4115   1.6209   1.7804   1.9954   2.0651   2.3447   3.1077   3.4488
     3.9272   4.2373   4.7173   5.2429   5.4941   6.1233   6.2280   6.4497
     6.8500   7.0410   7.2897   7.5699   7.7463   8.0095   8.1409   8.3639
     8.5235   8.5373   9.0019   9.0945   9.2082   9.4039

          k =-0.0874 0.0168 0.0000 ( 17734 PWs)   bands (ev):

   -44.5638 -44.5426 -44.5295 -44.5273 -44.5145 -44.4887 -44.4828 -44.4153
   -44.3436 -44.2668 -44.2605 -44.2095 -44.2045 -44.1664 -44.1662 -44.1627
   -44.1554 -44.1221 -44.1210 -44.0850 -44.0835 -44.0819 -44.0770 -44.0733
   -44.0674 -44.0609 -44.0591 -15.4602 -15.4479 -15.4415 -15.4270 -15.4237
   -15.2012 -15.1978 -15.1734 -15.1663 -15.1622 -15.1550 -15.1493 -15.1471
   -15.1388 -15.1356  -7.7698  -7.1280  -6.9635  -3.2431  -2.8780  -2.6680
    -2.4281  -1.9753  -1.8864  -1.8206  -1.6214  -1.6017  -1.5199  -1.3245
    -1.2190  -1.1951  -1.0522  -1.0002  -0.9240  -0.8537  -0.7123  -0.6666
    -0.5064  -0.4874  -0.1939  -0.1561  -0.0020   0.0172   0.1227   0.1845
     0.2223   0.2683   0.3392   0.4488   0.5430   0.5736   0.6636   0.7205
     0.7857   0.8701   1.0059   1.0623   1.1437   1.2149   1.2555   1.3972
     1.4115   1.6209   1.7804   1.9954   2.0651   2.3447   3.1077   3.4488
     3.9272   4.2373   4.7173   5.2429   5.4941   6.1233   6.2280   6.4497
     6.8500   7.0410   7.2897   7.5699   7.7463   8.0095   8.1409   8.3639
     8.5235   8.5373   9.0019   9.0945   9.2084   9.4040

          k =-0.0874-0.1514 0.0000 ( 17748 PWs)   bands (ev):

   -44.5741 -44.5385 -44.5301 -44.5149 -44.5124 -44.4891 -44.4817 -44.4290
   -44.3385 -44.2747 -44.2662 -44.1792 -44.1780 -44.1723 -44.1678 -44.1598
   -44.1555 -44.1552 -44.1467 -44.0817 -44.0786 -44.0764 -44.0752 -44.0730
   -44.0630 -44.0622 -44.0581 -15.4666 -15.4438 -15.4400 -15.4275 -15.4222
   -15.2026 -15.2008 -15.1739 -15.1645 -15.1640 -15.1538 -15.1493 -15.1491
   -15.1369 -15.1320  -7.7351  -7.2199  -6.9004  -3.4075  -2.8465  -2.6893
    -2.4870  -1.9648  -1.7688  -1.6416  -1.6169  -1.5349  -1.4696  -1.4583
    -1.3101  -1.1907  -1.0350  -0.9516  -0.9330  -0.9158  -0.6417  -0.4846
    -0.3734  -0.2834  -0.2629  -0.1866  -0.0072   0.0292   0.0426   0.1497
     0.1903   0.2322   0.2412   0.4970   0.5749   0.5771   0.6289   0.6669
     0.6790   0.8668   0.8962   1.0319   1.0347   1.0492   1.1506   1.4115
     1.4709   1.5755   1.8757   2.2350   2.2355   2.4721   3.3316   3.4574
     3.7096   3.8027   4.6789   4.7412   4.9801   6.4164   6.4362   6.9362
     7.1921   7.4391   7.4784   7.6971   7.7548   8.0142   8.2490   8.3162
     8.5643   8.7563   8.8471   8.9016   9.0987   9.4958

     the Fermi energy is     1.6313 ev

!    total energy              =   -2047.83132667 Ry
     Harris-Foulkes estimate   =   -2047.83606717 Ry
     estimated scf accuracy    <       0.00000071 Ry

     The total energy is the sum of the following terms:

     one-electron contribution =  -16294.87654334 Ry
     hartree contribution      =    8199.60031478 Ry
     xc contribution           =    -475.70750610 Ry
     ewald contribution        =    6523.24771141 Ry
     electric field correction =       0.00000000 Ry
     smearing contrib. (-TS)   =      -0.09530343 Ry

     convergence has been achieved in  16 iterations
 
 BEEF-vdW xc energy contributions
           1 :   -418.211094651199     
           2 :    385.976722329911     
           3 :   -329.845915880986     
           4 :    263.167991123337     
           5 :   -199.502991679663     
           6 :    148.422477096182     
           7 :   -113.362298134346     
           8 :    92.0202145408274     
           9 :   -78.7514479927426     
          10 :    67.6923397671377     
          11 :   -55.2261883891848     
          12 :    40.8889888617763     
          13 :   -26.6425786101129     
          14 :    15.1787098927973     
          15 :   -8.23750292655842     
          16 :    5.73713592662875     
          17 :   -5.98910557037652     
          18 :    6.70427266580327     
          19 :   -6.16262446649586     
          20 :    3.92912962284265     
          21 :  -0.805280177019938     
          22 :   -1.85407378139399     
          23 :    3.00575973370519     
          24 :   -2.48529662810381     
          25 :    1.02065577033636     
          26 :   0.243908779416302     
          27 :  -0.406658688384425     
          28 :  -0.722246048164493     
          29 :    2.57940901031816     
          30 :   -4.22390481003845     
          31 :   -37.9652751966081     
          32 :   -28.2531843058036     

     Forces acting on atoms (Ry/au):


     negative rho (up, down):  5.589E-01 0.000E+00
     atom    1 type  1   force =    -0.00000127   -0.01039284    0.02618229
     atom    2 type  1   force =    -0.00900245    0.00519788    0.02618122
     atom    3 type  1   force =     0.00899791    0.00519606    0.02618291
     atom    4 type  2   force =    -0.00000426   -0.00000575   -0.03705746
     atom    5 type  1   force =    -0.00000387    0.00000394    0.00000442
     atom    6 type  1   force =     0.00000168   -0.00000284    0.00000313
     atom    7 type  1   force =    -0.00000444   -0.00000121    0.00000463
     atom    8 type  2   force =     0.00002123    0.00000053    0.00001945
     atom    9 type  1   force =    -0.00000289    0.01039127   -0.02616126
     atom   10 type  1   force =     0.00899800   -0.00519683   -0.02616380
     atom   11 type  1   force =    -0.00900496   -0.00519708   -0.02615664
     atom   12 type  2   force =     0.00000532    0.00000687    0.03696113

     Total force =     0.086586     Total SCF correction =     0.001834


     entering subroutine stress ...


     negative rho (up, down):  5.589E-01 0.000E+00
          total   stress  (Ry/bohr**3)                   (kbar)     P=  -30.89
  -0.00021903   0.00000000   0.00000000        -32.22      0.00      0.00
   0.00000000  -0.00021903   0.00000000          0.00    -32.22      0.00
   0.00000000   0.00000000  -0.00019188          0.00      0.00    -28.23

 !ASE

     Writing output data file calc.save
 
     init_run     :     13.57s CPU     22.61s WALL (       1 calls)
     electrons    :    677.90s CPU   1139.27s WALL (       1 calls)
     forces       :      3.02s CPU      4.02s WALL (       1 calls)
     stress       :      6.31s CPU      7.61s WALL (       1 calls)

     Called by init_run:
     wfcinit      :     11.53s CPU     19.73s WALL (       1 calls)
     potinit      :      1.00s CPU      1.65s WALL (       1 calls)

     Called by electrons:
     c_bands      :    537.68s CPU    894.01s WALL (      16 calls)
     sum_band     :     89.55s CPU    161.32s WALL (      16 calls)
     v_of_rho     :     14.89s CPU     26.18s WALL (      17 calls)
     newd         :      5.28s CPU      5.65s WALL (      17 calls)
     mix_rho      :      0.66s CPU      1.19s WALL (      16 calls)
     vdW_energy   :      1.56s CPU      1.58s WALL (      53 calls)
     vdW_ffts     :     30.55s CPU     54.49s WALL (     108 calls)
     vdW_v        :      5.43s CPU      8.93s WALL (      53 calls)

     Called by c_bands:
     init_us_2    :      0.35s CPU      0.40s WALL (     700 calls)
     cegterg      :    530.45s CPU    883.27s WALL (     320 calls)

     Called by *egterg:
     h_psi        :    385.89s CPU    710.75s WALL (    1467 calls)
     s_psi        :      6.13s CPU      6.19s WALL (    1467 calls)
     g_psi        :      0.29s CPU      0.29s WALL (    1127 calls)
     cdiaghg      :     85.88s CPU     89.44s WALL (    1447 calls)

     Called by h_psi:
     add_vuspsi   :      6.36s CPU      6.41s WALL (    1467 calls)

     General routines
     calbec       :     21.27s CPU     30.48s WALL (    1827 calls)
     fft          :     45.89s CPU     81.69s WALL (    3225 calls)
     ffts         :      0.17s CPU      0.30s WALL (      33 calls)
     fftw         :    434.61s CPU    820.25s WALL (  218046 calls)
     interpolate  :      0.65s CPU      1.13s WALL (      33 calls)
     davcio       :      0.00s CPU      0.02s WALL (      20 calls)
 
     Parallel routines
     fft_scatter  :    460.45s CPU    879.67s WALL (  221304 calls)
 
     PWSCF        : 11m42.07s CPU    19m35.76s WALL

 
   This run was terminated on:  23:33:43  31Dec2018            

=------------------------------------------------------------------------------=
   JOB DONE.
=------------------------------------------------------------------------------=
Job  /afs/slac/g/suncat/bin/suncat-tsmpirun -x LD_LIBRARY_PATH -wdir /scratch/qe648892_Pdk4n pw.x -in pw.inp

TID   HOST_NAME   COMMAND_LINE            STATUS            TERMINATION_TIME
===== ========== ================  =======================  ===================
00000 suncat0251 pw.x -in pw.inp   Done                     12/31/2018 23:33:43
00001 suncat0251 pw.x -in pw.inp   Done                     12/31/2018 23:33:43
00002 suncat0251 pw.x -in pw.inp   Done                     12/31/2018 23:33:43
00003 suncat0251 pw.x -in pw.inp   Done                     12/31/2018 23:33:43
00004 suncat0251 pw.x -in pw.inp   Done                     12/31/2018 23:33:43
00005 suncat0251 pw.x -in pw.inp   Done                     12/31/2018 23:33:43
00006 suncat0251 pw.x -in pw.inp   Done                     12/31/2018 23:33:43
00007 suncat0251 pw.x -in pw.inp   Done                     12/31/2018 23:33:43
00008 suncat0244 pw.x -in pw.inp   Done                     12/31/2018 23:33:43
00009 suncat0244 pw.x -in pw.inp   Done                     12/31/2018 23:33:43
00010 suncat0244 pw.x -in pw.inp   Done                     12/31/2018 23:33:43
00011 suncat0244 pw.x -in pw.inp   Done                     12/31/2018 23:33:43
00012 suncat0244 pw.x -in pw.inp   Done                     12/31/2018 23:33:43
00013 suncat0244 pw.x -in pw.inp   Done                     12/31/2018 23:33:43
00014 suncat0244 pw.x -in pw.inp   Done                     12/31/2018 23:33:43
00015 suncat0244 pw.x -in pw.inp   Done                     12/31/2018 23:33:43
00016 suncat0243 pw.x -in pw.inp   Done                     12/31/2018 23:33:43
00017 suncat0243 pw.x -in pw.inp   Done                     12/31/2018 23:33:43
00018 suncat0243 pw.x -in pw.inp   Done                     12/31/2018 23:33:43
00019 suncat0243 pw.x -in pw.inp   Done                     12/31/2018 23:33:43
00020 suncat0243 pw.x -in pw.inp   Done                     12/31/2018 23:33:43
00021 suncat0243 pw.x -in pw.inp   Done                     12/31/2018 23:33:43
00022 suncat0243 pw.x -in pw.inp   Done                     12/31/2018 23:33:43
00023 suncat0243 pw.x -in pw.inp   Done                     12/31/2018 23:33:43
00024 suncat0242 pw.x -in pw.inp   Done                     12/31/2018 23:33:43
00025 suncat0242 pw.x -in pw.inp   Done                     12/31/2018 23:33:43
00026 suncat0242 pw.x -in pw.inp   Done                     12/31/2018 23:33:43
00027 suncat0242 pw.x -in pw.inp   Done                     12/31/2018 23:33:43
00028 suncat0242 pw.x -in pw.inp   Done                     12/31/2018 23:33:43
00029 suncat0242 pw.x -in pw.inp   Done                     12/31/2018 23:33:43
00030 suncat0242 pw.x -in pw.inp   Done                     12/31/2018 23:33:43
00031 suncat0242 pw.x -in pw.inp   Done                     12/31/2018 23:33:43
00032 suncat0209 pw.x -in pw.inp   Done                     12/31/2018 23:33:43
00033 suncat0209 pw.x -in pw.inp   Done                     12/31/2018 23:33:43
00034 suncat0209 pw.x -in pw.inp   Done                     12/31/2018 23:33:43
00035 suncat0209 pw.x -in pw.inp   Done                     12/31/2018 23:33:43
00036 suncat0209 pw.x -in pw.inp   Done                     12/31/2018 23:33:43
00037 suncat0209 pw.x -in pw.inp   Done                     12/31/2018 23:33:43
00038 suncat0209 pw.x -in pw.inp   Done                     12/31/2018 23:33:43
00039 suncat0209 pw.x -in pw.inp   Done                     12/31/2018 23:33:43
00040 suncat0205 pw.x -in pw.inp   Done                     12/31/2018 23:33:43
00041 suncat0205 pw.x -in pw.inp   Done                     12/31/2018 23:33:43
00042 suncat0205 pw.x -in pw.inp   Done                     12/31/2018 23:33:43
00043 suncat0205 pw.x -in pw.inp   Done                     12/31/2018 23:33:43
00044 suncat0205 pw.x -in pw.inp   Done                     12/31/2018 23:33:43
00045 suncat0205 pw.x -in pw.inp   Done                     12/31/2018 23:33:43
00046 suncat0205 pw.x -in pw.inp   Done                     12/31/2018 23:33:43
00047 suncat0205 pw.x -in pw.inp   Done                     12/31/2018 23:33:43
00048 suncat0204 pw.x -in pw.inp   Done                     12/31/2018 23:33:43
00049 suncat0204 pw.x -in pw.inp   Done                     12/31/2018 23:33:43
00050 suncat0204 pw.x -in pw.inp   Done                     12/31/2018 23:33:43
00051 suncat0204 pw.x -in pw.inp   Done                     12/31/2018 23:33:43
00052 suncat0204 pw.x -in pw.inp   Done                     12/31/2018 23:33:43
00053 suncat0204 pw.x -in pw.inp   Done                     12/31/2018 23:33:43
00054 suncat0204 pw.x -in pw.inp   Done                     12/31/2018 23:33:43
00055 suncat0204 pw.x -in pw.inp   Done                     12/31/2018 23:33:43
00056 suncat0203 pw.x -in pw.inp   Done                     12/31/2018 23:33:43
00057 suncat0203 pw.x -in pw.inp   Done                     12/31/2018 23:33:43
00058 suncat0203 pw.x -in pw.inp   Done                     12/31/2018 23:33:43
00059 suncat0203 pw.x -in pw.inp   Done                     12/31/2018 23:33:43
00060 suncat0203 pw.x -in pw.inp   Done                     12/31/2018 23:33:43
00061 suncat0203 pw.x -in pw.inp   Done                     12/31/2018 23:33:43
00062 suncat0203 pw.x -in pw.inp   Done                     12/31/2018 23:33:43
00063 suncat0203 pw.x -in pw.inp   Done                     12/31/2018 23:33:43

     Program PWSCF v.5.1rc2 (svn rev. 11289) starts on 31Dec2018 at 23:33:49 

     This program is part of the open-source Quantum ESPRESSO suite
     for quantum simulation of materials; please cite
         "P. Giannozzi et al., J. Phys.:Condens. Matter 21 395502 (2009);
          URL http://www.quantum-espresso.org", 
     in publications or presentations arising from this work. More details at
     http://www.quantum-espresso.org/quote

     Parallel version (MPI), running on    64 processors
     R & G space division:  proc/nbgrp/npool/nimage =      64
     Reading input from pw.inp
     Message from routine read_cards :
     DEPRECATED: no units specified in CELL_PARAMETERS card

     Current dimensions of program PWSCF are:
     Max number of different atomic species (ntypx) = 10
     Max number of k-points (npk) =  40000
     Max angular momentum in pseudopotentials (lmaxx) =  3
     Presently stress not available with electric field


     **************************************************************************
     Initializing libbeef V0.1.1 with the BEEF-vdW functional.
     Citation: Wellendorff et al., PRB 85, 235149 (2012).
     **************************************************************************


     IMPORTANT: XC functional enforced from input :
     Exchange-correlation      = BEEF-VDW ( 1  4 27 13 2)
     Any further DFT definition will be discarded
     Please, verify this is what you really want


     Subspace diagonalization in iterative solution of the eigenvalue problem:
     a serial algorithm will be used

 
     Parallelization info
     --------------------
     sticks:   dense  smooth     PW     G-vecs:    dense   smooth      PW
     Min          45      18      5                 8739     2204     357
     Max          46      19      6                 8778     2245     376
     Sum        2941    1177    361               560949   142007   23391
 


     bravais-lattice index     =            0
     lattice parameter (alat)  =       1.8897  a.u.
     unit-cell volume          =    4719.6290 (a.u.)^3
     number of atoms/cell      =           12
     number of atomic types    =            2
     number of electrons       =       177.00
     number of Kohn-Sham states=          118
     kinetic-energy cutoff     =      36.7493  Ry
     charge density cutoff     =     367.4932  Ry
     convergence threshold     =      1.0E-06
     mixing beta               =       0.1000
     number of iterations used =           10  plain     mixing
     Exchange-correlation      = BEEF-VDW ( 1  4 27 13 2)
     nstep                     =           50


     celldm(1)=   1.889726  celldm(2)=   0.000000  celldm(3)=   0.000000
     celldm(4)=   0.000000  celldm(5)=   0.000000  celldm(6)=   0.000000

     crystal axes: (cart. coord. in units of alat)
               a(1) = (   5.721282   0.000000   0.000000 )  
               a(2) = (  -2.860641   4.954776   0.000000 )  
               a(3) = (   0.000000   0.000000  24.671407 )  

     reciprocal axes: (cart. coord. in units 2 pi/alat)
               b(1) = (  0.174786  0.100913  0.000000 )  
               b(2) = (  0.000000  0.201825  0.000000 )  
               b(3) = (  0.000000  0.000000  0.040533 )  


     PseudoPot. # 1 for Rh read from file:
     /afs/slac.stanford.edu/u/if/mamunm/psp/gbrv1.5pbe/Rh.UPF
     MD5 check sum: 761627e959a2e3a1f56b0b5fe687810e
     Pseudo is Ultrasoft + core correction, Zval = 15.0
     Generated by new atomic code, or converted to UPF format
     Using radial grid of  969 points,  7 beta functions with: 
                l(1) =   0
                l(2) =   0
                l(3) =   1
                l(4) =   1
                l(5) =   2
                l(6) =   2
                l(7) =   2
     Q(r) pseudized with  8 coefficients,  rinner =    1.200   1.200   1.200
                                                       1.200   1.200

     PseudoPot. # 2 for Pb read from file:
     /afs/slac.stanford.edu/u/if/mamunm/psp/gbrv1.5pbe/Pb.UPF
     MD5 check sum: 3d1c1779aa92214d1e8f3a7db79003e2
     Pseudo is Ultrasoft + core correction, Zval = 14.0
     Generated by new atomic code, or converted to UPF format
     Using radial grid of  899 points,  6 beta functions with: 
                l(1) =   0
                l(2) =   0
                l(3) =   1
                l(4) =   1
                l(5) =   2
                l(6) =   2
     Q(r) pseudized with  6 coefficients,  rinner =    1.000   1.000   1.000
                                                       1.000   1.000

     vdW kernel table read from file vdW_kernel_table
     MD5 check sum: 095c7af220d748ca6e76c0b4c6cfb241

     atomic species   valence    mass     pseudopotential
        Rh1           15.00   102.90550     Rh( 1.00)
        Pb1           14.00   207.20000     Pb( 1.00)

     No symmetry found



   Cartesian axes

     site n.     atom                  positions (alat units)
         1           Rh1 tau(   1) = (   0.0000000   0.0000000  10.0000000  )
         2           Rh1 tau(   2) = (  -1.4303205   2.4773878  10.0000000  )
         3           Rh1 tau(   3) = (   1.4303205   2.4773878  10.0000000  )
         4           Pb1 tau(   4) = (   2.8606410   0.0000000  10.0000000  )
         5           Rh1 tau(   5) = (   2.8606410   1.6515918  12.3357036  )
         6           Rh1 tau(   6) = (   1.4303205   4.1289796  12.3357036  )
         7           Rh1 tau(   7) = (  -1.4303205   4.1289796  12.3357036  )
         8           Pb1 tau(   8) = (   0.0000000   1.6515918  12.3357036  )
         9           Rh1 tau(   9) = (  -0.0000074   3.3299007  14.6041439  )
        10           Rh1 tau(  10) = (   1.4534553   0.8124343  14.6041373  )
        11           Rh1 tau(  11) = (   4.2678088   0.8124337  14.6041558  )
        12           Pb1 tau(  12) = (   2.8606547   3.3032014  14.7664381  )

     number of k points=    20  Fermi-Dirac smearing, width (Ry)=  0.0110
                       cart. coord. in units 2pi/alat
        k(    1) = (   0.0000000   0.0000000   0.0000000), wk =   0.0555556
        k(    2) = (   0.0000000   0.0336376   0.0000000), wk =   0.1111111
        k(    3) = (   0.0000000   0.0672752   0.0000000), wk =   0.1111111
        k(    4) = (   0.0000000  -0.1009127   0.0000000), wk =   0.0555556
        k(    5) = (   0.0291310   0.0168188   0.0000000), wk =   0.1111111
        k(    6) = (   0.0291310   0.0504564   0.0000000), wk =   0.1111111
        k(    7) = (   0.0291310   0.0840940   0.0000000), wk =   0.1111111
        k(    8) = (   0.0291310  -0.0840940   0.0000000), wk =   0.1111111
        k(    9) = (   0.0291310  -0.0504564   0.0000000), wk =   0.1111111
        k(   10) = (   0.0291310  -0.0168188   0.0000000), wk =   0.1111111
        k(   11) = (   0.0582620   0.0336376   0.0000000), wk =   0.1111111
        k(   12) = (   0.0582620   0.0672752   0.0000000), wk =   0.1111111
        k(   13) = (   0.0582620   0.1009127   0.0000000), wk =   0.1111111
        k(   14) = (   0.0582620  -0.0672752   0.0000000), wk =   0.1111111
        k(   15) = (   0.0582620  -0.0336376   0.0000000), wk =   0.1111111
        k(   16) = (   0.0582620   0.0000000   0.0000000), wk =   0.1111111
        k(   17) = (  -0.0873930  -0.0504564   0.0000000), wk =   0.0555556
        k(   18) = (  -0.0873930  -0.0168188   0.0000000), wk =   0.1111111
        k(   19) = (  -0.0873930   0.0168188   0.0000000), wk =   0.1111111
        k(   20) = (  -0.0873930  -0.1513691   0.0000000), wk =   0.0555556

     Dense  grid:   560949 G-vectors     FFT dimensions: (  72,  72, 288)

     Smooth grid:   142007 G-vectors     FFT dimensions: (  45,  45, 180)

     Largest allocated arrays     est. size (Mb)     dimensions
        Kohn-Sham Wavefunctions         0.53 Mb     (     295,  118)
        NL pseudopotentials             1.17 Mb     (     295,  261)
        Each V/rho on FFT grid          0.40 Mb     (   25920)
        Each G-vector array             0.07 Mb     (    8772)
        G-vector shells                 0.03 Mb     (    4385)
     Largest temporary arrays     est. size (Mb)     dimensions
        Auxiliary wavefunctions         2.12 Mb     (     295,  472)
        Each subspace H/S matrix        3.40 Mb     (     472,  472)
        Each <psi_i|beta_j> matrix      0.47 Mb     (     261,  118)
        Arrays for rho mixing           3.96 Mb     (   25920,   10)

     Initial potential from superposition of free atoms
     Check: negative starting charge=   -0.542650

     starting charge  172.49206, renormalised to  177.00000

     negative rho (up, down):  5.568E-01 0.000E+00


     ************************************************************************
     *
     * You are using vdW-DF for exchange-correlation in this calculation.
     * Please cite the following three references that made this development
     * possible:
     *
     *   M. Dion, H. Rydberg, E. Schroder, D. C. Langreth, and
     *   B. I. Lundqvist, Phys. Rev. Lett. 92, 246401 (2004).
     *
     *   T. Thonhauser, V. R. Cooper, S. Li, A. Puzder, P. Hyldgaard, and
     *   D. C. Langreth, Phys. Rev. B 76, 125112 (2007).
     *
     *   G. Roman-Perez and J. M. Soler, Phys. Rev. Lett. 103, 096102 (2009).
     *
     *
     * If you are using vdW-DF2, please also cite:
     *
     *   K. Lee, E. D. Murray, L. Kong, B. I. Lundqvist, and
     *   D. C. Langreth, Phys. Rev. B 82, 081101(R) (2010).
     *
     *
     * If you are calculating the stress with vdW-DF, please also cite:
     *
     *   R. Sabatini, E. Kucukbenli, B. Kolb, T. Thonhauser, and
     *   S. de Gironcoli, J. Phys.: Condens. Matter 24, 424209 (2012).
     *
     ************************************************************************

     Carrying out vdW-DF run using the following parameters:

     Nqs =      20    Nr_points =    1024   r_max =   100.000
     q_mesh =
               0.00001000     0.04494208     0.09755937     0.15916263
               0.23128650     0.31572767     0.41458969     0.53033537
               0.66584808     0.82450364     1.01025438     1.22772762
               1.48234092     1.78043706     2.12944203     2.53805004
               3.01644009     3.57652955     4.23227104     5.00000000

     Gradients computed in reciprocal space

     ************************************************************************


 
     Adding external electric field

     Computed dipole along edir(3) : 
        Dipole               -0.1115 Ry au,         -0.2833 Debye
        Dipole field         -0.0003 Ry au
 
        Potential amp.        0.0270 Ry
        Total length         45.4566 bohr
 
     Starting wfc are  135 randomized atomic wfcs

     total cpu time spent up to now is       25.8 secs

     per-process dynamical memory:    40.6 Mb

     Self-consistent Calculation

     iteration #  1     ecut=    36.75 Ry     beta=0.10
     Davidson diagonalization with overlap
     ethr =  1.00E-02,  avg # of iterations =  7.6

     negative rho (up, down):  5.575E-01 0.000E+00
 
     Adding external electric field

     Computed dipole along edir(3) : 
        Dipole                0.5149 Ry au,          1.3087 Debye
        Dipole field          0.0014 Ry au
 
        Potential amp.       -0.1246 Ry
        Total length         45.4566 bohr
 

     total cpu time spent up to now is      108.2 secs

     total energy              =   -2048.11144492 Ry
     Harris-Foulkes estimate   =   -2048.47638662 Ry
     estimated scf accuracy    <       2.34798366 Ry

     iteration #  2     ecut=    36.75 Ry     beta=0.10
     Davidson diagonalization with overlap
     ethr =  1.33E-03,  avg # of iterations =  3.2

     negative rho (up, down):  5.574E-01 0.000E+00
 
     Adding external electric field

     Computed dipole along edir(3) : 
        Dipole               -0.0579 Ry au,         -0.1471 Debye
        Dipole field         -0.0002 Ry au
 
        Potential amp.        0.0140 Ry
        Total length         45.4566 bohr
 

     total cpu time spent up to now is      168.7 secs

     total energy              =   -2047.89612814 Ry
     Harris-Foulkes estimate   =   -2048.49673872 Ry
     estimated scf accuracy    <      21.88995685 Ry

     iteration #  3     ecut=    36.75 Ry     beta=0.10
     Davidson diagonalization with overlap
     ethr =  1.33E-03,  avg # of iterations =  2.0

     negative rho (up, down):  5.585E-01 0.000E+00
 
     Adding external electric field

     Computed dipole along edir(3) : 
        Dipole               -0.0341 Ry au,         -0.0868 Debye
        Dipole field         -0.0001 Ry au
 
        Potential amp.        0.0083 Ry
        Total length         45.4566 bohr
 

     total cpu time spent up to now is      228.6 secs

     total energy              =   -2047.82707604 Ry
     Harris-Foulkes estimate   =   -2048.20500072 Ry
     estimated scf accuracy    <       1.27579182 Ry

     iteration #  4     ecut=    36.75 Ry     beta=0.10
     Davidson diagonalization with overlap
     ethr =  7.21E-04,  avg # of iterations =  2.4

     negative rho (up, down):  5.589E-01 0.000E+00
 
     Adding external electric field

     Computed dipole along edir(3) : 
        Dipole                0.0301 Ry au,          0.0765 Debye
        Dipole field          0.0001 Ry au
 
        Potential amp.       -0.0073 Ry
        Total length         45.4566 bohr
 

     total cpu time spent up to now is      292.8 secs

     total energy              =   -2047.83368445 Ry
     Harris-Foulkes estimate   =   -2047.93178196 Ry
     estimated scf accuracy    <       0.79072646 Ry

     iteration #  5     ecut=    36.75 Ry     beta=0.10
     Davidson diagonalization with overlap
     ethr =  4.47E-04,  avg # of iterations =  1.0

     negative rho (up, down):  5.578E-01 0.000E+00
 
     Adding external electric field

     Computed dipole along edir(3) : 
        Dipole                0.0278 Ry au,          0.0708 Debye
        Dipole field          0.0001 Ry au
 
        Potential amp.       -0.0067 Ry
        Total length         45.4566 bohr
 

     total cpu time spent up to now is      348.1 secs

     total energy              =   -2047.84476469 Ry
     Harris-Foulkes estimate   =   -2047.87249570 Ry
     estimated scf accuracy    <       0.08552768 Ry

     iteration #  6     ecut=    36.75 Ry     beta=0.10
     Davidson diagonalization with overlap
     ethr =  4.83E-05,  avg # of iterations =  5.7

     negative rho (up, down):  5.583E-01 0.000E+00
 
     Adding external electric field

     Computed dipole along edir(3) : 
        Dipole                0.0260 Ry au,          0.0662 Debye
        Dipole field          0.0001 Ry au
 
        Potential amp.       -0.0063 Ry
        Total length         45.4566 bohr
 

     total cpu time spent up to now is      408.6 secs

     total energy              =   -2047.84761395 Ry
     Harris-Foulkes estimate   =   -2047.85847170 Ry
     estimated scf accuracy    <       0.03752390 Ry

     iteration #  7     ecut=    36.75 Ry     beta=0.10
     Davidson diagonalization with overlap
     ethr =  2.12E-05,  avg # of iterations =  2.0

     negative rho (up, down):  5.587E-01 0.000E+00
 
     Adding external electric field

     Computed dipole along edir(3) : 
        Dipole                0.0305 Ry au,          0.0776 Debye
        Dipole field          0.0001 Ry au
 
        Potential amp.       -0.0074 Ry
        Total length         45.4566 bohr
 

     total cpu time spent up to now is      467.0 secs

     total energy              =   -2047.85037444 Ry
     Harris-Foulkes estimate   =   -2047.85376066 Ry
     estimated scf accuracy    <       0.01280046 Ry

     iteration #  8     ecut=    36.75 Ry     beta=0.10
     Davidson diagonalization with overlap
     ethr =  7.23E-06,  avg # of iterations =  3.5

     negative rho (up, down):  5.588E-01 0.000E+00
 
     Adding external electric field

     Computed dipole along edir(3) : 
        Dipole                0.0281 Ry au,          0.0714 Debye
        Dipole field          0.0001 Ry au
 
        Potential amp.       -0.0068 Ry
        Total length         45.4566 bohr
 

     total cpu time spent up to now is      532.9 secs

     total energy              =   -2047.85225790 Ry
     Harris-Foulkes estimate   =   -2047.85248905 Ry
     estimated scf accuracy    <       0.00738970 Ry

     iteration #  9     ecut=    36.75 Ry     beta=0.10
     Davidson diagonalization with overlap
     ethr =  4.17E-06,  avg # of iterations =  1.6

     negative rho (up, down):  5.598E-01 0.000E+00
 
     Adding external electric field

     Computed dipole along edir(3) : 
        Dipole                0.0281 Ry au,          0.0715 Debye
        Dipole field          0.0001 Ry au
 
        Potential amp.       -0.0068 Ry
        Total length         45.4566 bohr
 

     total cpu time spent up to now is      588.9 secs

     total energy              =   -2047.85214927 Ry
     Harris-Foulkes estimate   =   -2047.85239461 Ry
     estimated scf accuracy    <       0.00259105 Ry

     iteration # 10     ecut=    36.75 Ry     beta=0.10
     Davidson diagonalization with overlap
     ethr =  1.46E-06,  avg # of iterations =  7.4

     negative rho (up, down):  5.599E-01 0.000E+00
 
     Adding external electric field

     Computed dipole along edir(3) : 
        Dipole                0.0300 Ry au,          0.0762 Debye
        Dipole field          0.0001 Ry au
 
        Potential amp.       -0.0073 Ry
        Total length         45.4566 bohr
 

     total cpu time spent up to now is      676.2 secs

     total energy              =   -2047.85263516 Ry
     Harris-Foulkes estimate   =   -2047.85264697 Ry
     estimated scf accuracy    <       0.00163429 Ry

     iteration # 11     ecut=    36.75 Ry     beta=0.10
     Davidson diagonalization with overlap
     ethr =  9.23E-07,  avg # of iterations =  1.0

     negative rho (up, down):  5.603E-01 0.000E+00
 
     Adding external electric field

     Computed dipole along edir(3) : 
        Dipole                0.0297 Ry au,          0.0755 Debye
        Dipole field          0.0001 Ry au
 
        Potential amp.       -0.0072 Ry
        Total length         45.4566 bohr
 

     total cpu time spent up to now is      733.2 secs

     total energy              =   -2047.85263098 Ry
     Harris-Foulkes estimate   =   -2047.85266443 Ry
     estimated scf accuracy    <       0.00034152 Ry

     iteration # 12     ecut=    36.75 Ry     beta=0.10
     Davidson diagonalization with overlap
     ethr =  1.93E-07,  avg # of iterations =  1.0

     negative rho (up, down):  5.605E-01 0.000E+00
 
     Adding external electric field

     Computed dipole along edir(3) : 
        Dipole                0.0292 Ry au,          0.0742 Debye
        Dipole field          0.0001 Ry au
 
        Potential amp.       -0.0071 Ry
        Total length         45.4566 bohr
 

     total cpu time spent up to now is      786.6 secs

     total energy              =   -2047.85264684 Ry
     Harris-Foulkes estimate   =   -2047.85265379 Ry
     estimated scf accuracy    <       0.00012433 Ry

     iteration # 13     ecut=    36.75 Ry     beta=0.10
     Davidson diagonalization with overlap
     ethr =  7.02E-08,  avg # of iterations =  1.0

     negative rho (up, down):  5.606E-01 0.000E+00
 
     Adding external electric field

     Computed dipole along edir(3) : 
        Dipole                0.0297 Ry au,          0.0755 Debye
        Dipole field          0.0001 Ry au
 
        Potential amp.       -0.0072 Ry
        Total length         45.4566 bohr
 

     total cpu time spent up to now is      845.2 secs

     total energy              =   -2047.85265378 Ry
     Harris-Foulkes estimate   =   -2047.85265663 Ry
     estimated scf accuracy    <       0.00003039 Ry

     iteration # 14     ecut=    36.75 Ry     beta=0.10
     Davidson diagonalization with overlap
     ethr =  1.72E-08,  avg # of iterations =  3.8

     negative rho (up, down):  5.607E-01 0.000E+00
 
     Adding external electric field

     Computed dipole along edir(3) : 
        Dipole                0.0299 Ry au,          0.0760 Debye
        Dipole field          0.0001 Ry au
 
        Potential amp.       -0.0072 Ry
        Total length         45.4566 bohr
 

     total cpu time spent up to now is      903.8 secs

     total energy              =   -2047.85264750 Ry
     Harris-Foulkes estimate   =   -2047.85265599 Ry
     estimated scf accuracy    <       0.00001564 Ry

     iteration # 15     ecut=    36.75 Ry     beta=0.10
     Davidson diagonalization with overlap
     ethr =  8.83E-09,  avg # of iterations =  2.8

     negative rho (up, down):  5.608E-01 0.000E+00
 
     Adding external electric field

     Computed dipole along edir(3) : 
        Dipole                0.0299 Ry au,          0.0759 Debye
        Dipole field          0.0001 Ry au
 
        Potential amp.       -0.0072 Ry
        Total length         45.4566 bohr
 

     total cpu time spent up to now is      956.1 secs

     total energy              =   -2047.85264126 Ry
     Harris-Foulkes estimate   =   -2047.85264827 Ry
     estimated scf accuracy    <       0.00000592 Ry

     iteration # 16     ecut=    36.75 Ry     beta=0.10
     Davidson diagonalization with overlap
     ethr =  3.35E-09,  avg # of iterations =  5.1

     negative rho (up, down):  5.604E-01 0.000E+00

     negative rho (up, down):  5.604E-01 0.000E+00

     negative rho (up, down):  5.604E-01 0.000E+00

     negative rho (up, down):  5.604E-01 0.000E+00

[...]
    -0.6370  -0.5799  -0.5774  -0.3594   0.0232   0.1300   0.1323   0.1779
     0.3352   0.4394   0.4638   0.4869   0.7405   0.7974   0.8274   0.9042
     0.9127   0.9619   1.0301   1.0812   1.0891   1.2447   1.2919   1.3891
     1.3963   1.6953   1.8119   1.8312   1.9417   2.5724   3.1038   3.1500
     4.5004   4.8853   5.4980   5.5975   5.6508   5.7481   6.5277   6.5297
     6.6658   7.3495   7.5374   7.6255   7.7354   7.7656   8.0559   8.2071
     8.3329   8.3374   8.5087   8.5152   8.5737   9.3507

          k = 0.0583-0.0673 0.0000 ( 17734 PWs)   bands (ev):

   -44.5403 -44.5192 -44.5026 -44.4938 -44.4753 -44.4413 -44.4089 -44.3414
   -44.2716 -44.2671 -44.2083 -44.1764 -44.1605 -44.1496 -44.1223 -44.1076
   -44.1004 -44.0943 -44.0880 -44.0807 -44.0587 -44.0521 -44.0146 -43.9775
   -43.9726 -43.9633 -43.9553 -15.3812 -15.3714 -15.3613 -15.3430 -15.3419
   -15.2018 -15.1591 -15.1578 -15.1279 -15.1189 -15.0993 -15.0658 -15.0644
   -15.0490 -15.0380  -7.7367  -6.9875  -6.7945  -3.2239  -2.8300  -2.6305
    -2.3854  -2.0433  -1.8809  -1.7962  -1.6053  -1.5335  -1.4983  -1.3504
    -1.2522  -1.1587  -1.0362  -0.9809  -0.9341  -0.8434  -0.7164  -0.6280
    -0.5302  -0.4400  -0.1760  -0.0705   0.0102   0.0822   0.1557   0.1945
     0.2533   0.3195   0.3654   0.5310   0.6371   0.6778   0.7738   0.8074
     0.8925   0.9789   1.0454   1.1331   1.2186   1.2931   1.3398   1.4772
     1.5209   1.7489   1.8890   2.0859   2.1976   2.4220   3.1213   3.4666
     4.0098   4.2606   4.7867   5.0878   5.6460   6.1872   6.2777   6.4731
     6.9159   7.0520   7.3050   7.5563   7.7558   8.0057   8.1815   8.3391
     8.5099   8.5251   8.9832   9.1288   9.1987   9.3999

          k = 0.0583-0.0336 0.0000 ( 17780 PWs)   bands (ev):

   -44.5507 -44.5230 -44.5036 -44.4962 -44.4803 -44.4371 -44.4242 -44.3148
   -44.2889 -44.2640 -44.2116 -44.1906 -44.1830 -44.1233 -44.1193 -44.1104
   -44.1024 -44.0920 -44.0900 -44.0797 -44.0702 -44.0165 -44.0136 -43.9751
   -43.9665 -43.9606 -43.9547 -15.3882 -15.3744 -15.3646 -15.3470 -15.3450
   -15.2044 -15.1589 -15.1569 -15.1331 -15.1227 -15.1038 -15.0683 -15.0657
   -15.0526 -15.0424  -7.9772  -7.0278  -6.8812  -3.1190  -2.6362  -2.4580
    -2.3030  -2.1185  -1.7856  -1.7277  -1.6477  -1.5899  -1.5126  -1.3981
    -1.2843  -1.2332  -1.0418  -1.0356  -0.8657  -0.7301  -0.7193  -0.6430
    -0.4335  -0.3414  -0.2818  -0.1108   0.0491   0.0965   0.2091   0.2164
     0.3484   0.4310   0.5669   0.6327   0.6654   0.7810   0.7825   0.9235
     0.9633   1.1394   1.1870   1.2224   1.2897   1.3097   1.3982   1.5850
     1.6413   1.7688   2.0131   2.0215   2.3507   2.7476   3.1354   3.2937
     3.6203   3.6980   4.4449   4.6233   5.2703   5.7445   6.0018   6.5264
     6.6644   6.9935   7.2460   7.4676   7.9597   8.0101   8.1606   8.2593
     8.6499   8.7685   8.9162   8.9578   9.1968   9.8040

          k = 0.0583 0.0000 0.0000 ( 17763 PWs)   bands (ev):

   -44.5519 -44.5266 -44.5095 -44.4932 -44.4831 -44.4459 -44.4184 -44.3020
   -44.2944 -44.2643 -44.2177 -44.1961 -44.1898 -44.1222 -44.1158 -44.1040
   -44.0977 -44.0945 -44.0890 -44.0845 -44.0737 -44.0146 -43.9894 -43.9760
   -43.9712 -43.9594 -43.9550 -15.3853 -15.3808 -15.3674 -15.3482 -15.3477
   -15.2053 -15.1582 -15.1575 -15.1333 -15.1267 -15.1043 -15.0703 -15.0669
   -15.0534 -15.0461  -8.0834  -7.0387  -6.9423  -2.7963  -2.7422  -2.4231
    -2.3422  -1.9372  -1.8759  -1.7721  -1.7526  -1.6946  -1.4146  -1.3365
    -1.2459  -1.1681  -1.1310  -1.1066  -0.9806  -0.7577  -0.6543  -0.4854
    -0.4289  -0.3102  -0.2394  -0.1164  -0.0418   0.0956   0.1678   0.2651
     0.3496   0.4488   0.6189   0.7446   0.7648   0.8297   0.8750   0.9596
     1.0234   1.0858   1.1916   1.3162   1.3846   1.4824   1.5925   1.6547
     1.7536   1.9421   1.9700   2.0304   2.2479   2.3505   2.8810   3.5639
     3.6104   3.8932   4.4124   4.5375   5.0450   5.5337   5.7026   6.2951
     6.5942   6.7508   6.9445   7.0513   7.7962   8.2050   8.3112   8.3991
     8.6059   8.6729   9.1213   9.3713   9.5450   9.6697

          k =-0.0874-0.0505 0.0000 ( 17748 PWs)   bands (ev):

   -44.5461 -44.5148 -44.5037 -44.4932 -44.4701 -44.4420 -44.4065 -44.3508
   -44.2735 -44.2661 -44.1929 -44.1682 -44.1672 -44.1547 -44.1449 -44.1019
   -44.0987 -44.0898 -44.0735 -44.0718 -44.0613 -44.0499 -44.0442 -43.9729
   -43.9674 -43.9632 -43.9550 -15.3868 -15.3692 -15.3595 -15.3423 -15.3407
   -15.2023 -15.1594 -15.1568 -15.1305 -15.1166 -15.1015 -15.0656 -15.0641
   -15.0501 -15.0352  -7.7152  -7.0412  -6.7566  -3.3970  -2.8102  -2.6309
    -2.4206  -2.0631  -1.7339  -1.6300  -1.5577  -1.5205  -1.4732  -1.4293
    -1.2954  -1.1630  -1.0277  -1.0117  -0.9711  -0.8517  -0.6191  -0.5806
    -0.3462  -0.2224  -0.1893  -0.1442  -0.0287   0.0807   0.1195   0.1302
     0.2368   0.2700   0.3289   0.5738   0.6155   0.7078   0.7522   0.7645
     0.7993   0.9839   0.9922   1.0514   1.0972   1.1326   1.2094   1.5276
     1.5476   1.6937   2.0117   2.2774   2.3721   2.5899   3.3965   3.5380
     3.7045   3.7429   4.6950   4.8466   4.9779   6.3240   6.5712   6.9826
     7.2698   7.3969   7.4962   7.6924   7.7390   7.9902   8.3372   8.3385
     8.6684   8.7338   8.8433   9.0589   9.1050   9.4665

          k =-0.0874-0.0168 0.0000 ( 17734 PWs)   bands (ev):

   -44.5402 -44.5192 -44.5026 -44.4938 -44.4754 -44.4413 -44.4088 -44.3415
   -44.2716 -44.2671 -44.2082 -44.1764 -44.1606 -44.1496 -44.1221 -44.1077
   -44.1004 -44.0943 -44.0880 -44.0807 -44.0586 -44.0520 -44.0148 -43.9775
   -43.9727 -43.9632 -43.9554 -15.3812 -15.3714 -15.3613 -15.3430 -15.3418
   -15.2018 -15.1591 -15.1578 -15.1279 -15.1189 -15.0993 -15.0658 -15.0644
   -15.0490 -15.0380  -7.7367  -6.9875  -6.7945  -3.2239  -2.8300  -2.6305
    -2.3854  -2.0433  -1.8809  -1.7962  -1.6053  -1.5335  -1.4983  -1.3504
    -1.2522  -1.1587  -1.0362  -0.9810  -0.9341  -0.8434  -0.7163  -0.6280
    -0.5302  -0.4400  -0.1760  -0.0705   0.0102   0.0822   0.1558   0.1945
     0.2534   0.3195   0.3654   0.5310   0.6371   0.6778   0.7738   0.8073
     0.8926   0.9789   1.0454   1.1331   1.2186   1.2931   1.3398   1.4772
     1.5209   1.7489   1.8890   2.0859   2.1976   2.4220   3.1213   3.4666
     4.0098   4.2606   4.7867   5.0878   5.6460   6.1872   6.2776   6.4731
     6.9159   7.0520   7.3050   7.5563   7.7558   8.0056   8.1815   8.3391
     8.5099   8.5251   8.9831   9.1288   9.1988   9.3998

          k =-0.0874 0.0168 0.0000 ( 17734 PWs)   bands (ev):

   -44.5403 -44.5192 -44.5026 -44.4938 -44.4753 -44.4413 -44.4089 -44.3414
   -44.2716 -44.2671 -44.2083 -44.1764 -44.1605 -44.1496 -44.1222 -44.1077
   -44.1005 -44.0943 -44.0880 -44.0806 -44.0586 -44.0520 -44.0148 -43.9775
   -43.9727 -43.9632 -43.9554 -15.3812 -15.3714 -15.3613 -15.3430 -15.3419
   -15.2018 -15.1591 -15.1578 -15.1279 -15.1189 -15.0993 -15.0658 -15.0644
   -15.0490 -15.0380  -7.7367  -6.9875  -6.7945  -3.2239  -2.8300  -2.6305
    -2.3854  -2.0433  -1.8809  -1.7962  -1.6054  -1.5335  -1.4983  -1.3504
    -1.2522  -1.1587  -1.0362  -0.9810  -0.9341  -0.8434  -0.7163  -0.6280
    -0.5302  -0.4400  -0.1760  -0.0705   0.0102   0.0822   0.1558   0.1945
     0.2534   0.3195   0.3654   0.5310   0.6371   0.6778   0.7738   0.8073
     0.8925   0.9789   1.0454   1.1331   1.2186   1.2931   1.3398   1.4772
     1.5209   1.7489   1.8890   2.0859   2.1976   2.4220   3.1213   3.4666
     4.0097   4.2606   4.7867   5.0878   5.6460   6.1873   6.2776   6.4731
     6.9159   7.0520   7.3050   7.5563   7.7558   8.0057   8.1815   8.3391
     8.5099   8.5251   8.9832   9.1288   9.1988   9.3998

          k =-0.0874-0.1514 0.0000 ( 17748 PWs)   bands (ev):

   -44.5462 -44.5147 -44.5038 -44.4933 -44.4699 -44.4421 -44.4066 -44.3506
   -44.2734 -44.2662 -44.1929 -44.1683 -44.1672 -44.1547 -44.1449 -44.1019
   -44.0988 -44.0898 -44.0736 -44.0717 -44.0613 -44.0499 -44.0442 -43.9728
   -43.9673 -43.9632 -43.9550 -15.3868 -15.3692 -15.3595 -15.3423 -15.3407
   -15.2023 -15.1594 -15.1568 -15.1305 -15.1166 -15.1015 -15.0656 -15.0641
   -15.0501 -15.0352  -7.7152  -7.0412  -6.7566  -3.3970  -2.8102  -2.6309
    -2.4206  -2.0632  -1.7339  -1.6300  -1.5577  -1.5205  -1.4731  -1.4292
    -1.2954  -1.1630  -1.0278  -1.0117  -0.9710  -0.8517  -0.6191  -0.5806
    -0.3462  -0.2224  -0.1892  -0.1442  -0.0287   0.0807   0.1195   0.1302
     0.2367   0.2700   0.3289   0.5738   0.6155   0.7078   0.7522   0.7646
     0.7993   0.9839   0.9922   1.0515   1.0972   1.1327   1.2095   1.5276
     1.5476   1.6936   2.0118   2.2773   2.3721   2.5899   3.3965   3.5380
     3.7045   3.7429   4.6950   4.8466   4.9779   6.3240   6.5712   6.9827
     7.2698   7.3969   7.4962   7.6924   7.7390   7.9902   8.3373   8.3385
     8.6684   8.7338   8.8433   9.0590   9.1050   9.4666

     the Fermi energy is     1.7303 ev

!    total energy              =   -2047.85882062 Ry
     Harris-Foulkes estimate   =   -2047.85888883 Ry
     estimated scf accuracy    <       0.00000082 Ry

     The total energy is the sum of the following terms:

     one-electron contribution =  -16394.30147030 Ry
     hartree contribution      =    8249.61061673 Ry
     xc contribution           =    -475.73069319 Ry
     ewald contribution        =    6572.65425154 Ry
     electric field correction =       0.00001337 Ry
     smearing contrib. (-TS)   =      -0.09153878 Ry

     convergence has been achieved in  16 iterations
 
 BEEF-vdW xc energy contributions
           1 :   -418.444378083159     
           2 :    386.242559225986     
           3 :   -330.148820099046     
           4 :    263.476633794738     
           5 :   -199.767576992726     
           6 :    148.604398532422     
           7 :   -113.456607220003     
           8 :    92.0593221017277     
           9 :   -78.7904725618529     
          10 :    67.7849078915402     
          11 :   -55.4019056306902     
          12 :    41.1418321373505     
          13 :   -26.9348535099735     
          14 :    15.4595162931772     
          15 :   -8.46813398354755     
          16 :    5.91101065162212     
          17 :   -6.13521288991058     
          18 :    6.87192722651122     
          19 :   -6.39442216936203     
          20 :    4.23626849451711     
          21 :   -1.16116164102863     
          22 :   -1.49839976153646     
          23 :    2.69570786561854     
          24 :   -2.24043299990075     
          25 :   0.825166085797719     
          26 :   0.433594555892796     
          27 :  -0.639041537147250     
          28 :  -0.420996218350695     
          29 :    2.22135338586844     
          30 :   -3.85326815397934     
          31 :   -37.9801688109272     
          32 :   -28.2742201510291     

     Forces acting on atoms (Ry/au):


     negative rho (up, down):  5.584E-01 0.000E+00
     atom    1 type  1   force =     0.00000021   -0.01011378    0.02703655
     atom    2 type  1   force =    -0.00874965    0.00504654    0.02705513
     atom    3 type  1   force =     0.00874832    0.00504611    0.02705574
     atom    4 type  2   force =     0.00000713   -0.00001649   -0.03839602
     atom    5 type  1   force =    -0.00000069    0.01353854   -0.00524017
     atom    6 type  1   force =     0.01173226   -0.00677435   -0.00523877
     atom    7 type  1   force =    -0.01173200   -0.00677404   -0.00524383
     atom    8 type  2   force =     0.00000020    0.00005488   -0.02652588
     atom    9 type  1   force =     0.00001282    0.00052370    0.00016574
     atom   10 type  1   force =     0.00046082   -0.00026087    0.00016904
     atom   11 type  1   force =    -0.00045186   -0.00027084    0.00016186
     atom   12 type  2   force =    -0.00002757    0.00000060   -0.00099939

     Total force =     0.072896     Total SCF correction =     0.003347


     entering subroutine stress ...


     negative rho (up, down):  5.584E-01 0.000E+00
          total   stress  (Ry/bohr**3)                   (kbar)     P=  -28.22
  -0.00021232   0.00000000  -0.00000001        -31.23      0.00     -0.00
   0.00000000  -0.00021232   0.00000000          0.00    -31.23      0.00
  -0.00000001   0.00000000  -0.00015090         -0.00      0.00    -22.20

 !ASE

     Writing output data file calc.save
 
     init_run     :     18.84s CPU     28.78s WALL (       1 calls)
     electrons    :    672.00s CPU   1055.89s WALL (       1 calls)
     forces       :      2.88s CPU      3.57s WALL (       1 calls)
     stress       :      6.34s CPU      7.46s WALL (       1 calls)

     Called by init_run:
     wfcinit      :     16.76s CPU     25.96s WALL (       1 calls)
     potinit      :      1.13s CPU      1.74s WALL (       1 calls)

     Called by electrons:
     c_bands      :    528.19s CPU    824.65s WALL (      16 calls)
     sum_band     :     89.04s CPU    148.61s WALL (      16 calls)
     v_of_rho     :     17.27s CPU     26.89s WALL (      17 calls)
     newd         :      5.70s CPU      6.22s WALL (      17 calls)
     mix_rho      :      0.85s CPU      1.28s WALL (      16 calls)
     vdW_energy   :      1.45s CPU      1.46s WALL (      53 calls)
     vdW_ffts     :     33.40s CPU     53.60s WALL (     108 calls)
     vdW_v        :      5.70s CPU      8.55s WALL (      53 calls)

     Called by c_bands:
     init_us_2    :      0.38s CPU      0.41s WALL (     700 calls)
     cegterg      :    520.01s CPU    813.70s WALL (     320 calls)

     Called by *egterg:
     h_psi        :    386.40s CPU    657.64s WALL (    1479 calls)
     s_psi        :      5.86s CPU      5.89s WALL (    1479 calls)
     g_psi        :      0.26s CPU      0.26s WALL (    1139 calls)
     cdiaghg      :     81.73s CPU     85.80s WALL (    1459 calls)

     Called by h_psi:
     add_vuspsi   :      6.09s CPU      6.13s WALL (    1479 calls)

     General routines
     calbec       :     20.71s CPU     28.50s WALL (    1839 calls)
     fft          :     49.55s CPU     79.34s WALL (    3225 calls)
     ffts         :      0.18s CPU      0.29s WALL (      33 calls)
     fftw         :    436.12s CPU    757.66s WALL (  210140 calls)
     interpolate  :      0.63s CPU      1.02s WALL (      33 calls)
     davcio       :      0.00s CPU      0.01s WALL (      20 calls)
 
     Parallel routines
     fft_scatter  :    466.28s CPU    815.80s WALL (  213398 calls)
 
     PWSCF        : 11m41.14s CPU    18m17.48s WALL

 
   This run was terminated on:   1: 9:27   1Jan2019            

=------------------------------------------------------------------------------=
   JOB DONE.
=------------------------------------------------------------------------------=
Job  /afs/slac/g/suncat/bin/suncat-tsmpirun -x LD_LIBRARY_PATH -wdir /scratch/qe648892_Pdk4n pw.x -in pw.inp

TID   HOST_NAME   COMMAND_LINE            STATUS            TERMINATION_TIME
===== ========== ================  =======================  ===================
00000 suncat0251 pw.x -in pw.inp   Done                     01/01/2019 01:09:27
00001 suncat0251 pw.x -in pw.inp   Done                     01/01/2019 01:09:27
00002 suncat0251 pw.x -in pw.inp   Done                     01/01/2019 01:09:27
00003 suncat0251 pw.x -in pw.inp   Done                     01/01/2019 01:09:27
00004 suncat0251 pw.x -in pw.inp   Done                     01/01/2019 01:09:27
00005 suncat0251 pw.x -in pw.inp   Done                     01/01/2019 01:09:27
00006 suncat0251 pw.x -in pw.inp   Done                     01/01/2019 01:09:27
00007 suncat0251 pw.x -in pw.inp   Done                     01/01/2019 01:09:27
00008 suncat0244 pw.x -in pw.inp   Done                     01/01/2019 01:09:27
00009 suncat0244 pw.x -in pw.inp   Done                     01/01/2019 01:09:27
00010 suncat0244 pw.x -in pw.inp   Done                     01/01/2019 01:09:27
00011 suncat0244 pw.x -in pw.inp   Done                     01/01/2019 01:09:27
00012 suncat0244 pw.x -in pw.inp   Done                     01/01/2019 01:09:27
00013 suncat0244 pw.x -in pw.inp   Done                     01/01/2019 01:09:27
00014 suncat0244 pw.x -in pw.inp   Done                     01/01/2019 01:09:27
00015 suncat0244 pw.x -in pw.inp   Done                     01/01/2019 01:09:27
00016 suncat0243 pw.x -in pw.inp   Done                     01/01/2019 01:09:27
00017 suncat0243 pw.x -in pw.inp   Done                     01/01/2019 01:09:27
00018 suncat0243 pw.x -in pw.inp   Done                     01/01/2019 01:09:27
00019 suncat0243 pw.x -in pw.inp   Done                     01/01/2019 01:09:27
00020 suncat0243 pw.x -in pw.inp   Done                     01/01/2019 01:09:27
00021 suncat0243 pw.x -in pw.inp   Done                     01/01/2019 01:09:27
00022 suncat0243 pw.x -in pw.inp   Done                     01/01/2019 01:09:27
00023 suncat0243 pw.x -in pw.inp   Done                     01/01/2019 01:09:27
00024 suncat0242 pw.x -in pw.inp   Done                     01/01/2019 01:09:27
00025 suncat0242 pw.x -in pw.inp   Done                     01/01/2019 01:09:27
00026 suncat0242 pw.x -in pw.inp   Done                     01/01/2019 01:09:27
00027 suncat0242 pw.x -in pw.inp   Done                     01/01/2019 01:09:27
00028 suncat0242 pw.x -in pw.inp   Done                     01/01/2019 01:09:27
00029 suncat0242 pw.x -in pw.inp   Done                     01/01/2019 01:09:27
00030 suncat0242 pw.x -in pw.inp   Done                     01/01/2019 01:09:27
00031 suncat0242 pw.x -in pw.inp   Done                     01/01/2019 01:09:27
00032 suncat0209 pw.x -in pw.inp   Done                     01/01/2019 01:09:27
00033 suncat0209 pw.x -in pw.inp   Done                     01/01/2019 01:09:27
00034 suncat0209 pw.x -in pw.inp   Done                     01/01/2019 01:09:27
00035 suncat0209 pw.x -in pw.inp   Done                     01/01/2019 01:09:27
00036 suncat0209 pw.x -in pw.inp   Done                     01/01/2019 01:09:27
00037 suncat0209 pw.x -in pw.inp   Done                     01/01/2019 01:09:27
00038 suncat0209 pw.x -in pw.inp   Done                     01/01/2019 01:09:27
00039 suncat0209 pw.x -in pw.inp   Done                     01/01/2019 01:09:27
00040 suncat0205 pw.x -in pw.inp   Done                     01/01/2019 01:09:27
00041 suncat0205 pw.x -in pw.inp   Done                     01/01/2019 01:09:27
00042 suncat0205 pw.x -in pw.inp   Done                     01/01/2019 01:09:27
00043 suncat0205 pw.x -in pw.inp   Done                     01/01/2019 01:09:27
00044 suncat0205 pw.x -in pw.inp   Done                     01/01/2019 01:09:27
00045 suncat0205 pw.x -in pw.inp   Done                     01/01/2019 01:09:27
00046 suncat0205 pw.x -in pw.inp   Done                     01/01/2019 01:09:27
00047 suncat0205 pw.x -in pw.inp   Done                     01/01/2019 01:09:27
00048 suncat0204 pw.x -in pw.inp   Done                     01/01/2019 01:09:27
00049 suncat0204 pw.x -in pw.inp   Done                     01/01/2019 01:09:27
00050 suncat0204 pw.x -in pw.inp   Done                     01/01/2019 01:09:27
00051 suncat0204 pw.x -in pw.inp   Done                     01/01/2019 01:09:27
00052 suncat0204 pw.x -in pw.inp   Done                     01/01/2019 01:09:27
00053 suncat0204 pw.x -in pw.inp   Done                     01/01/2019 01:09:27
00054 suncat0204 pw.x -in pw.inp   Done                     01/01/2019 01:09:27
00055 suncat0204 pw.x -in pw.inp   Done                     01/01/2019 01:09:27
00056 suncat0203 pw.x -in pw.inp   Done                     01/01/2019 01:09:27
00057 suncat0203 pw.x -in pw.inp   Done                     01/01/2019 01:09:27
00058 suncat0203 pw.x -in pw.inp   Done                     01/01/2019 01:09:27
00059 suncat0203 pw.x -in pw.inp   Done                     01/01/2019 01:09:27
00060 suncat0203 pw.x -in pw.inp   Done                     01/01/2019 01:09:27
00061 suncat0203 pw.x -in pw.inp   Done                     01/01/2019 01:09:27
00062 suncat0203 pw.x -in pw.inp   Done                     01/01/2019 01:09:27
00063 suncat0203 pw.x -in pw.inp   Done                     01/01/2019 01:09:27
