  python dir          : /u/if/mamunm/src/espresso
  espresso dir        : /nfs/slac/g/suncatfs/sw/espv18/espresso-dynpy-beef/bin
  pseudo dir          : /afs/slac.stanford.edu/u/if/mamunm/psp/gbrv1.5pbe
  ase-espresso py git : GITVERSION



     Program PWSCF v.5.1rc2 (svn rev. 11289) starts on 25Dec2018 at 19:17:40 

     This program is part of the open-source Quantum ESPRESSO suite
     for quantum simulation of materials; please cite
         "P. Giannozzi et al., J. Phys.:Condens. Matter 21 395502 (2009);
          URL http://www.quantum-espresso.org", 
     in publications or presentations arising from this work. More details at
     http://www.quantum-espresso.org/quote

     Parallel version (MPI), running on    64 processors
     R & G space division:  proc/nbgrp/npool/nimage =      64
     Reading input from pw.inp
     Message from routine read_cards :
     DEPRECATED: no units specified in CELL_PARAMETERS card

     Current dimensions of program PWSCF are:
     Max number of different atomic species (ntypx) = 10
     Max number of k-points (npk) =  40000
     Max angular momentum in pseudopotentials (lmaxx) =  3
     Presently stress not available with electric field


     **************************************************************************
     Initializing libbeef V0.1.1 with the BEEF-vdW functional.
     Citation: Wellendorff et al., PRB 85, 235149 (2012).
     **************************************************************************


     IMPORTANT: XC functional enforced from input :
     Exchange-correlation      = BEEF-VDW ( 1  4 27 13 2)
     Any further DFT definition will be discarded
     Please, verify this is what you really want


     Subspace diagonalization in iterative solution of the eigenvalue problem:
     a serial algorithm will be used

 
     Parallelization info
     --------------------
     sticks:   dense  smooth     PW     G-vecs:    dense   smooth      PW
     Min          44      17      5                 8382     2101     345
     Max          45      18      6                 8407     2144     360
     Sum        2839    1147    349               537025   135965   22515
 


     bravais-lattice index     =            0
     lattice parameter (alat)  =       1.8897  a.u.
     unit-cell volume          =    4513.4676 (a.u.)^3
     number of atoms/cell      =           12
     number of atomic types    =            2
     number of electrons       =       207.00
     number of Kohn-Sham states=          133
     kinetic-energy cutoff     =      36.7493  Ry
     charge density cutoff     =     367.4932  Ry
     convergence threshold     =      1.0E-06
     mixing beta               =       0.1000
     number of iterations used =           10  plain     mixing
     Exchange-correlation      = BEEF-VDW ( 1  4 27 13 2)
     nstep                     =           50


     celldm(1)=   1.889726  celldm(2)=   0.000000  celldm(3)=   0.000000
     celldm(4)=   0.000000  celldm(5)=   0.000000  celldm(6)=   0.000000

     crystal axes: (cart. coord. in units of alat)
               a(1) = (   5.605664   0.000000   0.000000 )  
               a(2) = (  -2.802832   4.854647   0.000000 )  
               a(3) = (   0.000000   0.000000  24.577005 )  

     reciprocal axes: (cart. coord. in units 2 pi/alat)
               b(1) = (  0.178391  0.102994  0.000000 )  
               b(2) = (  0.000000  0.205988  0.000000 )  
               b(3) = (  0.000000  0.000000  0.040688 )  


     PseudoPot. # 1 for Cu read from file:
     /afs/slac.stanford.edu/u/if/mamunm/psp/gbrv1.5pbe/Cu.UPF
     MD5 check sum: 6e991ff952a84172a2a52a1c1e996048
     Pseudo is Ultrasoft + core correction, Zval = 19.0
     Generated by new atomic code, or converted to UPF format
     Using radial grid of  867 points,  6 beta functions with: 
                l(1) =   0
                l(2) =   0
                l(3) =   1
                l(4) =   1
                l(5) =   2
                l(6) =   2
     Q(r) pseudized with  8 coefficients,  rinner =    1.150   1.150   1.150
                                                       1.150   1.150

     PseudoPot. # 2 for Zr read from file:
     /afs/slac.stanford.edu/u/if/mamunm/psp/gbrv1.5pbe/Zr.UPF
     MD5 check sum: 5db81b1e868ab7776c4564c113de050b
     Pseudo is Ultrasoft + core correction, Zval = 12.0
     Generated by new atomic code, or converted to UPF format
     Using radial grid of  887 points,  6 beta functions with: 
                l(1) =   0
                l(2) =   0
                l(3) =   1
                l(4) =   1
                l(5) =   2
                l(6) =   2
     Q(r) pseudized with  6 coefficients,  rinner =    1.200   1.200   1.200
                                                       1.200   1.200

     vdW kernel table read from file vdW_kernel_table
     MD5 check sum: 095c7af220d748ca6e76c0b4c6cfb241

     atomic species   valence    mass     pseudopotential
        Cu1           19.00    63.54600     Cu( 1.00)
        Zr1           12.00    91.22400     Zr( 1.00)

     No symmetry found



   Cartesian axes

     site n.     atom                  positions (alat units)
         1           Cu1 tau(   1) = (   0.0000000   0.0000000  10.0000000  )
         2           Cu1 tau(   2) = (  -1.4014160   2.4273237  10.0000000  )
         3           Cu1 tau(   3) = (   1.4014160   2.4273237  10.0000000  )
         4           Zr1 tau(   4) = (   2.8028320   0.0000000  10.0000000  )
         5           Cu1 tau(   5) = (   2.8028320   1.6182158  12.2885027  )
         6           Cu1 tau(   6) = (   1.4014160   4.0455395  12.2885027  )
         7           Cu1 tau(   7) = (  -1.4014160   4.0455395  12.2885027  )
         8           Zr1 tau(   8) = (   0.0000000   1.6182158  12.2885027  )
         9           Cu1 tau(   9) = (  -0.0000000   3.2364316  14.5770055  )
        10           Cu1 tau(  10) = (   1.4014160   0.8091079  14.5770055  )
        11           Cu1 tau(  11) = (   4.2042480   0.8091079  14.5770055  )
        12           Zr1 tau(  12) = (   2.8028320   3.2364316  14.5770055  )

     number of k points=    20  Fermi-Dirac smearing, width (Ry)=  0.0110
                       cart. coord. in units 2pi/alat
        k(    1) = (   0.0000000   0.0000000   0.0000000), wk =   0.0555556
        k(    2) = (   0.0000000   0.0343314   0.0000000), wk =   0.1111111
        k(    3) = (   0.0000000   0.0686627   0.0000000), wk =   0.1111111
        k(    4) = (   0.0000000  -0.1029941   0.0000000), wk =   0.0555556
        k(    5) = (   0.0297318   0.0171657   0.0000000), wk =   0.1111111
        k(    6) = (   0.0297318   0.0514970   0.0000000), wk =   0.1111111
        k(    7) = (   0.0297318   0.0858284   0.0000000), wk =   0.1111111
        k(    8) = (   0.0297318  -0.0858284   0.0000000), wk =   0.1111111
        k(    9) = (   0.0297318  -0.0514970   0.0000000), wk =   0.1111111
        k(   10) = (   0.0297318  -0.0171657   0.0000000), wk =   0.1111111
        k(   11) = (   0.0594637   0.0343314   0.0000000), wk =   0.1111111
        k(   12) = (   0.0594637   0.0686627   0.0000000), wk =   0.1111111
        k(   13) = (   0.0594637   0.1029941   0.0000000), wk =   0.1111111
        k(   14) = (   0.0594637  -0.0686627   0.0000000), wk =   0.1111111
        k(   15) = (   0.0594637  -0.0343314   0.0000000), wk =   0.1111111
        k(   16) = (   0.0594637   0.0000000   0.0000000), wk =   0.1111111
        k(   17) = (  -0.0891955  -0.0514970   0.0000000), wk =   0.0555556
        k(   18) = (  -0.0891955  -0.0171657   0.0000000), wk =   0.1111111
        k(   19) = (  -0.0891955   0.0171657   0.0000000), wk =   0.1111111
        k(   20) = (  -0.0891955  -0.1544911   0.0000000), wk =   0.0555556

     Dense  grid:   537025 G-vectors     FFT dimensions: (  72,  72, 288)

     Smooth grid:   135965 G-vectors     FFT dimensions: (  45,  45, 180)

     Largest allocated arrays     est. size (Mb)     dimensions
        Kohn-Sham Wavefunctions         0.57 Mb     (     283,  133)
        NL pseudopotentials             0.93 Mb     (     283,  216)
        Each V/rho on FFT grid          0.40 Mb     (   25920)
        Each G-vector array             0.06 Mb     (    8384)
        G-vector shells                 0.03 Mb     (    4045)
     Largest temporary arrays     est. size (Mb)     dimensions
        Auxiliary wavefunctions         2.30 Mb     (     283,  532)
        Each subspace H/S matrix        4.32 Mb     (     532,  532)
        Each <psi_i|beta_j> matrix      0.44 Mb     (     216,  133)
        Arrays for rho mixing           3.96 Mb     (   25920,   10)

     Initial potential from superposition of free atoms
     Check: negative starting charge=   -0.182458

     starting charge  197.99353, renormalised to  207.00000

     negative rho (up, down):  1.908E-01 0.000E+00


     ************************************************************************
     *
     * You are using vdW-DF for exchange-correlation in this calculation.
     * Please cite the following three references that made this development
     * possible:
     *
     *   M. Dion, H. Rydberg, E. Schroder, D. C. Langreth, and
     *   B. I. Lundqvist, Phys. Rev. Lett. 92, 246401 (2004).
     *
     *   T. Thonhauser, V. R. Cooper, S. Li, A. Puzder, P. Hyldgaard, and
     *   D. C. Langreth, Phys. Rev. B 76, 125112 (2007).
     *
     *   G. Roman-Perez and J. M. Soler, Phys. Rev. Lett. 103, 096102 (2009).
     *
     *
     * If you are using vdW-DF2, please also cite:
     *
     *   K. Lee, E. D. Murray, L. Kong, B. I. Lundqvist, and
     *   D. C. Langreth, Phys. Rev. B 82, 081101(R) (2010).
     *
     *
     * If you are calculating the stress with vdW-DF, please also cite:
     *
     *   R. Sabatini, E. Kucukbenli, B. Kolb, T. Thonhauser, and
     *   S. de Gironcoli, J. Phys.: Condens. Matter 24, 424209 (2012).
     *
     ************************************************************************

     Carrying out vdW-DF run using the following parameters:

     Nqs =      20    Nr_points =    1024   r_max =   100.000
     q_mesh =
               0.00001000     0.04494208     0.09755937     0.15916263
               0.23128650     0.31572767     0.41458969     0.53033537
               0.66584808     0.82450364     1.01025438     1.22772762
               1.48234092     1.78043706     2.12944203     2.53805004
               3.01644009     3.57652955     4.23227104     5.00000000

     Gradients computed in reciprocal space

     ************************************************************************


 
     Adding external electric field

     Computed dipole along edir(3) : 
        Dipole               -0.0000 Ry au,         -0.0000 Debye
        Dipole field         -0.0000 Ry au
 
        Potential amp.        0.0000 Ry
        Total length         45.2827 bohr
 
     Starting wfc are  156 randomized atomic wfcs

     total cpu time spent up to now is       28.1 secs

     per-process dynamical memory:    40.0 Mb

     Self-consistent Calculation

     iteration #  1     ecut=    36.75 Ry     beta=0.10
     Davidson diagonalization with overlap
     ethr =  1.00E-02,  avg # of iterations =  7.3

     negative rho (up, down):  1.895E-01 0.000E+00
 
     Adding external electric field

     Computed dipole along edir(3) : 
        Dipole               -0.0000 Ry au,         -0.0001 Debye
        Dipole field         -0.0000 Ry au
 
        Potential amp.        0.0000 Ry
        Total length         45.2827 bohr
 

     total cpu time spent up to now is      137.0 secs

     total energy              =   -3940.93666301 Ry
     Harris-Foulkes estimate   =   -3948.80067065 Ry
     estimated scf accuracy    <      44.62121767 Ry

     iteration #  2     ecut=    36.75 Ry     beta=0.10
     Davidson diagonalization with overlap
     ethr =  1.00E-02,  avg # of iterations =  2.0

     negative rho (up, down):  1.890E-01 0.000E+00
 
     Adding external electric field

     Computed dipole along edir(3) : 
        Dipole               -0.0004 Ry au,         -0.0010 Debye
        Dipole field         -0.0000 Ry au
 
        Potential amp.        0.0001 Ry
        Total length         45.2827 bohr
 

     total cpu time spent up to now is      193.3 secs

     total energy              =   -3943.65367682 Ry
     Harris-Foulkes estimate   =   -3944.39070291 Ry
     estimated scf accuracy    <       4.04105818 Ry

     iteration #  3     ecut=    36.75 Ry     beta=0.10
     Davidson diagonalization with overlap
     ethr =  1.95E-03,  avg # of iterations =  2.0

     negative rho (up, down):  1.887E-01 0.000E+00
 
     Adding external electric field

     Computed dipole along edir(3) : 
        Dipole                0.0008 Ry au,          0.0020 Debye
        Dipole field          0.0000 Ry au
 
        Potential amp.       -0.0002 Ry
        Total length         45.2827 bohr
 

     total cpu time spent up to now is      252.0 secs

     total energy              =   -3943.64892077 Ry
     Harris-Foulkes estimate   =   -3944.10489501 Ry
     estimated scf accuracy    <       1.63161230 Ry

     iteration #  4     ecut=    36.75 Ry     beta=0.10
     Davidson diagonalization with overlap
     ethr =  7.88E-04,  avg # of iterations =  2.5

     negative rho (up, down):  1.888E-01 0.000E+00
 
     Adding external electric field

     Computed dipole along edir(3) : 
        Dipole               -0.0075 Ry au,         -0.0190 Debye
        Dipole field         -0.0000 Ry au
 
        Potential amp.        0.0019 Ry
        Total length         45.2827 bohr
 

     total cpu time spent up to now is      301.6 secs

     total energy              =   -3943.52075045 Ry
     Harris-Foulkes estimate   =   -3943.73346751 Ry
     estimated scf accuracy    <       0.47916964 Ry

     iteration #  5     ecut=    36.75 Ry     beta=0.10
     Davidson diagonalization with overlap
     ethr =  2.31E-04,  avg # of iterations =  4.3

     negative rho (up, down):  1.884E-01 0.000E+00
 
     Adding external electric field

     Computed dipole along edir(3) : 
        Dipole                0.0855 Ry au,          0.2172 Debye
        Dipole field          0.0002 Ry au
 
        Potential amp.       -0.0216 Ry
        Total length         45.2827 bohr
 

     total cpu time spent up to now is      370.0 secs

     total energy              =   -3943.56994782 Ry
     Harris-Foulkes estimate   =   -3943.60749987 Ry
     estimated scf accuracy    <       0.12987008 Ry

     iteration #  6     ecut=    36.75 Ry     beta=0.10
     Davidson diagonalization with overlap
     ethr =  6.27E-05,  avg # of iterations =  5.5

     negative rho (up, down):  1.883E-01 0.000E+00
 
     Adding external electric field

     Computed dipole along edir(3) : 
        Dipole               -0.0096 Ry au,         -0.0245 Debye
        Dipole field         -0.0000 Ry au
 
        Potential amp.        0.0024 Ry
        Total length         45.2827 bohr
 

     total cpu time spent up to now is      443.0 secs

     total energy              =   -3943.60232423 Ry
     Harris-Foulkes estimate   =   -3943.61866923 Ry
     estimated scf accuracy    <       0.35144245 Ry

     iteration #  7     ecut=    36.75 Ry     beta=0.10
     Davidson diagonalization with overlap
     ethr =  6.27E-05,  avg # of iterations =  2.4

     negative rho (up, down):  1.883E-01 0.000E+00
 
     Adding external electric field

     Computed dipole along edir(3) : 
        Dipole                0.0012 Ry au,          0.0030 Debye
        Dipole field          0.0000 Ry au
 
        Potential amp.       -0.0003 Ry
        Total length         45.2827 bohr
 

     total cpu time spent up to now is      502.5 secs

     total energy              =   -3943.57267096 Ry
     Harris-Foulkes estimate   =   -3943.60819257 Ry
     estimated scf accuracy    <       0.12406581 Ry

     iteration #  8     ecut=    36.75 Ry     beta=0.10
     Davidson diagonalization with overlap
     ethr =  5.99E-05,  avg # of iterations =  3.5

     negative rho (up, down):  1.880E-01 0.000E+00
 
     Adding external electric field

     Computed dipole along edir(3) : 
        Dipole               -0.0059 Ry au,         -0.0149 Debye
        Dipole field         -0.0000 Ry au
 
        Potential amp.        0.0015 Ry
        Total length         45.2827 bohr
 

     total cpu time spent up to now is      568.4 secs

     total energy              =   -3943.58636292 Ry
     Harris-Foulkes estimate   =   -3943.59647685 Ry
     estimated scf accuracy    <       0.04974794 Ry

     iteration #  9     ecut=    36.75 Ry     beta=0.10
     Davidson diagonalization with overlap
     ethr =  2.40E-05,  avg # of iterations =  5.5

     negative rho (up, down):  1.879E-01 0.000E+00
 
     Adding external electric field

     Computed dipole along edir(3) : 
        Dipole               -0.0035 Ry au,         -0.0089 Debye
        Dipole field         -0.0000 Ry au
 
        Potential amp.        0.0009 Ry
        Total length         45.2827 bohr
 

     total cpu time spent up to now is      641.0 secs

     total energy              =   -3943.58939689 Ry
     Harris-Foulkes estimate   =   -3943.59078445 Ry
     estimated scf accuracy    <       0.01045957 Ry

     iteration # 10     ecut=    36.75 Ry     beta=0.10
     Davidson diagonalization with overlap
     ethr =  5.05E-06,  avg # of iterations =  2.4

     negative rho (up, down):  1.878E-01 0.000E+00
 
     Adding external electric field

     Computed dipole along edir(3) : 
        Dipole               -0.0029 Ry au,         -0.0073 Debye
        Dipole field         -0.0000 Ry au
 
        Potential amp.        0.0007 Ry
        Total length         45.2827 bohr
 

     total cpu time spent up to now is      702.3 secs

     total energy              =   -3943.59014926 Ry
     Harris-Foulkes estimate   =   -3943.58987909 Ry
     estimated scf accuracy    <       0.00559674 Ry

     iteration # 11     ecut=    36.75 Ry     beta=0.10
     Davidson diagonalization with overlap
     ethr =  2.70E-06,  avg # of iterations =  1.1

     negative rho (up, down):  1.876E-01 0.000E+00
 
     Adding external electric field

     Computed dipole along edir(3) : 
        Dipole                0.0023 Ry au,          0.0058 Debye
        Dipole field          0.0000 Ry au
 
        Potential amp.       -0.0006 Ry
        Total length         45.2827 bohr
 

     total cpu time spent up to now is      758.1 secs

     total energy              =   -3943.58959842 Ry
     Harris-Foulkes estimate   =   -3943.59028595 Ry
     estimated scf accuracy    <       0.00390299 Ry

     iteration # 12     ecut=    36.75 Ry     beta=0.10
     Davidson diagonalization with overlap
     ethr =  1.89E-06,  avg # of iterations =  3.1

     negative rho (up, down):  1.875E-01 0.000E+00
 
     Adding external electric field

     Computed dipole along edir(3) : 
        Dipole               -0.0011 Ry au,         -0.0028 Debye
        Dipole field         -0.0000 Ry au
 
        Potential amp.        0.0003 Ry
        Total length         45.2827 bohr
 

     total cpu time spent up to now is      826.3 secs

     total energy              =   -3943.58944236 Ry
     Harris-Foulkes estimate   =   -3943.59051407 Ry
     estimated scf accuracy    <       0.00522858 Ry

     iteration # 13     ecut=    36.75 Ry     beta=0.10
     Davidson diagonalization with overlap
     ethr =  1.89E-06,  avg # of iterations =  2.0

     negative rho (up, down):  1.874E-01 0.000E+00
 
     Adding external electric field

     Computed dipole along edir(3) : 
        Dipole               -0.0008 Ry au,         -0.0019 Debye
        Dipole field         -0.0000 Ry au
 
        Potential amp.        0.0002 Ry
        Total length         45.2827 bohr
 

     total cpu time spent up to now is      888.9 secs

     total energy              =   -3943.59020519 Ry
     Harris-Foulkes estimate   =   -3943.59037336 Ry
     estimated scf accuracy    <       0.00180464 Ry

     iteration # 14     ecut=    36.75 Ry     beta=0.10
     Davidson diagonalization with overlap
     ethr =  8.72E-07,  avg # of iterations =  1.0

     negative rho (up, down):  1.874E-01 0.000E+00
 
     Adding external electric field

     Computed dipole along edir(3) : 
        Dipole                0.0000 Ry au,          0.0001 Debye
        Dipole field          0.0000 Ry au
 
        Potential amp.       -0.0000 Ry
        Total length         45.2827 bohr
 

     total cpu time spent up to now is      943.5 secs

     total energy              =   -3943.57635899 Ry
     Harris-Foulkes estimate   =   -3943.59026839 Ry
     estimated scf accuracy    <       0.00060783 Ry

     iteration # 15     ecut=    36.75 Ry     beta=0.10
     Davidson diagonalization with overlap
     ethr =  2.94E-07,  avg # of iterations =  2.0

     negative rho (up, down):  1.874E-01 0.000E+00
 
     Adding external electric field

     Computed dipole along edir(3) : 
        Dipole                0.0005 Ry au,          0.0012 Debye
        Dipole field          0.0000 Ry au
 
        Potential amp.       -0.0001 Ry
        Total length         45.2827 bohr
 

     total cpu time spent up to now is      998.3 secs

     total energy              =   -3943.58983598 Ry
     Harris-Foulkes estimate   =   -3943.57645516 Ry
     estimated scf accuracy    <       0.00010908 Ry

     iteration # 16     ecut=    36.75 Ry     beta=0.10
     Davidson diagonalization with overlap
     ethr =  5.27E-08,  avg # of iterations =  2.0

     negative rho (up, down):  1.873E-01 0.000E+00
 
     Adding external electric field

     Computed dipole along edir(3) : 
        Dipole               -0.0005 Ry au,         -0.0013 Debye
        Dipole field         -0.0000 Ry au
 
        Potential amp.        0.0001 Ry
        Total length         45.2827 bohr
 

     total cpu time spent up to now is     1055.6 secs

     total energy              =   -3943.58983456 Ry
     Harris-Foulkes estimate   =   -3943.58984992 Ry
     estimated scf accuracy    <       0.00004530 Ry

     iteration # 17     ecut=    36.75 Ry     beta=0.10
     Davidson diagonalization with overlap
     ethr =  2.19E-08,  avg # of iterations =  3.0

     negative rho (up, down):  1.873E-01 0.000E+00
 
     Adding external electric field

     Computed dipole along edir(3) : 
        Dipole                0.0001 Ry au,          0.0002 Debye
        Dipole field          0.0000 Ry au
 
        Potential amp.       -0.0000 Ry
        Total length         45.2827 bohr
 

     total cpu time spent up to now is     1127.8 secs

     total energy              =   -3943.57647278 Ry
     Harris-Foulkes estimate   =   -3943.58986227 Ry
     estimated scf accuracy    <       0.00012360 Ry

     iteration # 18     ecut=    36.75 Ry     beta=0.10
     Davidson diagonalization with overlap
     ethr =  2.19E-08,  avg # of iterations =  1.6

     negative rho (up, down):  1.873E-01 0.000E+00
 
     Adding external electric field

     Computed dipole along edir(3) : 
        Dipole               -0.0000 Ry au,         -0.0000 Debye
        Dipole field         -0.0000 Ry au
 
        Potential amp.        0.0000 Ry
        Total length         45.2827 bohr
 

     total cpu time spent up to now is     1182.4 secs

     total energy              =   -3943.58093017 Ry
     Harris-Foulkes estimate   =   -3943.57647711 Ry
     estimated scf accuracy    <       0.00003308 Ry

     iteration # 19     ecut=    36.75 Ry     beta=0.10
     Davidson diagonalization with overlap
     ethr =  1.60E-08,  avg # of iterations =  2.0

     negative rho (up, down):  1.873E-01 0.000E+00
 
     Adding external electric field

     Computed dipole along edir(3) : 
        Dipole               -0.0000 Ry au,         -0.0001 Debye
        Dipole field         -0.0000 Ry au
 
        Potential amp.        0.0000 Ry
        Total length         45.2827 bohr
 

     total cpu time spent up to now is     1251.9 secs

     total energy              =   -3943.57647691 Ry
     Harris-Foulkes estimate   =   -3943.58093631 Ry
     estimated scf accuracy    <       0.00000746 Ry

     iteration # 20     ecut=    36.75 Ry     beta=0.10
     Davidson diagonalization with overlap
     ethr =  3.61E-09,  avg # of iterations =  2.0

     negative rho (up, down):  1.873E-01 0.000E+00
 
     Adding external electric field

     Computed dipole along edir(3) : 
        Dipole               -0.0000 Ry au,         -0.0000 Debye
        Dipole field         -0.0000 Ry au
 
        Potential amp.        0.0000 Ry
        Total length         45.2827 bohr
 

     total cpu time spent up to now is     1312.2 secs

     total energy              =   -3943.57647818 Ry
     Harris-Foulkes estimate   =   -3943.57647759 Ry
     estimated scf accuracy    <       0.00000216 Ry

     iteration # 21     ecut=    36.75 Ry     beta=0.10
     Davidson diagonalization with overlap
     ethr =  1.05E-09,  avg # of iterations =  2.0

     negative rho (up, down):  1.873E-01 0.000E+00

     negative rho (up, down):  1.873E-01 0.000E+00

     negative rho (up, down):  1.873E-01 0.000E+00

     negative rho (up, down):  1.873E-01 0.000E+00

     negative rho (up, down):  1.873E-01 0.000E+00

     negative rho (up, down):  1.873E-01 0.000E+00

     negative rho (up, down):  1.873E-01 0.000E+00

     negative rho (up, down):  1.873E-01 0.000E+00

     negative rho (up, down):  1.873E-01 0.000E+00

     negative rho (up, down):  1.873E-01 0.000E+00

     negative rho (up, down):  1.873E-01 0.000E+00

     negative rho (up, down):  1.873E-01 0.000E+00

     negative rho (up, down):  1.873E-01 0.000E+00

     negative rho (up, down):  1.873E-01 0.000E+00

     negative rho (up, down):  1.873E-01 0.000E+00

     negative rho (up, down):  1.873E-01 0.000E+00

     negative rho (up, down):  1.873E-01 0.000E+00

     negative rho (up, down):  1.873E-01 0.000E+00

     negative rho (up, down):  1.873E-01 0.000E+00

     negative rho (up, down):  1.873E-01 0.000E+00

     negative rho (up, down):  1.873E-01 0.000E+00

     negative rho (up, down):  1.873E-01 0.000E+00

     negative rho (up, down):  1.873E-01 0.000E+00

     negative rho (up, down):  1.873E-01 0.000E+00

     negative rho (up, down):  1.873E-01 0.000E+00

     negative rho (up, down):  1.873E-01 0.000E+00

     negative rho (up, down):  1.873E-01 0.000E+00

     negative rho (up, down):  1.873E-01 0.000E+00

     negative rho (up, down):  1.873E-01 0.000E+00

     negative rho (up, down):  1.873E-01 0.000E+00

     negative rho (up, down):  1.873E-01 0.000E+00

     negative rho (up, down):  1.873E-01 0.000E+00

     negative rho (up, down):  1.873E-01 0.000E+00

     negative rho (up, down):  1.873E-01 0.000E+00

     negative rho (up, down):  1.873E-01 0.000E+00
 
     Adding external electric field

     Computed dipole along edir(3) : 
        Dipole               -0.0014 Ry au,         -0.0036 Debye
        Dipole field         -0.0000 Ry au
 
        Potential amp.        0.0004 Ry
        Total length         45.2827 bohr
 

     total cpu time spent up to now is     1411.3 secs

     End of self-consistent calculation

          k = 0.0000 0.0000 0.0000 ( 16907 PWs)   bands (ev):

  -111.8901-111.8885-111.8882-111.7249-111.7248-111.7232-111.7232-111.7231
  -111.7231 -69.3409 -69.3334 -69.3331 -69.3131 -69.3128 -69.3049 -69.2321
   -69.2321 -69.2320 -69.2320 -69.2234 -69.2233 -69.1816 -69.1667 -69.1663
   -69.1008 -69.1006 -69.0902 -69.0902 -69.0900 -69.0900 -69.0222 -69.0218
   -69.0101 -69.0101 -69.0099 -69.0099 -49.0054 -49.0051 -48.6239 -27.0474
   -27.0440 -26.9054 -26.9054 -26.9052 -26.9052 -26.5971 -26.5772 -26.5772
    -6.1595  -4.6527  -3.7110  -3.4176  -3.4176  -3.3322  -3.3321  -2.9468
    -2.9376  -2.9376  -2.8561  -2.8478  -2.8478  -2.7627  -2.6501  -2.3120
    -2.3120  -2.1858  -2.1691  -2.1691  -2.0461  -2.0111  -1.9418  -1.9417
    -1.9218  -1.9193  -1.8606  -1.8606  -1.8134  -1.8134  -1.7265  -1.7263
    -1.6471  -1.6470  -1.5964  -1.4023  -1.4022  -1.3722  -1.3722  -1.3558
    -1.3557  -1.3291  -1.1614  -1.1388  -1.1388  -1.0705  -1.0507  -0.8992
     0.0347   0.5425   0.5425   0.6126   0.6126   0.6700   1.0345   1.0345
     1.0531   1.4076   1.4076   1.7357   2.0053   2.2508   2.2508   2.3678
     2.3678   2.7620   2.7621   3.7083   3.7553   3.7553   4.0503   4.4096
     4.4096   4.4980   4.6977   5.1729   6.0534   6.4834   6.4834   6.5265
     6.5265   6.9706   7.1127   7.1792   7.5964

          k = 0.0000 0.0343 0.0000 ( 16954 PWs)   bands (ev):

  -111.8900-111.8886-111.8882-111.7248-111.7247-111.7233-111.7232-111.7232
  -111.7231 -69.3404 -69.3337 -69.3331 -69.3129 -69.3125 -69.3054 -69.2321
   -69.2320 -69.2316 -69.2315 -69.2239 -69.2238 -69.1808 -69.1676 -69.1664
   -69.1001 -69.0999 -69.0908 -69.0906 -69.0902 -69.0900 -69.0216 -69.0212
   -69.0108 -69.0107 -69.0101 -69.0099 -49.0054 -49.0051 -48.6238 -27.0475
   -27.0441 -26.9076 -26.9065 -26.9064 -26.9053 -26.5969 -26.5788 -26.5777
    -5.9574  -4.4639  -3.5663  -3.4378  -3.3249  -3.2775  -3.2365  -2.9673
    -2.8545  -2.8276  -2.8143  -2.7901  -2.7879  -2.7091  -2.5898  -2.3026
    -2.2883  -2.2083  -2.1374  -2.1371  -2.0451  -2.0363  -2.0271  -1.9227
    -1.9139  -1.8976  -1.8679  -1.8330  -1.8279  -1.7926  -1.7599  -1.7152
    -1.6953  -1.6814  -1.6169  -1.4857  -1.4431  -1.4399  -1.3986  -1.3963
    -1.3685  -1.3465  -1.2320  -1.2160  -1.1703  -1.1528  -1.1030  -0.9214
    -0.7407  -0.2977   0.2572   0.3928   0.7226   0.8980   0.9701   1.0275
     1.1278   1.3977   1.4261   1.8287   2.0909   2.1429   2.2101   2.2386
     2.4111   2.5580   2.8498   3.4364   3.7124   4.0746   4.3124   4.4017
     4.6833   4.6881   4.8833   5.3402   6.2242   6.5229   6.5320   6.6775
     6.7595   7.0880   7.1698   7.2623   7.9359

          k = 0.0000 0.0687 0.0000 ( 16992 PWs)   bands (ev):

  -111.8897-111.8889-111.8882-111.7246-111.7244-111.7236-111.7234-111.7232
  -111.7231 -69.3391 -69.3347 -69.3329 -69.3131 -69.3115 -69.3066 -69.2320
   -69.2319 -69.2302 -69.2301 -69.2253 -69.2251 -69.1785 -69.1700 -69.1665
   -69.0984 -69.0982 -69.0923 -69.0921 -69.0902 -69.0901 -69.0198 -69.0195
   -69.0128 -69.0126 -69.0101 -69.0099 -49.0052 -49.0049 -48.6237 -27.0474
   -27.0445 -26.9113 -26.9096 -26.9082 -26.9060 -26.5964 -26.5818 -26.5785
    -5.3834  -3.9661  -3.7502  -3.2107  -3.1597  -3.0968  -3.0051  -2.8912
    -2.7360  -2.7148  -2.6506  -2.6298  -2.5671  -2.5220  -2.4190  -2.3036
    -2.2606  -2.2309  -2.1885  -2.1396  -2.0947  -2.0670  -2.0480  -1.9691
    -1.9304  -1.9301  -1.8662  -1.8511  -1.8288  -1.8186  -1.8015  -1.7605
    -1.7277  -1.6986  -1.6818  -1.6541  -1.6334  -1.5620  -1.5141  -1.5022
    -1.4775  -1.4744  -1.4420  -1.4387  -1.3391  -1.3077  -1.1938  -1.1670
    -1.1105  -0.6068  -0.5014   0.2083   0.2919   0.5499   0.6804   1.0166
     1.0533   1.3003   1.3655   1.4452   1.8278   1.9312   2.1106   2.1443
     2.2903   2.6844   3.3712   3.7947   3.9743   4.3562   4.5638   4.9938
     5.1139   5.2244   5.4676   5.7595   5.8675   6.6717   6.6782   6.8331
     6.8882   7.0379   7.3162   7.4854   7.5718

          k = 0.0000-0.1030 0.0000 ( 17004 PWs)   bands (ev):

  -111.8895-111.8891-111.8882-111.7244-111.7242-111.7238-111.7236-111.7232
  -111.7231 -69.3382 -69.3355 -69.3328 -69.3131 -69.3107 -69.3075 -69.2320
   -69.2319 -69.2291 -69.2290 -69.2263 -69.2262 -69.1766 -69.1719 -69.1665
   -69.0970 -69.0969 -69.0936 -69.0934 -69.0902 -69.0901 -69.0183 -69.0182
   -69.0144 -69.0142 -69.0101 -69.0100 -49.0051 -49.0049 -48.6236 -27.0473
   -27.0447 -26.9130 -26.9113 -26.9090 -26.9065 -26.5961 -26.5833 -26.5789
    -4.5764  -4.5346  -3.4015  -3.3137  -2.9307  -2.8972  -2.8684  -2.8403
    -2.6628  -2.6321  -2.5132  -2.4818  -2.4209  -2.4154  -2.3654  -2.3249
    -2.2817  -2.2695  -2.2258  -2.1929  -2.0969  -2.0747  -2.0062  -1.9669
    -1.9622  -1.9537  -1.9262  -1.9018  -1.8919  -1.8766  -1.8385  -1.8267
    -1.8121  -1.7995  -1.7671  -1.7325  -1.6669  -1.6610  -1.6505  -1.6289
    -1.6120  -1.5860  -1.5344  -1.4596  -1.3496  -1.3316  -1.1919  -1.1678
    -1.1099  -1.0617  -0.3607  -0.0929   0.1109   0.2660   0.6413   0.8429
     1.1283   1.2058   1.2897   1.3821   1.5035   1.7828   1.9597   2.2457
     2.3267   2.7160   3.5342   3.8743   4.6470   4.6604   4.7347   4.9118
     5.2542   5.5400   5.7961   5.8863   6.2607   6.3922   6.6359   6.6570
     6.7815   6.9159   7.5611   7.6665   7.6754

          k = 0.0297 0.0172 0.0000 ( 16954 PWs)   bands (ev):

  -111.8900-111.8885-111.8883-111.7248-111.7247-111.7233-111.7232-111.7232
  -111.7231 -69.3404 -69.3335 -69.3333 -69.3131 -69.3123 -69.3054 -69.2321
   -69.2320 -69.2316 -69.2315 -69.2239 -69.2238 -69.1808 -69.1673 -69.1667
   -69.1001 -69.0999 -69.0908 -69.0906 -69.0902 -69.0900 -69.0216 -69.0212
   -69.0108 -69.0107 -69.0101 -69.0099 -49.0054 -49.0051 -48.6238 -27.0475
   -27.0441 -26.9076 -26.9065 -26.9064 -26.9053 -26.5969 -26.5788 -26.5777
    -5.9574  -4.4639  -3.5663  -3.4378  -3.3249  -3.2776  -3.2364  -2.9673
    -2.8545  -2.8276  -2.8144  -2.7901  -2.7879  -2.7091  -2.5898  -2.3026
    -2.2883  -2.2084  -2.1374  -2.1371  -2.0451  -2.0363  -2.0271  -1.9228
    -1.9139  -1.8976  -1.8678  -1.8330  -1.8280  -1.7926  -1.7598  -1.7153
    -1.6953  -1.6814  -1.6169  -1.4857  -1.4430  -1.4400  -1.3986  -1.3963
    -1.3685  -1.3465  -1.2320  -1.2160  -1.1702  -1.1528  -1.1031  -0.9214
    -0.7407  -0.2977   0.2572   0.3927   0.7226   0.8980   0.9702   1.0275
     1.1278   1.3977   1.4261   1.8287   2.0909   2.1429   2.2101   2.2386
     2.4111   2.5580   2.8498   3.4364   3.7124   4.0746   4.3125   4.4016
     4.6833   4.6881   4.8833   5.3402   6.2242   6.5229   6.5320   6.6775
     6.7594   7.0880   7.1698   7.2623   7.9359

          k = 0.0297 0.0515 0.0000 ( 16978 PWs)   bands (ev):

  -111.8898-111.8887-111.8883-111.7246-111.7245-111.7235-111.7234-111.7232
  -111.7231 -69.3395 -69.3343 -69.3330 -69.3132 -69.3116 -69.3063 -69.2320
   -69.2319 -69.2306 -69.2305 -69.2249 -69.2247 -69.1792 -69.1691 -69.1667
   -69.0989 -69.0987 -69.0918 -69.0917 -69.0902 -69.0901 -69.0203 -69.0200
   -69.0122 -69.0121 -69.0101 -69.0099 -49.0052 -49.0050 -48.6237 -27.0474
   -27.0444 -26.9103 -26.9086 -26.9071 -26.9068 -26.5965 -26.5808 -26.5786
    -5.5683  -4.1124  -3.4916  -3.3808  -3.2258  -3.1697  -3.0965  -2.8861
    -2.7610  -2.7290  -2.7271  -2.6699  -2.6275  -2.6017  -2.4696  -2.3023
    -2.2546  -2.2353  -2.1588  -2.1245  -2.0798  -2.0526  -2.0458  -1.9552
    -1.9391  -1.8871  -1.8696  -1.8449  -1.8323  -1.8245  -1.7987  -1.7468
    -1.7074  -1.6969  -1.6534  -1.6328  -1.5712  -1.5489  -1.4978  -1.4523
    -1.4483  -1.3842  -1.3753  -1.3171  -1.2546  -1.2232  -1.2049  -1.1613
    -1.1393  -0.5843  -0.3238   0.0264   0.6204   0.6285   0.7242   1.0667
     1.2171   1.2683   1.3152   1.5276   2.0036   2.0465   2.1556   2.2118
     2.3309   2.6068   3.3015   3.4629   3.8924   4.3272   4.5705   4.7027
     4.9916   5.0742   5.2648   5.6713   6.2963   6.4177   6.4793   6.7281
     6.7292   7.2172   7.3866   7.5079   7.5208

          k = 0.0297 0.0858 0.0000 ( 16980 PWs)   bands (ev):

  -111.8895-111.8890-111.8883-111.7244-111.7242-111.7238-111.7236-111.7232
  -111.7231 -69.3381 -69.3355 -69.3328 -69.3132 -69.3105 -69.3076 -69.2320
   -69.2319 -69.2291 -69.2290 -69.2263 -69.2262 -69.1767 -69.1718 -69.1666
   -69.0970 -69.0969 -69.0935 -69.0934 -69.0903 -69.0901 -69.0184 -69.0181
   -69.0144 -69.0142 -69.0101 -69.0100 -49.0051 -49.0049 -48.6236 -27.0471
   -27.0450 -26.9122 -26.9106 -26.9092 -26.9077 -26.5961 -26.5826 -26.5797
    -4.8578  -4.0211  -3.5267  -3.3312  -3.0973  -2.9112  -2.8495  -2.7386
    -2.6359  -2.6148  -2.5463  -2.4983  -2.4431  -2.4390  -2.3790  -2.2993
    -2.2780  -2.2408  -2.2258  -2.2064  -2.1322  -2.1050  -2.0222  -2.0187
    -1.9686  -1.9534  -1.9418  -1.9193  -1.8874  -1.8536  -1.8443  -1.8336
    -1.8049  -1.7770  -1.7413  -1.7272  -1.6738  -1.6503  -1.6227  -1.6113
    -1.5876  -1.5519  -1.5289  -1.4505  -1.3734  -1.3123  -1.2290  -1.2017
    -1.1648  -0.9496  -0.5577  -0.4026   0.2275   0.4482   0.7194   1.0096
     1.0190   1.2576   1.3050   1.4212   1.6687   1.8658   1.9861   2.2907
     2.3875   2.5738   3.5252   3.5788   4.2960   4.5260   4.9922   5.3068
     5.3090   5.6002   5.8687   6.1527   6.2407   6.3590   6.3970   6.5354
     6.9352   7.1029   7.1898   7.3201   7.4262

          k = 0.0297-0.0858 0.0000 ( 16980 PWs)   bands (ev):

  -111.8895-111.8891-111.8882-111.7244-111.7242-111.7238-111.7236-111.7232
  -111.7231 -69.3381 -69.3356 -69.3327 -69.3132 -69.3106 -69.3076 -69.2320
   -69.2319 -69.2291 -69.2290 -69.2263 -69.2262 -69.1766 -69.1719 -69.1666
   -69.0970 -69.0969 -69.0935 -69.0934 -69.0903 -69.0901 -69.0184 -69.0181
   -69.0144 -69.0142 -69.0101 -69.0100 -49.0051 -49.0049 -48.6236 -27.0471
   -27.0450 -26.9122 -26.9106 -26.9092 -26.9077 -26.5961 -26.5826 -26.5797
    -4.8578  -4.0211  -3.5267  -3.3312  -3.0973  -2.9112  -2.8494  -2.7386
    -2.6360  -2.6148  -2.5463  -2.4983  -2.4431  -2.4389  -2.3790  -2.2994
    -2.2780  -2.2408  -2.2258  -2.2064  -2.1322  -2.1050  -2.0222  -2.0187
    -1.9686  -1.9534  -1.9418  -1.9193  -1.8874  -1.8535  -1.8444  -1.8336
    -1.8050  -1.7769  -1.7413  -1.7272  -1.6738  -1.6503  -1.6227  -1.6113
    -1.5876  -1.5519  -1.5289  -1.4505  -1.3734  -1.3123  -1.2289  -1.2017
    -1.1648  -0.9496  -0.5577  -0.4026   0.2275   0.4482   0.7194   1.0096
     1.0190   1.2576   1.3050   1.4212   1.6687   1.8658   1.9861   2.2907
     2.3875   2.5738   3.5252   3.5788   4.2961   4.5260   4.9922   5.3068
     5.3090   5.6002   5.8687   6.1527   6.2407   6.3590   6.3970   6.5354
     6.9352   7.1029   7.1898   7.3201   7.4262

          k = 0.0297-0.0515 0.0000 ( 16978 PWs)   bands (ev):

  -111.8898-111.8888-111.8882-111.7246-111.7245-111.7235-111.7234-111.7232
  -111.7231 -69.3394 -69.3345 -69.3329 -69.3130 -69.3119 -69.3062 -69.2320
   -69.2319 -69.2306 -69.2305 -69.2249 -69.2247 -69.1792 -69.1693 -69.1665
   -69.0989 -69.0987 -69.0918 -69.0917 -69.0902 -69.0901 -69.0203 -69.0200
   -69.0122 -69.0121 -69.0101 -69.0099 -49.0052 -49.0050 -48.6237 -27.0474
   -27.0444 -26.9103 -26.9086 -26.9071 -26.9068 -26.5965 -26.5808 -26.5786
    -5.5683  -4.1124  -3.4916  -3.3808  -3.2258  -3.1696  -3.0965  -2.8861
    -2.7610  -2.7290  -2.7271  -2.6699  -2.6275  -2.6017  -2.4696  -2.3023
    -2.2546  -2.2353  -2.1589  -2.1246  -2.0798  -2.0526  -2.0458  -1.9553
    -1.9391  -1.8871  -1.8696  -1.8448  -1.8324  -1.8245  -1.7987  -1.7468
    -1.7074  -1.6968  -1.6534  -1.6329  -1.5712  -1.5489  -1.4978  -1.4523
    -1.4483  -1.3842  -1.3753  -1.3171  -1.2546  -1.2232  -1.2049  -1.1613
    -1.1392  -0.5843  -0.3238   0.0263   0.6204   0.6285   0.7242   1.0667
     1.2171   1.2683   1.3152   1.5276   2.0036   2.0465   2.1556   2.2118
     2.3309   2.6068   3.3015   3.4629   3.8924   4.3272   4.5705   4.7027
     4.9916   5.0742   5.2648   5.6713   6.2963   6.4177   6.4793   6.7281
     6.7292   7.2172   7.3866   7.5079   7.5208

          k = 0.0297-0.0172 0.0000 ( 16954 PWs)   bands (ev):

  -111.8900-111.8886-111.8882-111.7248-111.7247-111.7233-111.7232-111.7232
  -111.7231 -69.3404 -69.3337 -69.3331 -69.3129 -69.3125 -69.3054 -69.2321
   -69.2320 -69.2316 -69.2315 -69.2239 -69.2238 -69.1808 -69.1676 -69.1664
   -69.1001 -69.0999 -69.0908 -69.0906 -69.0902 -69.0900 -69.0216 -69.0212
   -69.0108 -69.0107 -69.0101 -69.0099 -49.0054 -49.0051 -48.6238 -27.0475
   -27.0441 -26.9076 -26.9065 -26.9064 -26.9053 -26.5969 -26.5788 -26.5777
    -5.9574  -4.4639  -3.5663  -3.4378  -3.3249  -3.2775  -3.2365  -2.9673
    -2.8545  -2.8276  -2.8143  -2.7901  -2.7879  -2.7091  -2.5898  -2.3026
    -2.2883  -2.2083  -2.1374  -2.1371  -2.0451  -2.0363  -2.0271  -1.9227
    -1.9139  -1.8976  -1.8679  -1.8330  -1.8279  -1.7926  -1.7599  -1.7152
    -1.6953  -1.6814  -1.6169  -1.4857  -1.4431  -1.4399  -1.3986  -1.3963
    -1.3685  -1.3465  -1.2320  -1.2160  -1.1703  -1.1528  -1.1030  -0.9214
    -0.7407  -0.2977   0.2572   0.3928   0.7226   0.8980   0.9701   1.0275
     1.1278   1.3977   1.4261   1.8287   2.0909   2.1429   2.2101   2.2386
     2.4111   2.5580   2.8498   3.4364   3.7124   4.0746   4.3124   4.4017
     4.6833   4.6881   4.8833   5.3402   6.2242   6.5229   6.5320   6.6775
     6.7595   7.0880   7.1698   7.2623   7.9359

          k = 0.0595 0.0343 0.0000 ( 16992 PWs)   bands (ev):

  -111.8898-111.8885-111.8885-111.7246-111.7244-111.7236-111.7234-111.7232
  -111.7231 -69.3392 -69.3343 -69.3331 -69.3133 -69.3112 -69.3067 -69.2320
   -69.2319 -69.2302 -69.2301 -69.2253 -69.2251 -69.1786 -69.1696 -69.1668
   -69.0984 -69.0982 -69.0923 -69.0921 -69.0902 -69.0901 -69.0198 -69.0195
   -69.0128 -69.0126 -69.0101 -69.0099 -49.0052 -49.0049 -48.6237 -27.0474
   -27.0445 -26.9113 -26.9096 -26.9082 -26.9060 -26.5964 -26.5818 -26.5785
    -5.3834  -3.9661  -3.7502  -3.2108  -3.1597  -3.0967  -3.0050  -2.8913
    -2.7360  -2.7148  -2.6506  -2.6298  -2.5671  -2.5220  -2.4190  -2.3036
    -2.2606  -2.2310  -2.1884  -2.1395  -2.0947  -2.0670  -2.0480  -1.9691
    -1.9303  -1.9302  -1.8662  -1.8511  -1.8288  -1.8187  -1.8014  -1.7605
    -1.7277  -1.6985  -1.6819  -1.6541  -1.6334  -1.5621  -1.5141  -1.5022
    -1.4775  -1.4744  -1.4419  -1.4387  -1.3391  -1.3077  -1.1938  -1.1671
    -1.1106  -0.6068  -0.5014   0.2083   0.2919   0.5499   0.6805   1.0167
     1.0534   1.3003   1.3655   1.4452   1.8278   1.9312   2.1106   2.1443
     2.2903   2.6844   3.3712   3.7947   3.9743   4.3562   4.5638   4.9938
     5.1139   5.2244   5.4676   5.7595   5.8675   6.6717   6.6781   6.8331
     6.8882   7.0379   7.3162   7.4854   7.5718

          k = 0.0595 0.0687 0.0000 ( 16980 PWs)   bands (ev):

  -111.8896-111.8888-111.8884-111.7244-111.7242-111.7238-111.7236-111.7232
  -111.7231 -69.3383 -69.3353 -69.3329 -69.3133 -69.3102 -69.3077 -69.2320
   -69.2319 -69.2291 -69.2290 -69.2263 -69.2262 -69.1768 -69.1715 -69.1668
   -69.0970 -69.0969 -69.0935 -69.0934 -69.0903 -69.0901 -69.0184 -69.0181
   -69.0144 -69.0142 -69.0101 -69.0100 -49.0051 -49.0049 -48.6236 -27.0471
   -27.0450 -26.9122 -26.9106 -26.9092 -26.9077 -26.5961 -26.5826 -26.5797
    -4.8578  -4.0211  -3.5267  -3.3312  -3.0973  -2.9111  -2.8495  -2.7386
    -2.6361  -2.6147  -2.5463  -2.4983  -2.4431  -2.4389  -2.3790  -2.2994
    -2.2780  -2.2407  -2.2258  -2.2064  -2.1322  -2.1050  -2.0222  -2.0186
    -1.9686  -1.9534  -1.9418  -1.9193  -1.8874  -1.8535  -1.8444  -1.8336
    -1.8050  -1.7769  -1.7413  -1.7272  -1.6737  -1.6503  -1.6227  -1.6113
    -1.5876  -1.5519  -1.5289  -1.4505  -1.3734  -1.3124  -1.2289  -1.2017
    -1.1648  -0.9497  -0.5577  -0.4026   0.2275   0.4482   0.7194   1.0096
     1.0190   1.2576   1.3050   1.4212   1.6687   1.8658   1.9861   2.2907
     2.3875   2.5738   3.5252   3.5788   4.2961   4.5260   4.9922   5.3068
     5.3090   5.6002   5.8687   6.1527   6.2407   6.3590   6.3970   6.5354
     6.9352   7.1029   7.1898   7.3201   7.4262

          k = 0.0595 0.1030 0.0000 ( 17004 PWs)   bands (ev):

  -111.8894-111.8891-111.8883-111.7241-111.7241-111.7239-111.7239-111.7232
  -111.7231 -69.3370 -69.3366 -69.3327 -69.3133 -69.3092 -69.3089 -69.2319
   -69.2318 -69.2278 -69.2277 -69.2276 -69.2276 -69.1744 -69.1741 -69.1667
   -69.0953 -69.0952 -69.0951 -69.0950 -69.0903 -69.0902 -69.0164 -69.0163
   -69.0163 -69.0162 -69.0101 -69.0100 -49.0050 -49.0049 -48.6236 -27.0462
   -27.0460 -26.9110 -26.9106 -26.9104 -26.9101 -26.5960 -26.5816 -26.5816
    -4.1572  -4.1572  -3.9650  -3.0752  -2.9820  -2.9820  -2.5905  -2.5905
    -2.5687  -2.5210  -2.5209  -2.4625  -2.4315  -2.3791  -2.3789  -2.2939
    -2.2938  -2.2631  -2.2518  -2.2518  -2.1230  -2.1196  -2.1195  -2.0694
    -2.0442  -2.0441  -2.0046  -2.0046  -1.9861  -1.9023  -1.8269  -1.8177
    -1.8176  -1.7814  -1.7393  -1.7192  -1.7192  -1.6951  -1.6950  -1.6603
    -1.6127  -1.6126  -1.5788  -1.4530  -1.4529  -1.2700  -1.2534  -1.2533
    -1.0548  -1.0547  -1.0168  -0.3378   0.1908   0.1908   0.8663   0.8664
     1.1194   1.4217   1.4218   1.5039   1.5608   1.8732   1.8732   2.2463
     2.4451   2.4452   3.5220   3.5220   4.0062   5.0425   5.2099   5.2099
     6.0269   6.0269   6.2111   6.2282   6.2282   6.4553   6.5702   6.5702
     6.6435   6.8941   7.1158   7.1162   7.1595

          k = 0.0595-0.0687 0.0000 ( 16980 PWs)   bands (ev):

  -111.8895-111.8891-111.8882-111.7244-111.7242-111.7238-111.7236-111.7232
  -111.7231 -69.3381 -69.3356 -69.3327 -69.3132 -69.3106 -69.3076 -69.2320
   -69.2319 -69.2291 -69.2290 -69.2263 -69.2262 -69.1766 -69.1719 -69.1666
   -69.0970 -69.0969 -69.0935 -69.0934 -69.0903 -69.0901 -69.0184 -69.0181
   -69.0144 -69.0142 -69.0101 -69.0100 -49.0051 -49.0049 -48.6236 -27.0471
   -27.0450 -26.9122 -26.9106 -26.9092 -26.9077 -26.5961 -26.5826 -26.5797
    -4.8578  -4.0211  -3.5267  -3.3312  -3.0973  -2.9112  -2.8494  -2.7386
    -2.6360  -2.6148  -2.5463  -2.4983  -2.4431  -2.4389  -2.3790  -2.2994
    -2.2780  -2.2408  -2.2258  -2.2064  -2.1322  -2.1050  -2.0222  -2.0187
    -1.9686  -1.9534  -1.9418  -1.9193  -1.8874  -1.8535  -1.8444  -1.8336
    -1.8050  -1.7769  -1.7413  -1.7272  -1.6738  -1.6503  -1.6227  -1.6113
    -1.5876  -1.5519  -1.5289  -1.4505  -1.3734  -1.3123  -1.2289  -1.2017
    -1.1648  -0.9496  -0.5577  -0.4026   0.2275   0.4482   0.7194   1.0096
     1.0190   1.2576   1.3050   1.4212   1.6687   1.8658   1.9861   2.2907
     2.3875   2.5738   3.5252   3.5788   4.2961   4.5260   4.9922   5.3068
     5.3090   5.6002   5.8687   6.1527   6.2407   6.3590   6.3970   6.5354
     6.9352   7.1029   7.1898   7.3201   7.4262

          k = 0.0595-0.0343 0.0000 ( 16992 PWs)   bands (ev):

  -111.8897-111.8889-111.8882-111.7246-111.7244-111.7236-111.7234-111.7232
  -111.7231 -69.3391 -69.3347 -69.3329 -69.3131 -69.3115 -69.3066 -69.2320
   -69.2319 -69.2302 -69.2301 -69.2253 -69.2251 -69.1785 -69.1700 -69.1665
   -69.0984 -69.0982 -69.0923 -69.0921 -69.0902 -69.0901 -69.0198 -69.0195
   -69.0128 -69.0126 -69.0101 -69.0099 -49.0052 -49.0049 -48.6237 -27.0474
   -27.0445 -26.9113 -26.9096 -26.9082 -26.9060 -26.5964 -26.5818 -26.5785
    -5.3834  -3.9661  -3.7502  -3.2107  -3.1597  -3.0968  -3.0051  -2.8912
    -2.7360  -2.7148  -2.6506  -2.6298  -2.5671  -2.5220  -2.4190  -2.3036
    -2.2606  -2.2309  -2.1885  -2.1396  -2.0947  -2.0670  -2.0480  -1.9691
    -1.9304  -1.9301  -1.8662  -1.8511  -1.8288  -1.8186  -1.8015  -1.7605
    -1.7277  -1.6986  -1.6818  -1.6541  -1.6334  -1.5620  -1.5141  -1.5022
    -1.4775  -1.4744  -1.4420  -1.4387  -1.3391  -1.3077  -1.1938  -1.1670
    -1.1105  -0.6068  -0.5014   0.2083   0.2919   0.5499   0.6804   1.0166
     1.0533   1.3003   1.3655   1.4452   1.8278   1.9312   2.1106   2.1443
     2.2903   2.6844   3.3712   3.7947   3.9743   4.3562   4.5638   4.9938
     5.1139   5.2244   5.4676   5.7595   5.8675   6.6717   6.6782   6.8331
     6.8882   7.0379   7.3162   7.4854   7.5718

          k = 0.0595 0.0000 0.0000 ( 16978 PWs)   bands (ev):

  -111.8898-111.8887-111.8883-111.7246-111.7245-111.7235-111.7234-111.7232
  -111.7231 -69.3395 -69.3343 -69.3330 -69.3132 -69.3116 -69.3063 -69.2320
   -69.2319 -69.2306 -69.2305 -69.2249 -69.2247 -69.1792 -69.1691 -69.1667
   -69.0989 -69.0987 -69.0918 -69.0917 -69.0902 -69.0901 -69.0203 -69.0200
   -69.0122 -69.0121 -69.0101 -69.0099 -49.0052 -49.0050 -48.6237 -27.0474
   -27.0444 -26.9103 -26.9086 -26.9071 -26.9068 -26.5965 -26.5808 -26.5786
    -5.5683  -4.1124  -3.4916  -3.3808  -3.2258  -3.1697  -3.0965  -2.8861
    -2.7610  -2.7290  -2.7271  -2.6699  -2.6275  -2.6017  -2.4696  -2.3023
    -2.2546  -2.2353  -2.1588  -2.1245  -2.0798  -2.0526  -2.0458  -1.9552
    -1.9391  -1.8871  -1.8696  -1.8449  -1.8323  -1.8245  -1.7987  -1.7468
    -1.7074  -1.6969  -1.6534  -1.6328  -1.5712  -1.5489  -1.4978  -1.4523
    -1.4483  -1.3842  -1.3753  -1.3171  -1.2546  -1.2232  -1.2049  -1.1613
    -1.1393  -0.5843  -0.3238   0.0264   0.6204   0.6285   0.7242   1.0667
     1.2171   1.2683   1.3152   1.5276   2.0036   2.0465   2.1556   2.2118
     2.3309   2.6068   3.3015   3.4629   3.8924   4.3272   4.5705   4.7027
     4.9916   5.0742   5.2648   5.6713   6.2963   6.4177   6.4793   6.7281
     6.7292   7.2172   7.3866   7.5079   7.5208

          k =-0.0892-0.0515 0.0000 ( 17004 PWs)   bands (ev):

  -111.8897-111.8886-111.8885-111.7244-111.7242-111.7238-111.7236-111.7232
  -111.7231 -69.3384 -69.3350 -69.3330 -69.3134 -69.3102 -69.3078 -69.2320
   -69.2319 -69.2291 -69.2290 -69.2263 -69.2262 -69.1768 -69.1715 -69.1668
   -69.0970 -69.0969 -69.0936 -69.0934 -69.0902 -69.0901 -69.0183 -69.0182
   -69.0144 -69.0142 -69.0101 -69.0100 -49.0051 -49.0049 -48.6236 -27.0473
   -27.0447 -26.9130 -26.9113 -26.9090 -26.9065 -26.5961 -26.5833 -26.5789
    -4.5764  -4.5346  -3.4015  -3.3138  -2.9308  -2.8972  -2.8682  -2.8404
    -2.6630  -2.6319  -2.5133  -2.4816  -2.4210  -2.4154  -2.3653  -2.3248
    -2.2818  -2.2696  -2.2256  -2.1929  -2.0969  -2.0747  -2.0061  -1.9669
    -1.9622  -1.9537  -1.9263  -1.9017  -1.8919  -1.8766  -1.8385  -1.8267
    -1.8121  -1.7996  -1.7672  -1.7324  -1.6669  -1.6612  -1.6504  -1.6288
    -1.6120  -1.5860  -1.5344  -1.4596  -1.3497  -1.3317  -1.1918  -1.1679
    -1.1100  -1.0616  -0.3606  -0.0929   0.1109   0.2659   0.6414   0.8429
     1.1283   1.2057   1.2897   1.3821   1.5036   1.7828   1.9597   2.2457
     2.3266   2.7160   3.5342   3.8743   4.6470   4.6604   4.7347   4.9118
     5.2541   5.5400   5.7961   5.8863   6.2607   6.3922   6.6359   6.6570
     6.7815   6.9159   7.5611   7.6665   7.6754

          k =-0.0892-0.0172 0.0000 ( 16980 PWs)   bands (ev):

  -111.8896-111.8888-111.8884-111.7244-111.7242-111.7238-111.7236-111.7232
  -111.7231 -69.3383 -69.3353 -69.3329 -69.3133 -69.3102 -69.3077 -69.2320
   -69.2319 -69.2291 -69.2290 -69.2263 -69.2262 -69.1768 -69.1715 -69.1668
   -69.0970 -69.0969 -69.0935 -69.0934 -69.0903 -69.0901 -69.0184 -69.0181
   -69.0144 -69.0142 -69.0101 -69.0100 -49.0051 -49.0049 -48.6236 -27.0471
   -27.0450 -26.9122 -26.9106 -26.9092 -26.9077 -26.5961 -26.5826 -26.5797
    -4.8578  -4.0211  -3.5267  -3.3312  -3.0973  -2.9111  -2.8495  -2.7386
    -2.6361  -2.6147  -2.5463  -2.4983  -2.4431  -2.4389  -2.3790  -2.2994
    -2.2780  -2.2407  -2.2258  -2.2064  -2.1322  -2.1050  -2.0222  -2.0186
    -1.9686  -1.9534  -1.9418  -1.9193  -1.8874  -1.8535  -1.8444  -1.8336
    -1.8050  -1.7769  -1.7413  -1.7272  -1.6737  -1.6503  -1.6227  -1.6113
    -1.5876  -1.5519  -1.5289  -1.4505  -1.3734  -1.3124  -1.2289  -1.2017
    -1.1648  -0.9497  -0.5577  -0.4026   0.2275   0.4482   0.7194   1.0096
     1.0190   1.2576   1.3050   1.4212   1.6687   1.8658   1.9861   2.2907
     2.3875   2.5738   3.5252   3.5788   4.2961   4.5260   4.9922   5.3068
     5.3090   5.6002   5.8687   6.1527   6.2407   6.3590   6.3970   6.5354
     6.9352   7.1029   7.1898   7.3201   7.4262

          k =-0.0892 0.0172 0.0000 ( 16980 PWs)   bands (ev):

  -111.8895-111.8890-111.8883-111.7244-111.7242-111.7238-111.7236-111.7232
  -111.7231 -69.3381 -69.3355 -69.3328 -69.3132 -69.3105 -69.3076 -69.2320
   -69.2319 -69.2291 -69.2290 -69.2263 -69.2262 -69.1767 -69.1718 -69.1666
   -69.0970 -69.0969 -69.0935 -69.0934 -69.0903 -69.0901 -69.0184 -69.0181
   -69.0144 -69.0142 -69.0101 -69.0100 -49.0051 -49.0049 -48.6236 -27.0471
   -27.0450 -26.9122 -26.9106 -26.9092 -26.9077 -26.5961 -26.5826 -26.5797
    -4.8578  -4.0211  -3.5267  -3.3312  -3.0973  -2.9112  -2.8495  -2.7386
    -2.6359  -2.6148  -2.5463  -2.4983  -2.4431  -2.4390  -2.3790  -2.2993
    -2.2780  -2.2408  -2.2258  -2.2064  -2.1322  -2.1050  -2.0222  -2.0187
    -1.9686  -1.9534  -1.9418  -1.9193  -1.8874  -1.8536  -1.8443  -1.8336
    -1.8049  -1.7770  -1.7413  -1.7272  -1.6738  -1.6503  -1.6227  -1.6113
    -1.5876  -1.5519  -1.5289  -1.4505  -1.3734  -1.3123  -1.2290  -1.2017
    -1.1648  -0.9496  -0.5577  -0.4026   0.2275   0.4482   0.7194   1.0096
     1.0190   1.2576   1.3050   1.4212   1.6687   1.8658   1.9861   2.2907
     2.3875   2.5738   3.5252   3.5788   4.2960   4.5260   4.9922   5.3068
     5.3090   5.6002   5.8687   6.1527   6.2407   6.3590   6.3970   6.5354
     6.9352   7.1029   7.1898   7.3201   7.4262

          k =-0.0892-0.1545 0.0000 ( 17004 PWs)   bands (ev):

  -111.8895-111.8891-111.8882-111.7244-111.7242-111.7238-111.7236-111.7232
  -111.7231 -69.3382 -69.3355 -69.3328 -69.3131 -69.3107 -69.3075 -69.2320
   -69.2319 -69.2291 -69.2290 -69.2263 -69.2262 -69.1766 -69.1719 -69.1665
   -69.0970 -69.0969 -69.0935 -69.0934 -69.0902 -69.0901 -69.0183 -69.0182
   -69.0144 -69.0142 -69.0101 -69.0100 -49.0051 -49.0049 -48.6236 -27.0473
   -27.0447 -26.9130 -26.9113 -26.9090 -26.9065 -26.5961 -26.5833 -26.5789
    -4.5764  -4.5346  -3.4015  -3.3137  -2.9307  -2.8972  -2.8684  -2.8403
    -2.6628  -2.6321  -2.5132  -2.4818  -2.4209  -2.4154  -2.3654  -2.3249
    -2.2817  -2.2695  -2.2258  -2.1929  -2.0969  -2.0747  -2.0062  -1.9669
    -1.9622  -1.9537  -1.9262  -1.9018  -1.8919  -1.8766  -1.8385  -1.8267
    -1.8121  -1.7995  -1.7671  -1.7325  -1.6669  -1.6610  -1.6505  -1.6289
    -1.6120  -1.5860  -1.5344  -1.4596  -1.3496  -1.3316  -1.1919  -1.1678
    -1.1099  -1.0617  -0.3607  -0.0929   0.1109   0.2660   0.6413   0.8429
     1.1283   1.2058   1.2897   1.3821   1.5035   1.7828   1.9597   2.2457
     2.3267   2.7160   3.5342   3.8743   4.6470   4.6604   4.7347   4.9118
     5.2542   5.5400   5.7961   5.8863   6.2607   6.3922   6.6359   6.6570
     6.7815   6.9159   7.5611   7.6665   7.6754

     the Fermi energy is     0.9536 ev

!    total energy              =   -3943.58986186 Ry
     Harris-Foulkes estimate   =   -3943.57647837 Ry
     estimated scf accuracy    <       0.00000055 Ry

     The total energy is the sum of the following terms:

     one-electron contribution =  -25880.28724676 Ry
     hartree contribution      =   12948.61425804 Ry
     xc contribution           =    -414.64002698 Ry
     ewald contribution        =    9402.78931829 Ry
     electric field correction =       0.00000001 Ry
     smearing contrib. (-TS)   =      -0.06616445 Ry

     convergence has been achieved in  21 iterations
 
 BEEF-vdW xc energy contributions
           1 :   -365.894087472711     
           2 :    331.532164197274     
           3 :   -273.356863687078     
           4 :    207.468230253447     
           5 :   -148.527822335632     
           6 :    104.465129055253     
           7 :   -75.2261047152475     
           8 :    55.4821595944487     
           9 :   -39.1779971726676     
          10 :    23.1535604516149     
          11 :   -8.05825661354800     
          12 :   -3.38280519705984     
          13 :    9.12536712207441     
          14 :   -9.60405853356019     
          15 :    7.51755354193369     
          16 :   -6.03242030985575     
          17 :    6.83020399194191     
          18 :   -9.34673252385267     
          19 :    11.5776595566840     
          20 :   -11.7307527935629     
          21 :    9.51994990220385     
          22 :   -6.27219546336710     
          23 :    3.89878847750754     
          24 :   -3.54620753412343     
          25 :    4.88259556273459     
          26 :   -6.45918012455201     
          27 :    6.80814648834428     
          28 :   -5.46179950795914     
          29 :    3.19827250448441     
          30 :   -1.40759584847694     
          31 :   -30.7811746275501     
          32 :   -21.3098912989142     

     Forces acting on atoms (Ry/au):


     negative rho (up, down):  1.873E-01 0.000E+00
     atom    1 type  1   force =     0.00002898   -0.00963327    0.01285279
     atom    2 type  1   force =    -0.00832665    0.00484249    0.01285939
     atom    3 type  1   force =     0.00832667    0.00480846    0.01283661
     atom    4 type  2   force =     0.00000536    0.00000297    0.00396468
     atom    5 type  1   force =    -0.00000005   -0.00000216   -0.00017412
     atom    6 type  1   force =    -0.00000277    0.00000023   -0.00017493
     atom    7 type  1   force =     0.00000301    0.00000256   -0.00017614
     atom    8 type  2   force =    -0.00000000    0.00000016    0.00023135
     atom    9 type  1   force =    -0.00003087    0.00962822   -0.01290659
     atom   10 type  1   force =     0.00832447   -0.00484089   -0.01291015
     atom   11 type  1   force =    -0.00832348   -0.00480648   -0.01288571
     atom   12 type  2   force =    -0.00000466   -0.00000228   -0.00351719

     Total force =     0.039733     Total SCF correction =     0.003682


     entering subroutine stress ...


     negative rho (up, down):  1.873E-01 0.000E+00
          total   stress  (Ry/bohr**3)                   (kbar)     P=  -25.18
  -0.00018241  -0.00000000  -0.00000001        -26.83     -0.00     -0.00
  -0.00000000  -0.00018240  -0.00000000         -0.00    -26.83     -0.00
  -0.00000001  -0.00000000  -0.00014861         -0.00     -0.00    -21.86

 !ASE

     Writing output data file calc.save
 
     init_run     :     15.99s CPU     27.55s WALL (       1 calls)
     electrons    :    843.78s CPU   1383.40s WALL (       1 calls)
     forces       :      2.42s CPU      3.03s WALL (       1 calls)
     stress       :      5.13s CPU      6.13s WALL (       1 calls)

     Called by init_run:
     wfcinit      :     13.74s CPU     24.53s WALL (       1 calls)
     potinit      :      1.30s CPU      1.91s WALL (       1 calls)

     Called by electrons:
     c_bands      :    677.08s CPU   1109.51s WALL (      21 calls)
     sum_band     :    112.75s CPU    192.39s WALL (      21 calls)
     v_of_rho     :     19.90s CPU     30.16s WALL (      22 calls)
     newd         :      4.90s CPU      5.43s WALL (      22 calls)
     mix_rho      :      1.00s CPU      1.49s WALL (      21 calls)
     vdW_energy   :      1.72s CPU      1.74s WALL (      58 calls)
     vdW_ffts     :     32.01s CPU     51.31s WALL (     118 calls)
     vdW_v        :      5.77s CPU      8.66s WALL (      58 calls)

     Called by c_bands:
     init_us_2    :      0.38s CPU      0.44s WALL (     900 calls)
     cegterg      :    672.13s CPU   1103.24s WALL (     420 calls)

     Called by *egterg:
     h_psi        :    448.93s CPU    829.87s WALL (    1629 calls)
     s_psi        :      6.83s CPU      6.90s WALL (    1629 calls)
     g_psi        :      0.36s CPU      0.37s WALL (    1189 calls)
     cdiaghg      :    157.94s CPU    192.28s WALL (    1609 calls)

     Called by h_psi:
     add_vuspsi   :      7.22s CPU      7.27s WALL (    1629 calls)

     General routines
     calbec       :     23.29s CPU     31.24s WALL (    2089 calls)
     fft          :     48.53s CPU     77.90s WALL (    3555 calls)
     ffts         :      0.15s CPU      0.27s WALL (      43 calls)
     fftw         :    515.06s CPU    965.61s WALL (  307984 calls)
     interpolate  :      0.78s CPU      1.20s WALL (      43 calls)
     davcio       :      0.00s CPU      0.02s WALL (      20 calls)
 
     Parallel routines
     fft_scatter  :    535.92s CPU   1013.20s WALL (  311582 calls)
 
     PWSCF        : 14m28.29s CPU    23m41.81s WALL

 
   This run was terminated on:  19:41:22  25Dec2018            

=------------------------------------------------------------------------------=
   JOB DONE.
=------------------------------------------------------------------------------=
Job  /afs/slac/g/suncat/bin/suncat-tsmpirun -x LD_LIBRARY_PATH -wdir /scratch/qe109608_dKy0g pw.x -in pw.inp

TID   HOST_NAME   COMMAND_LINE            STATUS            TERMINATION_TIME
===== ========== ================  =======================  ===================
00000 suncat0076 pw.x -in pw.inp   Done                     12/25/2018 19:41:22
00001 suncat0076 pw.x -in pw.inp   Done                     12/25/2018 19:41:22
00002 suncat0076 pw.x -in pw.inp   Done                     12/25/2018 19:41:22
00003 suncat0076 pw.x -in pw.inp   Done                     12/25/2018 19:41:22
00004 suncat0076 pw.x -in pw.inp   Done                     12/25/2018 19:41:22
00005 suncat0076 pw.x -in pw.inp   Done                     12/25/2018 19:41:22
00006 suncat0076 pw.x -in pw.inp   Done                     12/25/2018 19:41:22
00007 suncat0076 pw.x -in pw.inp   Done                     12/25/2018 19:41:22
00008 suncat0074 pw.x -in pw.inp   Done                     12/25/2018 19:41:22
00009 suncat0074 pw.x -in pw.inp   Done                     12/25/2018 19:41:22
00010 suncat0074 pw.x -in pw.inp   Done                     12/25/2018 19:41:22
00011 suncat0074 pw.x -in pw.inp   Done                     12/25/2018 19:41:22
00012 suncat0074 pw.x -in pw.inp   Done                     12/25/2018 19:41:22
00013 suncat0074 pw.x -in pw.inp   Done                     12/25/2018 19:41:22
00014 suncat0074 pw.x -in pw.inp   Done                     12/25/2018 19:41:22
00015 suncat0074 pw.x -in pw.inp   Done                     12/25/2018 19:41:22
00016 suncat0172 pw.x -in pw.inp   Done                     12/25/2018 19:41:22
00017 suncat0172 pw.x -in pw.inp   Done                     12/25/2018 19:41:22
00018 suncat0172 pw.x -in pw.inp   Done                     12/25/2018 19:41:22
00019 suncat0172 pw.x -in pw.inp   Done                     12/25/2018 19:41:22
00020 suncat0172 pw.x -in pw.inp   Done                     12/25/2018 19:41:22
00021 suncat0172 pw.x -in pw.inp   Done                     12/25/2018 19:41:22
00022 suncat0172 pw.x -in pw.inp   Done                     12/25/2018 19:41:22
00023 suncat0172 pw.x -in pw.inp   Done                     12/25/2018 19:41:22
00024 suncat0171 pw.x -in pw.inp   Done                     12/25/2018 19:41:22
00025 suncat0171 pw.x -in pw.inp   Done                     12/25/2018 19:41:22
00026 suncat0171 pw.x -in pw.inp   Done                     12/25/2018 19:41:22
00027 suncat0171 pw.x -in pw.inp   Done                     12/25/2018 19:41:22
00028 suncat0171 pw.x -in pw.inp   Done                     12/25/2018 19:41:22
00029 suncat0171 pw.x -in pw.inp   Done                     12/25/2018 19:41:22
00030 suncat0171 pw.x -in pw.inp   Done                     12/25/2018 19:41:22
00031 suncat0171 pw.x -in pw.inp   Done                     12/25/2018 19:41:22
00032 suncat0270 pw.x -in pw.inp   Done                     12/25/2018 19:41:22
00033 suncat0270 pw.x -in pw.inp   Done                     12/25/2018 19:41:22
00034 suncat0270 pw.x -in pw.inp   Done                     12/25/2018 19:41:22
00035 suncat0270 pw.x -in pw.inp   Done                     12/25/2018 19:41:22
00036 suncat0270 pw.x -in pw.inp   Done                     12/25/2018 19:41:22
00037 suncat0270 pw.x -in pw.inp   Done                     12/25/2018 19:41:22
00038 suncat0270 pw.x -in pw.inp   Done                     12/25/2018 19:41:22
00039 suncat0270 pw.x -in pw.inp   Done                     12/25/2018 19:41:22
00040 suncat0268 pw.x -in pw.inp   Done                     12/25/2018 19:41:22
00041 suncat0268 pw.x -in pw.inp   Done                     12/25/2018 19:41:22
00042 suncat0268 pw.x -in pw.inp   Done                     12/25/2018 19:41:22
00043 suncat0268 pw.x -in pw.inp   Done                     12/25/2018 19:41:22
00044 suncat0268 pw.x -in pw.inp   Done                     12/25/2018 19:41:22
00045 suncat0268 pw.x -in pw.inp   Done                     12/25/2018 19:41:22
00046 suncat0268 pw.x -in pw.inp   Done                     12/25/2018 19:41:22
00047 suncat0268 pw.x -in pw.inp   Done                     12/25/2018 19:41:22
00048 suncat0207 pw.x -in pw.inp   Done                     12/25/2018 19:41:22
00049 suncat0207 pw.x -in pw.inp   Done                     12/25/2018 19:41:22
00050 suncat0207 pw.x -in pw.inp   Done                     12/25/2018 19:41:22
00051 suncat0207 pw.x -in pw.inp   Done                     12/25/2018 19:41:22
00052 suncat0207 pw.x -in pw.inp   Done                     12/25/2018 19:41:22
00053 suncat0207 pw.x -in pw.inp   Done                     12/25/2018 19:41:22
00054 suncat0207 pw.x -in pw.inp   Done                     12/25/2018 19:41:22
00055 suncat0207 pw.x -in pw.inp   Done                     12/25/2018 19:41:22
00056 suncat0206 pw.x -in pw.inp   Done                     12/25/2018 19:41:22
00057 suncat0206 pw.x -in pw.inp   Done                     12/25/2018 19:41:22
00058 suncat0206 pw.x -in pw.inp   Done                     12/25/2018 19:41:22
00059 suncat0206 pw.x -in pw.inp   Done                     12/25/2018 19:41:22
00060 suncat0206 pw.x -in pw.inp   Done                     12/25/2018 19:41:22
00061 suncat0206 pw.x -in pw.inp   Done                     12/25/2018 19:41:22
00062 suncat0206 pw.x -in pw.inp   Done                     12/25/2018 19:41:22
00063 suncat0206 pw.x -in pw.inp   Done                     12/25/2018 19:41:22

     Program PWSCF v.5.1rc2 (svn rev. 11289) starts on 25Dec2018 at 19:41:30 

     This program is part of the open-source Quantum ESPRESSO suite
     for quantum simulation of materials; please cite
         "P. Giannozzi et al., J. Phys.:Condens. Matter 21 395502 (2009);
          URL http://www.quantum-espresso.org", 
     in publications or presentations arising from this work. More details at
     http://www.quantum-espresso.org/quote

     Parallel version (MPI), running on    64 processors
     R & G space division:  proc/nbgrp/npool/nimage =      64
     Reading input from pw.inp
     Message from routine read_cards :
     DEPRECATED: no units specified in CELL_PARAMETERS card

     Current dimensions of program PWSCF are:
     Max number of different atomic species (ntypx) = 10
     Max number of k-points (npk) =  40000
     Max angular momentum in pseudopotentials (lmaxx) =  3
     Presently stress not available with electric field


     **************************************************************************
     Initializing libbeef V0.1.1 with the BEEF-vdW functional.
     Citation: Wellendorff et al., PRB 85, 235149 (2012).
     **************************************************************************


     IMPORTANT: XC functional enforced from input :
     Exchange-correlation      = BEEF-VDW ( 1  4 27 13 2)
     Any further DFT definition will be discarded
     Please, verify this is what you really want


     Subspace diagonalization in iterative solution of the eigenvalue problem:
     a serial algorithm will be used

 
     Parallelization info
     --------------------
     sticks:   dense  smooth     PW     G-vecs:    dense   smooth      PW
     Min          44      17      5                 8382     2101     345
     Max          45      18      6                 8407     2144     360
     Sum        2839    1147    349               537025   135965   22515
 


     bravais-lattice index     =            0
     lattice parameter (alat)  =       1.8897  a.u.
     unit-cell volume          =    4513.4676 (a.u.)^3
     number of atoms/cell      =           12
     number of atomic types    =            2
     number of electrons       =       207.00
     number of Kohn-Sham states=          133
     kinetic-energy cutoff     =      36.7493  Ry
     charge density cutoff     =     367.4932  Ry
     convergence threshold     =      1.0E-06
     mixing beta               =       0.1000
     number of iterations used =           10  plain     mixing
     Exchange-correlation      = BEEF-VDW ( 1  4 27 13 2)
     nstep                     =           50


     celldm(1)=   1.889726  celldm(2)=   0.000000  celldm(3)=   0.000000
     celldm(4)=   0.000000  celldm(5)=   0.000000  celldm(6)=   0.000000

     crystal axes: (cart. coord. in units of alat)
               a(1) = (   5.605664   0.000000   0.000000 )  
               a(2) = (  -2.802832   4.854647   0.000000 )  
               a(3) = (   0.000000   0.000000  24.577005 )  

     reciprocal axes: (cart. coord. in units 2 pi/alat)
               b(1) = (  0.178391  0.102994  0.000000 )  
               b(2) = (  0.000000  0.205988  0.000000 )  
               b(3) = (  0.000000  0.000000  0.040688 )  


     PseudoPot. # 1 for Cu read from file:
     /afs/slac.stanford.edu/u/if/mamunm/psp/gbrv1.5pbe/Cu.UPF
     MD5 check sum: 6e991ff952a84172a2a52a1c1e996048
     Pseudo is Ultrasoft + core correction, Zval = 19.0
     Generated by new atomic code, or converted to UPF format
     Using radial grid of  867 points,  6 beta functions with: 
                l(1) =   0
                l(2) =   0
                l(3) =   1
                l(4) =   1
                l(5) =   2
                l(6) =   2
     Q(r) pseudized with  8 coefficients,  rinner =    1.150   1.150   1.150
                                                       1.150   1.150

     PseudoPot. # 2 for Zr read from file:
     /afs/slac.stanford.edu/u/if/mamunm/psp/gbrv1.5pbe/Zr.UPF
     MD5 check sum: 5db81b1e868ab7776c4564c113de050b
     Pseudo is Ultrasoft + core correction, Zval = 12.0
     Generated by new atomic code, or converted to UPF format
     Using radial grid of  887 points,  6 beta functions with: 
                l(1) =   0
                l(2) =   0
                l(3) =   1
                l(4) =   1
                l(5) =   2
                l(6) =   2
     Q(r) pseudized with  6 coefficients,  rinner =    1.200   1.200   1.200
                                                       1.200   1.200

     vdW kernel table read from file vdW_kernel_table
     MD5 check sum: 095c7af220d748ca6e76c0b4c6cfb241

     atomic species   valence    mass     pseudopotential
        Cu1           19.00    63.54600     Cu( 1.00)
        Zr1           12.00    91.22400     Zr( 1.00)

     No symmetry found



   Cartesian axes

     site n.     atom                  positions (alat units)
         1           Cu1 tau(   1) = (   0.0000000   0.0000000  10.0000000  )
         2           Cu1 tau(   2) = (  -1.4014160   2.4273237  10.0000000  )
         3           Cu1 tau(   3) = (   1.4014160   2.4273237  10.0000000  )
         4           Zr1 tau(   4) = (   2.8028320   0.0000000  10.0000000  )
         5           Cu1 tau(   5) = (   2.8028320   1.6182158  12.2885027  )
         6           Cu1 tau(   6) = (   1.4014160   4.0455395  12.2885027  )
         7           Cu1 tau(   7) = (  -1.4014160   4.0455395  12.2885027  )
         8           Zr1 tau(   8) = (   0.0000000   1.6182158  12.2885027  )
         9           Cu1 tau(   9) = (  -0.0000794   3.2611868  14.5438213  )
        10           Cu1 tau(  10) = (   1.4228191   0.7966615  14.5438122  )
        11           Cu1 tau(  11) = (   4.1828475   0.7967499  14.5438750  )
        12           Zr1 tau(  12) = (   2.8028200   3.2364258  14.5679624  )

     number of k points=    20  Fermi-Dirac smearing, width (Ry)=  0.0110
                       cart. coord. in units 2pi/alat
        k(    1) = (   0.0000000   0.0000000   0.0000000), wk =   0.0555556
        k(    2) = (   0.0000000   0.0343314   0.0000000), wk =   0.1111111
        k(    3) = (   0.0000000   0.0686627   0.0000000), wk =   0.1111111
        k(    4) = (   0.0000000  -0.1029941   0.0000000), wk =   0.0555556
        k(    5) = (   0.0297318   0.0171657   0.0000000), wk =   0.1111111
        k(    6) = (   0.0297318   0.0514970   0.0000000), wk =   0.1111111
        k(    7) = (   0.0297318   0.0858284   0.0000000), wk =   0.1111111
        k(    8) = (   0.0297318  -0.0858284   0.0000000), wk =   0.1111111
        k(    9) = (   0.0297318  -0.0514970   0.0000000), wk =   0.1111111
        k(   10) = (   0.0297318  -0.0171657   0.0000000), wk =   0.1111111
        k(   11) = (   0.0594637   0.0343314   0.0000000), wk =   0.1111111
        k(   12) = (   0.0594637   0.0686627   0.0000000), wk =   0.1111111
        k(   13) = (   0.0594637   0.1029941   0.0000000), wk =   0.1111111
        k(   14) = (   0.0594637  -0.0686627   0.0000000), wk =   0.1111111
        k(   15) = (   0.0594637  -0.0343314   0.0000000), wk =   0.1111111
        k(   16) = (   0.0594637   0.0000000   0.0000000), wk =   0.1111111
        k(   17) = (  -0.0891955  -0.0514970   0.0000000), wk =   0.0555556
        k(   18) = (  -0.0891955  -0.0171657   0.0000000), wk =   0.1111111
        k(   19) = (  -0.0891955   0.0171657   0.0000000), wk =   0.1111111
        k(   20) = (  -0.0891955  -0.1544911   0.0000000), wk =   0.0555556

     Dense  grid:   537025 G-vectors     FFT dimensions: (  72,  72, 288)

     Smooth grid:   135965 G-vectors     FFT dimensions: (  45,  45, 180)

     Largest allocated arrays     est. size (Mb)     dimensions
        Kohn-Sham Wavefunctions         0.57 Mb     (     283,  133)
        NL pseudopotentials             0.93 Mb     (     283,  216)
        Each V/rho on FFT grid          0.40 Mb     (   25920)
        Each G-vector array             0.06 Mb     (    8384)
        G-vector shells                 0.03 Mb     (    4045)
     Largest temporary arrays     est. size (Mb)     dimensions
        Auxiliary wavefunctions         2.30 Mb     (     283,  532)
        Each subspace H/S matrix        4.32 Mb     (     532,  532)
        Each <psi_i|beta_j> matrix      0.44 Mb     (     216,  133)
        Arrays for rho mixing           3.96 Mb     (   25920,   10)

     Initial potential from superposition of free atoms
     Check: negative starting charge=   -0.182214

     starting charge  197.99353, renormalised to  207.00000

     negative rho (up, down):  1.905E-01 0.000E+00


     ************************************************************************
     *
     * You are using vdW-DF for exchange-correlation in this calculation.
     * Please cite the following three references that made this development
     * possible:
     *
     *   M. Dion, H. Rydberg, E. Schroder, D. C. Langreth, and
     *   B. I. Lundqvist, Phys. Rev. Lett. 92, 246401 (2004).
     *
     *   T. Thonhauser, V. R. Cooper, S. Li, A. Puzder, P. Hyldgaard, and
     *   D. C. Langreth, Phys. Rev. B 76, 125112 (2007).
     *
     *   G. Roman-Perez and J. M. Soler, Phys. Rev. Lett. 103, 096102 (2009).
     *
     *
     * If you are using vdW-DF2, please also cite:
     *
     *   K. Lee, E. D. Murray, L. Kong, B. I. Lundqvist, and
     *   D. C. Langreth, Phys. Rev. B 82, 081101(R) (2010).
     *
     *
     * If you are calculating the stress with vdW-DF, please also cite:
     *
     *   R. Sabatini, E. Kucukbenli, B. Kolb, T. Thonhauser, and
     *   S. de Gironcoli, J. Phys.: Condens. Matter 24, 424209 (2012).
     *
     ************************************************************************

     Carrying out vdW-DF run using the following parameters:

     Nqs =      20    Nr_points =    1024   r_max =   100.000
     q_mesh =
               0.00001000     0.04494208     0.09755937     0.15916263
               0.23128650     0.31572767     0.41458969     0.53033537
               0.66584808     0.82450364     1.01025438     1.22772762
               1.48234092     1.78043706     2.12944203     2.53805004
               3.01644009     3.57652955     4.23227104     5.00000000

     Gradients computed in reciprocal space

     ************************************************************************


 
     Adding external electric field

     Computed dipole along edir(3) : 
        Dipole               -0.0248 Ry au,         -0.0630 Debye
        Dipole field         -0.0001 Ry au
 
        Potential amp.        0.0062 Ry
        Total length         45.2827 bohr
 
     Starting wfc are  156 randomized atomic wfcs

     total cpu time spent up to now is       21.0 secs

     per-process dynamical memory:    40.3 Mb

     Self-consistent Calculation

     iteration #  1     ecut=    36.75 Ry     beta=0.10
     Davidson diagonalization with overlap
     ethr =  1.00E-02,  avg # of iterations =  7.3

     negative rho (up, down):  1.892E-01 0.000E+00
 
     Adding external electric field

     Computed dipole along edir(3) : 
        Dipole                0.0719 Ry au,          0.1828 Debye
        Dipole field          0.0002 Ry au
 
        Potential amp.       -0.0181 Ry
        Total length         45.2827 bohr
 

     total cpu time spent up to now is      130.0 secs

     total energy              =   -3940.97671268 Ry
     Harris-Foulkes estimate   =   -3948.81353178 Ry
     estimated scf accuracy    <      44.41594443 Ry

     iteration #  2     ecut=    36.75 Ry     beta=0.10
     Davidson diagonalization with overlap
     ethr =  1.00E-02,  avg # of iterations =  2.0

     negative rho (up, down):  1.888E-01 0.000E+00
 
     Adding external electric field

     Computed dipole along edir(3) : 
        Dipole               -0.2127 Ry au,         -0.5406 Debye
        Dipole field         -0.0006 Ry au
 
        Potential amp.        0.0536 Ry
        Total length         45.2827 bohr
 

     total cpu time spent up to now is      192.5 secs

     total energy              =   -3943.61377477 Ry
     Harris-Foulkes estimate   =   -3944.38171988 Ry
     estimated scf accuracy    <       4.18636986 Ry

     iteration #  3     ecut=    36.75 Ry     beta=0.10
     Davidson diagonalization with overlap
     ethr =  2.02E-03,  avg # of iterations =  2.0

     negative rho (up, down):  1.887E-01 0.000E+00
 
     Adding external electric field

     Computed dipole along edir(3) : 
        Dipole                0.4557 Ry au,          1.1584 Debye
        Dipole field          0.0013 Ry au
 
        Potential amp.       -0.1149 Ry
        Total length         45.2827 bohr
 

     total cpu time spent up to now is      259.5 secs

     total energy              =   -3943.78605157 Ry
     Harris-Foulkes estimate   =   -3944.12644412 Ry
     estimated scf accuracy    <       2.22596741 Ry

     iteration #  4     ecut=    36.75 Ry     beta=0.10
     Davidson diagonalization with overlap
     ethr =  1.08E-03,  avg # of iterations =  4.3

     negative rho (up, down):  1.886E-01 0.000E+00
 
     Adding external electric field

     Computed dipole along edir(3) : 
        Dipole               -0.0723 Ry au,         -0.1839 Debye
        Dipole field         -0.0002 Ry au
 
        Potential amp.        0.0182 Ry
        Total length         45.2827 bohr
 

     total cpu time spent up to now is      323.8 secs

     total energy              =   -3943.54964753 Ry
     Harris-Foulkes estimate   =   -3943.98898077 Ry
     estimated scf accuracy    <       4.81906495 Ry

     iteration #  5     ecut=    36.75 Ry     beta=0.10
     Davidson diagonalization with overlap
     ethr =  1.08E-03,  avg # of iterations =  3.2

     negative rho (up, down):  1.885E-01 0.000E+00
 
     Adding external electric field

     Computed dipole along edir(3) : 
        Dipole                0.0567 Ry au,          0.1442 Debye
        Dipole field          0.0002 Ry au
 
        Potential amp.       -0.0143 Ry
        Total length         45.2827 bohr
 

     total cpu time spent up to now is      385.3 secs

     total energy              =   -3943.53430932 Ry
     Harris-Foulkes estimate   =   -3943.70524894 Ry
     estimated scf accuracy    <       0.55074521 Ry

     iteration #  6     ecut=    36.75 Ry     beta=0.10
     Davidson diagonalization with overlap
     ethr =  2.66E-04,  avg # of iterations =  3.4

     negative rho (up, down):  1.883E-01 0.000E+00
 
     Adding external electric field

     Computed dipole along edir(3) : 
        Dipole               -0.0497 Ry au,         -0.1264 Debye
        Dipole field         -0.0001 Ry au
 
        Potential amp.        0.0125 Ry
        Total length         45.2827 bohr
 

     total cpu time spent up to now is      454.3 secs

     total energy              =   -3943.57933105 Ry
     Harris-Foulkes estimate   =   -3943.60818861 Ry
     estimated scf accuracy    <       0.20162266 Ry

     iteration #  7     ecut=    36.75 Ry     beta=0.10
     Davidson diagonalization with overlap
     ethr =  9.74E-05,  avg # of iterations =  2.7

     negative rho (up, down):  1.882E-01 0.000E+00
 
     Adding external electric field

     Computed dipole along edir(3) : 
        Dipole                0.0006 Ry au,          0.0016 Debye
[...]
   -27.0097 -26.8737 -26.8709 -26.8567 -26.8539 -26.5143 -26.5117 -26.5112
    -5.0164  -4.1870  -3.5961  -3.3782  -3.1356  -2.9615  -2.9093  -2.8306
    -2.7466  -2.7188  -2.6439  -2.5944  -2.5039  -2.4967  -2.4557  -2.3703
    -2.3249  -2.2941  -2.2693  -2.2555  -2.2050  -2.1164  -2.0938  -2.0528
    -2.0098  -1.9805  -1.9259  -1.9154  -1.8682  -1.8387  -1.8250  -1.7940
    -1.7790  -1.7448  -1.7247  -1.7055  -1.6585  -1.6310  -1.6196  -1.5820
    -1.5426  -1.5228  -1.4881  -1.4339  -1.3515  -1.2792  -1.1906  -1.1636
    -1.1354  -0.8849  -0.5014  -0.2742   0.2714   0.4552   0.7713   0.9628
     1.0957   1.3023   1.3734   1.5153   1.7529   1.9348   2.0736   2.3842
     2.4710   2.6313   3.5606   3.6402   4.3725   4.5430   5.0060   5.3088
     5.4108   5.6173   5.9081   6.1758   6.2734   6.3835   6.4397   6.5926
     6.9862   7.1459   7.1866   7.3064   7.4379

          k = 0.0595-0.0343 0.0000 ( 16992 PWs)   bands (ev):

  -111.9208-111.9198-111.9194-111.7580-111.7551-111.7550-111.6990-111.6980
  -111.6977 -69.3699 -69.3656 -69.3640 -69.3373 -69.3355 -69.3307 -69.2434
   -69.2423 -69.2294 -69.2162 -69.2089 -69.2069 -69.2047 -69.2023 -69.2002
   -69.1578 -69.1428 -69.1415 -69.0713 -69.0652 -69.0632 -69.0546 -69.0390
   -69.0375 -68.9942 -68.9872 -68.9845 -48.9673 -48.9631 -48.5404 -27.0321
   -27.0096 -26.8728 -26.8696 -26.8558 -26.8526 -26.5135 -26.5119 -26.5101
    -5.5201  -4.0861  -3.7983  -3.2470  -3.2299  -3.1821  -3.0660  -2.9634
    -2.8515  -2.8019  -2.7632  -2.7122  -2.6192  -2.5359  -2.4662  -2.3471
    -2.3180  -2.2704  -2.2285  -2.2006  -2.1850  -2.0792  -2.0591  -2.0033
    -1.9698  -1.9293  -1.8643  -1.8594  -1.8250  -1.8127  -1.7801  -1.7686
    -1.7300  -1.6797  -1.6705  -1.6394  -1.6320  -1.5595  -1.4856  -1.4702
    -1.4538  -1.4374  -1.4272  -1.4146  -1.3129  -1.2642  -1.1564  -1.1276
    -1.0820  -0.5040  -0.4437   0.2254   0.2658   0.6287   0.6557   1.0633
     1.0879   1.3649   1.3968   1.5228   1.8946   2.0638   2.1869   2.1955
     2.4211   2.7255   3.3652   3.8968   3.9665   4.3990   4.6067   5.0173
     5.1570   5.2983   5.5336   5.7958   5.9025   6.6620   6.6818   6.8689
     6.9449   7.0978   7.3860   7.4724   7.5951

          k = 0.0595 0.0000 0.0000 ( 16978 PWs)   bands (ev):

  -111.9208-111.9197-111.9194-111.7581-111.7551-111.7550-111.6991-111.6980
  -111.6977 -69.3703 -69.3652 -69.3640 -69.3373 -69.3358 -69.3303 -69.2434
   -69.2425 -69.2292 -69.2169 -69.2088 -69.2073 -69.2041 -69.2021 -69.2000
   -69.1581 -69.1425 -69.1416 -69.0718 -69.0647 -69.0631 -69.0549 -69.0387
   -69.0376 -68.9947 -68.9867 -68.9845 -48.9673 -48.9632 -48.5405 -27.0321
   -27.0095 -26.8717 -26.8695 -26.8547 -26.8527 -26.5124 -26.5121 -26.5101
    -5.7007  -4.1660  -3.6213  -3.4347  -3.3010  -3.2038  -3.1531  -2.9693
    -2.8743  -2.8271  -2.8214  -2.7474  -2.6540  -2.6398  -2.5016  -2.3424
    -2.3075  -2.2572  -2.2060  -2.1916  -2.1561  -2.0838  -2.0088  -1.9902
    -1.9694  -1.9082  -1.8835  -1.8484  -1.8207  -1.8161  -1.8051  -1.7501
    -1.7114  -1.6978  -1.6349  -1.6252  -1.5726  -1.5168  -1.4747  -1.4295
    -1.4172  -1.3645  -1.3505  -1.2851  -1.2355  -1.1870  -1.1717  -1.1345
    -1.1062  -0.5362  -0.2037   0.0167   0.6028   0.6460   0.7583   1.0738
     1.2025   1.2784   1.4498   1.6234   2.0581   2.1699   2.2288   2.3106
     2.4268   2.6406   3.2920   3.5084   3.8847   4.3988   4.6241   4.7349
     5.0382   5.1420   5.3033   5.6608   6.3479   6.4896   6.5403   6.7567
     6.8459   7.2101   7.3930   7.5588   7.5821

          k =-0.0892-0.0515 0.0000 ( 17004 PWs)   bands (ev):

  -111.9206-111.9199-111.9194-111.7580-111.7551-111.7550-111.6988-111.6983
  -111.6977 -69.3691 -69.3662 -69.3640 -69.3374 -69.3345 -69.3317 -69.2435
   -69.2418 -69.2298 -69.2145 -69.2094 -69.2060 -69.2059 -69.2028 -69.2005
   -69.1572 -69.1432 -69.1416 -69.0699 -69.0665 -69.0632 -69.0542 -69.0396
   -69.0376 -68.9928 -68.9888 -68.9845 -48.9672 -48.9631 -48.5404 -27.0321
   -27.0097 -26.8745 -26.8702 -26.8574 -26.8532 -26.5151 -26.5117 -26.5105
    -4.8214  -4.5845  -3.5064  -3.2858  -3.0965  -2.9222  -2.9007  -2.8903
    -2.7896  -2.7247  -2.6014  -2.5959  -2.5030  -2.4829  -2.4343  -2.4146
    -2.3537  -2.3150  -2.2602  -2.2407  -2.1689  -2.1143  -2.0591  -2.0449
    -1.9662  -1.9428  -1.9148  -1.8973  -1.8619  -1.8420  -1.8291  -1.8029
    -1.7852  -1.7498  -1.7374  -1.7080  -1.6598  -1.6465  -1.6368  -1.6315
    -1.5715  -1.5400  -1.5158  -1.4504  -1.3151  -1.2922  -1.1506  -1.1265
    -1.0849  -0.9839  -0.2808  -0.0073   0.1897   0.2386   0.6077   0.9010
     1.1953   1.2968   1.3632   1.4436   1.5421   1.8822   2.0296   2.3305
     2.4196   2.7781   3.5592   3.9867   4.6203   4.7263   4.7900   4.9489
     5.3069   5.6598   5.8099   5.9376   6.2966   6.3999   6.6082   6.6360
     6.8753   6.8956   7.5465   7.6569   7.7005

          k =-0.0892-0.0172 0.0000 ( 16980 PWs)   bands (ev):

  -111.9206-111.9199-111.9194-111.7580-111.7552-111.7550-111.6988-111.6983
  -111.6977 -69.3690 -69.3663 -69.3639 -69.3374 -69.3345 -69.3317 -69.2434
   -69.2419 -69.2298 -69.2146 -69.2093 -69.2061 -69.2059 -69.2028 -69.2006
   -69.1572 -69.1432 -69.1416 -69.0700 -69.0665 -69.0632 -69.0542 -69.0395
   -69.0376 -68.9928 -68.9888 -68.9846 -48.9672 -48.9631 -48.5404 -27.0321
   -27.0097 -26.8737 -26.8709 -26.8567 -26.8539 -26.5143 -26.5117 -26.5112
    -5.0164  -4.1870  -3.5961  -3.3782  -3.1356  -2.9615  -2.9094  -2.8306
    -2.7466  -2.7188  -2.6439  -2.5944  -2.5039  -2.4967  -2.4557  -2.3703
    -2.3248  -2.2941  -2.2694  -2.2555  -2.2050  -2.1164  -2.0938  -2.0528
    -2.0098  -1.9805  -1.9259  -1.9154  -1.8681  -1.8386  -1.8250  -1.7940
    -1.7790  -1.7448  -1.7247  -1.7055  -1.6585  -1.6310  -1.6197  -1.5820
    -1.5425  -1.5229  -1.4881  -1.4339  -1.3515  -1.2793  -1.1907  -1.1635
    -1.1354  -0.8849  -0.5014  -0.2742   0.2715   0.4552   0.7713   0.9629
     1.0957   1.3024   1.3736   1.5154   1.7529   1.9349   2.0735   2.3841
     2.4710   2.6312   3.5608   3.6401   4.3724   4.5430   5.0061   5.3087
     5.4107   5.6173   5.9080   6.1757   6.2734   6.3835   6.4396   6.5926
     6.9861   7.1458   7.1866   7.3064   7.4379

          k =-0.0892 0.0172 0.0000 ( 16980 PWs)   bands (ev):

  -111.9205-111.9200-111.9194-111.7580-111.7552-111.7550-111.6988-111.6982
  -111.6977 -69.3690 -69.3664 -69.3639 -69.3373 -69.3345 -69.3317 -69.2434
   -69.2419 -69.2298 -69.2145 -69.2094 -69.2061 -69.2059 -69.2028 -69.2005
   -69.1572 -69.1432 -69.1416 -69.0700 -69.0664 -69.0632 -69.0542 -69.0396
   -69.0376 -68.9928 -68.9888 -68.9846 -48.9672 -48.9631 -48.5404 -27.0321
   -27.0097 -26.8737 -26.8709 -26.8567 -26.8539 -26.5143 -26.5117 -26.5112
    -5.0164  -4.1870  -3.5961  -3.3783  -3.1356  -2.9615  -2.9094  -2.8306
    -2.7466  -2.7187  -2.6439  -2.5944  -2.5039  -2.4967  -2.4557  -2.3703
    -2.3249  -2.2941  -2.2694  -2.2555  -2.2050  -2.1164  -2.0938  -2.0527
    -2.0098  -1.9805  -1.9259  -1.9154  -1.8681  -1.8386  -1.8250  -1.7940
    -1.7790  -1.7448  -1.7247  -1.7055  -1.6585  -1.6310  -1.6196  -1.5820
    -1.5426  -1.5229  -1.4881  -1.4339  -1.3515  -1.2792  -1.1907  -1.1636
    -1.1354  -0.8849  -0.5014  -0.2742   0.2714   0.4553   0.7713   0.9629
     1.0957   1.3023   1.3735   1.5153   1.7529   1.9349   2.0736   2.3841
     2.4710   2.6313   3.5605   3.6403   4.3725   4.5430   5.0060   5.3087
     5.4108   5.6173   5.9080   6.1757   6.2734   6.3835   6.4397   6.5927
     6.9861   7.1460   7.1866   7.3064   7.4380

          k =-0.0892-0.1545 0.0000 ( 17004 PWs)   bands (ev):

  -111.9205-111.9200-111.9194-111.7580-111.7552-111.7550-111.6988-111.6982
  -111.6977 -69.3690 -69.3664 -69.3639 -69.3373 -69.3346 -69.3317 -69.2434
   -69.2419 -69.2298 -69.2145 -69.2094 -69.2060 -69.2060 -69.2028 -69.2005
   -69.1572 -69.1432 -69.1416 -69.0699 -69.0665 -69.0632 -69.0542 -69.0396
   -69.0375 -68.9928 -68.9888 -68.9845 -48.9672 -48.9631 -48.5404 -27.0321
   -27.0097 -26.8745 -26.8702 -26.8574 -26.8532 -26.5151 -26.5117 -26.5105
    -4.8215  -4.5844  -3.5064  -3.2858  -3.0965  -2.9221  -2.9008  -2.8902
    -2.7895  -2.7247  -2.6014  -2.5959  -2.5030  -2.4829  -2.4343  -2.4146
    -2.3536  -2.3150  -2.2602  -2.2407  -2.1689  -2.1143  -2.0591  -2.0448
    -1.9661  -1.9428  -1.9148  -1.8973  -1.8619  -1.8420  -1.8291  -1.8029
    -1.7853  -1.7498  -1.7374  -1.7079  -1.6598  -1.6466  -1.6368  -1.6316
    -1.5715  -1.5400  -1.5158  -1.4504  -1.3151  -1.2921  -1.1506  -1.1264
    -1.0849  -0.9840  -0.2807  -0.0073   0.1895   0.2386   0.6077   0.9011
     1.1954   1.2967   1.3630   1.4434   1.5418   1.8822   2.0297   2.3306
     2.4197   2.7782   3.5589   3.9868   4.6201   4.7264   4.7899   4.9492
     5.3070   5.6599   5.8098   5.9376   6.2966   6.3999   6.6082   6.6360
     6.8754   6.8962   7.5465   7.6569   7.7007

     the Fermi energy is     0.9783 ev

!    total energy              =   -3943.60225422 Ry
     Harris-Foulkes estimate   =   -3943.60224854 Ry
     estimated scf accuracy    <       0.00000074 Ry

     The total energy is the sum of the following terms:

     one-electron contribution =  -26387.79562408 Ry
     hartree contribution      =   13202.40580476 Ry
     xc contribution           =    -414.74007566 Ry
     ewald contribution        =    9656.59100454 Ry
     electric field correction =       0.00000352 Ry
     smearing contrib. (-TS)   =      -0.06336730 Ry

     convergence has been achieved in  19 iterations
 
 BEEF-vdW xc energy contributions
           1 :   -366.020030640660     
           2 :    331.744829631666     
           3 :   -273.662909234321     
           4 :    207.778739801593     
           5 :   -148.721489481332     
           6 :    104.482987966663     
           7 :   -75.1238221755082     
           8 :    55.3950501501855     
           9 :   -39.2210910754739     
          10 :    23.3329771642748     
          11 :   -8.26405299570018     
          12 :   -3.29490071923721     
          13 :    9.22436792723187     
          14 :   -9.82905414463158     
          15 :    7.71926515721600     
          16 :   -6.08080516541025     
          17 :    6.70906827310466     
          18 :   -9.16473690088185     
          19 :    11.4874672595960     
          20 :   -11.8159121431341     
          21 :    9.73236978622629     
          22 :   -6.46558988284045     
          23 :    3.93324892436800     
          24 :   -3.38892131831926     
          25 :    4.63260458328011     
          26 :   -6.27790337609025     
          27 :    6.80500575904426     
          28 :   -5.61707715424041     
          29 :    3.37841346405600     
          30 :   -1.46136327601113     
          31 :   -30.7923745830626     
          32 :   -21.3391238103481     

     Forces acting on atoms (Ry/au):


     negative rho (up, down):  1.876E-01 0.000E+00
     atom    1 type  1   force =    -0.00000200   -0.01088034    0.01382619
     atom    2 type  1   force =    -0.00942394    0.00543928    0.01382679
     atom    3 type  1   force =     0.00942274    0.00544177    0.01382701
     atom    4 type  2   force =    -0.00000149   -0.00000084    0.00132990
     atom    5 type  1   force =     0.00000353    0.00223171   -0.01045879
     atom    6 type  1   force =     0.00193428   -0.00111348   -0.01045916
     atom    7 type  1   force =    -0.00194661   -0.00112371   -0.01045568
     atom    8 type  2   force =     0.00000197    0.00000102   -0.01283010
     atom    9 type  1   force =    -0.00001112    0.00016675   -0.00005816
     atom   10 type  1   force =     0.00013877   -0.00009383   -0.00005964
     atom   11 type  1   force =    -0.00015238   -0.00008911   -0.00007410
     atom   12 type  2   force =     0.00003626    0.00002077    0.00158575

     Total force =     0.037958     Total SCF correction =     0.003433


     entering subroutine stress ...


     negative rho (up, down):  1.876E-01 0.000E+00
          total   stress  (Ry/bohr**3)                   (kbar)     P=  -15.74
  -0.00012368  -0.00000003   0.00000001        -18.19     -0.00      0.00
  -0.00000003  -0.00012366   0.00000001         -0.00    -18.19      0.00
   0.00000001   0.00000001  -0.00007376          0.00      0.00    -10.85

 !ASE

     Writing output data file calc.save
 
     init_run     :     14.35s CPU     26.06s WALL (       1 calls)
     electrons    :    753.69s CPU   1268.35s WALL (       1 calls)
     forces       :      2.40s CPU      3.09s WALL (       1 calls)
     stress       :      5.17s CPU      6.39s WALL (       1 calls)

     Called by init_run:
     wfcinit      :     12.41s CPU     23.29s WALL (       1 calls)
     potinit      :      0.93s CPU      1.53s WALL (       1 calls)

     Called by electrons:
     c_bands      :    609.55s CPU   1017.30s WALL (      19 calls)
     sum_band     :     95.08s CPU    173.81s WALL (      19 calls)
     v_of_rho     :     16.67s CPU     26.90s WALL (      20 calls)
     newd         :      4.38s CPU      4.82s WALL (      20 calls)
     mix_rho      :      0.77s CPU      1.34s WALL (      19 calls)
     vdW_energy   :      1.69s CPU      1.71s WALL (      56 calls)
     vdW_ffts     :     29.55s CPU     49.25s WALL (     114 calls)
     vdW_v        :      5.24s CPU      8.39s WALL (      56 calls)

     Called by c_bands:
     init_us_2    :      0.38s CPU      0.41s WALL (     820 calls)
     cegterg      :    603.18s CPU   1008.50s WALL (     380 calls)

     Called by *egterg:
     h_psi        :    382.24s CPU    744.81s WALL (    1571 calls)
     s_psi        :      6.27s CPU      6.33s WALL (    1571 calls)
     g_psi        :      0.34s CPU      0.35s WALL (    1171 calls)
     cdiaghg      :    156.30s CPU    178.86s WALL (    1551 calls)

     Called by h_psi:
     add_vuspsi   :      6.73s CPU      6.73s WALL (    1571 calls)

     General routines
     calbec       :     20.64s CPU     28.10s WALL (    1991 calls)
     fft          :     44.54s CPU     74.84s WALL (    3423 calls)
     ffts         :      0.15s CPU      0.26s WALL (      39 calls)
     fftw         :    435.52s CPU    867.48s WALL (  282732 calls)
     interpolate  :      0.63s CPU      1.06s WALL (      39 calls)
     davcio       :      0.00s CPU      0.01s WALL (      20 calls)
 
     Parallel routines
     fft_scatter  :    454.96s CPU    914.70s WALL (  286194 calls)
 
     PWSCF        : 12m56.67s CPU    21m45.74s WALL

 
   This run was terminated on:  21:31:51  25Dec2018            

=------------------------------------------------------------------------------=
   JOB DONE.
=------------------------------------------------------------------------------=
Job  /afs/slac/g/suncat/bin/suncat-tsmpirun -x LD_LIBRARY_PATH -wdir /scratch/qe109608_dKy0g pw.x -in pw.inp

TID   HOST_NAME   COMMAND_LINE            STATUS            TERMINATION_TIME
===== ========== ================  =======================  ===================
00000 suncat0076 pw.x -in pw.inp   Done                     12/25/2018 21:31:51
00001 suncat0076 pw.x -in pw.inp   Done                     12/25/2018 21:31:51
00002 suncat0076 pw.x -in pw.inp   Done                     12/25/2018 21:31:51
00003 suncat0076 pw.x -in pw.inp   Done                     12/25/2018 21:31:51
00004 suncat0076 pw.x -in pw.inp   Done                     12/25/2018 21:31:51
00005 suncat0076 pw.x -in pw.inp   Done                     12/25/2018 21:31:51
00006 suncat0076 pw.x -in pw.inp   Done                     12/25/2018 21:31:51
00007 suncat0076 pw.x -in pw.inp   Done                     12/25/2018 21:31:51
00008 suncat0074 pw.x -in pw.inp   Done                     12/25/2018 21:31:51
00009 suncat0074 pw.x -in pw.inp   Done                     12/25/2018 21:31:51
00010 suncat0074 pw.x -in pw.inp   Done                     12/25/2018 21:31:51
00011 suncat0074 pw.x -in pw.inp   Done                     12/25/2018 21:31:51
00012 suncat0074 pw.x -in pw.inp   Done                     12/25/2018 21:31:51
00013 suncat0074 pw.x -in pw.inp   Done                     12/25/2018 21:31:51
00014 suncat0074 pw.x -in pw.inp   Done                     12/25/2018 21:31:51
00015 suncat0074 pw.x -in pw.inp   Done                     12/25/2018 21:31:51
00016 suncat0172 pw.x -in pw.inp   Done                     12/25/2018 21:31:51
00017 suncat0172 pw.x -in pw.inp   Done                     12/25/2018 21:31:51
00018 suncat0172 pw.x -in pw.inp   Done                     12/25/2018 21:31:51
00019 suncat0172 pw.x -in pw.inp   Done                     12/25/2018 21:31:51
00020 suncat0172 pw.x -in pw.inp   Done                     12/25/2018 21:31:51
00021 suncat0172 pw.x -in pw.inp   Done                     12/25/2018 21:31:51
00022 suncat0172 pw.x -in pw.inp   Done                     12/25/2018 21:31:51
00023 suncat0172 pw.x -in pw.inp   Done                     12/25/2018 21:31:51
00024 suncat0171 pw.x -in pw.inp   Done                     12/25/2018 21:31:51
00025 suncat0171 pw.x -in pw.inp   Done                     12/25/2018 21:31:51
00026 suncat0171 pw.x -in pw.inp   Done                     12/25/2018 21:31:51
00027 suncat0171 pw.x -in pw.inp   Done                     12/25/2018 21:31:51
00028 suncat0171 pw.x -in pw.inp   Done                     12/25/2018 21:31:51
00029 suncat0171 pw.x -in pw.inp   Done                     12/25/2018 21:31:51
00030 suncat0171 pw.x -in pw.inp   Done                     12/25/2018 21:31:51
00031 suncat0171 pw.x -in pw.inp   Done                     12/25/2018 21:31:51
00032 suncat0270 pw.x -in pw.inp   Done                     12/25/2018 21:31:51
00033 suncat0270 pw.x -in pw.inp   Done                     12/25/2018 21:31:51
00034 suncat0270 pw.x -in pw.inp   Done                     12/25/2018 21:31:51
00035 suncat0270 pw.x -in pw.inp   Done                     12/25/2018 21:31:51
00036 suncat0270 pw.x -in pw.inp   Done                     12/25/2018 21:31:51
00037 suncat0270 pw.x -in pw.inp   Done                     12/25/2018 21:31:51
00038 suncat0270 pw.x -in pw.inp   Done                     12/25/2018 21:31:51
00039 suncat0270 pw.x -in pw.inp   Done                     12/25/2018 21:31:51
00040 suncat0268 pw.x -in pw.inp   Done                     12/25/2018 21:31:51
00041 suncat0268 pw.x -in pw.inp   Done                     12/25/2018 21:31:51
00042 suncat0268 pw.x -in pw.inp   Done                     12/25/2018 21:31:51
00043 suncat0268 pw.x -in pw.inp   Done                     12/25/2018 21:31:51
00044 suncat0268 pw.x -in pw.inp   Done                     12/25/2018 21:31:51
00045 suncat0268 pw.x -in pw.inp   Done                     12/25/2018 21:31:51
00046 suncat0268 pw.x -in pw.inp   Done                     12/25/2018 21:31:51
00047 suncat0268 pw.x -in pw.inp   Done                     12/25/2018 21:31:51
00048 suncat0207 pw.x -in pw.inp   Done                     12/25/2018 21:31:51
00049 suncat0207 pw.x -in pw.inp   Done                     12/25/2018 21:31:51
00050 suncat0207 pw.x -in pw.inp   Done                     12/25/2018 21:31:51
00051 suncat0207 pw.x -in pw.inp   Done                     12/25/2018 21:31:51
00052 suncat0207 pw.x -in pw.inp   Done                     12/25/2018 21:31:51
00053 suncat0207 pw.x -in pw.inp   Done                     12/25/2018 21:31:51
00054 suncat0207 pw.x -in pw.inp   Done                     12/25/2018 21:31:51
00055 suncat0207 pw.x -in pw.inp   Done                     12/25/2018 21:31:51
00056 suncat0206 pw.x -in pw.inp   Done                     12/25/2018 21:31:51
00057 suncat0206 pw.x -in pw.inp   Done                     12/25/2018 21:31:51
00058 suncat0206 pw.x -in pw.inp   Done                     12/25/2018 21:31:51
00059 suncat0206 pw.x -in pw.inp   Done                     12/25/2018 21:31:51
00060 suncat0206 pw.x -in pw.inp   Done                     12/25/2018 21:31:51
00061 suncat0206 pw.x -in pw.inp   Done                     12/25/2018 21:31:51
00062 suncat0206 pw.x -in pw.inp   Done                     12/25/2018 21:31:51
00063 suncat0206 pw.x -in pw.inp   Done                     12/25/2018 21:31:51
