  python dir          : /u/if/mamunm/src/espresso
  espresso dir        : /nfs/slac/g/suncatfs/sw/espv18/espresso-dynpy-beef/bin
  pseudo dir          : /afs/slac.stanford.edu/u/if/mamunm/psp/gbrv1.5pbe
  ase-espresso py git : GITVERSION



     Program PWSCF v.5.1rc2 (svn rev. 11289) starts on 25Dec2018 at 21:32:10 

     This program is part of the open-source Quantum ESPRESSO suite
     for quantum simulation of materials; please cite
         "P. Giannozzi et al., J. Phys.:Condens. Matter 21 395502 (2009);
          URL http://www.quantum-espresso.org", 
     in publications or presentations arising from this work. More details at
     http://www.quantum-espresso.org/quote

     Parallel version (MPI), running on    64 processors
     R & G space division:  proc/nbgrp/npool/nimage =      64
     Reading input from pw.inp
     Message from routine read_cards :
     DEPRECATED: no units specified in CELL_PARAMETERS card

     Current dimensions of program PWSCF are:
     Max number of different atomic species (ntypx) = 10
     Max number of k-points (npk) =  40000
     Max angular momentum in pseudopotentials (lmaxx) =  3
     Presently stress not available with electric field


     **************************************************************************
     Initializing libbeef V0.1.1 with the BEEF-vdW functional.
     Citation: Wellendorff et al., PRB 85, 235149 (2012).
     **************************************************************************


     IMPORTANT: XC functional enforced from input :
     Exchange-correlation      = BEEF-VDW ( 1  4 27 13 2)
     Any further DFT definition will be discarded
     Please, verify this is what you really want


     Subspace diagonalization in iterative solution of the eigenvalue problem:
     a serial algorithm will be used

 
     Parallelization info
     --------------------
     sticks:   dense  smooth     PW     G-vecs:    dense   smooth      PW
     Min          37      14      4                 6929     1732     286
     Max          39      15      5                 6946     1771     311
     Sum        2395     955    295               443901   112371   19063
 
     Generating pointlists ...
     new r_m :   0.4125 (alat units)  0.7795 (a.u.) for type    1
     new r_m :   0.4125 (alat units)  0.7795 (a.u.) for type    2


     bravais-lattice index     =            0
     lattice parameter (alat)  =       1.8897  a.u.
     unit-cell volume          =    3730.3545 (a.u.)^3
     number of atoms/cell      =           12
     number of atomic types    =            2
     number of electrons       =       192.00
     number of Kohn-Sham states=          126
     kinetic-energy cutoff     =      36.7493  Ry
     charge density cutoff     =     367.4932  Ry
     convergence threshold     =      1.0E-06
     mixing beta               =       0.1000
     number of iterations used =           10  plain     mixing
     Exchange-correlation      = BEEF-VDW ( 1  4 27 13 2)
     nstep                     =           50


     celldm(1)=   1.889726  celldm(2)=   0.000000  celldm(3)=   0.000000
     celldm(4)=   0.000000  celldm(5)=   0.000000  celldm(6)=   0.000000

     crystal axes: (cart. coord. in units of alat)
               a(1) = (   5.136401   0.000000   0.000000 )  
               a(2) = (  -2.568200   4.448254   0.000000 )  
               a(3) = (   0.000000   0.000000  24.193854 )  

     reciprocal axes: (cart. coord. in units 2 pi/alat)
               b(1) = (  0.194689  0.112404  0.000000 )  
               b(2) = (  0.000000  0.224807  0.000000 )  
               b(3) = (  0.000000  0.000000  0.041333 )  


     PseudoPot. # 1 for Fe read from file:
     /afs/slac.stanford.edu/u/if/mamunm/psp/gbrv1.5pbe/Fe.UPF
     MD5 check sum: a130daea23fe5165f5d574ae7f82ed95
     Pseudo is Ultrasoft + core correction, Zval = 16.0
     Generated by new atomic code, or converted to UPF format
     Using radial grid of  861 points,  6 beta functions with: 
                l(1) =   0
                l(2) =   0
                l(3) =   1
                l(4) =   1
                l(5) =   2
                l(6) =   2
     Q(r) pseudized with  8 coefficients,  rinner =    1.000   1.000   1.000
                                                       1.000   1.000

     PseudoPot. # 2 for Ru read from file:
     /afs/slac.stanford.edu/u/if/mamunm/psp/gbrv1.5pbe/Ru.UPF
     MD5 check sum: 7158a806dd851261a58e6920c40ebe78
     Pseudo is Ultrasoft + core correction, Zval = 16.0
     Generated by new atomic code, or converted to UPF format
     Using radial grid of  967 points,  6 beta functions with: 
                l(1) =   0
                l(2) =   0
                l(3) =   1
                l(4) =   1
                l(5) =   2
                l(6) =   2
     Q(r) pseudized with  8 coefficients,  rinner =    1.300   1.300   1.300
                                                       1.300   1.300

     vdW kernel table read from file vdW_kernel_table
     MD5 check sum: 095c7af220d748ca6e76c0b4c6cfb241

     atomic species   valence    mass     pseudopotential
        Fe1           16.00    55.84500     Fe( 1.00)
        Ru1           16.00   101.07000     Ru( 1.00)

     Starting magnetic structure 
     atomic species   magnetization
        Fe1          0.125
        Ru1          0.125

     No symmetry found



   Cartesian axes

     site n.     atom                  positions (alat units)
         1           Fe1 tau(   1) = (   0.0000000   0.0000000  10.0000000  )
         2           Fe1 tau(   2) = (  -1.2841002   2.2241268  10.0000000  )
         3           Fe1 tau(   3) = (   1.2841002   2.2241268  10.0000000  )
         4           Ru1 tau(   4) = (   2.5682004   0.0000000  10.0000000  )
         5           Fe1 tau(   5) = (   2.5682004   1.4827512  12.0969269  )
         6           Fe1 tau(   6) = (   1.2841002   3.7068780  12.0969269  )
         7           Fe1 tau(   7) = (  -1.2841002   3.7068780  12.0969269  )
         8           Ru1 tau(   8) = (   0.0000000   1.4827512  12.0969269  )
         9           Fe1 tau(   9) = (  -0.0000000   2.9655024  14.1938537  )
        10           Fe1 tau(  10) = (   1.2841002   0.7413756  14.1938537  )
        11           Fe1 tau(  11) = (   3.8523006   0.7413756  14.1938537  )
        12           Ru1 tau(  12) = (   2.5682004   2.9655024  14.1938537  )

     number of k points=    40  Fermi-Dirac smearing, width (Ry)=  0.0110
                       cart. coord. in units 2pi/alat
        k(    1) = (   0.0000000   0.0000000   0.0000000), wk =   0.0277778
        k(    2) = (   0.0000000   0.0374679   0.0000000), wk =   0.0555556
        k(    3) = (   0.0000000   0.0749358   0.0000000), wk =   0.0555556
        k(    4) = (   0.0000000  -0.1124037   0.0000000), wk =   0.0277778
        k(    5) = (   0.0324481   0.0187339   0.0000000), wk =   0.0555556
        k(    6) = (   0.0324481   0.0562018   0.0000000), wk =   0.0555556
        k(    7) = (   0.0324481   0.0936697   0.0000000), wk =   0.0555556
        k(    8) = (   0.0324481  -0.0936697   0.0000000), wk =   0.0555556
        k(    9) = (   0.0324481  -0.0562018   0.0000000), wk =   0.0555556
        k(   10) = (   0.0324481  -0.0187339   0.0000000), wk =   0.0555556
        k(   11) = (   0.0648963   0.0374679   0.0000000), wk =   0.0555556
        k(   12) = (   0.0648963   0.0749358   0.0000000), wk =   0.0555556
        k(   13) = (   0.0648963   0.1124037   0.0000000), wk =   0.0555556
        k(   14) = (   0.0648963  -0.0749358   0.0000000), wk =   0.0555556
        k(   15) = (   0.0648963  -0.0374679   0.0000000), wk =   0.0555556
        k(   16) = (   0.0648963   0.0000000   0.0000000), wk =   0.0555556
        k(   17) = (  -0.0973444  -0.0562018   0.0000000), wk =   0.0277778
        k(   18) = (  -0.0973444  -0.0187339   0.0000000), wk =   0.0555556
        k(   19) = (  -0.0973444   0.0187339   0.0000000), wk =   0.0555556
        k(   20) = (  -0.0973444  -0.1686055   0.0000000), wk =   0.0277778
        k(   21) = (   0.0000000   0.0000000   0.0000000), wk =   0.0277778
        k(   22) = (   0.0000000   0.0374679   0.0000000), wk =   0.0555556
        k(   23) = (   0.0000000   0.0749358   0.0000000), wk =   0.0555556
        k(   24) = (   0.0000000  -0.1124037   0.0000000), wk =   0.0277778
        k(   25) = (   0.0324481   0.0187339   0.0000000), wk =   0.0555556
        k(   26) = (   0.0324481   0.0562018   0.0000000), wk =   0.0555556
        k(   27) = (   0.0324481   0.0936697   0.0000000), wk =   0.0555556
        k(   28) = (   0.0324481  -0.0936697   0.0000000), wk =   0.0555556
        k(   29) = (   0.0324481  -0.0562018   0.0000000), wk =   0.0555556
        k(   30) = (   0.0324481  -0.0187339   0.0000000), wk =   0.0555556
        k(   31) = (   0.0648963   0.0374679   0.0000000), wk =   0.0555556
        k(   32) = (   0.0648963   0.0749358   0.0000000), wk =   0.0555556
        k(   33) = (   0.0648963   0.1124037   0.0000000), wk =   0.0555556
        k(   34) = (   0.0648963  -0.0749358   0.0000000), wk =   0.0555556
        k(   35) = (   0.0648963  -0.0374679   0.0000000), wk =   0.0555556
        k(   36) = (   0.0648963   0.0000000   0.0000000), wk =   0.0555556
        k(   37) = (  -0.0973444  -0.0562018   0.0000000), wk =   0.0277778
        k(   38) = (  -0.0973444  -0.0187339   0.0000000), wk =   0.0555556
        k(   39) = (  -0.0973444   0.0187339   0.0000000), wk =   0.0555556
        k(   40) = (  -0.0973444  -0.1686055   0.0000000), wk =   0.0277778

     Dense  grid:   443901 G-vectors     FFT dimensions: (  60,  60, 288)

     Smooth grid:   112371 G-vectors     FFT dimensions: (  40,  40, 180)

     Largest allocated arrays     est. size (Mb)     dimensions
        Kohn-Sham Wavefunctions         0.47 Mb     (     244,  126)
        NL pseudopotentials             0.80 Mb     (     244,  216)
        Each V/rho on FFT grid          0.55 Mb     (   18000,   2)
        Each G-vector array             0.05 Mb     (    6937)
        G-vector shells                 0.03 Mb     (    3334)
     Largest temporary arrays     est. size (Mb)     dimensions
        Auxiliary wavefunctions         1.88 Mb     (     244,  504)
        Each subspace H/S matrix        3.88 Mb     (     504,  504)
        Each <psi_i|beta_j> matrix      0.42 Mb     (     216,  126)
        Arrays for rho mixing           2.75 Mb     (   18000,   10)

     Check: negative/imaginary core charge=   -0.000007    0.000000

     Initial potential from superposition of free atoms
     Check: negative starting charge=(component1):   -0.120892
     Check: negative starting charge=(component2):   -0.094027

     starting charge  179.99990, renormalised to  192.00000

     negative rho (up, down):  1.290E-01 1.003E-01


     ************************************************************************
     *
     * You are using vdW-DF for exchange-correlation in this calculation.
     * Please cite the following three references that made this development
     * possible:
     *
     *   M. Dion, H. Rydberg, E. Schroder, D. C. Langreth, and
     *   B. I. Lundqvist, Phys. Rev. Lett. 92, 246401 (2004).
     *
     *   T. Thonhauser, V. R. Cooper, S. Li, A. Puzder, P. Hyldgaard, and
     *   D. C. Langreth, Phys. Rev. B 76, 125112 (2007).
     *
     *   G. Roman-Perez and J. M. Soler, Phys. Rev. Lett. 103, 096102 (2009).
     *
     *
     * If you are using vdW-DF2, please also cite:
     *
     *   K. Lee, E. D. Murray, L. Kong, B. I. Lundqvist, and
     *   D. C. Langreth, Phys. Rev. B 82, 081101(R) (2010).
     *
     *
     * If you are calculating the stress with vdW-DF, please also cite:
     *
     *   R. Sabatini, E. Kucukbenli, B. Kolb, T. Thonhauser, and
     *   S. de Gironcoli, J. Phys.: Condens. Matter 24, 424209 (2012).
     *
     ************************************************************************

     Carrying out vdW-DF run using the following parameters:

     Nqs =      20    Nr_points =    1024   r_max =   100.000
     q_mesh =
               0.00001000     0.04494208     0.09755937     0.15916263
               0.23128650     0.31572767     0.41458969     0.53033537
               0.66584808     0.82450364     1.01025438     1.22772762
               1.48234092     1.78043706     2.12944203     2.53805004
               3.01644009     3.57652955     4.23227104     5.00000000

     Gradients computed in reciprocal space

     ************************************************************************


 
     Adding external electric field

     Computed dipole along edir(3) : 
        Dipole                0.0000 Ry au,          0.0000 Debye
        Dipole field          0.0000 Ry au
 
        Potential amp.       -0.0000 Ry
        Total length         44.5768 bohr
 
 
     Adding external electric field

     Computed dipole along edir(3) : 
        Dipole                0.0000 Ry au,          0.0000 Debye
        Dipole field          0.0000 Ry au
 
        Potential amp.       -0.0000 Ry
        Total length         44.5768 bohr
 
     Starting wfc are  156 randomized atomic wfcs

     total cpu time spent up to now is       40.4 secs

     per-process dynamical memory:    45.6 Mb

     Self-consistent Calculation

     iteration #  1     ecut=    36.75 Ry     beta=0.10
     Davidson diagonalization with overlap
     ethr =  1.00E-02,  avg # of iterations =  8.8

     negative rho (up, down):  1.272E-01 1.016E-01
 
     Adding external electric field

     Computed dipole along edir(3) : 
        Dipole               -0.0765 Ry au,         -0.1944 Debye
        Dipole field         -0.0003 Ry au
 
        Potential amp.        0.0230 Ry
        Total length         44.5768 bohr
 
 
     Adding external electric field

     Computed dipole along edir(3) : 
        Dipole               -0.0765 Ry au,         -0.1944 Debye
        Dipole field         -0.0003 Ry au
 
        Potential amp.        0.0230 Ry
        Total length         44.5768 bohr
 
 
     Magnetic moment per site:
     atom:    1    charge:    7.3039    magn:    0.8906    constr:    0.0000
     atom:    2    charge:    7.3039    magn:    0.8906    constr:    0.0000
     atom:    3    charge:    7.3039    magn:    0.8906    constr:    0.0000
     atom:    4    charge:    2.9823    magn:    0.3477    constr:    0.0000
     atom:    5    charge:    7.3069    magn:    0.8808    constr:    0.0000
     atom:    6    charge:    7.3069    magn:    0.8808    constr:    0.0000
     atom:    7    charge:    7.3069    magn:    0.8808    constr:    0.0000
     atom:    8    charge:    2.9854    magn:    0.3467    constr:    0.0000
     atom:    9    charge:    7.3039    magn:    0.8906    constr:    0.0000
     atom:   10    charge:    7.3039    magn:    0.8906    constr:    0.0000
     atom:   11    charge:    7.3039    magn:    0.8906    constr:    0.0000
     atom:   12    charge:    2.9823    magn:    0.3477    constr:    0.0000

     total cpu time spent up to now is      212.3 secs

     total energy              =   -2847.69958583 Ry
     Harris-Foulkes estimate   =   -2853.25754867 Ry
     estimated scf accuracy    <      33.70274189 Ry

     total magnetization       =    12.07 Bohr mag/cell
     absolute magnetization    =    12.33 Bohr mag/cell

     iteration #  2     ecut=    36.75 Ry     beta=0.10
     Davidson diagonalization with overlap
     ethr =  1.00E-02,  avg # of iterations =  1.8

     negative rho (up, down):  1.261E-01 1.031E-01
 
     Adding external electric field

     Computed dipole along edir(3) : 
        Dipole                0.0867 Ry au,          0.2204 Debye
        Dipole field          0.0003 Ry au
 
        Potential amp.       -0.0260 Ry
        Total length         44.5768 bohr
 
 
     Adding external electric field

     Computed dipole along edir(3) : 
        Dipole                0.0867 Ry au,          0.2204 Debye
        Dipole field          0.0003 Ry au
 
        Potential amp.       -0.0260 Ry
        Total length         44.5768 bohr
 
 
     Magnetic moment per site:
     atom:    1    charge:    7.2310    magn:    0.8727    constr:    0.0000
     atom:    2    charge:    7.2310    magn:    0.8727    constr:    0.0000
     atom:    3    charge:    7.2310    magn:    0.8727    constr:    0.0000
     atom:    4    charge:    2.9372    magn:    0.3218    constr:    0.0000
     atom:    5    charge:    7.2852    magn:    0.8522    constr:    0.0000
     atom:    6    charge:    7.2852    magn:    0.8522    constr:    0.0000
     atom:    7    charge:    7.2852    magn:    0.8522    constr:    0.0000
     atom:    8    charge:    2.9522    magn:    0.3221    constr:    0.0000
     atom:    9    charge:    7.2281    magn:    0.8724    constr:    0.0000
     atom:   10    charge:    7.2280    magn:    0.8724    constr:    0.0000
     atom:   11    charge:    7.2281    magn:    0.8724    constr:    0.0000
     atom:   12    charge:    2.9366    magn:    0.3216    constr:    0.0000

     total cpu time spent up to now is      301.1 secs

     total energy              =   -2847.05995599 Ry
     Harris-Foulkes estimate   =   -2849.40983029 Ry
     estimated scf accuracy    <      15.53343059 Ry

     total magnetization       =    14.04 Bohr mag/cell
     absolute magnetization    =    14.36 Bohr mag/cell

     iteration #  3     ecut=    36.75 Ry     beta=0.10
     Davidson diagonalization with overlap
     ethr =  8.09E-03,  avg # of iterations =  1.3

     negative rho (up, down):  1.249E-01 1.044E-01
 
     Adding external electric field

     Computed dipole along edir(3) : 
        Dipole               -0.5961 Ry au,         -1.5150 Debye
        Dipole field         -0.0020 Ry au
 
        Potential amp.        0.1790 Ry
        Total length         44.5768 bohr
 
 
     Adding external electric field

     Computed dipole along edir(3) : 
        Dipole               -0.5961 Ry au,         -1.5150 Debye
        Dipole field         -0.0020 Ry au
 
        Potential amp.        0.1790 Ry
        Total length         44.5768 bohr
 
 
     Magnetic moment per site:
     atom:    1    charge:    7.1886    magn:    0.8563    constr:    0.0000
     atom:    2    charge:    7.1886    magn:    0.8563    constr:    0.0000
     atom:    3    charge:    7.1886    magn:    0.8563    constr:    0.0000
     atom:    4    charge:    2.9036    magn:    0.2978    constr:    0.0000
     atom:    5    charge:    7.1966    magn:    0.8197    constr:    0.0000
     atom:    6    charge:    7.1966    magn:    0.8197    constr:    0.0000
     atom:    7    charge:    7.1966    magn:    0.8197    constr:    0.0000
     atom:    8    charge:    2.9170    magn:    0.2971    constr:    0.0000
     atom:    9    charge:    7.2030    magn:    0.8499    constr:    0.0000
     atom:   10    charge:    7.2031    magn:    0.8499    constr:    0.0000
     atom:   11    charge:    7.2031    magn:    0.8499    constr:    0.0000
     atom:   12    charge:    2.9065    magn:    0.2980    constr:    0.0000

     total cpu time spent up to now is      386.1 secs

     total energy              =   -2846.37306141 Ry
     Harris-Foulkes estimate   =   -2848.60752914 Ry
     estimated scf accuracy    <      26.37488658 Ry

     total magnetization       =    13.35 Bohr mag/cell
     absolute magnetization    =    13.72 Bohr mag/cell

     iteration #  4     ecut=    36.75 Ry     beta=0.10
     Davidson diagonalization with overlap
     ethr =  8.09E-03,  avg # of iterations =  1.5

     negative rho (up, down):  1.244E-01 1.048E-01
 
     Adding external electric field

     Computed dipole along edir(3) : 
        Dipole                0.2344 Ry au,          0.5957 Debye
        Dipole field          0.0008 Ry au
 
        Potential amp.       -0.0704 Ry
        Total length         44.5768 bohr
 
 
     Adding external electric field

     Computed dipole along edir(3) : 
        Dipole                0.2344 Ry au,          0.5957 Debye
        Dipole field          0.0008 Ry au
 
        Potential amp.       -0.0704 Ry
        Total length         44.5768 bohr
 
 
     Magnetic moment per site:
     atom:    1    charge:    7.1874    magn:    0.8502    constr:    0.0000
     atom:    2    charge:    7.1874    magn:    0.8501    constr:    0.0000
     atom:    3    charge:    7.1874    magn:    0.8501    constr:    0.0000
     atom:    4    charge:    2.8985    magn:    0.2908    constr:    0.0000
     atom:    5    charge:    7.1771    magn:    0.8121    constr:    0.0000
     atom:    6    charge:    7.1771    magn:    0.8121    constr:    0.0000
     atom:    7    charge:    7.1771    magn:    0.8121    constr:    0.0000
     atom:    8    charge:    2.9078    magn:    0.2896    constr:    0.0000
     atom:    9    charge:    7.1811    magn:    0.8436    constr:    0.0000
     atom:   10    charge:    7.1811    magn:    0.8436    constr:    0.0000
     atom:   11    charge:    7.1811    magn:    0.8436    constr:    0.0000
     atom:   12    charge:    2.8980    magn:    0.2905    constr:    0.0000

     total cpu time spent up to now is      473.4 secs

     total energy              =   -2846.14076903 Ry
     Harris-Foulkes estimate   =   -2848.14893895 Ry
     estimated scf accuracy    <      82.89909260 Ry

     total magnetization       =    15.39 Bohr mag/cell
     absolute magnetization    =    15.87 Bohr mag/cell

     iteration #  5     ecut=    36.75 Ry     beta=0.10
     Davidson diagonalization with overlap
     ethr =  8.09E-03,  avg # of iterations =  1.6

     negative rho (up, down):  1.226E-01 1.060E-01
 
     Adding external electric field

     Computed dipole along edir(3) : 
        Dipole               -0.0452 Ry au,         -0.1149 Debye
        Dipole field         -0.0002 Ry au
 
        Potential amp.        0.0136 Ry
        Total length         44.5768 bohr
 
 
     Adding external electric field

     Computed dipole along edir(3) : 
        Dipole               -0.0452 Ry au,         -0.1149 Debye
        Dipole field         -0.0002 Ry au
 
        Potential amp.        0.0136 Ry
        Total length         44.5768 bohr
 
 
     Magnetic moment per site:
     atom:    1    charge:    7.1372    magn:    0.8369    constr:    0.0000
     atom:    2    charge:    7.1372    magn:    0.8369    constr:    0.0000
     atom:    3    charge:    7.1372    magn:    0.8369    constr:    0.0000
     atom:    4    charge:    2.8818    magn:    0.2646    constr:    0.0000
     atom:    5    charge:    7.1398    magn:    0.7914    constr:    0.0000
     atom:    6    charge:    7.1398    magn:    0.7914    constr:    0.0000
     atom:    7    charge:    7.1398    magn:    0.7914    constr:    0.0000
     atom:    8    charge:    2.8798    magn:    0.2624    constr:    0.0000
     atom:    9    charge:    7.1383    magn:    0.8310    constr:    0.0000
     atom:   10    charge:    7.1383    magn:    0.8310    constr:    0.0000
     atom:   11    charge:    7.1383    magn:    0.8310    constr:    0.0000
     atom:   12    charge:    2.8821    magn:    0.2656    constr:    0.0000

     total cpu time spent up to now is      562.5 secs

     total energy              =   -2846.78476161 Ry
     Harris-Foulkes estimate   =   -2847.60179259 Ry
     estimated scf accuracy    <      26.79234074 Ry

     total magnetization       =    17.50 Bohr mag/cell
     absolute magnetization    =    17.84 Bohr mag/cell

     iteration #  6     ecut=    36.75 Ry     beta=0.10
     Davidson diagonalization with overlap
     ethr =  8.09E-03,  avg # of iterations =  1.1

     negative rho (up, down):  1.201E-01 1.078E-01
 
     Adding external electric field

     Computed dipole along edir(3) : 
        Dipole               -0.0227 Ry au,         -0.0578 Debye
        Dipole field         -0.0001 Ry au
 
        Potential amp.        0.0068 Ry
        Total length         44.5768 bohr
 
 
     Adding external electric field

     Computed dipole along edir(3) : 
        Dipole               -0.0227 Ry au,         -0.0578 Debye
        Dipole field         -0.0001 Ry au
 
        Potential amp.        0.0068 Ry
        Total length         44.5768 bohr
 
 
     Magnetic moment per site:
     atom:    1    charge:    7.1156    magn:    0.8385    constr:    0.0000
     atom:    2    charge:    7.1156    magn:    0.8385    constr:    0.0000
     atom:    3    charge:    7.1156    magn:    0.8385    constr:    0.0000
     atom:    4    charge:    2.8652    magn:    0.2312    constr:    0.0000
     atom:    5    charge:    7.1005    magn:    0.7841    constr:    0.0000
     atom:    6    charge:    7.1005    magn:    0.7841    constr:    0.0000
     atom:    7    charge:    7.1005    magn:    0.7841    constr:    0.0000
     atom:    8    charge:    2.8559    magn:    0.2252    constr:    0.0000
     atom:    9    charge:    7.1176    magn:    0.8345    constr:    0.0000
     atom:   10    charge:    7.1176    magn:    0.8345    constr:    0.0000
     atom:   11    charge:    7.1176    magn:    0.8345    constr:    0.0000
     atom:   12    charge:    2.8638    magn:    0.2322    constr:    0.0000

     total cpu time spent up to now is      652.3 secs

     total energy              =   -2847.04515649 Ry
     Harris-Foulkes estimate   =   -2847.15720640 Ry
     estimated scf accuracy    <       0.68366534 Ry

     total magnetization       =    17.97 Bohr mag/cell
     absolute magnetization    =    18.21 Bohr mag/cell

     iteration #  7     ecut=    36.75 Ry     beta=0.10
     Davidson diagonalization with overlap
     ethr =  3.56E-04,  avg # of iterations =  3.6

     negative rho (up, down):  1.193E-01 1.082E-01
 
     Adding external electric field

     Computed dipole along edir(3) : 
        Dipole               -0.0286 Ry au,         -0.0727 Debye
        Dipole field         -0.0001 Ry au
 
        Potential amp.        0.0086 Ry
        Total length         44.5768 bohr
 
 
     Adding external electric field

     Computed dipole along edir(3) : 
        Dipole               -0.0286 Ry au,         -0.0727 Debye
        Dipole field         -0.0001 Ry au
 
        Potential amp.        0.0086 Ry
        Total length         44.5768 bohr
 
 
     Magnetic moment per site:
     atom:    1    charge:    7.1145    magn:    0.8465    constr:    0.0000
     atom:    2    charge:    7.1145    magn:    0.8464    constr:    0.0000
     atom:    3    charge:    7.1145    magn:    0.8464    constr:    0.0000
     atom:    4    charge:    2.8636    magn:    0.2206    constr:    0.0000
     atom:    5    charge:    7.0983    magn:    0.7882    constr:    0.0000
     atom:    6    charge:    7.0984    magn:    0.7882    constr:    0.0000
     atom:    7    charge:    7.0983    magn:    0.7882    constr:    0.0000
     atom:    8    charge:    2.8566    magn:    0.2137    constr:    0.0000
     atom:    9    charge:    7.1147    magn:    0.8431    constr:    0.0000
     atom:   10    charge:    7.1147    magn:    0.8431    constr:    0.0000
     atom:   11    charge:    7.1147    magn:    0.8431    constr:    0.0000
     atom:   12    charge:    2.8635    magn:    0.2216    constr:    0.0000

     total cpu time spent up to now is      754.0 secs

     total energy              =   -2847.11124546 Ry
     Harris-Foulkes estimate   =   -2847.11031112 Ry
     estimated scf accuracy    <       0.11960188 Ry

     total magnetization       =    19.10 Bohr mag/cell
     absolute magnetization    =    19.33 Bohr mag/cell

     iteration #  8     ecut=    36.75 Ry     beta=0.10
     Davidson diagonalization with overlap
     ethr =  6.23E-05,  avg # of iterations =  2.2

     negative rho (up, down):  1.174E-01 1.092E-01
 
     Adding external electric field

     Computed dipole along edir(3) : 
        Dipole               -0.0182 Ry au,         -0.0464 Debye
        Dipole field         -0.0001 Ry au
 
        Potential amp.        0.0055 Ry
        Total length         44.5768 bohr
 
 
     Adding external electric field

     Computed dipole along edir(3) : 
        Dipole               -0.0182 Ry au,         -0.0464 Debye
        Dipole field         -0.0001 Ry au
 
        Potential amp.        0.0055 Ry
        Total length         44.5768 bohr
 
 
     Magnetic moment per site:
     atom:    1    charge:    7.1095    magn:    0.8645    constr:    0.0000
     atom:    2    charge:    7.1095    magn:    0.8644    constr:    0.0000
     atom:    3    charge:    7.1096    magn:    0.8644    constr:    0.0000
     atom:    4    charge:    2.8608    magn:    0.1972    constr:    0.0000
     atom:    5    charge:    7.0955    magn:    0.7970    constr:    0.0000
     atom:    6    charge:    7.0955    magn:    0.7970    constr:    0.0000
     atom:    7    charge:    7.0956    magn:    0.7970    constr:    0.0000
     atom:    8    charge:    2.8555    magn:    0.1880    constr:    0.0000
     atom:    9    charge:    7.1098    magn:    0.8612    constr:    0.0000
     atom:   10    charge:    7.1098    magn:    0.8612    constr:    0.0000
     atom:   11    charge:    7.1098    magn:    0.8611    constr:    0.0000
     atom:   12    charge:    2.8603    magn:    0.1980    constr:    0.0000

     total cpu time spent up to now is      852.5 secs

     total energy              =   -2847.12276913 Ry
     Harris-Foulkes estimate   =   -2847.11361896 Ry
     estimated scf accuracy    <       0.07847998 Ry

     total magnetization       =    19.03 Bohr mag/cell
     absolute magnetization    =    19.29 Bohr mag/cell

     iteration #  9     ecut=    36.75 Ry     beta=0.10
     Davidson diagonalization with overlap
     ethr =  4.09E-05,  avg # of iterations =  2.4

     negative rho (up, down):  1.132E-01 1.114E-01
 
     Adding external electric field

     Computed dipole along edir(3) : 
        Dipole               -0.0199 Ry au,         -0.0507 Debye
        Dipole field         -0.0001 Ry au
 
        Potential amp.        0.0060 Ry
        Total length         44.5768 bohr
 
 
     Adding external electric field

     Computed dipole along edir(3) : 
        Dipole               -0.0199 Ry au,         -0.0507 Debye
        Dipole field         -0.0001 Ry au
 
        Potential amp.        0.0060 Ry
        Total length         44.5768 bohr
 
 
     Magnetic moment per site:
     atom:    1    charge:    7.0972    magn:    0.9114    constr:    0.0000
     atom:    2    charge:    7.0970    magn:    0.9114    constr:    0.0000
     atom:    3    charge:    7.0966    magn:    0.9115    constr:    0.0000
     atom:    4    charge:    2.8518    magn:    0.1405    constr:    0.0000
     atom:    5    charge:    7.0913    magn:    0.8208    constr:    0.0000
     atom:    6    charge:    7.0917    magn:    0.8208    constr:    0.0000
     atom:    7    charge:    7.0909    magn:    0.8209    constr:    0.0000
     atom:    8    charge:    2.8535    magn:    0.1266    constr:    0.0000
     atom:    9    charge:    7.0963    magn:    0.9079    constr:    0.0000
     atom:   10    charge:    7.0961    magn:    0.9079    constr:    0.0000
     atom:   11    charge:    7.0956    magn:    0.9081    constr:    0.0000
     atom:   12    charge:    2.8526    magn:    0.1415    constr:    0.0000

     total cpu time spent up to now is      948.7 secs

     total energy              =   -2847.14555109 Ry
     Harris-Foulkes estimate   =   -2847.12445793 Ry
     estimated scf accuracy    <       0.05708677 Ry

     total magnetization       =    19.08 Bohr mag/cell
     absolute magnetization    =    19.41 Bohr mag/cell

     iteration # 10     ecut=    36.75 Ry     beta=0.10
     Davidson diagonalization with overlap
     ethr =  2.97E-05,  avg # of iterations =  3.0

     negative rho (up, down):  1.114E-01 1.134E-01
 
     Adding external electric field

     Computed dipole along edir(3) : 
        Dipole               -0.0049 Ry au,         -0.0124 Debye
        Dipole field         -0.0000 Ry au
 
        Potential amp.        0.0015 Ry
        Total length         44.5768 bohr
 
 
     Adding external electric field

     Computed dipole along edir(3) : 
        Dipole               -0.0049 Ry au,         -0.0124 Debye
        Dipole field         -0.0000 Ry au
 
        Potential amp.        0.0015 Ry
        Total length         44.5768 bohr
 
 
     Magnetic moment per site:
     atom:    1    charge:    7.0883    magn:    0.9488    constr:    0.0000
     atom:    2    charge:    7.0886    magn:    0.9487    constr:    0.0000
     atom:    3    charge:    7.0889    magn:    0.9486    constr:    0.0000
     atom:    4    charge:    2.8475    magn:    0.1009    constr:    0.0000
     atom:    5    charge:    7.0883    magn:    0.8404    constr:    0.0000
     atom:    6    charge:    7.0878    magn:    0.8404    constr:    0.0000
     atom:    7    charge:    7.0886    magn:    0.8403    constr:    0.0000
     atom:    8    charge:    2.8539    magn:    0.0836    constr:    0.0000
     atom:    9    charge:    7.0879    magn:    0.9451    constr:    0.0000
     atom:   10    charge:    7.0881    magn:    0.9450    constr:    0.0000
     atom:   11    charge:    7.0886    magn:    0.9448    constr:    0.0000
     atom:   12    charge:    2.8477    magn:    0.1016    constr:    0.0000

     total cpu time spent up to now is     1044.1 secs

     total energy              =   -2847.16467326 Ry
     Harris-Foulkes estimate   =   -2847.15133696 Ry
     estimated scf accuracy    <       0.03730414 Ry

     total magnetization       =    19.47 Bohr mag/cell
     absolute magnetization    =    19.94 Bohr mag/cell

     iteration # 11     ecut=    36.75 Ry     beta=0.10
     Davidson diagonalization with overlap
     ethr =  1.94E-05,  avg # of iterations =  1.8

     negative rho (up, down):  1.112E-01 1.136E-01
 
     Adding external electric field

     Computed dipole along edir(3) : 
        Dipole               -0.0023 Ry au,         -0.0059 Debye
        Dipole field         -0.0000 Ry au
 
        Potential amp.        0.0007 Ry
        Total length         44.5768 bohr
 
 
     Adding external electric field

     Computed dipole along edir(3) : 
        Dipole               -0.0023 Ry au,         -0.0059 Debye
        Dipole field         -0.0000 Ry au
 
        Potential amp.        0.0007 Ry
        Total length         44.5768 bohr
 
 
     Magnetic moment per site:
     atom:    1    charge:    7.0882    magn:    0.9558    constr:    0.0000
     atom:    2    charge:    7.0881    magn:    0.9558    constr:    0.0000
     atom:    3    charge:    7.0881    magn:    0.9558    constr:    0.0000
     atom:    4    charge:    2.8475    magn:    0.0958    constr:    0.0000
     atom:    5    charge:    7.0878    magn:    0.8442    constr:    0.0000
     atom:    6    charge:    7.0879    magn:    0.8442    constr:    0.0000
     atom:    7    charge:    7.0878    magn:    0.8442    constr:    0.0000
     atom:    8    charge:    2.8542    magn:    0.0780    constr:    0.0000
     atom:    9    charge:    7.0878    magn:    0.9521    constr:    0.0000
     atom:   10    charge:    7.0878    magn:    0.9521    constr:    0.0000
     atom:   11    charge:    7.0877    magn:    0.9521    constr:    0.0000
     atom:   12    charge:    2.8476    magn:    0.0964    constr:    0.0000

     total cpu time spent up to now is     1134.4 secs

     total energy              =   -2847.16969945 Ry
     Harris-Foulkes estimate   =   -2847.16788481 Ry
     estimated scf accuracy    <       0.02038501 Ry

     total magnetization       =    19.67 Bohr mag/cell
     absolute magnetization    =    20.29 Bohr mag/cell

     iteration # 12     ecut=    36.75 Ry     beta=0.10
     Davidson diagonalization with overlap
     ethr =  1.06E-05,  avg # of iterations =  1.2

     negative rho (up, down):  1.111E-01 1.145E-01
 
     Adding external electric field

     Computed dipole along edir(3) : 
        Dipole                0.0040 Ry au,          0.0102 Debye
        Dipole field          0.0000 Ry au
 
        Potential amp.       -0.0012 Ry
        Total length         44.5768 bohr
 
 
     Adding external electric field

     Computed dipole along edir(3) : 
        Dipole                0.0040 Ry au,          0.0102 Debye
        Dipole field          0.0000 Ry au
 
        Potential amp.       -0.0012 Ry
        Total length         44.5768 bohr
 
 
     Magnetic moment per site:
     atom:    1    charge:    7.0882    magn:    0.9935    constr:    0.0000
     atom:    2    charge:    7.0884    magn:    0.9934    constr:    0.0000
     atom:    3    charge:    7.0884    magn:    0.9934    constr:    0.0000
     atom:    4    charge:    2.8493    magn:    0.0760    constr:    0.0000
     atom:    5    charge:    7.0865    magn:    0.8651    constr:    0.0000
     atom:    6    charge:    7.0860    magn:    0.8652    constr:    0.0000
     atom:    7    charge:    7.0862    magn:    0.8652    constr:    0.0000
     atom:    8    charge:    2.8559    magn:    0.0566    constr:    0.0000
     atom:    9    charge:    7.0878    magn:    0.9901    constr:    0.0000
     atom:   10    charge:    7.0881    magn:    0.9900    constr:    0.0000
     atom:   11    charge:    7.0881    magn:    0.9899    constr:    0.0000
     atom:   12    charge:    2.8495    magn:    0.0764    constr:    0.0000

     total cpu time spent up to now is     1224.7 secs

     total energy              =   -2847.17607856 Ry
     Harris-Foulkes estimate   =   -2847.16991145 Ry
     estimated scf accuracy    <       0.01653331 Ry

     total magnetization       =    19.71 Bohr mag/cell
     absolute magnetization    =    20.35 Bohr mag/cell

     iteration # 13     ecut=    36.75 Ry     beta=0.10
     Davidson diagonalization with overlap
     ethr =  8.61E-06,  avg # of iterations =  1.3

     negative rho (up, down):  1.114E-01 1.163E-01
 
     Adding external electric field

     Computed dipole along edir(3) : 
        Dipole                0.0031 Ry au,          0.0079 Debye
        Dipole field          0.0000 Ry au
 
        Potential amp.       -0.0009 Ry
        Total length         44.5768 bohr
 
 
     Adding external electric field

     Computed dipole along edir(3) : 
        Dipole                0.0031 Ry au,          0.0079 Debye
        Dipole field          0.0000 Ry au
 
        Potential amp.       -0.0009 Ry
        Total length         44.5768 bohr
 
 
     Magnetic moment per site:
     atom:    1    charge:    7.0886    magn:    1.0568    constr:    0.0000
     atom:    2    charge:    7.0880    magn:    1.0570    constr:    0.0000
     atom:    3    charge:    7.0886    magn:    1.0569    constr:    0.0000
     atom:    4    charge:    2.8514    magn:    0.0437    constr:    0.0000
     atom:    5    charge:    7.0822    magn:    0.9006    constr:    0.0000
     atom:    6    charge:    7.0831    magn:    0.9003    constr:    0.0000
     atom:    7    charge:    7.0838    magn:    0.9003    constr:    0.0000
     atom:    8    charge:    2.8576    magn:    0.0220    constr:    0.0000
     atom:    9    charge:    7.0883    magn:    1.0532    constr:    0.0000
     atom:   10    charge:    7.0876    magn:    1.0534    constr:    0.0000
     atom:   11    charge:    7.0883    magn:    1.0531    constr:    0.0000
     atom:   12    charge:    2.8516    magn:    0.0440    constr:    0.0000

     total cpu time spent up to now is     1314.4 secs

     total energy              =   -2847.18348504 Ry
     Harris-Foulkes estimate   =   -2847.17749645 Ry
     estimated scf accuracy    <       0.01653376 Ry

     total magnetization       =    19.98 Bohr mag/cell
     absolute magnetization    =    20.71 Bohr mag/cell

     iteration # 14     ecut=    36.75 Ry     beta=0.10
     Davidson diagonalization with overlap
     ethr =  8.61E-06,  avg # of iterations =  2.1

     negative rho (up, down):  1.113E-01 1.160E-01
 
     Adding external electric field

     Computed dipole along edir(3) : 
        Dipole                0.0033 Ry au,          0.0083 Debye
        Dipole field          0.0000 Ry au
 
        Potential amp.       -0.0010 Ry
        Total length         44.5768 bohr
 
 
     Adding external electric field

     Computed dipole along edir(3) : 
        Dipole                0.0033 Ry au,          0.0083 Debye
        Dipole field          0.0000 Ry au
 
        Potential amp.       -0.0010 Ry
        Total length         44.5768 bohr
 
 
     Magnetic moment per site:
     atom:    1    charge:    7.0879    magn:    1.0612    constr:    0.0000
     atom:    2    charge:    7.0883    magn:    1.0611    constr:    0.0000
     atom:    3    charge:    7.0880    magn:    1.0613    constr:    0.0000
     atom:    4    charge:    2.8512    magn:    0.0432    constr:    0.0000
     atom:    5    charge:    7.0831    magn:    0.9034    constr:    0.0000
     atom:    6    charge:    7.0823    magn:    0.9035    constr:    0.0000
     atom:    7    charge:    7.0820    magn:    0.9036    constr:    0.0000
     atom:    8    charge:    2.8570    magn:    0.0216    constr:    0.0000
     atom:    9    charge:    7.0878    magn:    1.0576    constr:    0.0000
     atom:   10    charge:    7.0883    magn:    1.0573    constr:    0.0000
     atom:   11    charge:    7.0880    magn:    1.0574    constr:    0.0000
     atom:   12    charge:    2.8512    magn:    0.0434    constr:    0.0000

     total cpu time spent up to now is     1413.0 secs

     total energy              =   -2847.18672581 Ry
     Harris-Foulkes estimate   =   -2847.18695520 Ry
     estimated scf accuracy    <       0.01114186 Ry

     total magnetization       =    20.38 Bohr mag/cell
     absolute magnetization    =    21.29 Bohr mag/cell

     iteration # 15     ecut=    36.75 Ry     beta=0.10
     Davidson diagonalization with overlap
     ethr =  5.80E-06,  avg # of iterations =  1.1

     negative rho (up, down):  1.114E-01 1.164E-01
 
     Adding external electric field

     Computed dipole along edir(3) : 
        Dipole                0.0005 Ry au,          0.0013 Debye
        Dipole field          0.0000 Ry au
 
        Potential amp.       -0.0001 Ry
        Total length         44.5768 bohr
 
 
     Adding external electric field

     Computed dipole along edir(3) : 
        Dipole                0.0005 Ry au,          0.0013 Debye
        Dipole field          0.0000 Ry au
 
        Potential amp.       -0.0001 Ry
        Total length         44.5768 bohr
 
 
     Magnetic moment per site:
     atom:    1    charge:    7.0878    magn:    1.0859    constr:    0.0000
     atom:    2    charge:    7.0879    magn:    1.0858    constr:    0.0000
     atom:    3    charge:    7.0880    magn:    1.0859    constr:    0.0000
     atom:    4    charge:    2.8520    magn:    0.0324    constr:    0.0000
     atom:    5    charge:    7.0809    magn:    0.9181    constr:    0.0000
     atom:    6    charge:    7.0809    magn:    0.9181    constr:    0.0000
     atom:    7    charge:    7.0810    magn:    0.9181    constr:    0.0000
     atom:    8    charge:    2.8571    magn:    0.0101    constr:    0.0000
     atom:    9    charge:    7.0879    magn:    1.0821    constr:    0.0000
     atom:   10    charge:    7.0879    magn:    1.0821    constr:    0.0000
     atom:   11    charge:    7.0880    magn:    1.0820    constr:    0.0000
     atom:   12    charge:    2.8520    magn:    0.0325    constr:    0.0000

     total cpu time spent up to now is     1498.1 secs

     total energy              =   -2847.18887493 Ry
     Harris-Foulkes estimate   =   -2847.18721262 Ry
     estimated scf accuracy    <       0.00876155 Ry

     total magnetization       =    20.47 Bohr mag/cell
     absolute magnetization    =    21.38 Bohr mag/cell

     iteration # 16     ecut=    36.75 Ry     beta=0.10
     Davidson diagonalization with overlap
     ethr =  4.56E-06,  avg # of iterations =  1.0

     negative rho (up, down):  1.113E-01 1.161E-01
 
     Adding external electric field

     Computed dipole along edir(3) : 
        Dipole                0.0054 Ry au,          0.0137 Debye
        Dipole field          0.0000 Ry au
 
        Potential amp.       -0.0016 Ry
        Total length         44.5768 bohr
 
 
     Adding external electric field

     Computed dipole along edir(3) : 
        Dipole                0.0054 Ry au,          0.0137 Debye
        Dipole field          0.0000 Ry au
 
        Potential amp.       -0.0016 Ry
        Total length         44.5768 bohr
 
 
     Magnetic moment per site:
     atom:    1    charge:    7.0888    magn:    1.0990    constr:    0.0000
     atom:    2    charge:    7.0887    magn:    1.0990    constr:    0.0000
     atom:    3    charge:    7.0889    magn:    1.0991    constr:    0.0000
     atom:    4    charge:    2.8527    magn:    0.0296    constr:    0.0000
     atom:    5    charge:    7.0817    magn:    0.9272    constr:    0.0000
     atom:    6    charge:    7.0816    magn:    0.9272    constr:    0.0000
     atom:    7    charge:    7.0817    magn:    0.9272    constr:    0.0000
     atom:    8    charge:    2.8573    magn:    0.0074    constr:    0.0000
     atom:    9    charge:    7.0887    magn:    1.0956    constr:    0.0000
     atom:   10    charge:    7.0887    magn:    1.0956    constr:    0.0000
     atom:   11    charge:    7.0888    magn:    1.0954    constr:    0.0000
     atom:   12    charge:    2.8526    magn:    0.0296    constr:    0.0000

     total cpu time spent up to now is     1572.5 secs

     total energy              =   -2847.19021988 Ry
     Harris-Foulkes estimate   =   -2847.18944906 Ry
     estimated scf accuracy    <       0.00596805 Ry

     total magnetization       =    20.64 Bohr mag/cell
     absolute magnetization    =    21.62 Bohr mag/cell

     iteration # 17     ecut=    36.75 Ry     beta=0.10
     Davidson diagonalization with overlap
     ethr =  3.11E-06,  avg # of iterations =  1.0

     negative rho (up, down):  1.112E-01 1.152E-01
 
     Adding external electric field

     Computed dipole along edir(3) : 
        Dipole               -0.0029 Ry au,         -0.0073 Debye
        Dipole field         -0.0000 Ry au
 
        Potential amp.        0.0009 Ry
        Total length         44.5768 bohr
 
 
     Adding external electric field

     Computed dipole along edir(3) : 
        Dipole               -0.0029 Ry au,         -0.0073 Debye
        Dipole field         -0.0000 Ry au
 
        Potential amp.        0.0009 Ry
        Total length         44.5768 bohr
 
 
     Magnetic moment per site:
     atom:    1    charge:    7.0890    magn:    1.1397    constr:    0.0000
     atom:    2    charge:    7.0892    magn:    1.1396    constr:    0.0000
     atom:    3    charge:    7.0890    magn:    1.1398    constr:    0.0000
     atom:    4    charge:    2.8528    magn:    0.0224    constr:    0.0000
     atom:    5    charge:    7.0822    magn:    0.9573    constr:    0.0000
     atom:    6    charge:    7.0822    magn:    0.9574    constr:    0.0000
     atom:    7    charge:    7.0822    magn:    0.9575    constr:    0.0000
     atom:    8    charge:    2.8559    magn:    0.0013    constr:    0.0000
     atom:    9    charge:    7.0891    magn:    1.1363    constr:    0.0000
     atom:   10    charge:    7.0893    magn:    1.1362    constr:    0.0000
     atom:   11    charge:    7.0892    magn:    1.1362    constr:    0.0000
     atom:   12    charge:    2.8528    magn:    0.0224    constr:    0.0000

     total cpu time spent up to now is     1661.5 secs

     total energy              =   -2847.19152035 Ry
     Harris-Foulkes estimate   =   -2847.19040118 Ry
     estimated scf accuracy    <       0.00612441 Ry

     total magnetization       =    20.72 Bohr mag/cell
     absolute magnetization    =    21.73 Bohr mag/cell

     iteration # 18     ecut=    36.75 Ry     beta=0.10
     Davidson diagonalization with overlap
     ethr =  3.11E-06,  avg # of iterations =  1.6

     negative rho (up, down):  1.111E-01 1.146E-01
 
     Adding external electric field

     Computed dipole along edir(3) : 
        Dipole               -0.0006 Ry au,         -0.0016 Debye
        Dipole field         -0.0000 Ry au
 
        Potential amp.        0.0002 Ry
        Total length         44.5768 bohr
 
 
     Adding external electric field

     Computed dipole along edir(3) : 
        Dipole               -0.0006 Ry au,         -0.0016 Debye
        Dipole field         -0.0000 Ry au
 
        Potential amp.        0.0002 Ry
        Total length         44.5768 bohr
 
 
     Magnetic moment per site:
     atom:    1    charge:    7.0903    magn:    1.1550    constr:    0.0000
     atom:    2    charge:    7.0903    magn:    1.1549    constr:    0.0000
     atom:    3    charge:    7.0904    magn:    1.1550    constr:    0.0000
     atom:    4    charge:    2.8531    magn:    0.0209    constr:    0.0000
     atom:    5    charge:    7.0833    magn:    0.9697    constr:    0.0000
     atom:    6    charge:    7.0832    magn:    0.9699    constr:    0.0000
     atom:    7    charge:    7.0832    magn:    0.9700    constr:    0.0000
     atom:    8    charge:    2.8561    magn:    0.0005    constr:    0.0000
     atom:    9    charge:    7.0903    magn:    1.1520    constr:    0.0000
     atom:   10    charge:    7.0903    magn:    1.1519    constr:    0.0000
     atom:   11    charge:    7.0904    magn:    1.1518    constr:    0.0000
     atom:   12    charge:    2.8531    magn:    0.0209    constr:    0.0000

     total cpu time spent up to now is     1750.3 secs

     total energy              =   -2847.19302192 Ry
     Harris-Foulkes estimate   =   -2847.19261856 Ry
     estimated scf accuracy    <       0.00540847 Ry

     total magnetization       =    21.07 Bohr mag/cell
     absolute magnetization    =    22.15 Bohr mag/cell

     iteration # 19     ecut=    36.75 Ry     beta=0.10
     Davidson diagonalization with overlap
     ethr =  2.82E-06,  avg # of iterations =  1.2

     negative rho (up, down):  1.111E-01 1.141E-01
 
     Adding external electric field

     Computed dipole along edir(3) : 
        Dipole               -0.0002 Ry au,         -0.0006 Debye
        Dipole field         -0.0000 Ry au
 
        Potential amp.        0.0001 Ry
        Total length         44.5768 bohr
 
 
     Adding external electric field

     Computed dipole along edir(3) : 
        Dipole               -0.0002 Ry au,         -0.0006 Debye
        Dipole field         -0.0000 Ry au
 
        Potential amp.        0.0001 Ry
        Total length         44.5768 bohr
 
 
     Magnetic moment per site:
     atom:    1    charge:    7.0913    magn:    1.1713    constr:    0.0000
     atom:    2    charge:    7.0913    magn:    1.1712    constr:    0.0000
     atom:    3    charge:    7.0912    magn:    1.1713    constr:    0.0000
     atom:    4    charge:    2.8535    magn:    0.0196    constr:    0.0000
     atom:    5    charge:    7.0844    magn:    0.9836    constr:    0.0000
     atom:    6    charge:    7.0844    magn:    0.9838    constr:    0.0000
     atom:    7    charge:    7.0845    magn:    0.9838    constr:    0.0000
     atom:    8    charge:    2.8561    magn:   -0.0001    constr:    0.0000
     atom:    9    charge:    7.0914    magn:    1.1686    constr:    0.0000
     atom:   10    charge:    7.0915    magn:    1.1684    constr:    0.0000
     atom:   11    charge:    7.0914    magn:    1.1684    constr:    0.0000
     atom:   12    charge:    2.8534    magn:    0.0195    constr:    0.0000

     total cpu time spent up to now is     1842.1 secs

     total energy              =   -2847.19355623 Ry
     Harris-Foulkes estimate   =   -2847.19321201 Ry
     estimated scf accuracy    <       0.00178958 Ry

     total magnetization       =    21.23 Bohr mag/cell
     absolute magnetization    =    22.33 Bohr mag/cell

     iteration # 20     ecut=    36.75 Ry     beta=0.10
     Davidson diagonalization with overlap
     ethr =  9.32E-07,  avg # of iterations =  3.0

     negative rho (up, down):  1.110E-01 1.137E-01
 
     Adding external electric field

     Computed dipole along edir(3) : 
        Dipole               -0.0003 Ry au,         -0.0007 Debye
        Dipole field         -0.0000 Ry au
 
        Potential amp.        0.0001 Ry
        Total length         44.5768 bohr
 
 
     Adding external electric field

     Computed dipole along edir(3) : 
        Dipole               -0.0003 Ry au,         -0.0007 Debye
        Dipole field         -0.0000 Ry au
 
        Potential amp.        0.0001 Ry
        Total length         44.5768 bohr
 
 
     Magnetic moment per site:
     atom:    1    charge:    7.0921    magn:    1.1822    constr:    0.0000
     atom:    2    charge:    7.0921    magn:    1.1822    constr:    0.0000
     atom:    3    charge:    7.0922    magn:    1.1822    constr:    0.0000
     atom:    4    charge:    2.8533    magn:    0.0202    constr:    0.0000
     atom:    5    charge:    7.0857    magn:    0.9954    constr:    0.0000
     atom:    6    charge:    7.0857    magn:    0.9956    constr:    0.0000
     atom:    7    charge:    7.0855    magn:    0.9957    constr:    0.0000
     atom:    8    charge:    2.8564    magn:    0.0017    constr:    0.0000
     atom:    9    charge:    7.0922    magn:    1.1799    constr:    0.0000
     atom:   10    charge:    7.0921    magn:    1.1798    constr:    0.0000
     atom:   11    charge:    7.0922    magn:    1.1797    constr:    0.0000
     atom:   12    charge:    2.8533    magn:    0.0201    constr:    0.0000

     total cpu time spent up to now is     1940.2 secs

     total energy              =   -2847.19393145 Ry
     Harris-Foulkes estimate   =   -2847.19370917 Ry
     estimated scf accuracy    <       0.00113846 Ry

     total magnetization       =    21.36 Bohr mag/cell
     absolute magnetization    =    22.49 Bohr mag/cell

     iteration # 21     ecut=    36.75 Ry     beta=0.10
     Davidson diagonalization with overlap
     ethr =  5.93E-07,  avg # of iterations =  1.6

     negative rho (up, down):  1.109E-01 1.133E-01
 
     Adding external electric field

     Computed dipole along edir(3) : 
        Dipole                0.0003 Ry au,          0.0008 Debye
        Dipole field          0.0000 Ry au
 
        Potential amp.       -0.0001 Ry
        Total length         44.5768 bohr
 
 
     Adding external electric field

     Computed dipole along edir(3) : 
        Dipole                0.0003 Ry au,          0.0008 Debye
        Dipole field          0.0000 Ry au
 
        Potential amp.       -0.0001 Ry
        Total length         44.5768 bohr
 
 
     Magnetic moment per site:
     atom:    1    charge:    7.0928    magn:    1.1869    constr:    0.0000
     atom:    2    charge:    7.0928    magn:    1.1868    constr:    0.0000
     atom:    3    charge:    7.0927    magn:    1.1869    constr:    0.0000
     atom:    4    charge:    2.8530    magn:    0.0221    constr:    0.0000
     atom:    5    charge:    7.0864    magn:    1.0026    constr:    0.0000
     atom:    6    charge:    7.0863    magn:    1.0027    constr:    0.0000
     atom:    7    charge:    7.0864    magn:    1.0027    constr:    0.0000
     atom:    8    charge:    2.8565    magn:    0.0047    constr:    0.0000
     atom:    9    charge:    7.0927    magn:    1.1849    constr:    0.0000
     atom:   10    charge:    7.0928    magn:    1.1848    constr:    0.0000
     atom:   11    charge:    7.0926    magn:    1.1848    constr:    0.0000
     atom:   12    charge:    2.8531    magn:    0.0220    constr:    0.0000

     total cpu time spent up to now is     2031.9 secs

     total energy              =   -2847.19416982 Ry
     Harris-Foulkes estimate   =   -2847.19402262 Ry
     estimated scf accuracy    <       0.00077635 Ry

     total magnetization       =    21.47 Bohr mag/cell
     absolute magnetization    =    22.60 Bohr mag/cell

     iteration # 22     ecut=    36.75 Ry     beta=0.10
     Davidson diagonalization with overlap
     ethr =  4.04E-07,  avg # of iterations =  1.0

     negative rho (up, down):  1.109E-01 1.130E-01
 
     Adding external electric field

     Computed dipole along edir(3) : 
        Dipole                0.0001 Ry au,          0.0001 Debye
        Dipole field          0.0000 Ry au
 
        Potential amp.       -0.0000 Ry
        Total length         44.5768 bohr
 
 
     Adding external electric field

     Computed dipole along edir(3) : 
        Dipole                0.0001 Ry au,          0.0001 Debye
        Dipole field          0.0000 Ry au
 
        Potential amp.       -0.0000 Ry
        Total length         44.5768 bohr
 
 
     Magnetic moment per site:
     atom:    1    charge:    7.0929    magn:    1.1943    constr:    0.0000
     atom:    2    charge:    7.0930    magn:    1.1942    constr:    0.0000
     atom:    3    charge:    7.0931    magn:    1.1943    constr:    0.0000
     atom:    4    charge:    2.8526    magn:    0.0235    constr:    0.0000
     atom:    5    charge:    7.0867    magn:    1.0131    constr:    0.0000
     atom:    6    charge:    7.0867    magn:    1.0132    constr:    0.0000
     atom:    7    charge:    7.0867    magn:    1.0132    constr:    0.0000
     atom:    8    charge:    2.8564    magn:    0.0074    constr:    0.0000
     atom:    9    charge:    7.0929    magn:    1.1927    constr:    0.0000
     atom:   10    charge:    7.0929    magn:    1.1926    constr:    0.0000
     atom:   11    charge:    7.0930    magn:    1.1925    constr:    0.0000
     atom:   12    charge:    2.8526    magn:    0.0234    constr:    0.0000

     total cpu time spent up to now is     2119.7 secs

     total energy              =   -2847.19434568 Ry
     Harris-Foulkes estimate   =   -2847.19420926 Ry
     estimated scf accuracy    <       0.00055085 Ry

     total magnetization       =    21.54 Bohr mag/cell
     absolute magnetization    =    22.67 Bohr mag/cell

     iteration # 23     ecut=    36.75 Ry     beta=0.10
     Davidson diagonalization with overlap
     ethr =  2.87E-07,  avg # of iterations =  1.0

     negative rho (up, down):  1.108E-01 1.128E-01
 
     Adding external electric field

     Computed dipole along edir(3) : 
        Dipole               -0.0001 Ry au,         -0.0003 Debye
        Dipole field         -0.0000 Ry au
 
        Potential amp.        0.0000 Ry
        Total length         44.5768 bohr
 
 
     Adding external electric field

     Computed dipole along edir(3) : 
        Dipole               -0.0001 Ry au,         -0.0003 Debye
        Dipole field         -0.0000 Ry au
 
        Potential amp.        0.0000 Ry
        Total length         44.5768 bohr
 
 
     Magnetic moment per site:
     atom:    1    charge:    7.0932    magn:    1.2022    constr:    0.0000
     atom:    2    charge:    7.0931    magn:    1.2022    constr:    0.0000
     atom:    3    charge:    7.0931    magn:    1.2023    constr:    0.0000
     atom:    4    charge:    2.8522    magn:    0.0246    constr:    0.0000
     atom:    5    charge:    7.0868    magn:    1.0244    constr:    0.0000
     atom:    6    charge:    7.0869    magn:    1.0245    constr:    0.0000
     atom:    7    charge:    7.0867    magn:    1.0246    constr:    0.0000
     atom:    8    charge:    2.8563    magn:    0.0099    constr:    0.0000
     atom:    9    charge:    7.0932    magn:    1.2010    constr:    0.0000
     atom:   10    charge:    7.0931    magn:    1.2010    constr:    0.0000
     atom:   11    charge:    7.0930    magn:    1.2010    constr:    0.0000
     atom:   12    charge:    2.8522    magn:    0.0245    constr:    0.0000

     total cpu time spent up to now is     2208.1 secs

     total energy              =   -2847.19449173 Ry
     Harris-Foulkes estimate   =   -2847.19439901 Ry
     estimated scf accuracy    <       0.00039683 Ry

     total magnetization       =    21.66 Bohr mag/cell
     absolute magnetization    =    22.78 Bohr mag/cell

     iteration # 24     ecut=    36.75 Ry     beta=0.10
     Davidson diagonalization with overlap
     ethr =  2.07E-07,  avg # of iterations =  1.4

     negative rho (up, down):  1.108E-01 1.126E-01
 
     Adding external electric field

     Computed dipole along edir(3) : 
        Dipole               -0.0002 Ry au,         -0.0006 Debye
        Dipole field         -0.0000 Ry au
 
        Potential amp.        0.0001 Ry
        Total length         44.5768 bohr
 
 
     Adding external electric field

     Computed dipole along edir(3) : 
        Dipole               -0.0002 Ry au,         -0.0006 Debye
        Dipole field         -0.0000 Ry au
 
        Potential amp.        0.0001 Ry
        Total length         44.5768 bohr
 
 
     Magnetic moment per site:
     atom:    1    charge:    7.0932    magn:    1.2065    constr:    0.0000
     atom:    2    charge:    7.0932    magn:    1.2065    constr:    0.0000
     atom:    3    charge:    7.0932    magn:    1.2065    constr:    0.0000
     atom:    4    charge:    2.8518    magn:    0.0259    constr:    0.0000
     atom:    5    charge:    7.0869    magn:    1.0321    constr:    0.0000
     atom:    6    charge:    7.0869    magn:    1.0322    constr:    0.0000
     atom:    7    charge:    7.0869    magn:    1.0322    constr:    0.0000
     atom:    8    charge:    2.8562    magn:    0.0122    constr:    0.0000
     atom:    9    charge:    7.0931    magn:    1.2056    constr:    0.0000
     atom:   10    charge:    7.0931    magn:    1.2055    constr:    0.0000
     atom:   11    charge:    7.0931    magn:    1.2055    constr:    0.0000
     atom:   12    charge:    2.8518    magn:    0.0258    constr:    0.0000

     total cpu time spent up to now is     2288.7 secs

     total energy              =   -2847.19461592 Ry
     Harris-Foulkes estimate   =   -2847.19455389 Ry
     estimated scf accuracy    <       0.00031330 Ry

     total magnetization       =    21.78 Bohr mag/cell
     absolute magnetization    =    22.90 Bohr mag/cell

     iteration # 25     ecut=    36.75 Ry     beta=0.10
     Davidson diagonalization with overlap
     ethr =  1.63E-07,  avg # of iterations =  1.0

     negative rho (up, down):  1.107E-01 1.126E-01
 
     Adding external electric field

     Computed dipole along edir(3) : 
        Dipole               -0.0006 Ry au,         -0.0014 Debye
        Dipole field         -0.0000 Ry au
 
        Potential amp.        0.0002 Ry
        Total length         44.5768 bohr
 
 
     Adding external electric field

     Computed dipole along edir(3) : 
        Dipole               -0.0006 Ry au,         -0.0014 Debye
        Dipole field         -0.0000 Ry au
 
        Potential amp.        0.0002 Ry
        Total length         44.5768 bohr
 
 
     Magnetic moment per site:
     atom:    1    charge:    7.0931    magn:    1.2066    constr:    0.0000
     atom:    2    charge:    7.0931    magn:    1.2066    constr:    0.0000
     atom:    3    charge:    7.0931    magn:    1.2066    constr:    0.0000
     atom:    4    charge:    2.8516    magn:    0.0270    constr:    0.0000
     atom:    5    charge:    7.0868    magn:    1.0352    constr:    0.0000
     atom:    6    charge:    7.0869    magn:    1.0352    constr:    0.0000
     atom:    7    charge:    7.0869    magn:    1.0353    constr:    0.0000
     atom:    8    charge:    2.8562    magn:    0.0140    constr:    0.0000
     atom:    9    charge:    7.0930    magn:    1.2058    constr:    0.0000
     atom:   10    charge:    7.0930    magn:    1.2057    constr:    0.0000
     atom:   11    charge:    7.0930    magn:    1.2057    constr:    0.0000
     atom:   12    charge:    2.8517    magn:    0.0269    constr:    0.0000

     total cpu time spent up to now is     2364.3 secs

     total energy              =   -2847.19469277 Ry
     Harris-Foulkes estimate   =   -2847.19464418 Ry
     estimated scf accuracy    <       0.00017921 Ry

     total magnetization       =    21.86 Bohr mag/cell
     absolute magnetization    =    22.97 Bohr mag/cell

     iteration # 26     ecut=    36.75 Ry     beta=0.10
     Davidson diagonalization with overlap
     ethr =  9.33E-08,  avg # of iterations =  1.0

     negative rho (up, down):  1.106E-01 1.127E-01
 
     Adding external electric field

     Computed dipole along edir(3) : 
        Dipole                0.0001 Ry au,          0.0002 Debye
        Dipole field          0.0000 Ry au
 
        Potential amp.       -0.0000 Ry
        Total length         44.5768 bohr
 
 
     Adding external electric field

     Computed dipole along edir(3) : 
        Dipole                0.0001 Ry au,          0.0002 Debye
        Dipole field          0.0000 Ry au
 
        Potential amp.       -0.0000 Ry
        Total length         44.5768 bohr
 
 
     Magnetic moment per site:
     atom:    1    charge:    7.0929    magn:    1.2085    constr:    0.0000
     atom:    2    charge:    7.0929    magn:    1.2085    constr:    0.0000
     atom:    3    charge:    7.0929    magn:    1.2085    constr:    0.0000
     atom:    4    charge:    2.8516    magn:    0.0292    constr:    0.0000
     atom:    5    charge:    7.0869    magn:    1.0467    constr:    0.0000
     atom:    6    charge:    7.0868    magn:    1.0467    constr:    0.0000
     atom:    7    charge:    7.0868    magn:    1.0468    constr:    0.0000
     atom:    8    charge:    2.8562    magn:    0.0181    constr:    0.0000
     atom:    9    charge:    7.0929    magn:    1.2081    constr:    0.0000
     atom:   10    charge:    7.0929    magn:    1.2082    constr:    0.0000
     atom:   11    charge:    7.0929    magn:    1.2081    constr:    0.0000
     atom:   12    charge:    2.8516    magn:    0.0291    constr:    0.0000

     total cpu time spent up to now is     2447.1 secs

     total energy              =   -2847.19478140 Ry
     Harris-Foulkes estimate   =   -2847.19469874 Ry
     estimated scf accuracy    <       0.00015040 Ry

     total magnetization       =    21.90 Bohr mag/cell
     absolute magnetization    =    23.00 Bohr mag/cell

     iteration # 27     ecut=    36.75 Ry     beta=0.10
     Davidson diagonalization with overlap
     ethr =  7.83E-08,  avg # of iterations =  1.9

     negative rho (up, down):  1.105E-01 1.127E-01
 
     Adding external electric field

     Computed dipole along edir(3) : 
        Dipole                0.0003 Ry au,          0.0007 Debye
        Dipole field          0.0000 Ry au
 
        Potential amp.       -0.0001 Ry
        Total length         44.5768 bohr
 
 
     Adding external electric field

     Computed dipole along edir(3) : 
        Dipole                0.0003 Ry au,          0.0007 Debye
        Dipole field          0.0000 Ry au
 
        Potential amp.       -0.0001 Ry
        Total length         44.5768 bohr
 
 
     Magnetic moment per site:
     atom:    1    charge:    7.0929    magn:    1.2096    constr:    0.0000
     atom:    2    charge:    7.0929    magn:    1.2096    constr:    0.0000
     atom:    3    charge:    7.0929    magn:    1.2096    constr:    0.0000
     atom:    4    charge:    2.8516    magn:    0.0304    constr:    0.0000
     atom:    5    charge:    7.0868    magn:    1.0526    constr:    0.0000
     atom:    6    charge:    7.0869    magn:    1.0526    constr:    0.0000
     atom:    7    charge:    7.0868    magn:    1.0527    constr:    0.0000
     atom:    8    charge:    2.8562    magn:    0.0203    constr:    0.0000
     atom:    9    charge:    7.0929    magn:    1.2094    constr:    0.0000
     atom:   10    charge:    7.0929    magn:    1.2094    constr:    0.0000
     atom:   11    charge:    7.0929    magn:    1.2094    constr:    0.0000
     atom:   12    charge:    2.8516    magn:    0.0303    constr:    0.0000

     total cpu time spent up to now is     2532.9 secs

     total energy              =   -2847.19487189 Ry
     Harris-Foulkes estimate   =   -2847.19483190 Ry
     estimated scf accuracy    <       0.00009704 Ry

     total magnetization       =    22.02 Bohr mag/cell
     absolute magnetization    =    23.11 Bohr mag/cell

     iteration # 28     ecut=    36.75 Ry     beta=0.10
     Davidson diagonalization with overlap
     ethr =  5.05E-08,  avg # of iterations =  1.4

     negative rho (up, down):  1.104E-01 1.128E-01
 
     Adding external electric field

     Computed dipole along edir(3) : 
        Dipole                0.0001 Ry au,          0.0002 Debye
        Dipole field          0.0000 Ry au
 
        Potential amp.       -0.0000 Ry
        Total length         44.5768 bohr
 
 
     Adding external electric field

     Computed dipole along edir(3) : 
        Dipole                0.0001 Ry au,          0.0002 Debye
        Dipole field          0.0000 Ry au
 
        Potential amp.       -0.0000 Ry
        Total length         44.5768 bohr
 
 
     Magnetic moment per site:
     atom:    1    charge:    7.0927    magn:    1.2091    constr:    0.0000
     atom:    2    charge:    7.0927    magn:    1.2091    constr:    0.0000
     atom:    3    charge:    7.0927    magn:    1.2091    constr:    0.0000
     atom:    4    charge:    2.8516    magn:    0.0317    constr:    0.0000
     atom:    5    charge:    7.0868    magn:    1.0580    constr:    0.0000
     atom:    6    charge:    7.0867    magn:    1.0580    constr:    0.0000
     atom:    7    charge:    7.0868    magn:    1.0580    constr:    0.0000
     atom:    8    charge:    2.8561    magn:    0.0226    constr:    0.0000
     atom:    9    charge:    7.0928    magn:    1.2091    constr:    0.0000
     atom:   10    charge:    7.0928    magn:    1.2091    constr:    0.0000
     atom:   11    charge:    7.0928    magn:    1.2091    constr:    0.0000
     atom:   12    charge:    2.8517    magn:    0.0316    constr:    0.0000

     total cpu time spent up to now is     2613.9 secs

     total energy              =   -2847.19492245 Ry
     Harris-Foulkes estimate   =   -2847.19488623 Ry
     estimated scf accuracy    <       0.00006520 Ry

     total magnetization       =    22.08 Bohr mag/cell
     absolute magnetization    =    23.16 Bohr mag/cell

     iteration # 29     ecut=    36.75 Ry     beta=0.10
     Davidson diagonalization with overlap
     ethr =  3.40E-08,  avg # of iterations =  1.8

     negative rho (up, down):  1.104E-01 1.129E-01
 
     Adding external electric field

     Computed dipole along edir(3) : 
        Dipole                0.0001 Ry au,          0.0002 Debye
        Dipole field          0.0000 Ry au
 
        Potential amp.       -0.0000 Ry
        Total length         44.5768 bohr
 
 
     Adding external electric field

     Computed dipole along edir(3) : 
        Dipole                0.0001 Ry au,          0.0002 Debye
        Dipole field          0.0000 Ry au
 
        Potential amp.       -0.0000 Ry
        Total length         44.5768 bohr
 
 
     Magnetic moment per site:
     atom:    1    charge:    7.0927    magn:    1.2092    constr:    0.0000
     atom:    2    charge:    7.0927    magn:    1.2092    constr:    0.0000
     atom:    3    charge:    7.0927    magn:    1.2092    constr:    0.0000
     atom:    4    charge:    2.8518    magn:    0.0326    constr:    0.0000
     atom:    5    charge:    7.0868    magn:    1.0636    constr:    0.0000
     atom:    6    charge:    7.0868    magn:    1.0635    constr:    0.0000
     atom:    7    charge:    7.0867    magn:    1.0636    constr:    0.0000
     atom:    8    charge:    2.8561    magn:    0.0243    constr:    0.0000
     atom:    9    charge:    7.0927    magn:    1.2093    constr:    0.0000
     atom:   10    charge:    7.0927    magn:    1.2093    constr:    0.0000
     atom:   11    charge:    7.0927    magn:    1.2093    constr:    0.0000
     atom:   12    charge:    2.8518    magn:    0.0325    constr:    0.0000

     total cpu time spent up to now is     2693.0 secs

     total energy              =   -2847.19496101 Ry
     Harris-Foulkes estimate   =   -2847.19493620 Ry
     estimated scf accuracy    <       0.00005052 Ry

     total magnetization       =    22.13 Bohr mag/cell
     absolute magnetization    =    23.20 Bohr mag/cell

     iteration # 30     ecut=    36.75 Ry     beta=0.10
     Davidson diagonalization with overlap
     ethr =  2.63E-08,  avg # of iterations =  2.0

     negative rho (up, down):  1.103E-01 1.130E-01
 
     Adding external electric field

     Computed dipole along edir(3) : 
        Dipole               -0.0002 Ry au,         -0.0005 Debye
        Dipole field         -0.0000 Ry au
 
        Potential amp.        0.0001 Ry
        Total length         44.5768 bohr
 
 
     Adding external electric field

     Computed dipole along edir(3) : 
        Dipole               -0.0002 Ry au,         -0.0005 Debye
        Dipole field         -0.0000 Ry au
 
        Potential amp.        0.0001 Ry
        Total length         44.5768 bohr
 
 
     Magnetic moment per site:
     atom:    1    charge:    7.0926    magn:    1.2090    constr:    0.0000
     atom:    2    charge:    7.0926    magn:    1.2090    constr:    0.0000
     atom:    3    charge:    7.0926    magn:    1.2090    constr:    0.0000
     atom:    4    charge:    2.8518    magn:    0.0332    constr:    0.0000
     atom:    5    charge:    7.0867    magn:    1.0665    constr:    0.0000
     atom:    6    charge:    7.0867    magn:    1.0665    constr:    0.0000
     atom:    7    charge:    7.0868    magn:    1.0666    constr:    0.0000
     atom:    8    charge:    2.8560    magn:    0.0254    constr:    0.0000
     atom:    9    charge:    7.0926    magn:    1.2092    constr:    0.0000
     atom:   10    charge:    7.0926    magn:    1.2093    constr:    0.0000
     atom:   11    charge:    7.0926    magn:    1.2092    constr:    0.0000
     atom:   12    charge:    2.8518    magn:    0.0331    constr:    0.0000

     total cpu time spent up to now is     2782.1 secs

     total energy              =   -2847.19498650 Ry
     Harris-Foulkes estimate   =   -2847.19497397 Ry
     estimated scf accuracy    <       0.00004011 Ry

     total magnetization       =    22.18 Bohr mag/cell
     absolute magnetization    =    23.25 Bohr mag/cell

     iteration # 31     ecut=    36.75 Ry     beta=0.10
     Davidson diagonalization with overlap
     ethr =  2.09E-08,  avg # of iterations =  1.0

     negative rho (up, down):  1.103E-01 1.130E-01
 
     Adding external electric field

     Computed dipole along edir(3) : 
        Dipole                0.0001 Ry au,          0.0003 Debye
        Dipole field          0.0000 Ry au
 
        Potential amp.       -0.0000 Ry
        Total length         44.5768 bohr
 
 
     Adding external electric field

     Computed dipole along edir(3) : 
        Dipole                0.0001 Ry au,          0.0003 Debye
        Dipole field          0.0000 Ry au
 
        Potential amp.       -0.0000 Ry
        Total length         44.5768 bohr
 
 
     Magnetic moment per site:
     atom:    1    charge:    7.0926    magn:    1.2091    constr:    0.0000
     atom:    2    charge:    7.0926    magn:    1.2091    constr:    0.0000
     atom:    3    charge:    7.0926    magn:    1.2091    constr:    0.0000
     atom:    4    charge:    2.8518    magn:    0.0338    constr:    0.0000
     atom:    5    charge:    7.0868    magn:    1.0706    constr:    0.0000
     atom:    6    charge:    7.0868    magn:    1.0706    constr:    0.0000
     atom:    7    charge:    7.0868    magn:    1.0706    constr:    0.0000
     atom:    8    charge:    2.8560    magn:    0.0264    constr:    0.0000
     atom:    9    charge:    7.0926    magn:    1.2094    constr:    0.0000
     atom:   10    charge:    7.0926    magn:    1.2094    constr:    0.0000
     atom:   11    charge:    7.0926    magn:    1.2094    constr:    0.0000
     atom:   12    charge:    2.8518    magn:    0.0337    constr:    0.0000

     total cpu time spent up to now is     2857.4 secs

     total energy              =   -2847.19500269 Ry
     Harris-Foulkes estimate   =   -2847.19499069 Ry
     estimated scf accuracy    <       0.00003003 Ry

     total magnetization       =    22.21 Bohr mag/cell
     absolute magnetization    =    23.28 Bohr mag/cell

     iteration # 32     ecut=    36.75 Ry     beta=0.10
     Davidson diagonalization with overlap
     ethr =  1.56E-08,  avg # of iterations =  1.7

     negative rho (up, down):  1.102E-01 1.131E-01
 
     Adding external electric field

     Computed dipole along edir(3) : 
        Dipole               -0.0001 Ry au,         -0.0001 Debye
        Dipole field         -0.0000 Ry au
 
        Potential amp.        0.0000 Ry
        Total length         44.5768 bohr
 
 
     Adding external electric field

     Computed dipole along edir(3) : 
        Dipole               -0.0001 Ry au,         -0.0001 Debye
        Dipole field         -0.0000 Ry au
 
        Potential amp.        0.0000 Ry
        Total length         44.5768 bohr
 
 
     Magnetic moment per site:
     atom:    1    charge:    7.0925    magn:    1.2092    constr:    0.0000
     atom:    2    charge:    7.0925    magn:    1.2092    constr:    0.0000
     atom:    3    charge:    7.0925    magn:    1.2092    constr:    0.0000
     atom:    4    charge:    2.8519    magn:    0.0345    constr:    0.0000
     atom:    5    charge:    7.0869    magn:    1.0769    constr:    0.0000
     atom:    6    charge:    7.0869    magn:    1.0769    constr:    0.0000
     atom:    7    charge:    7.0869    magn:    1.0769    constr:    0.0000
     atom:    8    charge:    2.8560    magn:    0.0280    constr:    0.0000
     atom:    9    charge:    7.0925    magn:    1.2095    constr:    0.0000
     atom:   10    charge:    7.0925    magn:    1.2096    constr:    0.0000
     atom:   11    charge:    7.0925    magn:    1.2096    constr:    0.0000
     atom:   12    charge:    2.8519    magn:    0.0345    constr:    0.0000

     total cpu time spent up to now is     2944.0 secs

     total energy              =   -2847.19501491 Ry
     Harris-Foulkes estimate   =   -2847.19500920 Ry
     estimated scf accuracy    <       0.00002799 Ry

     total magnetization       =    22.25 Bohr mag/cell
     absolute magnetization    =    23.31 Bohr mag/cell

     iteration # 33     ecut=    36.75 Ry     beta=0.10
     Davidson diagonalization with overlap
     ethr =  1.46E-08,  avg # of iterations =  2.0

     negative rho (up, down):  1.101E-01 1.132E-01
 
     Adding external electric field

     Computed dipole along edir(3) : 
        Dipole                0.0003 Ry au,          0.0008 Debye
        Dipole field          0.0000 Ry au
 
        Potential amp.       -0.0001 Ry
        Total length         44.5768 bohr
 
 
     Adding external electric field

     Computed dipole along edir(3) : 
        Dipole                0.0003 Ry au,          0.0008 Debye
        Dipole field          0.0000 Ry au
 
        Potential amp.       -0.0001 Ry
        Total length         44.5768 bohr
 
 
     Magnetic moment per site:
     atom:    1    charge:    7.0926    magn:    1.2094    constr:    0.0000
     atom:    2    charge:    7.0926    magn:    1.2094    constr:    0.0000
     atom:    3    charge:    7.0926    magn:    1.2094    constr:    0.0000
     atom:    4    charge:    2.8520    magn:    0.0346    constr:    0.0000
     atom:    5    charge:    7.0870    magn:    1.0793    constr:    0.0000
     atom:    6    charge:    7.0870    magn:    1.0792    constr:    0.0000
     atom:    7    charge:    7.0870    magn:    1.0793    constr:    0.0000
     atom:    8    charge:    2.8560    magn:    0.0282    constr:    0.0000
     atom:    9    charge:    7.0926    magn:    1.2097    constr:    0.0000
     atom:   10    charge:    7.0926    magn:    1.2098    constr:    0.0000
     atom:   11    charge:    7.0926    magn:    1.2098    constr:    0.0000
[...]

   -84.1959 -84.1851 -84.1743 -84.0188 -84.0084 -83.9980 -83.9956 -83.9843
   -83.9741 -71.1757 -70.8735 -70.8155 -50.4016 -50.3737 -50.3425 -50.3394
   -50.3130 -50.2989 -50.2587 -50.2379 -50.2102 -50.2025 -50.1829 -50.1734
   -50.1665 -50.1559 -50.1436 -50.1289 -50.1153 -50.0937 -50.0644 -50.0503
   -50.0283 -50.0217 -50.0113 -50.0059 -49.9951 -49.9760 -49.9654 -41.1540
   -41.1475 -41.1428 -40.9045 -40.8998 -40.8455 -40.8408 -40.7568 -40.6909
    -4.4374  -3.4846  -2.9542  -2.7016  -2.3682  -2.2542  -2.1136  -1.8023
    -1.5473  -1.4750  -1.3366  -1.3023  -1.1709  -0.9620  -0.8812  -0.7691
    -0.6535  -0.5666  -0.3539  -0.1558  -0.0816   0.0005   0.0800   0.2506
     0.3961   0.4793   0.5438   0.5744   0.6772   0.7406   0.8187   0.8928
     0.9789   1.0629   1.1366   1.2327   1.2897   1.4435   1.5310   1.6280
     1.6609   1.9060   1.9866   2.0239   2.1495   2.2063   2.2410   2.2578
     2.3166   2.4998   2.6172   2.6604   2.7501   2.8823   2.9443   2.9629
     3.0226   3.1187   3.1559   3.1840   3.2679   3.3380   3.3607   3.4335
     3.9874   4.0952   4.1663   4.8846   5.6637   5.9482   6.6776   6.9316
     7.0741   7.4091   7.5252   7.7244   8.1537   8.2361

          k = 0.0649-0.0375 0.0000 ( 14050 PWs)   bands (ev):

   -84.1998 -84.1811 -84.1743 -84.0226 -84.0046 -83.9993 -83.9979 -83.9807
   -83.9741 -71.1756 -70.8734 -70.8154 -50.4157 -50.3793 -50.3697 -50.3202
   -50.3093 -50.2923 -50.2693 -50.2405 -50.2175 -50.2129 -50.1907 -50.1891
   -50.1690 -50.1518 -50.1496 -50.1228 -50.1096 -50.0749 -50.0465 -50.0444
   -50.0351 -50.0171 -50.0103 -50.0017 -49.9859 -49.9738 -49.9615 -41.1539
   -41.1460 -41.1407 -40.9030 -40.8977 -40.8440 -40.8387 -40.7568 -40.6909
    -5.0487  -3.3748  -3.2187  -2.6133  -2.4788  -2.4593  -2.2665  -2.1292
    -1.6586  -1.6005  -1.4806  -1.4446  -1.3049  -1.0976  -1.0442  -0.8004
    -0.6681  -0.6441  -0.1665  -0.0031   0.0753   0.0989   0.3278   0.4509
     0.5083   0.6746   0.6971   0.8532   0.9586   0.9726   1.0974   1.1171
     1.1915   1.2071   1.2381   1.4001   1.4533   1.4861   1.4879   1.5551
     1.5756   1.6492   1.8361   2.0478   2.1730   2.3072   2.4193   2.4308
     2.4988   2.6115   2.6479   2.8420   2.8629   2.8925   2.9092   2.9952
     3.0496   3.1416   3.2106   3.2184   3.4088   3.4440   3.4855   3.5893
     3.6115   4.7938   4.8471   5.2020   5.2630   5.4212   5.7087   6.4634
     6.8050   7.0989   7.1277   7.2379   7.4906   8.1089

          k = 0.0649 0.0000 0.0000 ( 14047 PWs)   bands (ev):

   -84.2013 -84.1797 -84.1743 -84.0240 -84.0032 -84.0007 -83.9979 -83.9793
   -83.9741 -71.1756 -70.8734 -70.8153 -50.4156 -50.3938 -50.3738 -50.3176
   -50.3048 -50.2906 -50.2724 -50.2346 -50.2268 -50.2112 -50.2040 -50.1994
   -50.1765 -50.1467 -50.1424 -50.1185 -50.1095 -50.0644 -50.0482 -50.0382
   -50.0327 -50.0184 -50.0092 -49.9931 -49.9849 -49.9729 -49.9618 -41.1539
   -41.1442 -41.1406 -40.9012 -40.8977 -40.8422 -40.8387 -40.7568 -40.6908
    -5.2642  -3.5368  -2.9379  -2.7389  -2.6048  -2.5105  -2.4841  -2.1648
    -1.6977  -1.6547  -1.6061  -1.5696  -1.3285  -1.1754  -1.0541  -0.8355
    -0.7413  -0.6045  -0.1056   0.0402   0.0804   0.2228   0.3219   0.5681
     0.6160   0.6951   0.8055   0.9209   0.9806   1.0128   1.1357   1.1398
     1.2481   1.3187   1.3743   1.3851   1.4320   1.5615   1.6013   1.6112
     1.6787   1.7376   1.8012   2.0949   2.2407   2.3294   2.3548   2.4948
     2.6185   2.6224   2.9264   2.9586   2.9768   2.9909   3.0521   3.1402
     3.2001   3.2203   3.2280   3.3854   3.4097   3.4584   3.5800   3.7659
     3.7753   4.0073   4.0272   4.6074   5.8069   5.8876   5.9236   6.2609
     6.5718   6.7016   6.9159   7.1226   7.8816   8.4122

          k =-0.0973-0.0562 0.0000 ( 14042 PWs)   bands (ev):

   -84.1959 -84.1851 -84.1743 -84.0187 -84.0084 -83.9979 -83.9956 -83.9843
   -83.9741 -71.1757 -70.8735 -70.8155 -50.4112 -50.3500 -50.3439 -50.3393
   -50.3293 -50.2941 -50.2598 -50.2449 -50.2145 -50.1954 -50.1802 -50.1722
   -50.1660 -50.1501 -50.1382 -50.1290 -50.1118 -50.1054 -50.0744 -50.0471
   -50.0274 -50.0180 -50.0178 -50.0082 -49.9912 -49.9749 -49.9630 -41.1540
   -41.1487 -41.1416 -40.9057 -40.8986 -40.8467 -40.8396 -40.7568 -40.6909
    -4.1386  -4.0566  -2.9237  -2.4773  -2.4053  -2.2678  -1.9444  -1.7286
    -1.6620  -1.5862  -1.2333  -1.2045  -1.1308  -0.9729  -0.8930  -0.7220
    -0.6117  -0.5910  -0.5444  -0.1596  -0.0333   0.0152   0.1570   0.2011
     0.3405   0.4540   0.5790   0.6808   0.7191   0.7680   0.8711   0.9256
     1.0267   1.0448   1.0483   1.1983   1.2136   1.3435   1.5837   1.6309
     1.7741   1.9051   1.9179   1.9976   2.0780   2.2059   2.2811   2.3278
     2.3464   2.4168   2.5031   2.5398   2.5964   2.6649   2.7186   2.7361
     2.8936   2.8966   3.2036   3.2124   3.4121   3.4327   3.4881   3.6155
     4.2281   4.3645   4.9076   5.4927   5.5551   5.8606   6.0278   6.1629
     7.3837   7.4484   7.4678   7.5030   7.9665   7.9832

          k =-0.0973-0.0187 0.0000 ( 14002 PWs)   bands (ev):

   -84.1959 -84.1851 -84.1743 -84.0187 -84.0084 -83.9980 -83.9956 -83.9843
   -83.9741 -71.1757 -70.8735 -70.8155 -50.4016 -50.3738 -50.3425 -50.3394
   -50.3131 -50.2989 -50.2587 -50.2379 -50.2102 -50.2025 -50.1829 -50.1734
   -50.1665 -50.1559 -50.1436 -50.1289 -50.1153 -50.0937 -50.0644 -50.0503
   -50.0283 -50.0217 -50.0113 -50.0059 -49.9951 -49.9759 -49.9654 -41.1540
   -41.1475 -41.1428 -40.9045 -40.8998 -40.8455 -40.8408 -40.7568 -40.6909
    -4.4374  -3.4846  -2.9542  -2.7016  -2.3682  -2.2542  -2.1136  -1.8022
    -1.5473  -1.4750  -1.3366  -1.3023  -1.1710  -0.9620  -0.8812  -0.7691
    -0.6535  -0.5665  -0.3539  -0.1558  -0.0816   0.0006   0.0800   0.2506
     0.3961   0.4792   0.5438   0.5744   0.6771   0.7406   0.8188   0.8928
     0.9789   1.0629   1.1365   1.2327   1.2897   1.4435   1.5310   1.6279
     1.6609   1.9060   1.9866   2.0239   2.1495   2.2063   2.2410   2.2578
     2.3166   2.4998   2.6172   2.6604   2.7501   2.8823   2.9443   2.9629
     3.0226   3.1187   3.1559   3.1840   3.2678   3.3379   3.3607   3.4335
     3.9874   4.0952   4.1663   4.8847   5.6638   5.9482   6.6776   6.9316
     7.0741   7.4091   7.5252   7.7244   8.1537   8.2361

          k =-0.0973 0.0187 0.0000 ( 14002 PWs)   bands (ev):

   -84.1959 -84.1851 -84.1743 -84.0187 -84.0084 -83.9980 -83.9956 -83.9843
   -83.9741 -71.1757 -70.8735 -70.8155 -50.4016 -50.3738 -50.3425 -50.3394
   -50.3130 -50.2989 -50.2587 -50.2379 -50.2102 -50.2025 -50.1829 -50.1734
   -50.1665 -50.1559 -50.1436 -50.1289 -50.1153 -50.0937 -50.0644 -50.0503
   -50.0283 -50.0217 -50.0113 -50.0059 -49.9951 -49.9760 -49.9654 -41.1540
   -41.1475 -41.1428 -40.9045 -40.8998 -40.8455 -40.8408 -40.7568 -40.6909
    -4.4374  -3.4846  -2.9542  -2.7016  -2.3682  -2.2542  -2.1136  -1.8023
    -1.5473  -1.4750  -1.3366  -1.3023  -1.1709  -0.9620  -0.8812  -0.7691
    -0.6535  -0.5665  -0.3539  -0.1558  -0.0816   0.0006   0.0800   0.2506
     0.3961   0.4793   0.5438   0.5743   0.6772   0.7406   0.8187   0.8928
     0.9789   1.0629   1.1366   1.2327   1.2897   1.4435   1.5310   1.6280
     1.6609   1.9061   1.9866   2.0240   2.1495   2.2063   2.2410   2.2578
     2.3166   2.4998   2.6172   2.6604   2.7501   2.8823   2.9443   2.9629
     3.0226   3.1187   3.1559   3.1840   3.2679   3.3379   3.3607   3.4335
     3.9874   4.0952   4.1663   4.8846   5.6637   5.9482   6.6776   6.9316
     7.0741   7.4091   7.5252   7.7244   8.1537   8.2361

          k =-0.0973-0.1686 0.0000 ( 14042 PWs)   bands (ev):

   -84.1959 -84.1851 -84.1743 -84.0187 -84.0084 -83.9979 -83.9956 -83.9843
   -83.9741 -71.1757 -70.8735 -70.8155 -50.4112 -50.3500 -50.3438 -50.3392
   -50.3294 -50.2941 -50.2598 -50.2449 -50.2145 -50.1954 -50.1802 -50.1722
   -50.1660 -50.1501 -50.1382 -50.1290 -50.1118 -50.1054 -50.0744 -50.0471
   -50.0274 -50.0180 -50.0178 -50.0082 -49.9912 -49.9749 -49.9630 -41.1540
   -41.1487 -41.1416 -40.9057 -40.8986 -40.8467 -40.8396 -40.7568 -40.6909
    -4.1386  -4.0566  -2.9237  -2.4773  -2.4053  -2.2677  -1.9444  -1.7287
    -1.6620  -1.5862  -1.2332  -1.2045  -1.1308  -0.9729  -0.8930  -0.7221
    -0.6117  -0.5910  -0.5444  -0.1596  -0.0334   0.0152   0.1570   0.2011
     0.3405   0.4540   0.5789   0.6808   0.7192   0.7680   0.8711   0.9256
     1.0267   1.0448   1.0484   1.1983   1.2135   1.3435   1.5836   1.6309
     1.7741   1.9051   1.9179   1.9976   2.0780   2.2059   2.2810   2.3278
     2.3464   2.4168   2.5031   2.5398   2.5964   2.6649   2.7186   2.7361
     2.8936   2.8966   3.2036   3.2124   3.4121   3.4327   3.4881   3.6154
     4.2280   4.3645   4.9076   5.4927   5.5551   5.8606   6.0278   6.1628
     7.3837   7.4484   7.4678   7.5030   7.9665   7.9832

     the Fermi energy is     1.4242 ev

!    total energy              =   -2847.19768489 Ry
     Harris-Foulkes estimate   =   -2847.19768393 Ry
     estimated scf accuracy    <       0.00000079 Ry

     The total energy is the sum of the following terms:

     one-electron contribution =  -25288.37485429 Ry
     hartree contribution      =   12644.63105287 Ry
     xc contribution           =    -353.23272828 Ry
     ewald contribution        =   10149.89466653 Ry
     electric field correction =       0.00000000 Ry
     smearing contrib. (-TS)   =      -0.11582172 Ry

     total magnetization       =    23.29 Bohr mag/cell
     absolute magnetization    =    24.32 Bohr mag/cell

     convergence has been achieved in  38 iterations
 
 BEEF-vdW xc energy contributions
           1 :   -308.608303055733     
           2 :    280.196160113902     
           3 :   -232.261557813918     
           4 :    178.411764189670     
           5 :   -131.194761274289     
           6 :    97.6512025945634     
           7 :   -78.0807496110643     
           8 :    67.9335514069524     
           9 :   -61.2851116424650     
          10 :    53.8992818718455     
          11 :   -44.5728343656175     
          12 :    34.5712284174681     
          13 :   -25.9824523247355     
          14 :    20.1438764319229     
          15 :   -16.9897004844591     
          16 :    15.4130549350650     
          17 :   -14.1453485102847     
          18 :    12.4718191678652     
          19 :   -10.4121968740540     
          20 :    8.40951119380304     
          21 :   -6.87150835470527     
          22 :    5.88472803807520     
          23 :   -5.23626077410296     
          24 :    4.63133851247960     
          25 :   -3.91079503933361     
          26 :    3.11292273446406     
          27 :   -2.38475540998689     
          28 :    1.84059962780520     
          29 :   -1.48460239106578     
          30 :    1.22350172508169     
          31 :   -28.2725228998401     
          32 :   -20.3537509935525     

     Forces acting on atoms (Ry/au):


     negative rho (up, down):  1.098E-01 1.138E-01
     atom    1 type  1   force =     0.00000047   -0.00744161   -0.01368132
     atom    2 type  1   force =    -0.00644465    0.00372719   -0.01369000
     atom    3 type  1   force =     0.00644252    0.00372561   -0.01369044
     atom    4 type  2   force =    -0.00000146    0.00000032   -0.00474880
     atom    5 type  1   force =    -0.00000196   -0.00149810    0.00934490
     atom    6 type  1   force =    -0.00128851    0.00074728    0.00933557
     atom    7 type  1   force =     0.00129086    0.00075124    0.00933081
     atom    8 type  2   force =     0.00000347    0.00000158    0.01899184
     atom    9 type  1   force =    -0.00000321   -0.00110970   -0.00028969
     atom   10 type  1   force =    -0.00095071    0.00054689   -0.00029070
     atom   11 type  1   force =     0.00096601    0.00055952   -0.00027348
     atom   12 type  2   force =    -0.00001284   -0.00001022   -0.00033869

     Total force =     0.037199     Total SCF correction =     0.003616


     entering subroutine stress ...


     negative rho (up, down):  1.098E-01 1.138E-01
          total   stress  (Ry/bohr**3)                   (kbar)     P=   -3.49
  -0.00005718   0.00000000  -0.00000000         -8.41      0.00     -0.00
   0.00000000  -0.00005718  -0.00000000          0.00     -8.41     -0.00
  -0.00000000  -0.00000000   0.00004310         -0.00     -0.00      6.34

 !ASE

     Writing output data file calc.save
 
     init_run     :     28.17s CPU     45.68s WALL (       1 calls)
     electrons    :   2261.52s CPU   3705.54s WALL (       1 calls)
     forces       :      3.44s CPU      4.16s WALL (       1 calls)
     stress       :      7.05s CPU      8.42s WALL (       1 calls)

     Called by init_run:
     wfcinit      :     26.37s CPU     43.14s WALL (       1 calls)
     potinit      :      1.00s CPU      1.58s WALL (       1 calls)

     Called by electrons:
     c_bands      :   1853.84s CPU   3012.34s WALL (      38 calls)
     sum_band     :    330.43s CPU    580.99s WALL (      38 calls)
     v_of_rho     :     34.90s CPU     53.29s WALL (      39 calls)
     newd         :      8.22s CPU      9.24s WALL (      39 calls)
     mix_rho      :      2.90s CPU      4.52s WALL (      38 calls)
     vdW_energy   :      1.81s CPU      1.82s WALL (      75 calls)
     vdW_ffts     :     37.99s CPU     58.22s WALL (     152 calls)
     vdW_v        :      6.63s CPU      9.78s WALL (      75 calls)

     Called by c_bands:
     init_us_2    :      1.22s CPU      1.38s WALL (    3160 calls)
     cegterg      :   1837.68s CPU   2992.70s WALL (    1520 calls)

     Called by *egterg:
     h_psi        :   1317.44s CPU   2349.27s WALL (    4249 calls)
     s_psi        :     18.49s CPU     18.68s WALL (    4249 calls)
     g_psi        :      0.92s CPU      0.95s WALL (    2689 calls)
     cdiaghg      :    311.31s CPU    370.34s WALL (    4209 calls)

     Called by h_psi:
     add_vuspsi   :     19.27s CPU     19.42s WALL (    4249 calls)

     General routines
     calbec       :     70.20s CPU     95.48s WALL (    5849 calls)
     fft          :     69.79s CPU    107.67s WALL (    5513 calls)
     ffts         :      0.51s CPU      0.93s WALL (     154 calls)
     fftw         :   1519.48s CPU   2770.17s WALL (  995854 calls)
     interpolate  :      2.38s CPU      3.93s WALL (     154 calls)
     davcio       :      0.00s CPU      0.02s WALL (      40 calls)
 
     Parallel routines
     fft_scatter  :   1525.38s CPU   2805.89s WALL ( 1001521 calls)
 
     PWSCF        :     0h38m CPU        1h 2m WALL

 
   This run was terminated on:   1:53:45  26Dec2018            

=------------------------------------------------------------------------------=
   JOB DONE.
=------------------------------------------------------------------------------=
Job  /afs/slac/g/suncat/bin/suncat-tsmpirun -x LD_LIBRARY_PATH -wdir /scratch/qe109642_v1F3E pw.x -in pw.inp

TID   HOST_NAME   COMMAND_LINE            STATUS            TERMINATION_TIME
===== ========== ================  =======================  ===================
00000 suncat0075 pw.x -in pw.inp   Done                     12/26/2018 01:53:45
00001 suncat0075 pw.x -in pw.inp   Done                     12/26/2018 01:53:45
00002 suncat0075 pw.x -in pw.inp   Done                     12/26/2018 01:53:45
00003 suncat0075 pw.x -in pw.inp   Done                     12/26/2018 01:53:45
00004 suncat0075 pw.x -in pw.inp   Done                     12/26/2018 01:53:45
00005 suncat0075 pw.x -in pw.inp   Done                     12/26/2018 01:53:45
00006 suncat0075 pw.x -in pw.inp   Done                     12/26/2018 01:53:45
00007 suncat0075 pw.x -in pw.inp   Done                     12/26/2018 01:53:45
00008 suncat0074 pw.x -in pw.inp   Done                     12/26/2018 01:53:45
00009 suncat0074 pw.x -in pw.inp   Done                     12/26/2018 01:53:45
00010 suncat0074 pw.x -in pw.inp   Done                     12/26/2018 01:53:45
00011 suncat0074 pw.x -in pw.inp   Done                     12/26/2018 01:53:45
00012 suncat0074 pw.x -in pw.inp   Done                     12/26/2018 01:53:45
00013 suncat0074 pw.x -in pw.inp   Done                     12/26/2018 01:53:45
00014 suncat0074 pw.x -in pw.inp   Done                     12/26/2018 01:53:45
00015 suncat0074 pw.x -in pw.inp   Done                     12/26/2018 01:53:45
00016 suncat0172 pw.x -in pw.inp   Done                     12/26/2018 01:53:45
00017 suncat0172 pw.x -in pw.inp   Done                     12/26/2018 01:53:45
00018 suncat0172 pw.x -in pw.inp   Done                     12/26/2018 01:53:45
00019 suncat0172 pw.x -in pw.inp   Done                     12/26/2018 01:53:45
00020 suncat0172 pw.x -in pw.inp   Done                     12/26/2018 01:53:45
00021 suncat0172 pw.x -in pw.inp   Done                     12/26/2018 01:53:45
00022 suncat0172 pw.x -in pw.inp   Done                     12/26/2018 01:53:45
00023 suncat0172 pw.x -in pw.inp   Done                     12/26/2018 01:53:45
00024 suncat0171 pw.x -in pw.inp   Done                     12/26/2018 01:53:45
00025 suncat0171 pw.x -in pw.inp   Done                     12/26/2018 01:53:45
00026 suncat0171 pw.x -in pw.inp   Done                     12/26/2018 01:53:45
00027 suncat0171 pw.x -in pw.inp   Done                     12/26/2018 01:53:45
00028 suncat0171 pw.x -in pw.inp   Done                     12/26/2018 01:53:45
00029 suncat0171 pw.x -in pw.inp   Done                     12/26/2018 01:53:45
00030 suncat0171 pw.x -in pw.inp   Done                     12/26/2018 01:53:45
00031 suncat0171 pw.x -in pw.inp   Done                     12/26/2018 01:53:45
00032 suncat0270 pw.x -in pw.inp   Done                     12/26/2018 01:53:45
00033 suncat0270 pw.x -in pw.inp   Done                     12/26/2018 01:53:45
00034 suncat0270 pw.x -in pw.inp   Done                     12/26/2018 01:53:45
00035 suncat0270 pw.x -in pw.inp   Done                     12/26/2018 01:53:45
00036 suncat0270 pw.x -in pw.inp   Done                     12/26/2018 01:53:45
00037 suncat0270 pw.x -in pw.inp   Done                     12/26/2018 01:53:45
00038 suncat0270 pw.x -in pw.inp   Done                     12/26/2018 01:53:45
00039 suncat0270 pw.x -in pw.inp   Done                     12/26/2018 01:53:45
00040 suncat0268 pw.x -in pw.inp   Done                     12/26/2018 01:53:45
00041 suncat0268 pw.x -in pw.inp   Done                     12/26/2018 01:53:45
00042 suncat0268 pw.x -in pw.inp   Done                     12/26/2018 01:53:45
00043 suncat0268 pw.x -in pw.inp   Done                     12/26/2018 01:53:45
00044 suncat0268 pw.x -in pw.inp   Done                     12/26/2018 01:53:45
00045 suncat0268 pw.x -in pw.inp   Done                     12/26/2018 01:53:45
00046 suncat0268 pw.x -in pw.inp   Done                     12/26/2018 01:53:45
00047 suncat0268 pw.x -in pw.inp   Done                     12/26/2018 01:53:45
00048 suncat0207 pw.x -in pw.inp   Done                     12/26/2018 01:53:45
00049 suncat0207 pw.x -in pw.inp   Done                     12/26/2018 01:53:45
00050 suncat0207 pw.x -in pw.inp   Done                     12/26/2018 01:53:45
00051 suncat0207 pw.x -in pw.inp   Done                     12/26/2018 01:53:45
00052 suncat0207 pw.x -in pw.inp   Done                     12/26/2018 01:53:45
00053 suncat0207 pw.x -in pw.inp   Done                     12/26/2018 01:53:45
00054 suncat0207 pw.x -in pw.inp   Done                     12/26/2018 01:53:45
00055 suncat0207 pw.x -in pw.inp   Done                     12/26/2018 01:53:45
00056 suncat0206 pw.x -in pw.inp   Done                     12/26/2018 01:53:45
00057 suncat0206 pw.x -in pw.inp   Done                     12/26/2018 01:53:45
00058 suncat0206 pw.x -in pw.inp   Done                     12/26/2018 01:53:45
00059 suncat0206 pw.x -in pw.inp   Done                     12/26/2018 01:53:45
00060 suncat0206 pw.x -in pw.inp   Done                     12/26/2018 01:53:45
00061 suncat0206 pw.x -in pw.inp   Done                     12/26/2018 01:53:45
00062 suncat0206 pw.x -in pw.inp   Done                     12/26/2018 01:53:45
00063 suncat0206 pw.x -in pw.inp   Done                     12/26/2018 01:53:45
