  python dir          : /u/if/mamunm/src/espresso
  espresso dir        : /nfs/slac/g/suncatfs/sw/espv18/espresso-dynpy-beef/bin
  pseudo dir          : /afs/slac.stanford.edu/u/if/mamunm/psp/gbrv1.5pbe
  ase-espresso py git : GITVERSION



     Program PWSCF v.5.1rc2 (svn rev. 11289) starts on 26Dec2018 at 12:31:31 

     This program is part of the open-source Quantum ESPRESSO suite
     for quantum simulation of materials; please cite
         "P. Giannozzi et al., J. Phys.:Condens. Matter 21 395502 (2009);
          URL http://www.quantum-espresso.org", 
     in publications or presentations arising from this work. More details at
     http://www.quantum-espresso.org/quote

     Parallel version (MPI), running on    64 processors
     R & G space division:  proc/nbgrp/npool/nimage =      64
     Reading input from pw.inp
     Message from routine read_cards :
     DEPRECATED: no units specified in CELL_PARAMETERS card

     Current dimensions of program PWSCF are:
     Max number of different atomic species (ntypx) = 10
     Max number of k-points (npk) =  40000
     Max angular momentum in pseudopotentials (lmaxx) =  3
     Presently stress not available with electric field


     **************************************************************************
     Initializing libbeef V0.1.1 with the BEEF-vdW functional.
     Citation: Wellendorff et al., PRB 85, 235149 (2012).
     **************************************************************************


     IMPORTANT: XC functional enforced from input :
     Exchange-correlation      = BEEF-VDW ( 1  4 27 13 2)
     Any further DFT definition will be discarded
     Please, verify this is what you really want


     Subspace diagonalization in iterative solution of the eigenvalue problem:
     a serial algorithm will be used

 
     Parallelization info
     --------------------
     sticks:   dense  smooth     PW     G-vecs:    dense   smooth      PW
     Min          56      22      6                10822     2720     428
     Max          57      23      7                10838     2771     451
     Sum        3595    1417    421               693331   175275   28179
 


     bravais-lattice index     =            0
     lattice parameter (alat)  =       1.8897  a.u.
     unit-cell volume          =    5827.3093 (a.u.)^3
     number of atoms/cell      =           12
     number of atomic types    =            2
     number of electrons       =       156.00
     number of Kohn-Sham states=          108
     kinetic-energy cutoff     =      36.7493  Ry
     charge density cutoff     =     367.4932  Ry
     convergence threshold     =      1.0E-06
     mixing beta               =       0.1000
     number of iterations used =           10  plain     mixing
     Exchange-correlation      = BEEF-VDW ( 1  4 27 13 2)
     nstep                     =           50


     celldm(1)=   1.889726  celldm(2)=   0.000000  celldm(3)=   0.000000
     celldm(4)=   0.000000  celldm(5)=   0.000000  celldm(6)=   0.000000

     crystal axes: (cart. coord. in units of alat)
               a(1) = (   6.297543   0.000000   0.000000 )  
               a(2) = (  -3.148772   5.453833   0.000000 )  
               a(3) = (   0.000000   0.000000  25.141923 )  

     reciprocal axes: (cart. coord. in units 2 pi/alat)
               b(1) = (  0.158792  0.091679  0.000000 )  
               b(2) = (  0.000000  0.183357  0.000000 )  
               b(3) = (  0.000000  0.000000  0.039774 )  


     PseudoPot. # 1 for In read from file:
     /afs/slac.stanford.edu/u/if/mamunm/psp/gbrv1.5pbe/In.UPF
     MD5 check sum: 90777abd96fbb83f2e67db2a40c566b9
     Pseudo is Ultrasoft + core correction, Zval = 13.0
     Generated by new atomic code, or converted to UPF format
     Using radial grid of  889 points,  6 beta functions with: 
                l(1) =   0
                l(2) =   0
                l(3) =   1
                l(4) =   1
                l(5) =   2
                l(6) =   2
     Q(r) pseudized with  6 coefficients,  rinner =    1.400   1.400   1.400
                                                       1.400   1.400

     PseudoPot. # 2 for Nb read from file:
     /afs/slac.stanford.edu/u/if/mamunm/psp/gbrv1.5pbe/Nb.UPF
     MD5 check sum: 573aab8a2fa660278ed4a62cd769473f
     Pseudo is Ultrasoft + core correction, Zval = 13.0
     Generated by new atomic code, or converted to UPF format
     Using radial grid of  887 points,  6 beta functions with: 
                l(1) =   0
                l(2) =   0
                l(3) =   1
                l(4) =   1
                l(5) =   2
                l(6) =   2
     Q(r) pseudized with  6 coefficients,  rinner =    1.000   1.000   1.000
                                                       1.000   1.000

     vdW kernel table read from file vdW_kernel_table
     MD5 check sum: 095c7af220d748ca6e76c0b4c6cfb241

     atomic species   valence    mass     pseudopotential
        In1           13.00   114.81800     In( 1.00)
        Nb1           13.00    92.90637     Nb( 1.00)

     No symmetry found



   Cartesian axes

     site n.     atom                  positions (alat units)
         1           In1 tau(   1) = (   0.0000000   0.0000000  10.0000000  )
         2           In1 tau(   2) = (  -1.5743859   2.7269163  10.0000000  )
         3           In1 tau(   3) = (   1.5743859   2.7269163  10.0000000  )
         4           Nb1 tau(   4) = (   3.1487717   0.0000000  10.0000000  )
         5           In1 tau(   5) = (   3.1487717   1.8179442  12.5709614  )
         6           In1 tau(   6) = (   1.5743859   4.5448605  12.5709614  )
         7           In1 tau(   7) = (  -1.5743859   4.5448605  12.5709614  )
         8           Nb1 tau(   8) = (   0.0000000   1.8179442  12.5709614  )
         9           In1 tau(   9) = (  -0.0000000   3.6358884  15.1419227  )
        10           In1 tau(  10) = (   1.5743859   0.9089721  15.1419227  )
        11           In1 tau(  11) = (   4.7231576   0.9089721  15.1419227  )
        12           Nb1 tau(  12) = (   3.1487717   3.6358884  15.1419227  )

     number of k points=    20  Fermi-Dirac smearing, width (Ry)=  0.0110
                       cart. coord. in units 2pi/alat
        k(    1) = (   0.0000000   0.0000000   0.0000000), wk =   0.0555556
        k(    2) = (   0.0000000   0.0305595   0.0000000), wk =   0.1111111
        k(    3) = (   0.0000000   0.0611191   0.0000000), wk =   0.1111111
        k(    4) = (   0.0000000  -0.0916786   0.0000000), wk =   0.0555556
        k(    5) = (   0.0264653   0.0152798   0.0000000), wk =   0.1111111
        k(    6) = (   0.0264653   0.0458393   0.0000000), wk =   0.1111111
        k(    7) = (   0.0264653   0.0763989   0.0000000), wk =   0.1111111
        k(    8) = (   0.0264653  -0.0763989   0.0000000), wk =   0.1111111
        k(    9) = (   0.0264653  -0.0458393   0.0000000), wk =   0.1111111
        k(   10) = (   0.0264653  -0.0152798   0.0000000), wk =   0.1111111
        k(   11) = (   0.0529307   0.0305595   0.0000000), wk =   0.1111111
        k(   12) = (   0.0529307   0.0611191   0.0000000), wk =   0.1111111
        k(   13) = (   0.0529307   0.0916786   0.0000000), wk =   0.1111111
        k(   14) = (   0.0529307  -0.0611191   0.0000000), wk =   0.1111111
        k(   15) = (   0.0529307  -0.0305595   0.0000000), wk =   0.1111111
        k(   16) = (   0.0529307   0.0000000   0.0000000), wk =   0.1111111
        k(   17) = (  -0.0793960  -0.0458393   0.0000000), wk =   0.0555556
        k(   18) = (  -0.0793960  -0.0152798   0.0000000), wk =   0.1111111
        k(   19) = (  -0.0793960   0.0152798   0.0000000), wk =   0.1111111
        k(   20) = (  -0.0793960  -0.1375180   0.0000000), wk =   0.0555556

     Dense  grid:   693331 G-vectors     FFT dimensions: (  75,  75, 300)

     Smooth grid:   175275 G-vectors     FFT dimensions: (  45,  45, 192)

     Largest allocated arrays     est. size (Mb)     dimensions
        Kohn-Sham Wavefunctions         0.57 Mb     (     347,  108)
        NL pseudopotentials             1.14 Mb     (     347,  216)
        Each V/rho on FFT grid          0.43 Mb     (   28125)
        Each G-vector array             0.08 Mb     (   10830)
        G-vector shells                 0.04 Mb     (    5346)
     Largest temporary arrays     est. size (Mb)     dimensions
        Auxiliary wavefunctions         2.29 Mb     (     347,  432)
        Each subspace H/S matrix        2.85 Mb     (     432,  432)
        Each <psi_i|beta_j> matrix      0.36 Mb     (     216,  108)
        Arrays for rho mixing           4.29 Mb     (   28125,   10)

     Initial potential from superposition of free atoms
     Check: negative starting charge=   -0.003099

     starting charge  142.49180, renormalised to  156.00000

     negative rho (up, down):  3.393E-03 0.000E+00


     ************************************************************************
     *
     * You are using vdW-DF for exchange-correlation in this calculation.
     * Please cite the following three references that made this development
     * possible:
     *
     *   M. Dion, H. Rydberg, E. Schroder, D. C. Langreth, and
     *   B. I. Lundqvist, Phys. Rev. Lett. 92, 246401 (2004).
     *
     *   T. Thonhauser, V. R. Cooper, S. Li, A. Puzder, P. Hyldgaard, and
     *   D. C. Langreth, Phys. Rev. B 76, 125112 (2007).
     *
     *   G. Roman-Perez and J. M. Soler, Phys. Rev. Lett. 103, 096102 (2009).
     *
     *
     * If you are using vdW-DF2, please also cite:
     *
     *   K. Lee, E. D. Murray, L. Kong, B. I. Lundqvist, and
     *   D. C. Langreth, Phys. Rev. B 82, 081101(R) (2010).
     *
     *
     * If you are calculating the stress with vdW-DF, please also cite:
     *
     *   R. Sabatini, E. Kucukbenli, B. Kolb, T. Thonhauser, and
     *   S. de Gironcoli, J. Phys.: Condens. Matter 24, 424209 (2012).
     *
     ************************************************************************

     Carrying out vdW-DF run using the following parameters:

     Nqs =      20    Nr_points =    1024   r_max =   100.000
     q_mesh =
               0.00001000     0.04494208     0.09755937     0.15916263
               0.23128650     0.31572767     0.41458969     0.53033537
               0.66584808     0.82450364     1.01025438     1.22772762
               1.48234092     1.78043706     2.12944203     2.53805004
               3.01644009     3.57652955     4.23227104     5.00000000

     Gradients computed in reciprocal space

     ************************************************************************


 
     Adding external electric field

     Computed dipole along edir(3) : 
        Dipole                0.0000 Ry au,          0.0000 Debye
        Dipole field          0.0000 Ry au
 
        Potential amp.       -0.0000 Ry
        Total length         46.3236 bohr
 
     Starting wfc are  120 randomized atomic wfcs

     total cpu time spent up to now is       25.4 secs

     per-process dynamical memory:    41.6 Mb

     Self-consistent Calculation

     iteration #  1     ecut=    36.75 Ry     beta=0.10
     Davidson diagonalization with overlap
     ethr =  1.00E-02,  avg # of iterations =  7.8
 
     Adding external electric field

     Computed dipole along edir(3) : 
        Dipole               -0.2419 Ry au,         -0.6147 Debye
        Dipole field         -0.0005 Ry au
 
        Potential amp.        0.0483 Ry
        Total length         46.3236 bohr
 

     total cpu time spent up to now is      136.1 secs

     total energy              =   -1570.92077629 Ry
     Harris-Foulkes estimate   =   -1577.67753899 Ry
     estimated scf accuracy    <      39.96535342 Ry

     iteration #  2     ecut=    36.75 Ry     beta=0.10
     Davidson diagonalization with overlap
     ethr =  1.00E-02,  avg # of iterations =  2.6
 
     Adding external electric field

     Computed dipole along edir(3) : 
        Dipole               -0.0093 Ry au,         -0.0237 Debye
        Dipole field         -0.0000 Ry au
 
        Potential amp.        0.0019 Ry
        Total length         46.3236 bohr
 

     total cpu time spent up to now is      194.8 secs

     total energy              =   -1570.56133513 Ry
     Harris-Foulkes estimate   =   -1573.16702880 Ry
     estimated scf accuracy    <      15.33405641 Ry

     iteration #  3     ecut=    36.75 Ry     beta=0.10
     Davidson diagonalization with overlap
     ethr =  9.83E-03,  avg # of iterations =  1.3
 
     Adding external electric field

     Computed dipole along edir(3) : 
        Dipole               -0.8784 Ry au,         -2.2327 Debye
        Dipole field         -0.0019 Ry au
 
        Potential amp.        0.1755 Ry
        Total length         46.3236 bohr
 

     total cpu time spent up to now is      246.2 secs

     total energy              =   -1568.22502202 Ry
     Harris-Foulkes estimate   =   -1570.92533032 Ry
     estimated scf accuracy    <       7.70674432 Ry

     iteration #  4     ecut=    36.75 Ry     beta=0.10
     Davidson diagonalization with overlap
     ethr =  4.94E-03,  avg # of iterations =  3.4
 
     Adding external electric field

     Computed dipole along edir(3) : 
        Dipole                0.0442 Ry au,          0.1123 Debye
        Dipole field          0.0001 Ry au
 
        Potential amp.       -0.0088 Ry
        Total length         46.3236 bohr
 

     total cpu time spent up to now is      305.9 secs

     total energy              =   -1568.49011700 Ry
     Harris-Foulkes estimate   =   -1569.29786623 Ry
     estimated scf accuracy    <      15.65306701 Ry

     iteration #  5     ecut=    36.75 Ry     beta=0.10
     Davidson diagonalization with overlap
     ethr =  4.94E-03,  avg # of iterations =  1.0
 
     Adding external electric field

     Computed dipole along edir(3) : 
        Dipole               -0.1666 Ry au,         -0.4234 Debye
        Dipole field         -0.0004 Ry au
 
        Potential amp.        0.0333 Ry
        Total length         46.3236 bohr
 

     total cpu time spent up to now is      358.5 secs

     total energy              =   -1568.51429138 Ry
     Harris-Foulkes estimate   =   -1568.90020639 Ry
     estimated scf accuracy    <       3.03011169 Ry

     iteration #  6     ecut=    36.75 Ry     beta=0.10
     Davidson diagonalization with overlap
     ethr =  1.94E-03,  avg # of iterations =  1.2
 
     Adding external electric field

     Computed dipole along edir(3) : 
        Dipole               -0.0642 Ry au,         -0.1632 Debye
        Dipole field         -0.0001 Ry au
 
        Potential amp.        0.0128 Ry
        Total length         46.3236 bohr
 

     total cpu time spent up to now is      411.9 secs

     total energy              =   -1568.24995661 Ry
     Harris-Foulkes estimate   =   -1568.70546136 Ry
     estimated scf accuracy    <       1.49794724 Ry

     iteration #  7     ecut=    36.75 Ry     beta=0.10
     Davidson diagonalization with overlap
     ethr =  9.60E-04,  avg # of iterations =  2.0
 
     Adding external electric field

     Computed dipole along edir(3) : 
        Dipole               -0.0740 Ry au,         -0.1880 Debye
        Dipole field         -0.0002 Ry au
 
        Potential amp.        0.0148 Ry
        Total length         46.3236 bohr
 

     total cpu time spent up to now is      470.6 secs

     total energy              =   -1568.16760988 Ry
     Harris-Foulkes estimate   =   -1568.52710540 Ry
     estimated scf accuracy    <       1.78426229 Ry

     iteration #  8     ecut=    36.75 Ry     beta=0.10
     Davidson diagonalization with overlap
     ethr =  9.60E-04,  avg # of iterations =  1.6
 
     Adding external electric field

     Computed dipole along edir(3) : 
        Dipole               -0.0509 Ry au,         -0.1294 Debye
        Dipole field         -0.0001 Ry au
 
        Potential amp.        0.0102 Ry
        Total length         46.3236 bohr
 

     total cpu time spent up to now is      528.9 secs

     total energy              =   -1568.37043974 Ry
     Harris-Foulkes estimate   =   -1568.42850572 Ry
     estimated scf accuracy    <       0.60935188 Ry

     iteration #  9     ecut=    36.75 Ry     beta=0.10
     Davidson diagonalization with overlap
     ethr =  3.91E-04,  avg # of iterations =  1.8

     negative rho (up, down):  2.183E-04 0.000E+00
 
     Adding external electric field

     Computed dipole along edir(3) : 
        Dipole               -0.0014 Ry au,         -0.0036 Debye
        Dipole field         -0.0000 Ry au
 
        Potential amp.        0.0003 Ry
        Total length         46.3236 bohr
 

     total cpu time spent up to now is      588.3 secs

     total energy              =   -1568.36121200 Ry
     Harris-Foulkes estimate   =   -1568.38875337 Ry
     estimated scf accuracy    <       0.10057739 Ry

     iteration # 10     ecut=    36.75 Ry     beta=0.10
     Davidson diagonalization with overlap
     ethr =  6.45E-05,  avg # of iterations =  7.0

     negative rho (up, down):  9.736E-04 0.000E+00
 
     Adding external electric field

     Computed dipole along edir(3) : 
        Dipole               -0.0031 Ry au,         -0.0078 Debye
        Dipole field         -0.0000 Ry au
 
        Potential amp.        0.0006 Ry
        Total length         46.3236 bohr
 

     total cpu time spent up to now is      657.8 secs

     total energy              =   -1568.37698628 Ry
     Harris-Foulkes estimate   =   -1568.38682867 Ry
     estimated scf accuracy    <       0.17846940 Ry

     iteration # 11     ecut=    36.75 Ry     beta=0.10
     Davidson diagonalization with overlap
     ethr =  6.45E-05,  avg # of iterations =  1.0

     negative rho (up, down):  1.556E-03 0.000E+00
 
     Adding external electric field

     Computed dipole along edir(3) : 
        Dipole               -0.0004 Ry au,         -0.0009 Debye
        Dipole field         -0.0000 Ry au
 
        Potential amp.        0.0001 Ry
        Total length         46.3236 bohr
 

     total cpu time spent up to now is      711.2 secs

     total energy              =   -1568.37020066 Ry
     Harris-Foulkes estimate   =   -1568.38040188 Ry
     estimated scf accuracy    <       0.10561587 Ry

     iteration # 12     ecut=    36.75 Ry     beta=0.10
     Davidson diagonalization with overlap
     ethr =  6.45E-05,  avg # of iterations =  1.0

     negative rho (up, down):  1.738E-03 0.000E+00
 
     Adding external electric field

     Computed dipole along edir(3) : 
        Dipole               -0.0017 Ry au,         -0.0044 Debye
        Dipole field         -0.0000 Ry au
 
        Potential amp.        0.0003 Ry
        Total length         46.3236 bohr
 

     total cpu time spent up to now is      766.7 secs

     total energy              =   -1568.37451788 Ry
     Harris-Foulkes estimate   =   -1568.37477581 Ry
     estimated scf accuracy    <       0.00160697 Ry

     iteration # 13     ecut=    36.75 Ry     beta=0.10
     Davidson diagonalization with overlap
     ethr =  1.03E-06,  avg # of iterations =  6.6

     negative rho (up, down):  2.318E-03 0.000E+00
 
     Adding external electric field

     Computed dipole along edir(3) : 
        Dipole               -0.0029 Ry au,         -0.0073 Debye
        Dipole field         -0.0000 Ry au
 
        Potential amp.        0.0006 Ry
        Total length         46.3236 bohr
 

     total cpu time spent up to now is      835.1 secs

     total energy              =   -1568.37457195 Ry
     Harris-Foulkes estimate   =   -1568.37464693 Ry
     estimated scf accuracy    <       0.00066839 Ry

     iteration # 14     ecut=    36.75 Ry     beta=0.10
     Davidson diagonalization with overlap
     ethr =  4.28E-07,  avg # of iterations =  1.1

     negative rho (up, down):  2.556E-03 0.000E+00
 
     Adding external electric field

     Computed dipole along edir(3) : 
        Dipole               -0.0012 Ry au,         -0.0031 Debye
        Dipole field         -0.0000 Ry au
 
        Potential amp.        0.0002 Ry
        Total length         46.3236 bohr
 

     total cpu time spent up to now is      888.6 secs

     total energy              =   -1568.37456450 Ry
     Harris-Foulkes estimate   =   -1568.37460783 Ry
     estimated scf accuracy    <       0.00017529 Ry

     iteration # 15     ecut=    36.75 Ry     beta=0.10
     Davidson diagonalization with overlap
     ethr =  1.12E-07,  avg # of iterations =  2.5

     negative rho (up, down):  2.805E-03 0.000E+00
 
     Adding external electric field

     Computed dipole along edir(3) : 
        Dipole               -0.0007 Ry au,         -0.0017 Debye
        Dipole field         -0.0000 Ry au
 
        Potential amp.        0.0001 Ry
        Total length         46.3236 bohr
 

     total cpu time spent up to now is      948.8 secs

     total energy              =   -1568.37460995 Ry
     Harris-Foulkes estimate   =   -1568.37461272 Ry
     estimated scf accuracy    <       0.00018536 Ry

     iteration # 16     ecut=    36.75 Ry     beta=0.10
     Davidson diagonalization with overlap
     ethr =  1.12E-07,  avg # of iterations =  1.0

     negative rho (up, down):  2.832E-03 0.000E+00
 
     Adding external electric field

     Computed dipole along edir(3) : 
        Dipole               -0.0002 Ry au,         -0.0006 Debye
        Dipole field         -0.0000 Ry au
 
        Potential amp.        0.0000 Ry
        Total length         46.3236 bohr
 

     total cpu time spent up to now is      999.1 secs

     total energy              =   -1568.37278907 Ry
     Harris-Foulkes estimate   =   -1568.37461570 Ry
     estimated scf accuracy    <       0.00012852 Ry

     iteration # 17     ecut=    36.75 Ry     beta=0.10
     Davidson diagonalization with overlap
     ethr =  8.24E-08,  avg # of iterations =  1.0

     negative rho (up, down):  2.842E-03 0.000E+00
 
     Adding external electric field

     Computed dipole along edir(3) : 
        Dipole               -0.0003 Ry au,         -0.0007 Debye
        Dipole field         -0.0000 Ry au
 
        Potential amp.        0.0001 Ry
        Total length         46.3236 bohr
 

     total cpu time spent up to now is     1050.0 secs

     total energy              =   -1568.37279190 Ry
     Harris-Foulkes estimate   =   -1568.37279175 Ry
     estimated scf accuracy    <       0.00002607 Ry

     iteration # 18     ecut=    36.75 Ry     beta=0.10
     Davidson diagonalization with overlap
     ethr =  1.67E-08,  avg # of iterations =  1.0

     negative rho (up, down):  2.873E-03 0.000E+00
 
     Adding external electric field

     Computed dipole along edir(3) : 
        Dipole               -0.0002 Ry au,         -0.0004 Debye
        Dipole field         -0.0000 Ry au
 
        Potential amp.        0.0000 Ry
        Total length         46.3236 bohr
 

     total cpu time spent up to now is     1101.5 secs

     total energy              =   -1568.37279420 Ry
     Harris-Foulkes estimate   =   -1568.37279253 Ry
     estimated scf accuracy    <       0.00000567 Ry

     iteration # 19     ecut=    36.75 Ry     beta=0.10
     Davidson diagonalization with overlap
     ethr =  3.63E-09,  avg # of iterations =  2.7

     negative rho (up, down):  2.876E-03 0.000E+00
 
     Adding external electric field

     Computed dipole along edir(3) : 
        Dipole               -0.0001 Ry au,         -0.0002 Debye
        Dipole field         -0.0000 Ry au
 
        Potential amp.        0.0000 Ry
        Total length         46.3236 bohr
 

     total cpu time spent up to now is     1159.0 secs

     total energy              =   -1568.37279613 Ry
     Harris-Foulkes estimate   =   -1568.37279508 Ry
     estimated scf accuracy    <       0.00000117 Ry

     iteration # 20     ecut=    36.75 Ry     beta=0.10
     Davidson diagonalization with overlap
     ethr =  7.50E-10,  avg # of iterations =  2.0

     negative rho (up, down):  2.859E-03 0.000E+00

     negative rho (up, down):  2.859E-03 0.000E+00

     negative rho (up, down):  2.859E-03 0.000E+00

     negative rho (up, down):  2.859E-03 0.000E+00

     negative rho (up, down):  2.859E-03 0.000E+00

     negative rho (up, down):  2.859E-03 0.000E+00

     negative rho (up, down):  2.859E-03 0.000E+00

     negative rho (up, down):  2.859E-03 0.000E+00

     negative rho (up, down):  2.859E-03 0.000E+00

     negative rho (up, down):  2.859E-03 0.000E+00

     negative rho (up, down):  2.859E-03 0.000E+00

     negative rho (up, down):  2.859E-03 0.000E+00

     negative rho (up, down):  2.859E-03 0.000E+00

     negative rho (up, down):  2.859E-03 0.000E+00

     negative rho (up, down):  2.859E-03 0.000E+00

     negative rho (up, down):  2.859E-03 0.000E+00

     negative rho (up, down):  2.859E-03 0.000E+00

     negative rho (up, down):  2.859E-03 0.000E+00

     negative rho (up, down):  2.859E-03 0.000E+00

     negative rho (up, down):  2.859E-03 0.000E+00

     negative rho (up, down):  2.859E-03 0.000E+00

     negative rho (up, down):  2.859E-03 0.000E+00

     negative rho (up, down):  2.859E-03 0.000E+00

     negative rho (up, down):  2.859E-03 0.000E+00

     negative rho (up, down):  2.859E-03 0.000E+00

     negative rho (up, down):  2.859E-03 0.000E+00

     negative rho (up, down):  2.859E-03 0.000E+00

     negative rho (up, down):  2.859E-03 0.000E+00

     negative rho (up, down):  2.859E-03 0.000E+00

     negative rho (up, down):  2.859E-03 0.000E+00

     negative rho (up, down):  2.859E-03 0.000E+00

     negative rho (up, down):  2.859E-03 0.000E+00

     negative rho (up, down):  2.859E-03 0.000E+00

     negative rho (up, down):  2.859E-03 0.000E+00

     negative rho (up, down):  2.859E-03 0.000E+00
 
     Adding external electric field

     Computed dipole along edir(3) : 
        Dipole                0.0010 Ry au,          0.0026 Debye
        Dipole field          0.0000 Ry au
 
        Potential amp.       -0.0002 Ry
        Total length         46.3236 bohr
 

     total cpu time spent up to now is     1273.9 secs

     End of self-consistent calculation

          k = 0.0000 0.0000 0.0000 ( 21955 PWs)   bands (ev):

   -54.7537 -54.7535 -54.5482 -30.8308 -30.8299 -30.7137 -30.7137 -30.7135
   -30.7135 -30.5953 -30.5953 -30.5393 -14.3876 -14.3229 -14.3226 -14.3080
   -14.1482 -14.1420 -14.1420 -14.1302 -14.1145 -14.0924 -14.0922 -14.0264
   -14.0132 -14.0131 -13.9673 -13.9670 -13.9668 -13.9322 -13.9320 -13.9243
   -13.9239 -13.8876 -13.8424 -13.8278 -13.8277 -13.8104 -13.7287 -13.7286
   -13.7099 -13.7099 -13.7002 -13.6802 -13.6802 -13.6801 -13.6801 -13.6786
   -13.6390 -13.6389 -13.6301 -13.6301 -13.5867 -13.5683 -13.5683 -13.4423
   -13.4417  -8.4369  -6.8690  -4.9204  -3.8801  -3.8801  -3.1721  -3.1721
    -2.6084  -2.2367  -2.2367  -1.8062  -1.3981  -1.2263  -1.2263  -0.7610
     0.2789   0.2789   0.3977   0.3977   0.4002   0.9049   0.9049   0.9486
     0.9486   1.3680   1.5549   1.7316   1.7316   2.5903   2.5903   2.6121
     2.6121   2.6500   3.1268   3.1268   3.2520   3.5983   3.9736   4.5579
     4.8677   5.1068   5.1069   5.4508   5.5192   5.5192   5.7125   5.9243
     6.0924   6.1859   7.2154   7.2154

          k = 0.0000 0.0306 0.0000 ( 21960 PWs)   bands (ev):

   -54.7537 -54.7535 -54.5482 -30.8308 -30.8300 -30.7140 -30.7138 -30.7138
   -30.7136 -30.5956 -30.5954 -30.5393 -14.3630 -14.3139 -14.2936 -14.2934
   -14.1502 -14.1344 -14.1338 -14.1042 -14.0931 -14.0840 -14.0764 -14.0387
   -14.0037 -13.9816 -13.9801 -13.9662 -13.9565 -13.9359 -13.9319 -13.9252
   -13.9118 -13.8793 -13.8301 -13.8250 -13.8141 -13.8024 -13.7443 -13.7392
   -13.7348 -13.7181 -13.7023 -13.6934 -13.6878 -13.6846 -13.6807 -13.6761
   -13.6637 -13.6513 -13.6432 -13.6300 -13.5977 -13.5908 -13.5750 -13.4710
   -13.4702  -8.2840  -6.7382  -4.9205  -4.6548  -4.0724  -3.7617  -3.0697
    -2.8845  -2.1209  -1.8780  -1.4564  -1.1210  -1.0452  -1.0367  -0.4837
    -0.2471   0.1421   0.3108   0.3260   0.5210   0.6611   0.7083   1.0993
     1.2175   1.4550   1.7050   1.7163   1.7267   2.3514   2.6097   2.6981
     2.7507   2.8321   3.3603   3.4017   3.8925   4.1201   4.2019   4.6265
     4.8087   4.9901   5.0603   5.1643   5.2899   5.7460   5.7608   6.0712
     6.3402   6.4735   6.8191   7.1680

          k = 0.0000 0.0611 0.0000 ( 21944 PWs)   bands (ev):

   -54.7537 -54.7535 -54.5482 -30.8307 -30.8301 -30.7146 -30.7144 -30.7141
   -30.7138 -30.5963 -30.5956 -30.5392 -14.3294 -14.2622 -14.2573 -14.2182
   -14.1631 -14.1169 -14.1064 -14.0911 -14.0699 -14.0586 -14.0398 -14.0380
   -14.0264 -13.9787 -13.9576 -13.9549 -13.9350 -13.9300 -13.8995 -13.8879
   -13.8559 -13.8502 -13.8213 -13.8167 -13.8008 -13.7827 -13.7795 -13.7789
   -13.7476 -13.7462 -13.7294 -13.7241 -13.7139 -13.7119 -13.6991 -13.6940
   -13.6848 -13.6718 -13.6667 -13.6564 -13.6342 -13.6122 -13.6100 -13.5263
   -13.5218  -7.8340  -6.4722  -5.7925  -4.7960  -4.4261  -4.3112  -3.5062
    -3.0967  -2.2015  -1.6333  -1.4858  -1.0386  -0.7421  -0.6996  -0.2092
    -0.1184   0.1025   0.1380   0.2690   0.3934   0.9231   1.1244   1.2634
     1.4497   1.6564   1.7904   1.8233   2.1253   2.1454   2.5488   2.7731
     3.0291   3.1377   3.7260   3.7564   3.8139   4.1696   4.5131   4.8081
     4.9793   5.1388   5.2256   5.4758   5.5577   5.8326   6.0533   6.1388
     6.3025   6.4463   6.5872   6.6065

          k = 0.0000-0.0917 0.0000 ( 21884 PWs)   bands (ev):

   -54.7537 -54.7535 -54.5482 -30.8306 -30.8302 -30.7149 -30.7147 -30.7142
   -30.7139 -30.5966 -30.5957 -30.5392 -14.3218 -14.2306 -14.1937 -14.1772
   -14.1466 -14.1184 -14.1105 -14.1021 -14.0979 -14.0644 -14.0568 -14.0067
   -13.9967 -13.9907 -13.9700 -13.9308 -13.8876 -13.8852 -13.8738 -13.8665
   -13.8397 -13.8321 -13.8192 -13.8154 -13.7941 -13.7746 -13.7680 -13.7636
   -13.7571 -13.7548 -13.7495 -13.7463 -13.7415 -13.7373 -13.7367 -13.7272
   -13.7219 -13.7038 -13.6694 -13.6615 -13.6481 -13.6464 -13.6299 -13.5411
   -13.5395  -7.2390  -6.9580  -5.5590  -5.4707  -4.4232  -4.4004  -3.6366
    -3.1402  -2.4341  -1.8955  -1.1556  -1.1207  -0.7529  -0.4944  -0.3743
    -0.1988  -0.1913   0.2894   0.4979   1.0637   1.0772   1.2204   1.5442
     1.6276   1.6325   1.7981   1.9767   2.0618   2.2130   2.5107   3.1492
     3.2803   3.4207   3.7169   3.7436   3.9694   4.1171   4.2216   4.2909
     4.7474   4.9637   5.4952   5.5846   5.6090   5.6779   5.9407   6.0775
     6.3020   6.4822   6.4823   6.5642

          k = 0.0265 0.0153 0.0000 ( 21960 PWs)   bands (ev):

   -54.7537 -54.7535 -54.5482 -30.8308 -30.8300 -30.7140 -30.7138 -30.7138
   -30.7136 -30.5956 -30.5954 -30.5393 -14.3631 -14.3141 -14.2934 -14.2933
   -14.1501 -14.1344 -14.1338 -14.1041 -14.0931 -14.0841 -14.0762 -14.0387
   -14.0037 -13.9814 -13.9801 -13.9662 -13.9567 -13.9356 -13.9321 -13.9252
   -13.9120 -13.8793 -13.8300 -13.8250 -13.8142 -13.8024 -13.7442 -13.7392
   -13.7348 -13.7181 -13.7023 -13.6934 -13.6878 -13.6846 -13.6807 -13.6761
   -13.6637 -13.6512 -13.6432 -13.6301 -13.5978 -13.5908 -13.5749 -13.4710
   -13.4702  -8.2840  -6.7382  -4.9205  -4.6547  -4.0724  -3.7617  -3.0697
    -2.8845  -2.1209  -1.8780  -1.4563  -1.1210  -1.0452  -1.0367  -0.4837
    -0.2471   0.1421   0.3108   0.3260   0.5210   0.6611   0.7083   1.0993
     1.2175   1.4550   1.7050   1.7163   1.7267   2.3514   2.6097   2.6980
     2.7507   2.8321   3.3603   3.4017   3.8925   4.1201   4.2019   4.6264
     4.8087   4.9901   5.0603   5.1643   5.2899   5.7460   5.7608   6.0712
     6.3402   6.4735   6.8191   7.1680

          k = 0.0265 0.0458 0.0000 ( 21963 PWs)   bands (ev):

   -54.7537 -54.7535 -54.5482 -30.8307 -30.8301 -30.7144 -30.7142 -30.7140
   -30.7138 -30.5961 -30.5956 -30.5392 -14.3208 -14.3015 -14.2676 -14.2361
   -14.1565 -14.1263 -14.1069 -14.0954 -14.0644 -14.0572 -14.0518 -14.0409
   -14.0152 -13.9864 -13.9746 -13.9540 -13.9392 -13.9321 -13.9149 -13.9061
   -13.8772 -13.8583 -13.8212 -13.8102 -13.7994 -13.7877 -13.7867 -13.7671
   -13.7488 -13.7306 -13.7195 -13.7111 -13.7064 -13.7044 -13.6872 -13.6849
   -13.6828 -13.6759 -13.6529 -13.6409 -13.6403 -13.5984 -13.5849 -13.5192
   -13.5179  -7.9822  -6.5126  -5.3473  -5.1729  -4.3370  -3.8844  -3.7481
    -2.6732  -2.4322  -1.5613  -1.3759  -1.0410  -0.7561  -0.7500  -0.2799
    -0.2062  -0.0065   0.2498   0.3298   0.4142   0.7950   1.0249   1.0953
     1.4226   1.5835   1.6808   1.8422   1.8565   2.0613   2.5494   2.6094
     2.9831   3.4765   3.5084   3.8153   3.9049   4.1583   4.5682   4.7275
     4.7911   5.2153   5.2712   5.4316   5.4734   5.9154   6.0685   6.2170
     6.2326   6.2802   6.5724   6.8517

          k = 0.0265 0.0764 0.0000 ( 21887 PWs)   bands (ev):

   -54.7537 -54.7535 -54.5482 -30.8306 -30.8302 -30.7147 -30.7146 -30.7143
   -30.7140 -30.5965 -30.5959 -30.5392 -14.2983 -14.2359 -14.2299 -14.1736
   -14.1553 -14.1237 -14.1115 -14.0945 -14.0743 -14.0683 -14.0327 -14.0107
   -13.9871 -13.9765 -13.9676 -13.9417 -13.9196 -13.9142 -13.8762 -13.8705
   -13.8457 -13.8260 -13.8226 -13.8168 -13.8114 -13.7889 -13.7802 -13.7676
   -13.7560 -13.7527 -13.7456 -13.7356 -13.7345 -13.7321 -13.7234 -13.7119
   -13.6900 -13.6843 -13.6726 -13.6588 -13.6448 -13.6306 -13.6225 -13.5661
   -13.5638  -7.4074  -6.6003  -5.7811  -5.4347  -4.7640  -4.1009  -3.8014
    -3.0493  -2.2143  -1.9234  -1.2593  -1.0641  -0.5222  -0.5052  -0.2568
    -0.1413  -0.0622   0.2156   0.4694   0.8470   1.0812   1.1574   1.2806
     1.5516   1.6455   1.6772   1.8758   2.1304   2.2555   2.3803   2.7145
     3.1524   3.2545   3.7005   3.8964   4.0929   4.2026   4.5034   4.9583
     5.0335   5.1849   5.3864   5.4444   5.5872   5.8015   6.0998   6.1839
     6.3453   6.5707   6.6060   6.6637

          k = 0.0265-0.0764 0.0000 ( 21887 PWs)   bands (ev):

   -54.7537 -54.7535 -54.5482 -30.8306 -30.8302 -30.7147 -30.7146 -30.7143
   -30.7140 -30.5965 -30.5959 -30.5392 -14.2983 -14.2359 -14.2299 -14.1736
   -14.1553 -14.1237 -14.1115 -14.0945 -14.0743 -14.0683 -14.0327 -14.0107
   -13.9871 -13.9765 -13.9676 -13.9417 -13.9196 -13.9142 -13.8762 -13.8705
   -13.8457 -13.8260 -13.8226 -13.8168 -13.8114 -13.7889 -13.7802 -13.7676
   -13.7560 -13.7527 -13.7456 -13.7356 -13.7345 -13.7321 -13.7234 -13.7119
   -13.6900 -13.6843 -13.6726 -13.6588 -13.6448 -13.6306 -13.6225 -13.5661
   -13.5638  -7.4074  -6.6003  -5.7811  -5.4347  -4.7640  -4.1009  -3.8014
    -3.0493  -2.2143  -1.9234  -1.2593  -1.0641  -0.5222  -0.5052  -0.2568
    -0.1413  -0.0622   0.2156   0.4694   0.8470   1.0812   1.1574   1.2806
     1.5516   1.6455   1.6772   1.8758   2.1304   2.2555   2.3803   2.7145
     3.1524   3.2545   3.7005   3.8964   4.0929   4.2026   4.5034   4.9583
     5.0335   5.1849   5.3864   5.4444   5.5872   5.8015   6.0998   6.1839
     6.3453   6.5706   6.6060   6.6637

          k = 0.0265-0.0458 0.0000 ( 21963 PWs)   bands (ev):

   -54.7537 -54.7535 -54.5482 -30.8307 -30.8301 -30.7144 -30.7142 -30.7140
   -30.7138 -30.5961 -30.5956 -30.5392 -14.3208 -14.3015 -14.2676 -14.2361
   -14.1565 -14.1263 -14.1069 -14.0954 -14.0644 -14.0572 -14.0517 -14.0409
   -14.0152 -13.9864 -13.9746 -13.9540 -13.9392 -13.9321 -13.9149 -13.9061
   -13.8772 -13.8583 -13.8212 -13.8102 -13.7994 -13.7877 -13.7867 -13.7671
   -13.7488 -13.7306 -13.7195 -13.7111 -13.7064 -13.7044 -13.6872 -13.6849
   -13.6828 -13.6759 -13.6529 -13.6409 -13.6403 -13.5984 -13.5849 -13.5192
   -13.5179  -7.9822  -6.5126  -5.3473  -5.1729  -4.3370  -3.8844  -3.7481
    -2.6732  -2.4322  -1.5613  -1.3759  -1.0410  -0.7561  -0.7500  -0.2799
    -0.2062  -0.0065   0.2498   0.3298   0.4142   0.7950   1.0249   1.0953
     1.4226   1.5835   1.6808   1.8422   1.8565   2.0613   2.5494   2.6094
     2.9831   3.4765   3.5084   3.8153   3.9049   4.1583   4.5682   4.7275
     4.7911   5.2153   5.2712   5.4316   5.4734   5.9154   6.0685   6.2170
     6.2326   6.2802   6.5724   6.8516

          k = 0.0265-0.0153 0.0000 ( 21960 PWs)   bands (ev):

   -54.7537 -54.7535 -54.5482 -30.8308 -30.8300 -30.7140 -30.7138 -30.7138
   -30.7136 -30.5956 -30.5954 -30.5393 -14.3631 -14.3141 -14.2934 -14.2933
   -14.1501 -14.1344 -14.1338 -14.1041 -14.0931 -14.0841 -14.0762 -14.0387
   -14.0037 -13.9814 -13.9801 -13.9662 -13.9567 -13.9356 -13.9321 -13.9252
   -13.9120 -13.8793 -13.8300 -13.8250 -13.8142 -13.8024 -13.7442 -13.7392
   -13.7348 -13.7181 -13.7023 -13.6934 -13.6878 -13.6846 -13.6807 -13.6761
   -13.6637 -13.6512 -13.6432 -13.6301 -13.5978 -13.5908 -13.5749 -13.4710
   -13.4702  -8.2840  -6.7382  -4.9205  -4.6547  -4.0724  -3.7617  -3.0697
    -2.8845  -2.1209  -1.8780  -1.4563  -1.1210  -1.0452  -1.0367  -0.4837
    -0.2471   0.1421   0.3108   0.3260   0.5210   0.6611   0.7083   1.0993
     1.2175   1.4550   1.7050   1.7163   1.7267   2.3514   2.6097   2.6980
     2.7507   2.8321   3.3603   3.4017   3.8925   4.1201   4.2019   4.6264
     4.8087   4.9901   5.0603   5.1643   5.2899   5.7460   5.7608   6.0712
     6.3402   6.4735   6.8191   7.1680

          k = 0.0529 0.0306 0.0000 ( 21944 PWs)   bands (ev):

   -54.7537 -54.7535 -54.5482 -30.8307 -30.8301 -30.7146 -30.7144 -30.7141
   -30.7138 -30.5963 -30.5956 -30.5392 -14.3296 -14.2622 -14.2574 -14.2179
   -14.1629 -14.1170 -14.1065 -14.0911 -14.0699 -14.0585 -14.0396 -14.0378
   -14.0264 -13.9784 -13.9576 -13.9552 -13.9353 -13.9300 -13.8995 -13.8879
   -13.8558 -13.8502 -13.8213 -13.8168 -13.8008 -13.7827 -13.7795 -13.7788
   -13.7476 -13.7462 -13.7294 -13.7241 -13.7139 -13.7119 -13.6990 -13.6940
   -13.6848 -13.6718 -13.6667 -13.6564 -13.6343 -13.6122 -13.6100 -13.5263
   -13.5218  -7.8340  -6.4721  -5.7925  -4.7960  -4.4261  -4.3112  -3.5063
    -3.0967  -2.2015  -1.6333  -1.4858  -1.0386  -0.7421  -0.6996  -0.2092
    -0.1184   0.1025   0.1380   0.2690   0.3934   0.9231   1.1244   1.2634
     1.4497   1.6564   1.7904   1.8233   2.1252   2.1454   2.5488   2.7731
     3.0291   3.1377   3.7260   3.7564   3.8140   4.1697   4.5131   4.8081
     4.9793   5.1388   5.2256   5.4758   5.5577   5.8326   6.0533   6.1388
     6.3025   6.4463   6.5872   6.6065

          k = 0.0529 0.0611 0.0000 ( 21887 PWs)   bands (ev):

   -54.7537 -54.7535 -54.5482 -30.8306 -30.8302 -30.7147 -30.7146 -30.7143
   -30.7140 -30.5965 -30.5959 -30.5392 -14.2986 -14.2358 -14.2300 -14.1734
   -14.1553 -14.1236 -14.1116 -14.0946 -14.0743 -14.0683 -14.0326 -14.0105
   -13.9870 -13.9765 -13.9677 -13.9417 -13.9196 -13.9143 -13.8762 -13.8706
   -13.8457 -13.8260 -13.8226 -13.8168 -13.8114 -13.7888 -13.7802 -13.7676
   -13.7560 -13.7526 -13.7456 -13.7356 -13.7345 -13.7321 -13.7234 -13.7119
   -13.6900 -13.6843 -13.6726 -13.6588 -13.6449 -13.6306 -13.6226 -13.5661
   -13.5638  -7.4074  -6.6003  -5.7811  -5.4347  -4.7640  -4.1009  -3.8014
    -3.0493  -2.2143  -1.9234  -1.2593  -1.0641  -0.5222  -0.5052  -0.2568
    -0.1413  -0.0622   0.2156   0.4694   0.8470   1.0812   1.1574   1.2806
     1.5516   1.6455   1.6772   1.8758   2.1304   2.2555   2.3803   2.7145
     3.1523   3.2545   3.7005   3.8964   4.0929   4.2026   4.5034   4.9583
     5.0335   5.1849   5.3864   5.4444   5.5872   5.8016   6.0998   6.1838
     6.3453   6.5706   6.6059   6.6638

          k = 0.0529 0.0917 0.0000 ( 21876 PWs)   bands (ev):

   -54.7537 -54.7535 -54.5482 -30.8305 -30.8303 -30.7146 -30.7146 -30.7145
   -30.7144 -30.5963 -30.5963 -30.5392 -14.2599 -14.2041 -14.2038 -14.1940
   -14.1937 -14.1091 -14.1030 -14.1030 -14.0915 -14.0364 -14.0362 -13.9873
   -13.9623 -13.9499 -13.9496 -13.9200 -13.9200 -13.9028 -13.9021 -13.9021
   -13.8800 -13.8436 -13.8376 -13.8258 -13.8258 -13.7631 -13.7616 -13.7607
   -13.7606 -13.7519 -13.7519 -13.7290 -13.7289 -13.7209 -13.7202 -13.7202
   -13.6714 -13.6714 -13.6592 -13.6569 -13.6569 -13.6358 -13.6329 -13.6223
   -13.6222  -6.8545  -6.8545  -6.1959  -5.1760  -4.8176  -4.8176  -3.3347
    -2.9441  -2.9440  -1.2653  -1.2652  -0.7928  -0.7038  -0.3198  -0.3198
    -0.1536  -0.1536   0.1098   0.4682   1.1489   1.1489   1.1807   1.4168
     1.4168   1.6197   1.6198   1.9284   1.9284   2.2820   2.2984   2.6813
     3.3121   3.3122   3.5283   3.9782   3.9782   4.1523   4.1523   5.2005
     5.4364   5.5583   5.5583   5.8618   6.0480   6.0481   6.2310   6.2311
     6.4938   6.5737   6.5738   6.6136

          k = 0.0529-0.0611 0.0000 ( 21887 PWs)   bands (ev):

   -54.7537 -54.7535 -54.5482 -30.8306 -30.8302 -30.7147 -30.7146 -30.7143
   -30.7140 -30.5965 -30.5959 -30.5392 -14.2986 -14.2358 -14.2300 -14.1734
   -14.1553 -14.1236 -14.1116 -14.0946 -14.0743 -14.0683 -14.0326 -14.0105
   -13.9870 -13.9765 -13.9677 -13.9417 -13.9196 -13.9143 -13.8762 -13.8706
   -13.8456 -13.8260 -13.8226 -13.8168 -13.8114 -13.7888 -13.7802 -13.7676
   -13.7560 -13.7526 -13.7456 -13.7356 -13.7345 -13.7321 -13.7234 -13.7119
   -13.6900 -13.6843 -13.6726 -13.6588 -13.6449 -13.6306 -13.6226 -13.5661
   -13.5638  -7.4074  -6.6003  -5.7811  -5.4347  -4.7640  -4.1009  -3.8014
    -3.0493  -2.2143  -1.9234  -1.2593  -1.0641  -0.5222  -0.5052  -0.2568
    -0.1413  -0.0622   0.2156   0.4694   0.8470   1.0812   1.1574   1.2806
     1.5516   1.6455   1.6772   1.8758   2.1304   2.2555   2.3803   2.7145
     3.1523   3.2545   3.7005   3.8964   4.0929   4.2026   4.5034   4.9583
     5.0335   5.1849   5.3864   5.4444   5.5872   5.8016   6.0998   6.1838
     6.3453   6.5705   6.6059   6.6638

          k = 0.0529-0.0306 0.0000 ( 21944 PWs)   bands (ev):

   -54.7537 -54.7535 -54.5482 -30.8307 -30.8301 -30.7146 -30.7144 -30.7141
   -30.7138 -30.5963 -30.5956 -30.5392 -14.3296 -14.2622 -14.2574 -14.2179
   -14.1629 -14.1170 -14.1065 -14.0911 -14.0699 -14.0585 -14.0395 -14.0378
   -14.0264 -13.9784 -13.9576 -13.9552 -13.9353 -13.9300 -13.8995 -13.8879
   -13.8558 -13.8502 -13.8213 -13.8168 -13.8008 -13.7827 -13.7795 -13.7788
   -13.7476 -13.7462 -13.7294 -13.7241 -13.7139 -13.7119 -13.6990 -13.6940
   -13.6848 -13.6718 -13.6667 -13.6564 -13.6343 -13.6122 -13.6100 -13.5263
   -13.5218  -7.8340  -6.4721  -5.7925  -4.7960  -4.4261  -4.3112  -3.5063
    -3.0967  -2.2015  -1.6333  -1.4858  -1.0386  -0.7421  -0.6996  -0.2092
    -0.1184   0.1025   0.1380   0.2690   0.3934   0.9231   1.1244   1.2634
     1.4497   1.6564   1.7904   1.8233   2.1252   2.1454   2.5488   2.7731
     3.0291   3.1377   3.7260   3.7564   3.8140   4.1697   4.5131   4.8081
     4.9793   5.1388   5.2256   5.4758   5.5577   5.8326   6.0533   6.1388
     6.3025   6.4463   6.5872   6.6065

          k = 0.0529 0.0000 0.0000 ( 21963 PWs)   bands (ev):

   -54.7537 -54.7535 -54.5482 -30.8307 -30.8301 -30.7144 -30.7142 -30.7140
   -30.7138 -30.5961 -30.5956 -30.5392 -14.3209 -14.3017 -14.2676 -14.2359
   -14.1564 -14.1263 -14.1070 -14.0955 -14.0644 -14.0572 -14.0517 -14.0409
   -14.0150 -13.9865 -13.9745 -13.9542 -13.9391 -13.9323 -13.9149 -13.9061
   -13.8773 -13.8582 -13.8212 -13.8102 -13.7995 -13.7876 -13.7866 -13.7671
   -13.7488 -13.7306 -13.7195 -13.7111 -13.7064 -13.7044 -13.6872 -13.6849
   -13.6828 -13.6759 -13.6530 -13.6409 -13.6403 -13.5984 -13.5849 -13.5192
   -13.5179  -7.9822  -6.5126  -5.3473  -5.1730  -4.3370  -3.8844  -3.7481
    -2.6732  -2.4322  -1.5614  -1.3759  -1.0409  -0.7561  -0.7500  -0.2799
    -0.2062  -0.0065   0.2498   0.3298   0.4141   0.7950   1.0249   1.0953
     1.4226   1.5835   1.6808   1.8422   1.8565   2.0613   2.5494   2.6094
     2.9831   3.4765   3.5083   3.8153   3.9049   4.1583   4.5682   4.7275
     4.7911   5.2153   5.2712   5.4316   5.4734   5.9154   6.0684   6.2170
     6.2326   6.2803   6.5724   6.8516

          k =-0.0794-0.0458 0.0000 ( 21884 PWs)   bands (ev):

   -54.7537 -54.7535 -54.5482 -30.8306 -30.8302 -30.7149 -30.7147 -30.7142
   -30.7139 -30.5966 -30.5958 -30.5392 -14.3221 -14.2309 -14.1941 -14.1767
   -14.1460 -14.1187 -14.1099 -14.1024 -14.0981 -14.0641 -14.0571 -14.0060
   -13.9968 -13.9903 -13.9703 -13.9311 -13.8876 -13.8852 -13.8739 -13.8668
   -13.8397 -13.8320 -13.8191 -13.8154 -13.7941 -13.7746 -13.7680 -13.7636
   -13.7570 -13.7548 -13.7495 -13.7463 -13.7414 -13.7372 -13.7367 -13.7272
   -13.7219 -13.7038 -13.6694 -13.6615 -13.6481 -13.6465 -13.6300 -13.5411
   -13.5395  -7.2390  -6.9580  -5.5591  -5.4707  -4.4232  -4.4004  -3.6366
    -3.1402  -2.4342  -1.8955  -1.1556  -1.1207  -0.7529  -0.4944  -0.3743
    -0.1987  -0.1913   0.2894   0.4979   1.0637   1.0772   1.2203   1.5442
     1.6276   1.6325   1.7981   1.9767   2.0618   2.2130   2.5107   3.1492
     3.2803   3.4207   3.7169   3.7436   3.9694   4.1171   4.2216   4.2909
     4.7475   4.9637   5.4952   5.5847   5.6090   5.6779   5.9406   6.0775
     6.3020   6.4822   6.4823   6.5643

          k =-0.0794-0.0153 0.0000 ( 21887 PWs)   bands (ev):

   -54.7537 -54.7535 -54.5482 -30.8306 -30.8302 -30.7147 -30.7146 -30.7143
   -30.7140 -30.5965 -30.5959 -30.5392 -14.2986 -14.2360 -14.2301 -14.1733
   -14.1551 -14.1234 -14.1116 -14.0947 -14.0742 -14.0683 -14.0326 -14.0104
   -13.9870 -13.9764 -13.9678 -13.9418 -13.9196 -13.9142 -13.8762 -13.8707
   -13.8456 -13.8260 -13.8226 -13.8168 -13.8114 -13.7888 -13.7802 -13.7676
   -13.7560 -13.7526 -13.7456 -13.7356 -13.7345 -13.7322 -13.7234 -13.7119
   -13.6900 -13.6843 -13.6726 -13.6588 -13.6449 -13.6306 -13.6225 -13.5661
   -13.5638  -7.4074  -6.6003  -5.7811  -5.4347  -4.7640  -4.1009  -3.8014
    -3.0493  -2.2143  -1.9234  -1.2593  -1.0641  -0.5222  -0.5052  -0.2568
    -0.1413  -0.0622   0.2156   0.4694   0.8470   1.0812   1.1574   1.2806
     1.5516   1.6456   1.6772   1.8758   2.1304   2.2555   2.3803   2.7145
     3.1523   3.2545   3.7005   3.8964   4.0929   4.2026   4.5034   4.9583
     5.0335   5.1849   5.3864   5.4444   5.5872   5.8016   6.0998   6.1838
     6.3453   6.5706   6.6059   6.6638

          k =-0.0794 0.0153 0.0000 ( 21887 PWs)   bands (ev):

   -54.7537 -54.7535 -54.5482 -30.8306 -30.8302 -30.7147 -30.7146 -30.7143
   -30.7140 -30.5965 -30.5959 -30.5392 -14.2986 -14.2360 -14.2301 -14.1733
   -14.1551 -14.1234 -14.1116 -14.0947 -14.0742 -14.0683 -14.0326 -14.0104
   -13.9870 -13.9764 -13.9678 -13.9418 -13.9196 -13.9142 -13.8762 -13.8707
   -13.8456 -13.8260 -13.8226 -13.8168 -13.8114 -13.7888 -13.7802 -13.7676
   -13.7560 -13.7526 -13.7456 -13.7356 -13.7345 -13.7322 -13.7234 -13.7119
   -13.6900 -13.6843 -13.6726 -13.6588 -13.6449 -13.6306 -13.6225 -13.5661
   -13.5638  -7.4074  -6.6003  -5.7811  -5.4347  -4.7640  -4.1009  -3.8014
    -3.0493  -2.2143  -1.9234  -1.2593  -1.0641  -0.5222  -0.5052  -0.2568
    -0.1413  -0.0622   0.2156   0.4694   0.8470   1.0812   1.1574   1.2806
     1.5516   1.6456   1.6772   1.8758   2.1304   2.2555   2.3803   2.7145
     3.1523   3.2545   3.7005   3.8964   4.0929   4.2026   4.5034   4.9583
     5.0335   5.1849   5.3864   5.4444   5.5872   5.8016   6.0998   6.1838
     6.3453   6.5705   6.6059   6.6638

          k =-0.0794-0.1375 0.0000 ( 21884 PWs)   bands (ev):

   -54.7537 -54.7535 -54.5482 -30.8306 -30.8302 -30.7149 -30.7147 -30.7142
   -30.7139 -30.5966 -30.5958 -30.5392 -14.3221 -14.2309 -14.1941 -14.1767
   -14.1460 -14.1187 -14.1099 -14.1024 -14.0981 -14.0640 -14.0571 -14.0060
   -13.9968 -13.9903 -13.9703 -13.9311 -13.8876 -13.8852 -13.8739 -13.8668
   -13.8397 -13.8320 -13.8191 -13.8154 -13.7941 -13.7746 -13.7680 -13.7636
   -13.7570 -13.7548 -13.7495 -13.7463 -13.7414 -13.7372 -13.7367 -13.7272
   -13.7219 -13.7038 -13.6694 -13.6615 -13.6481 -13.6465 -13.6300 -13.5411
   -13.5395  -7.2390  -6.9580  -5.5591  -5.4707  -4.4232  -4.4004  -3.6366
    -3.1402  -2.4342  -1.8955  -1.1556  -1.1207  -0.7529  -0.4944  -0.3743
    -0.1987  -0.1913   0.2894   0.4979   1.0637   1.0772   1.2203   1.5442
     1.6276   1.6325   1.7981   1.9767   2.0618   2.2130   2.5107   3.1492
     3.2803   3.4207   3.7169   3.7436   3.9694   4.1171   4.2216   4.2909
     4.7475   4.9637   5.4952   5.5847   5.6090   5.6779   5.9406   6.0775
     6.3020   6.4822   6.4823   6.5643

     the Fermi energy is     0.9838 ev

!    total energy              =   -1568.37280100 Ry
     Harris-Foulkes estimate   =   -1568.37279624 Ry
     estimated scf accuracy    <       0.00000025 Ry

     The total energy is the sum of the following terms:

     one-electron contribution =  -10180.84621263 Ry
     hartree contribution      =    5147.64832409 Ry
     xc contribution           =    -409.36071989 Ry
     ewald contribution        =    3874.24031320 Ry
     electric field correction =       0.00000000 Ry
     smearing contrib. (-TS)   =      -0.05450578 Ry

     convergence has been achieved in  20 iterations
 
 BEEF-vdW xc energy contributions
           1 :   -357.626104221913     
           2 :    326.988659803304     
           3 :   -275.069994557530     
           4 :    216.260904213990     
           5 :   -163.913985967637     
           6 :    125.502471003534     
           7 :   -101.120137882099     
           8 :    85.5186604748525     
           9 :   -72.1509558517443     
          10 :    56.8667669261513     
          11 :   -39.4603052406767     
          12 :    22.6796969034563     
          13 :   -9.77370172957535     
          14 :    2.25727023449519     
          15 :   0.839234837396305     
          16 :   -2.07603894977717     
          17 :    3.89446243868736     
          18 :   -7.27115158043148     
          19 :    11.4826187936456     
          20 :   -14.9335709331843     
          21 :    16.3584736609244     
          22 :   -15.6019616170657     
          23 :    13.5720140593930     
          24 :   -11.5477275808382     
          25 :    10.3859032127906     
          26 :   -10.1381391446726     
          27 :    10.2308673617627     
          28 :   -9.98192536121348     
          29 :    9.06094767736079     
          30 :   -7.62412492462835     
          31 :   -33.6046476948599     
          32 :   -24.6570817986626     

     Forces acting on atoms (Ry/au):


     negative rho (up, down):  2.859E-03 0.000E+00
     atom    1 type  1   force =    -0.00000113    0.00679606   -0.03174872
     atom    2 type  1   force =     0.00588958   -0.00339318   -0.03175488
     atom    3 type  1   force =    -0.00588947   -0.00339135   -0.03175625
     atom    4 type  2   force =    -0.00000027    0.00001661    0.08144502
     atom    5 type  1   force =     0.00000078   -0.00002690   -0.00003988
     atom    6 type  1   force =    -0.00001949    0.00001228   -0.00003664
     atom    7 type  1   force =     0.00001979    0.00001081   -0.00003640
     atom    8 type  2   force =     0.00000014    0.00000087   -0.00001606
     atom    9 type  1   force =     0.00000024   -0.00679886    0.03180735
     atom   10 type  1   force =    -0.00589170    0.00339373    0.03181446
     atom   11 type  1   force =     0.00589159    0.00339437    0.03181505
     atom   12 type  2   force =    -0.00000004   -0.00001444   -0.08149306

     Total force =     0.140045     Total SCF correction =     0.001882


     entering subroutine stress ...


     negative rho (up, down):  2.859E-03 0.000E+00
          total   stress  (Ry/bohr**3)                   (kbar)     P=  -11.56
  -0.00012628  -0.00000000   0.00000000        -18.58     -0.00      0.00
  -0.00000000  -0.00012624  -0.00000000         -0.00    -18.57     -0.00
   0.00000000  -0.00000000   0.00001670          0.00     -0.00      2.46

 !ASE

     Writing output data file calc.save
 
     init_run     :     17.14s CPU     24.84s WALL (       1 calls)
     electrons    :    798.10s CPU   1249.16s WALL (       1 calls)
     forces       :      3.07s CPU      3.97s WALL (       1 calls)
     stress       :      6.45s CPU      7.85s WALL (       1 calls)

     Called by init_run:
     wfcinit      :     14.24s CPU     21.25s WALL (       1 calls)
     potinit      :      1.61s CPU      2.03s WALL (       1 calls)

     Called by electrons:
     c_bands      :    607.68s CPU    949.25s WALL (      20 calls)
     sum_band     :    118.30s CPU    193.69s WALL (      20 calls)
     v_of_rho     :     27.39s CPU     38.69s WALL (      21 calls)
     newd         :      5.88s CPU      6.22s WALL (      21 calls)
     mix_rho      :      1.15s CPU      1.65s WALL (      20 calls)
     vdW_energy   :      1.87s CPU      1.89s WALL (      57 calls)
     vdW_ffts     :     44.25s CPU     69.14s WALL (     116 calls)
     vdW_v        :      8.11s CPU     11.63s WALL (      57 calls)

     Called by c_bands:
     init_us_2    :      0.51s CPU      0.55s WALL (     860 calls)
     cegterg      :    600.35s CPU    940.02s WALL (     400 calls)

     Called by *egterg:
     h_psi        :    486.34s CPU    808.27s WALL (    1410 calls)
     s_psi        :      6.50s CPU      6.54s WALL (    1410 calls)
     g_psi        :      0.38s CPU      0.37s WALL (     990 calls)
     cdiaghg      :     63.48s CPU     67.46s WALL (    1390 calls)

     Called by h_psi:
     add_vuspsi   :      6.80s CPU      6.82s WALL (    1410 calls)

     General routines
     calbec       :     21.62s CPU     28.76s WALL (    1850 calls)
     fft          :     67.44s CPU    104.03s WALL (    3489 calls)
     ffts         :      0.25s CPU      0.37s WALL (      41 calls)
     fftw         :    560.79s CPU    948.87s WALL (  236148 calls)
     interpolate  :      1.09s CPU      1.55s WALL (      41 calls)
     davcio       :      0.00s CPU      0.02s WALL (      20 calls)
 
     Parallel routines
     fft_scatter  :    606.08s CPU   1028.53s WALL (  239678 calls)
 
     PWSCF        : 13m45.78s CPU    21m27.81s WALL

 
   This run was terminated on:  12:52:59  26Dec2018            

=------------------------------------------------------------------------------=
   JOB DONE.
=------------------------------------------------------------------------------=
Job  /afs/slac/g/suncat/bin/suncat-tsmpirun -x LD_LIBRARY_PATH -wdir /scratch/qe109880_matbw pw.x -in pw.inp

TID   HOST_NAME   COMMAND_LINE            STATUS            TERMINATION_TIME
===== ========== ================  =======================  ===================
00000 suncat0027 pw.x -in pw.inp   Done                     12/26/2018 12:52:59
00001 suncat0027 pw.x -in pw.inp   Done                     12/26/2018 12:52:59
00002 suncat0027 pw.x -in pw.inp   Done                     12/26/2018 12:52:59
00003 suncat0027 pw.x -in pw.inp   Done                     12/26/2018 12:52:59
00004 suncat0027 pw.x -in pw.inp   Done                     12/26/2018 12:52:59
00005 suncat0027 pw.x -in pw.inp   Done                     12/26/2018 12:52:59
00006 suncat0027 pw.x -in pw.inp   Done                     12/26/2018 12:52:59
00007 suncat0027 pw.x -in pw.inp   Done                     12/26/2018 12:52:59
00008 suncat0026 pw.x -in pw.inp   Done                     12/26/2018 12:52:59
00009 suncat0026 pw.x -in pw.inp   Done                     12/26/2018 12:52:59
00010 suncat0026 pw.x -in pw.inp   Done                     12/26/2018 12:52:59
00011 suncat0026 pw.x -in pw.inp   Done                     12/26/2018 12:52:59
00012 suncat0026 pw.x -in pw.inp   Done                     12/26/2018 12:52:59
00013 suncat0026 pw.x -in pw.inp   Done                     12/26/2018 12:52:59
00014 suncat0026 pw.x -in pw.inp   Done                     12/26/2018 12:52:59
00015 suncat0026 pw.x -in pw.inp   Done                     12/26/2018 12:52:59
00016 suncat0021 pw.x -in pw.inp   Done                     12/26/2018 12:52:59
00017 suncat0021 pw.x -in pw.inp   Done                     12/26/2018 12:52:59
00018 suncat0021 pw.x -in pw.inp   Done                     12/26/2018 12:52:59
00019 suncat0021 pw.x -in pw.inp   Done                     12/26/2018 12:52:59
00020 suncat0021 pw.x -in pw.inp   Done                     12/26/2018 12:52:59
00021 suncat0021 pw.x -in pw.inp   Done                     12/26/2018 12:52:59
00022 suncat0021 pw.x -in pw.inp   Done                     12/26/2018 12:52:59
00023 suncat0021 pw.x -in pw.inp   Done                     12/26/2018 12:52:59
00024 suncat0191 pw.x -in pw.inp   Done                     12/26/2018 12:52:59
00025 suncat0191 pw.x -in pw.inp   Done                     12/26/2018 12:52:59
00026 suncat0191 pw.x -in pw.inp   Done                     12/26/2018 12:52:59
00027 suncat0191 pw.x -in pw.inp   Done                     12/26/2018 12:52:59
00028 suncat0191 pw.x -in pw.inp   Done                     12/26/2018 12:52:59
00029 suncat0191 pw.x -in pw.inp   Done                     12/26/2018 12:52:59
00030 suncat0191 pw.x -in pw.inp   Done                     12/26/2018 12:52:59
00031 suncat0191 pw.x -in pw.inp   Done                     12/26/2018 12:52:59
00032 suncat0007 pw.x -in pw.inp   Done                     12/26/2018 12:52:59
00033 suncat0007 pw.x -in pw.inp   Done                     12/26/2018 12:52:59
00034 suncat0007 pw.x -in pw.inp   Done                     12/26/2018 12:52:59
00035 suncat0007 pw.x -in pw.inp   Done                     12/26/2018 12:52:59
00036 suncat0007 pw.x -in pw.inp   Done                     12/26/2018 12:52:59
00037 suncat0007 pw.x -in pw.inp   Done                     12/26/2018 12:52:59
00038 suncat0007 pw.x -in pw.inp   Done                     12/26/2018 12:52:59
00039 suncat0007 pw.x -in pw.inp   Done                     12/26/2018 12:52:59
00040 suncat0006 pw.x -in pw.inp   Done                     12/26/2018 12:52:59
00041 suncat0006 pw.x -in pw.inp   Done                     12/26/2018 12:52:59
00042 suncat0006 pw.x -in pw.inp   Done                     12/26/2018 12:52:59
00043 suncat0006 pw.x -in pw.inp   Done                     12/26/2018 12:52:59
00044 suncat0006 pw.x -in pw.inp   Done                     12/26/2018 12:52:59
00045 suncat0006 pw.x -in pw.inp   Done                     12/26/2018 12:52:59
00046 suncat0006 pw.x -in pw.inp   Done                     12/26/2018 12:52:59
00047 suncat0006 pw.x -in pw.inp   Done                     12/26/2018 12:52:59
00048 suncat0005 pw.x -in pw.inp   Done                     12/26/2018 12:52:59
00049 suncat0005 pw.x -in pw.inp   Done                     12/26/2018 12:52:59
00050 suncat0005 pw.x -in pw.inp   Done                     12/26/2018 12:52:59
00051 suncat0005 pw.x -in pw.inp   Done                     12/26/2018 12:52:59
00052 suncat0005 pw.x -in pw.inp   Done                     12/26/2018 12:52:59
00053 suncat0005 pw.x -in pw.inp   Done                     12/26/2018 12:52:59
00054 suncat0005 pw.x -in pw.inp   Done                     12/26/2018 12:52:59
00055 suncat0005 pw.x -in pw.inp   Done                     12/26/2018 12:52:59
00056 suncat0143 pw.x -in pw.inp   Done                     12/26/2018 12:52:59
00057 suncat0143 pw.x -in pw.inp   Done                     12/26/2018 12:52:59
00058 suncat0143 pw.x -in pw.inp   Done                     12/26/2018 12:52:59
00059 suncat0143 pw.x -in pw.inp   Done                     12/26/2018 12:52:59
00060 suncat0143 pw.x -in pw.inp   Done                     12/26/2018 12:52:59
00061 suncat0143 pw.x -in pw.inp   Done                     12/26/2018 12:52:59
00062 suncat0143 pw.x -in pw.inp   Done                     12/26/2018 12:52:59
00063 suncat0143 pw.x -in pw.inp   Done                     12/26/2018 12:52:59

     Program PWSCF v.5.1rc2 (svn rev. 11289) starts on 26Dec2018 at 12:53: 6 

     This program is part of the open-source Quantum ESPRESSO suite
     for quantum simulation of materials; please cite
         "P. Giannozzi et al., J. Phys.:Condens. Matter 21 395502 (2009);
          URL http://www.quantum-espresso.org", 
     in publications or presentations arising from this work. More details at
     http://www.quantum-espresso.org/quote

     Parallel version (MPI), running on    64 processors
     R & G space division:  proc/nbgrp/npool/nimage =      64
     Reading input from pw.inp
     Message from routine read_cards :
     DEPRECATED: no units specified in CELL_PARAMETERS card

     Current dimensions of program PWSCF are:
     Max number of different atomic species (ntypx) = 10
     Max number of k-points (npk) =  40000
     Max angular momentum in pseudopotentials (lmaxx) =  3
     Presently stress not available with electric field


     **************************************************************************
     Initializing libbeef V0.1.1 with the BEEF-vdW functional.
     Citation: Wellendorff et al., PRB 85, 235149 (2012).
     **************************************************************************


     IMPORTANT: XC functional enforced from input :
     Exchange-correlation      = BEEF-VDW ( 1  4 27 13 2)
     Any further DFT definition will be discarded
     Please, verify this is what you really want


     Subspace diagonalization in iterative solution of the eigenvalue problem:
     a serial algorithm will be used

 
     Parallelization info
     --------------------
     sticks:   dense  smooth     PW     G-vecs:    dense   smooth      PW
     Min          56      22      6                10822     2720     428
     Max          57      23      7                10838     2771     451
     Sum        3595    1417    421               693331   175275   28179
 


     bravais-lattice index     =            0
     lattice parameter (alat)  =       1.8897  a.u.
     unit-cell volume          =    5827.3093 (a.u.)^3
     number of atoms/cell      =           12
     number of atomic types    =            2
     number of electrons       =       156.00
     number of Kohn-Sham states=          108
     kinetic-energy cutoff     =      36.7493  Ry
     charge density cutoff     =     367.4932  Ry
     convergence threshold     =      1.0E-06
     mixing beta               =       0.1000
     number of iterations used =           10  plain     mixing
     Exchange-correlation      = BEEF-VDW ( 1  4 27 13 2)
     nstep                     =           50


     celldm(1)=   1.889726  celldm(2)=   0.000000  celldm(3)=   0.000000
     celldm(4)=   0.000000  celldm(5)=   0.000000  celldm(6)=   0.000000

     crystal axes: (cart. coord. in units of alat)
               a(1) = (   6.297543   0.000000   0.000000 )  
               a(2) = (  -3.148772   5.453833   0.000000 )  
               a(3) = (   0.000000   0.000000  25.141923 )  

     reciprocal axes: (cart. coord. in units 2 pi/alat)
               b(1) = (  0.158792  0.091679  0.000000 )  
               b(2) = (  0.000000  0.183357  0.000000 )  
               b(3) = (  0.000000  0.000000  0.039774 )  


     PseudoPot. # 1 for In read from file:
     /afs/slac.stanford.edu/u/if/mamunm/psp/gbrv1.5pbe/In.UPF
     MD5 check sum: 90777abd96fbb83f2e67db2a40c566b9
     Pseudo is Ultrasoft + core correction, Zval = 13.0
     Generated by new atomic code, or converted to UPF format
     Using radial grid of  889 points,  6 beta functions with: 
                l(1) =   0
                l(2) =   0
                l(3) =   1
                l(4) =   1
                l(5) =   2
                l(6) =   2
     Q(r) pseudized with  6 coefficients,  rinner =    1.400   1.400   1.400
                                                       1.400   1.400

     PseudoPot. # 2 for Nb read from file:
     /afs/slac.stanford.edu/u/if/mamunm/psp/gbrv1.5pbe/Nb.UPF
     MD5 check sum: 573aab8a2fa660278ed4a62cd769473f
     Pseudo is Ultrasoft + core correction, Zval = 13.0
     Generated by new atomic code, or converted to UPF format
     Using radial grid of  887 points,  6 beta functions with: 
                l(1) =   0
                l(2) =   0
                l(3) =   1
                l(4) =   1
                l(5) =   2
                l(6) =   2
     Q(r) pseudized with  6 coefficients,  rinner =    1.000   1.000   1.000
                                                       1.000   1.000

     vdW kernel table read from file vdW_kernel_table
     MD5 check sum: 095c7af220d748ca6e76c0b4c6cfb241

     atomic species   valence    mass     pseudopotential
        In1           13.00   114.81800     In( 1.00)
        Nb1           13.00    92.90637     Nb( 1.00)

     No symmetry found



   Cartesian axes

     site n.     atom                  positions (alat units)
         1           In1 tau(   1) = (   0.0000000   0.0000000  10.0000000  )
         2           In1 tau(   2) = (  -1.5743859   2.7269163  10.0000000  )
         3           In1 tau(   3) = (   1.5743859   2.7269163  10.0000000  )
         4           Nb1 tau(   4) = (   3.1487717   0.0000000  10.0000000  )
         5           In1 tau(   5) = (   3.1487717   1.8179442  12.5709614  )
         6           In1 tau(   6) = (   1.5743859   4.5448605  12.5709614  )
         7           In1 tau(   7) = (  -1.5743859   4.5448605  12.5709614  )
         8           Nb1 tau(   8) = (   0.0000000   1.8179442  12.5709614  )
         9           In1 tau(   9) = (   0.0000006   3.6184079  15.2237027  )
        10           In1 tau(  10) = (   1.5592377   0.9176977  15.2237210  )
        11           In1 tau(  11) = (   4.7383055   0.9176994  15.2237225  )
        12           Nb1 tau(  12) = (   3.1487716   3.6358513  14.9323957  )

     number of k points=    20  Fermi-Dirac smearing, width (Ry)=  0.0110
                       cart. coord. in units 2pi/alat
        k(    1) = (   0.0000000   0.0000000   0.0000000), wk =   0.0555556
        k(    2) = (   0.0000000   0.0305595   0.0000000), wk =   0.1111111
        k(    3) = (   0.0000000   0.0611191   0.0000000), wk =   0.1111111
        k(    4) = (   0.0000000  -0.0916786   0.0000000), wk =   0.0555556
        k(    5) = (   0.0264653   0.0152798   0.0000000), wk =   0.1111111
        k(    6) = (   0.0264653   0.0458393   0.0000000), wk =   0.1111111
        k(    7) = (   0.0264653   0.0763989   0.0000000), wk =   0.1111111
        k(    8) = (   0.0264653  -0.0763989   0.0000000), wk =   0.1111111
        k(    9) = (   0.0264653  -0.0458393   0.0000000), wk =   0.1111111
        k(   10) = (   0.0264653  -0.0152798   0.0000000), wk =   0.1111111
        k(   11) = (   0.0529307   0.0305595   0.0000000), wk =   0.1111111
        k(   12) = (   0.0529307   0.0611191   0.0000000), wk =   0.1111111
        k(   13) = (   0.0529307   0.0916786   0.0000000), wk =   0.1111111
        k(   14) = (   0.0529307  -0.0611191   0.0000000), wk =   0.1111111
        k(   15) = (   0.0529307  -0.0305595   0.0000000), wk =   0.1111111
        k(   16) = (   0.0529307   0.0000000   0.0000000), wk =   0.1111111
        k(   17) = (  -0.0793960  -0.0458393   0.0000000), wk =   0.0555556
        k(   18) = (  -0.0793960  -0.0152798   0.0000000), wk =   0.1111111
        k(   19) = (  -0.0793960   0.0152798   0.0000000), wk =   0.1111111
        k(   20) = (  -0.0793960  -0.1375180   0.0000000), wk =   0.0555556

     Dense  grid:   693331 G-vectors     FFT dimensions: (  75,  75, 300)

     Smooth grid:   175275 G-vectors     FFT dimensions: (  45,  45, 192)

     Largest allocated arrays     est. size (Mb)     dimensions
        Kohn-Sham Wavefunctions         0.57 Mb     (     347,  108)
        NL pseudopotentials             1.14 Mb     (     347,  216)
        Each V/rho on FFT grid          0.43 Mb     (   28125)
        Each G-vector array             0.08 Mb     (   10830)
        G-vector shells                 0.04 Mb     (    5346)
     Largest temporary arrays     est. size (Mb)     dimensions
        Auxiliary wavefunctions         2.29 Mb     (     347,  432)
        Each subspace H/S matrix        2.85 Mb     (     432,  432)
        Each <psi_i|beta_j> matrix      0.36 Mb     (     216,  108)
        Arrays for rho mixing           4.29 Mb     (   28125,   10)

     Initial potential from superposition of free atoms
     Check: negative starting charge=   -0.003158

     starting charge  142.49180, renormalised to  156.00000

     negative rho (up, down):  3.457E-03 0.000E+00


     ************************************************************************
     *
     * You are using vdW-DF for exchange-correlation in this calculation.
     * Please cite the following three references that made this development
     * possible:
     *
     *   M. Dion, H. Rydberg, E. Schroder, D. C. Langreth, and
     *   B. I. Lundqvist, Phys. Rev. Lett. 92, 246401 (2004).
     *
     *   T. Thonhauser, V. R. Cooper, S. Li, A. Puzder, P. Hyldgaard, and
     *   D. C. Langreth, Phys. Rev. B 76, 125112 (2007).
     *
     *   G. Roman-Perez and J. M. Soler, Phys. Rev. Lett. 103, 096102 (2009).
     *
     *
     * If you are using vdW-DF2, please also cite:
     *
     *   K. Lee, E. D. Murray, L. Kong, B. I. Lundqvist, and
     *   D. C. Langreth, Phys. Rev. B 82, 081101(R) (2010).
     *
     *
     * If you are calculating the stress with vdW-DF, please also cite:
     *
     *   R. Sabatini, E. Kucukbenli, B. Kolb, T. Thonhauser, and
     *   S. de Gironcoli, J. Phys.: Condens. Matter 24, 424209 (2012).
     *
     ************************************************************************

     Carrying out vdW-DF run using the following parameters:

     Nqs =      20    Nr_points =    1024   r_max =   100.000
     q_mesh =
               0.00001000     0.04494208     0.09755937     0.15916263
               0.23128650     0.31572767     0.41458969     0.53033537
               0.66584808     0.82450364     1.01025438     1.22772762
               1.48234092     1.78043706     2.12944203     2.53805004
               3.01644009     3.57652955     4.23227104     5.00000000

     Gradients computed in reciprocal space

     ************************************************************************


 
     Adding external electric field

     Computed dipole along edir(3) : 
        Dipole                0.6768 Ry au,          1.7203 Debye
        Dipole field          0.0015 Ry au
 
        Potential amp.       -0.1352 Ry
        Total length         46.3236 bohr
 
     Starting wfc are  120 randomized atomic wfcs

     total cpu time spent up to now is       24.8 secs

     per-process dynamical memory:    41.5 Mb

     Self-consistent Calculation

     iteration #  1     ecut=    36.75 Ry     beta=0.10
     Davidson diagonalization with overlap
     ethr =  1.00E-02,  avg # of iterations =  7.5
 
     Adding external electric field

     Computed dipole along edir(3) : 
        Dipole               -7.0027 Ry au,        -17.7991 Debye
        Dipole field         -0.0151 Ry au
 
        Potential amp.        1.3991 Ry
        Total length         46.3236 bohr
 

     total cpu time spent up to now is      138.5 secs

     total energy              =   -1565.76371582 Ry
     Harris-Foulkes estimate   =   -1578.09085311 Ry
     estimated scf accuracy    <      70.65340421 Ry

     iteration #  2     ecut=    36.75 Ry     beta=0.10
     Davidson diagonalization with overlap
     ethr =  1.00E-02,  avg # of iterations =  4.1
 
     Adding external electric field

     Computed dipole along edir(3) : 
        Dipole               -1.6779 Ry au,         -4.2648 Debye
        Dipole field         -0.0036 Ry au
 
        Potential amp.        0.3352 Ry
        Total length         46.3236 bohr
 

     total cpu time spent up to now is      207.4 secs

     total energy              =   -1567.14335540 Ry
     Harris-Foulkes estimate   =   -1576.70560945 Ry
     estimated scf accuracy    <     134.02882072 Ry

     iteration #  3     ecut=    36.75 Ry     beta=0.10
     Davidson diagonalization with overlap
     ethr =  1.00E-02,  avg # of iterations =  3.5
 
     Adding external electric field

     Computed dipole along edir(3) : 
        Dipole               -1.9796 Ry au,         -5.0316 Debye
        Dipole field         -0.0043 Ry au
 
        Potential amp.        0.3955 Ry
        Total length         46.3236 bohr
 

     total cpu time spent up to now is      274.6 secs

     total energy              =   -1570.46447785 Ry
     Harris-Foulkes estimate   =   -1572.80986894 Ry
     estimated scf accuracy    <      20.76494842 Ry

     iteration #  4     ecut=    36.75 Ry     beta=0.10
     Davidson diagonalization with overlap
     ethr =  1.00E-02,  avg # of iterations =  1.0
 
     Adding external electric field

     Computed dipole along edir(3) : 
        Dipole               -1.2779 Ry au,         -3.2480 Debye
        Dipole field         -0.0028 Ry au
 
        Potential amp.        0.2553 Ry
        Total length         46.3236 bohr
 

     total cpu time spent up to now is      327.4 secs

     total energy              =   -1568.41406245 Ry
     Harris-Foulkes estimate   =   -1570.89921175 Ry
     estimated scf accuracy    <       7.24740526 Ry

     iteration #  5     ecut=    36.75 Ry     beta=0.10
     Davidson diagonalization with overlap
     ethr =  4.65E-03,  avg # of iterations =  2.1
 
     Adding external electric field

     Computed dipole along edir(3) : 
        Dipole               -1.0394 Ry au,         -2.6419 Debye
        Dipole field         -0.0022 Ry au
 
        Potential amp.        0.2077 Ry
        Total length         46.3236 bohr
 

     total cpu time spent up to now is      383.7 secs

     total energy              =   -1568.64957348 Ry
     Harris-Foulkes estimate   =   -1569.08331792 Ry
     estimated scf accuracy    <       2.87439552 Ry

     iteration #  6     ecut=    36.75 Ry     beta=0.10
     Davidson diagonalization with overlap
     ethr =  1.84E-03,  avg # of iterations =  1.4
 
     Adding external electric field

     Computed dipole along edir(3) : 
        Dipole               -0.7912 Ry au,         -2.0109 Debye
        Dipole field         -0.0017 Ry au
 
        Potential amp.        0.1581 Ry
        Total length         46.3236 bohr
 

     total cpu time spent up to now is      436.5 secs

     total energy              =   -1568.36685000 Ry
     Harris-Foulkes estimate   =   -1568.83488186 Ry
     estimated scf accuracy    <       1.73441883 Ry

     iteration #  7     ecut=    36.75 Ry     beta=0.10
     Davidson diagonalization with overlap
     ethr =  1.11E-03,  avg # of iterations =  1.6
 
     Adding external electric field

     Computed dipole along edir(3) : 
        Dipole               -0.5475 Ry au,         -1.3916 Debye
        Dipole field         -0.0012 Ry au
 
        Potential amp.        0.1094 Ry
        Total length         46.3236 bohr
 

     total cpu time spent up to now is      491.7 secs

     total energy              =   -1568.38780143 Ry
     Harris-Foulkes estimate   =   -1568.53195210 Ry
     estimated scf accuracy    <       0.97794087 Ry

     iteration #  8     ecut=    36.75 Ry     beta=0.10
     Davidson diagonalization with overlap
     ethr =  6.27E-04,  avg # of iterations =  4.7
 
     Adding external electric field

     Computed dipole along edir(3) : 
        Dipole               -0.4534 Ry au,         -1.1525 Debye
        Dipole field         -0.0010 Ry au
 
        Potential amp.        0.0906 Ry
        Total length         46.3236 bohr
 

     total cpu time spent up to now is      551.3 secs

     total energy              =   -1568.41883990 Ry
     Harris-Foulkes estimate   =   -1568.44654850 Ry
     estimated scf accuracy    <       0.27263367 Ry

     iteration #  9     ecut=    36.75 Ry     beta=0.10
     Davidson diagonalization with overlap
     ethr =  1.75E-04,  avg # of iterations =  5.0

     negative rho (up, down):  4.029E-05 0.000E+00
 
     Adding external electric field

     Computed dipole along edir(3) : 
        Dipole               -0.1696 Ry au,         -0.4310 Debye
        Dipole field         -0.0004 Ry au
 
        Potential amp.        0.0339 Ry
        Total length         46.3236 bohr
 

     total cpu time spent up to now is      612.3 secs

     total energy              =   -1568.37294557 Ry
     Harris-Foulkes estimate   =   -1568.43867848 Ry
     estimated scf accuracy    <       0.24965029 Ry

     iteration # 10     ecut=    36.75 Ry     beta=0.10
     Davidson diagonalization with overlap
     ethr =  1.60E-04,  avg # of iterations =  4.4

     negative rho (up, down):  2.974E-04 0.000E+00
 
     Adding external electric field

     Computed dipole along edir(3) : 
        Dipole               -0.1162 Ry au,         -0.2953 Debye
        Dipole field         -0.0003 Ry au
 
        Potential amp.        0.0232 Ry
        Total length         46.3236 bohr
 

     total cpu time spent up to now is      672.8 secs

     total energy              =   -1568.41012604 Ry
     Harris-Foulkes estimate   =   -1568.43188883 Ry
     estimated scf accuracy    <       0.40760300 Ry

     iteration # 11     ecut=    36.75 Ry     beta=0.10
     Davidson diagonalization with overlap
     ethr =  1.60E-04,  avg # of iterations =  1.0

     negative rho (up, down):  1.338E-03 0.000E+00
 
     Adding external electric field

     Computed dipole along edir(3) : 
        Dipole               -0.0523 Ry au,         -0.1328 Debye
        Dipole field         -0.0001 Ry au
 
        Potential amp.        0.0104 Ry
        Total length         46.3236 bohr
 

     total cpu time spent up to now is      725.8 secs

     total energy              =   -1568.40686772 Ry
     Harris-Foulkes estimate   =   -1568.41570581 Ry
     estimated scf accuracy    <       0.11971978 Ry

     iteration # 12     ecut=    36.75 Ry     beta=0.10
     Davidson diagonalization with overlap
     ethr =  7.67E-05,  avg # of iterations =  1.0

     negative rho (up, down):  1.455E-03 0.000E+00
 
     Adding external electric field

     Computed dipole along edir(3) : 
        Dipole               -0.0335 Ry au,         -0.0853 Debye
        Dipole field         -0.0001 Ry au
 
        Potential amp.        0.0067 Ry
        Total length         46.3236 bohr
 

     total cpu time spent up to now is      781.0 secs

     total energy              =   -1568.41014040 Ry
     Harris-Foulkes estimate   =   -1568.41059746 Ry
     estimated scf accuracy    <       0.00444802 Ry

     iteration # 13     ecut=    36.75 Ry     beta=0.10
     Davidson diagonalization with overlap
     ethr =  2.85E-06,  avg # of iterations =  7.1

     negative rho (up, down):  2.020E-03 0.000E+00
 
     Adding external electric field

     Computed dipole along edir(3) : 
        Dipole               -0.0046 Ry au,         -0.0117 Debye
        Dipole field         -0.0000 Ry au
 
        Potential amp.        0.0009 Ry
        Total length         46.3236 bohr
 

     total cpu time spent up to now is      849.2 secs

     total energy              =   -1568.41018397 Ry
     Harris-Foulkes estimate   =   -1568.41030146 Ry
     estimated scf accuracy    <       0.00098807 Ry

     iteration # 14     ecut=    36.75 Ry     beta=0.10
     Davidson diagonalization with overlap
     ethr =  6.33E-07,  avg # of iterations =  4.8

     negative rho (up, down):  2.366E-03 0.000E+00
 
     Adding external electric field

     Computed dipole along edir(3) : 
        Dipole                0.0002 Ry au,          0.0005 Debye
        Dipole field          0.0000 Ry au
 
        Potential amp.       -0.0000 Ry
        Total length         46.3236 bohr
 

     total cpu time spent up to now is      911.2 secs

     total energy              =   -1568.41015795 Ry
     Harris-Foulkes estimate   =   -1568.41033560 Ry
     estimated scf accuracy    <       0.00258277 Ry

     iteration # 15     ecut=    36.75 Ry     beta=0.10
     Davidson diagonalization with overlap
     ethr =  6.33E-07,  avg # of iterations =  1.0

     negative rho (up, down):  2.655E-03 0.000E+00
 
     Adding external electric field

     Computed dipole along edir(3) : 
        Dipole                0.0031 Ry au,          0.0079 Debye
        Dipole field          0.0000 Ry au
 
        Potential amp.       -0.0006 Ry
        Total length         46.3236 bohr
 

     total cpu time spent up to now is      959.1 secs

     total energy              =   -1568.41013165 Ry
     Harris-Foulkes estimate   =   -1568.41021043 Ry
     estimated scf accuracy    <       0.00063008 Ry

     iteration # 16     ecut=    36.75 Ry     beta=0.10
     Davidson diagonalization with overlap
     ethr =  4.04E-07,  avg # of iterations =  2.0

     negative rho (up, down):  2.728E-03 0.000E+00
 
     Adding external electric field

     Computed dipole along edir(3) : 
        Dipole                0.0055 Ry au,          0.0141 Debye
[...]
     5.0254   5.1248   5.2960   5.4887   5.6006   5.7695   6.1051   6.1753
     6.3099   6.4740   6.5339   6.6400

          k = 0.0529 0.0917 0.0000 ( 21876 PWs)   bands (ev):

   -54.7289 -54.6246 -54.5382 -30.8221 -30.6776 -30.6776 -30.6398 -30.6394
   -30.6392 -30.5741 -30.5741 -30.5255 -14.1345 -14.0866 -14.0787 -14.0785
   -14.0652 -14.0014 -13.9891 -13.9833 -13.9802 -13.9530 -13.9509 -13.9438
   -13.9231 -13.9121 -13.8933 -13.8814 -13.8763 -13.8565 -13.8376 -13.8368
   -13.8306 -13.8124 -13.8057 -13.7973 -13.7927 -13.7879 -13.7783 -13.7747
   -13.7548 -13.7372 -13.7317 -13.7236 -13.7058 -13.6976 -13.6973 -13.6823
   -13.6776 -13.6768 -13.6564 -13.6262 -13.6091 -13.5928 -13.5807 -13.5787
   -13.5760  -6.7743  -6.4837  -6.0078  -5.1641  -4.7915  -4.6205  -3.4115
    -3.0447  -2.9485  -1.2027  -1.1210  -0.7392  -0.6126  -0.3788  -0.1597
    -0.1173  -0.0474   0.0537   0.5260   0.9259   1.2271   1.2523   1.3990
     1.5220   1.6957   1.7975   2.0611   2.1185   2.1558   2.5452   2.8124
     2.9876   3.3472   3.4467   3.8005   4.1318   4.2444   4.2622   4.9386
     5.5666   5.5743   5.6230   5.8919   5.9049   6.0690   6.2265   6.2459
     6.4351   6.5498   6.6248   6.6327

          k = 0.0529-0.0611 0.0000 ( 21887 PWs)   bands (ev):

   -54.7289 -54.6246 -54.5382 -30.8221 -30.6778 -30.6773 -30.6399 -30.6394
   -30.6391 -30.5743 -30.5738 -30.5255 -14.1758 -14.1153 -14.1082 -14.0587
   -14.0457 -14.0299 -14.0006 -13.9929 -13.9830 -13.9679 -13.9521 -13.9428
   -13.9240 -13.9093 -13.8909 -13.8841 -13.8653 -13.8614 -13.8548 -13.8341
   -13.8266 -13.8173 -13.8051 -13.7916 -13.7860 -13.7826 -13.7707 -13.7621
   -13.7494 -13.7417 -13.7312 -13.7241 -13.7159 -13.7042 -13.6898 -13.6845
   -13.6721 -13.6692 -13.6457 -13.6203 -13.6176 -13.5900 -13.5792 -13.5706
   -13.5057  -7.2066  -6.3613  -5.6480  -5.3312  -4.6849  -4.0938  -3.7433
    -3.0286  -2.2877  -1.8814  -1.1666  -0.9604  -0.4507  -0.4229  -0.3063
    -0.1839  -0.0319   0.2085   0.5129   0.7501   1.1225   1.2521   1.4364
     1.6432   1.7061   1.8427   1.9193   2.1334   2.2545   2.5308   2.7507
     3.1619   3.2895   3.7049   3.8870   4.1518   4.3535   4.4469   4.8417
     5.0254   5.1248   5.2960   5.4887   5.6006   5.7695   6.1051   6.1753
     6.3099   6.4740   6.5339   6.6400

          k = 0.0529-0.0306 0.0000 ( 21944 PWs)   bands (ev):

   -54.7289 -54.6246 -54.5382 -30.8221 -30.6776 -30.6770 -30.6398 -30.6392
   -30.6389 -30.5742 -30.5735 -30.5255 -14.2091 -14.1424 -14.1357 -14.0913
   -14.0909 -14.0432 -14.0045 -13.9945 -13.9909 -13.9731 -13.9484 -13.9481
   -13.9394 -13.9327 -13.9137 -13.9010 -13.8774 -13.8629 -13.8507 -13.8295
   -13.8280 -13.8279 -13.8044 -13.8031 -13.7805 -13.7748 -13.7544 -13.7497
   -13.7488 -13.7275 -13.7231 -13.7132 -13.7111 -13.6932 -13.6806 -13.6626
   -13.6624 -13.6443 -13.6244 -13.6166 -13.5909 -13.5733 -13.5661 -13.5521
   -13.4639  -7.6244  -6.2862  -5.6707  -4.7331  -4.4314  -4.1220  -3.5045
    -2.9181  -2.1280  -1.6741  -1.5220  -0.9924  -0.7025  -0.6404  -0.2767
    -0.1358   0.0725   0.1868   0.3442   0.3775   0.9876   1.1621   1.4218
     1.5073   1.5890   1.9195   2.0014   2.1765   2.3323   2.4428   2.8274
     2.9725   3.2674   3.5591   3.8103   3.9035   4.2412   4.5493   4.6727
     4.9783   5.2125   5.2977   5.3911   5.4576   5.8442   5.9952   6.1229
     6.2618   6.3494   6.5507   6.6460

          k = 0.0529 0.0000 0.0000 ( 21963 PWs)   bands (ev):

   -54.7289 -54.6246 -54.5382 -30.8221 -30.6774 -30.6770 -30.6398 -30.6391
   -30.6389 -30.5739 -30.5735 -30.5255 -14.2045 -14.1768 -14.1461 -14.1104
   -14.0948 -14.0359 -14.0195 -14.0123 -13.9936 -13.9809 -13.9652 -13.9575
   -13.9478 -13.9312 -13.9186 -13.9001 -13.8752 -13.8608 -13.8537 -13.8368
   -13.8314 -13.8246 -13.8160 -13.8101 -13.7880 -13.7669 -13.7484 -13.7387
   -13.7365 -13.7285 -13.7196 -13.7122 -13.7036 -13.6794 -13.6681 -13.6613
   -13.6460 -13.6226 -13.6158 -13.6118 -13.5931 -13.5629 -13.5541 -13.5396
   -13.4586  -7.7710  -6.3592  -5.2130  -5.0628  -4.3447  -3.8242  -3.5636
    -2.6173  -2.3780  -1.5182  -1.3422  -1.0216  -0.7208  -0.6450  -0.2837
    -0.2688   0.0076   0.1332   0.3717   0.4526   0.8572   0.9802   1.2331
     1.5160   1.5988   1.6878   1.9801   2.0197   2.1055   2.5078   2.8125
     2.8922   3.4054   3.5284   3.7869   4.0606   4.1433   4.5978   4.6132
     4.8391   5.0815   5.2742   5.3697   5.5166   5.9036   5.9896   6.1731
     6.2402   6.3321   6.4835   6.8794

          k =-0.0794-0.0458 0.0000 ( 21884 PWs)   bands (ev):

   -54.7289 -54.6246 -54.5382 -30.8221 -30.6779 -30.6771 -30.6399 -30.6394
   -30.6390 -30.5745 -30.5736 -30.5255 -14.1996 -14.1084 -14.0825 -14.0703
   -14.0558 -14.0181 -14.0006 -13.9898 -13.9890 -13.9770 -13.9478 -13.9279
   -13.9167 -13.9102 -13.8904 -13.8872 -13.8600 -13.8566 -13.8469 -13.8296
   -13.8150 -13.8131 -13.8008 -13.7882 -13.7868 -13.7808 -13.7756 -13.7709
   -13.7666 -13.7440 -13.7397 -13.7221 -13.7127 -13.6969 -13.6956 -13.6877
   -13.6813 -13.6757 -13.6521 -13.6517 -13.6049 -13.6010 -13.5823 -13.5593
   -13.4803  -7.0601  -6.7005  -5.4470  -5.3748  -4.4493  -4.2050  -3.7105
    -2.9527  -2.4256  -1.8037  -1.4230  -1.0729  -0.6527  -0.4456  -0.3297
    -0.1878  -0.1094   0.2785   0.5130   0.9051   1.1136   1.3935   1.6083
     1.6558   1.7818   1.9460   2.0425   2.0987   2.4451   2.4820   3.2382
     3.2840   3.5045   3.6602   3.7798   4.0073   4.2240   4.3477   4.4443
     4.6144   4.9693   5.3279   5.4547   5.4806   5.6888   5.9107   5.9116
     6.0772   6.4572   6.4692   6.4868

          k =-0.0794-0.0153 0.0000 ( 21887 PWs)   bands (ev):

   -54.7289 -54.6246 -54.5382 -30.8221 -30.6778 -30.6773 -30.6399 -30.6394
   -30.6391 -30.5743 -30.5738 -30.5255 -14.1758 -14.1153 -14.1082 -14.0587
   -14.0457 -14.0299 -14.0006 -13.9928 -13.9830 -13.9679 -13.9521 -13.9428
   -13.9240 -13.9093 -13.8909 -13.8841 -13.8653 -13.8614 -13.8548 -13.8341
   -13.8266 -13.8173 -13.8050 -13.7916 -13.7860 -13.7826 -13.7707 -13.7621
   -13.7494 -13.7417 -13.7312 -13.7241 -13.7159 -13.7042 -13.6898 -13.6845
   -13.6721 -13.6691 -13.6457 -13.6203 -13.6176 -13.5900 -13.5792 -13.5706
   -13.5057  -7.2066  -6.3613  -5.6480  -5.3312  -4.6849  -4.0938  -3.7433
    -3.0286  -2.2877  -1.8814  -1.1666  -0.9604  -0.4506  -0.4229  -0.3063
    -0.1839  -0.0319   0.2085   0.5129   0.7501   1.1225   1.2521   1.4364
     1.6432   1.7061   1.8427   1.9193   2.1334   2.2546   2.5308   2.7507
     3.1619   3.2895   3.7049   3.8870   4.1518   4.3535   4.4468   4.8418
     5.0254   5.1248   5.2960   5.4887   5.6006   5.7695   6.1051   6.1753
     6.3099   6.4739   6.5339   6.6400

          k =-0.0794 0.0153 0.0000 ( 21887 PWs)   bands (ev):

   -54.7289 -54.6246 -54.5382 -30.8221 -30.6778 -30.6773 -30.6399 -30.6394
   -30.6391 -30.5743 -30.5738 -30.5255 -14.1758 -14.1153 -14.1082 -14.0587
   -14.0457 -14.0299 -14.0006 -13.9928 -13.9830 -13.9679 -13.9521 -13.9428
   -13.9240 -13.9093 -13.8909 -13.8841 -13.8653 -13.8614 -13.8548 -13.8341
   -13.8266 -13.8173 -13.8050 -13.7916 -13.7860 -13.7826 -13.7707 -13.7621
   -13.7494 -13.7417 -13.7312 -13.7241 -13.7159 -13.7042 -13.6898 -13.6845
   -13.6721 -13.6692 -13.6457 -13.6203 -13.6176 -13.5900 -13.5792 -13.5706
   -13.5057  -7.2066  -6.3613  -5.6480  -5.3312  -4.6849  -4.0938  -3.7433
    -3.0286  -2.2877  -1.8814  -1.1666  -0.9604  -0.4506  -0.4229  -0.3063
    -0.1839  -0.0319   0.2085   0.5129   0.7501   1.1225   1.2521   1.4364
     1.6432   1.7061   1.8427   1.9193   2.1334   2.2546   2.5308   2.7507
     3.1619   3.2895   3.7049   3.8870   4.1518   4.3535   4.4468   4.8418
     5.0254   5.1248   5.2960   5.4887   5.6006   5.7695   6.1051   6.1753
     6.3099   6.4739   6.5339   6.6400

          k =-0.0794-0.1375 0.0000 ( 21884 PWs)   bands (ev):

   -54.7289 -54.6246 -54.5382 -30.8221 -30.6779 -30.6771 -30.6399 -30.6394
   -30.6390 -30.5745 -30.5736 -30.5255 -14.1996 -14.1084 -14.0825 -14.0703
   -14.0558 -14.0181 -14.0006 -13.9898 -13.9890 -13.9770 -13.9478 -13.9279
   -13.9167 -13.9102 -13.8904 -13.8872 -13.8600 -13.8566 -13.8469 -13.8296
   -13.8150 -13.8131 -13.8008 -13.7882 -13.7868 -13.7808 -13.7756 -13.7709
   -13.7666 -13.7440 -13.7397 -13.7221 -13.7127 -13.6969 -13.6956 -13.6877
   -13.6813 -13.6757 -13.6521 -13.6517 -13.6049 -13.6010 -13.5823 -13.5593
   -13.4803  -7.0601  -6.7005  -5.4470  -5.3748  -4.4493  -4.2050  -3.7105
    -2.9527  -2.4256  -1.8037  -1.4230  -1.0729  -0.6527  -0.4456  -0.3297
    -0.1878  -0.1094   0.2785   0.5130   0.9051   1.1136   1.3935   1.6083
     1.6558   1.7818   1.9460   2.0425   2.0986   2.4451   2.4820   3.2382
     3.2840   3.5045   3.6602   3.7798   4.0073   4.2240   4.3477   4.4443
     4.6144   4.9693   5.3279   5.4547   5.4806   5.6888   5.9107   5.9116
     6.0772   6.4572   6.4692   6.4868

     the Fermi energy is     1.0214 ev

!    total energy              =   -1568.42035996 Ry
     Harris-Foulkes estimate   =   -1568.42035593 Ry
     estimated scf accuracy    <       0.00000055 Ry

     The total energy is the sum of the following terms:

     one-electron contribution =  -10027.81897921 Ry
     hartree contribution      =    5071.37204193 Ry
     xc contribution           =    -409.29483358 Ry
     ewald contribution        =    3797.36825284 Ry
     electric field correction =       0.00000344 Ry
     smearing contrib. (-TS)   =      -0.04684537 Ry

     convergence has been achieved in  20 iterations
 
 BEEF-vdW xc energy contributions
           1 :   -357.608231334663     
           2 :    326.921952846226     
           3 :   -274.944332490164     
           4 :    216.114441612038     
           5 :   -163.804438995159     
           6 :    125.464287854472     
           7 :   -101.138553699943     
           8 :    85.5402180520393     
           9 :   -72.1240352702052     
          10 :    56.7824939826067     
          11 :   -39.3608777025358     
          12 :    22.6258873720689     
          13 :   -9.79466242421984     
          14 :    2.32383489161350     
          15 :   0.793525563230901     
          16 :   -2.10041809799407     
          17 :    3.97725246977097     
          18 :   -7.34456840200005     
          19 :    11.4748546517619     
          20 :   -14.8277718492491     
          21 :    16.2104709753149     
          22 :   -15.5008975996174     
          23 :    13.5739136782859     
          24 :   -11.6328978491099     
          25 :    10.4726291173678     
          26 :   -10.1416978799601     
          27 :    10.1239279790436     
          28 :   -9.81320569126149     
          29 :    8.92039409560311     
          30 :   -7.58109723643963     
          31 :   -33.6013938749884     
          32 :   -24.6411208207780     

     Forces acting on atoms (Ry/au):


     negative rho (up, down):  2.697E-03 0.000E+00
     atom    1 type  1   force =     0.00000022    0.00874589   -0.03180692
     atom    2 type  1   force =     0.00758009   -0.00438190   -0.03180325
     atom    3 type  1   force =    -0.00758002   -0.00438181   -0.03180325
     atom    4 type  2   force =     0.00000022    0.00000514    0.08747559
     atom    5 type  1   force =    -0.00000017   -0.01475299   -0.00138897
     atom    6 type  1   force =    -0.01277164    0.00736553   -0.00138261
     atom    7 type  1   force =     0.01277141    0.00736570   -0.00138257
     atom    8 type  2   force =    -0.00000020    0.00000635    0.01239978
     atom    9 type  1   force =     0.00000059    0.00005939    0.00050953
     atom   10 type  1   force =     0.00004506   -0.00001948    0.00050695
     atom   11 type  1   force =    -0.00004562   -0.00002086    0.00050822
     atom   12 type  2   force =     0.00000005    0.00000905   -0.00183250

     Total force =     0.108316     Total SCF correction =     0.002142


     entering subroutine stress ...


     negative rho (up, down):  2.697E-03 0.000E+00
          total   stress  (Ry/bohr**3)                   (kbar)     P=  -14.49
  -0.00014881  -0.00000000   0.00000000        -21.89     -0.00      0.00
  -0.00000000  -0.00014876  -0.00000001         -0.00    -21.88     -0.00
   0.00000000  -0.00000001   0.00000202          0.00     -0.00      0.30

 !ASE

     Writing output data file calc.save
 
     init_run     :     17.01s CPU     24.16s WALL (       1 calls)
     electrons    :    844.53s CPU   1339.05s WALL (       1 calls)
     forces       :      3.17s CPU      4.13s WALL (       1 calls)
     stress       :      6.52s CPU      7.90s WALL (       1 calls)

     Called by init_run:
     wfcinit      :     14.42s CPU     20.93s WALL (       1 calls)
     potinit      :      1.58s CPU      2.10s WALL (       1 calls)

     Called by electrons:
     c_bands      :    659.85s CPU   1043.77s WALL (      20 calls)
     sum_band     :    109.52s CPU    185.17s WALL (      20 calls)
     v_of_rho     :     26.69s CPU     39.55s WALL (      21 calls)
     newd         :      6.25s CPU      6.77s WALL (      21 calls)
     mix_rho      :      1.07s CPU      1.72s WALL (      20 calls)
     vdW_energy   :      1.98s CPU      1.99s WALL (      57 calls)
     vdW_ffts     :     46.69s CPU     70.70s WALL (     116 calls)
     vdW_v        :      7.69s CPU     12.00s WALL (      57 calls)

     Called by c_bands:
     init_us_2    :      0.53s CPU      0.58s WALL (     860 calls)
     cegterg      :    653.02s CPU   1035.14s WALL (     400 calls)

     Called by *egterg:
     h_psi        :    500.78s CPU    859.59s WALL (    1899 calls)
     s_psi        :      7.08s CPU      7.21s WALL (    1899 calls)
     g_psi        :      0.43s CPU      0.41s WALL (    1479 calls)
     cdiaghg      :     92.11s CPU     97.84s WALL (    1879 calls)

     Called by h_psi:
     add_vuspsi   :      7.49s CPU      7.54s WALL (    1899 calls)

     General routines
     calbec       :     23.11s CPU     32.02s WALL (    2339 calls)
     fft          :     68.78s CPU    106.16s WALL (    3489 calls)
     ffts         :      0.22s CPU      0.35s WALL (      41 calls)
     fftw         :    563.64s CPU    987.12s WALL (  248548 calls)
     interpolate  :      0.92s CPU      1.45s WALL (      41 calls)
     davcio       :      0.00s CPU      0.01s WALL (      20 calls)
 
     Parallel routines
     fft_scatter  :    609.25s CPU   1067.39s WALL (  252078 calls)
 
     PWSCF        : 14m32.24s CPU    22m56.94s WALL

 
   This run was terminated on:  15: 9:53  26Dec2018            

=------------------------------------------------------------------------------=
   JOB DONE.
=------------------------------------------------------------------------------=
Job  /afs/slac/g/suncat/bin/suncat-tsmpirun -x LD_LIBRARY_PATH -wdir /scratch/qe109880_matbw pw.x -in pw.inp

TID   HOST_NAME   COMMAND_LINE            STATUS            TERMINATION_TIME
===== ========== ================  =======================  ===================
00000 suncat0027 pw.x -in pw.inp   Done                     12/26/2018 15:09:53
00001 suncat0027 pw.x -in pw.inp   Done                     12/26/2018 15:09:53
00002 suncat0027 pw.x -in pw.inp   Done                     12/26/2018 15:09:53
00003 suncat0027 pw.x -in pw.inp   Done                     12/26/2018 15:09:53
00004 suncat0027 pw.x -in pw.inp   Done                     12/26/2018 15:09:53
00005 suncat0027 pw.x -in pw.inp   Done                     12/26/2018 15:09:53
00006 suncat0027 pw.x -in pw.inp   Done                     12/26/2018 15:09:53
00007 suncat0027 pw.x -in pw.inp   Done                     12/26/2018 15:09:53
00008 suncat0026 pw.x -in pw.inp   Done                     12/26/2018 15:09:53
00009 suncat0026 pw.x -in pw.inp   Done                     12/26/2018 15:09:53
00010 suncat0026 pw.x -in pw.inp   Done                     12/26/2018 15:09:53
00011 suncat0026 pw.x -in pw.inp   Done                     12/26/2018 15:09:53
00012 suncat0026 pw.x -in pw.inp   Done                     12/26/2018 15:09:53
00013 suncat0026 pw.x -in pw.inp   Done                     12/26/2018 15:09:53
00014 suncat0026 pw.x -in pw.inp   Done                     12/26/2018 15:09:53
00015 suncat0026 pw.x -in pw.inp   Done                     12/26/2018 15:09:53
00016 suncat0021 pw.x -in pw.inp   Done                     12/26/2018 15:09:53
00017 suncat0021 pw.x -in pw.inp   Done                     12/26/2018 15:09:53
00018 suncat0021 pw.x -in pw.inp   Done                     12/26/2018 15:09:53
00019 suncat0021 pw.x -in pw.inp   Done                     12/26/2018 15:09:53
00020 suncat0021 pw.x -in pw.inp   Done                     12/26/2018 15:09:53
00021 suncat0021 pw.x -in pw.inp   Done                     12/26/2018 15:09:53
00022 suncat0021 pw.x -in pw.inp   Done                     12/26/2018 15:09:53
00023 suncat0021 pw.x -in pw.inp   Done                     12/26/2018 15:09:53
00024 suncat0191 pw.x -in pw.inp   Done                     12/26/2018 15:09:53
00025 suncat0191 pw.x -in pw.inp   Done                     12/26/2018 15:09:53
00026 suncat0191 pw.x -in pw.inp   Done                     12/26/2018 15:09:53
00027 suncat0191 pw.x -in pw.inp   Done                     12/26/2018 15:09:53
00028 suncat0191 pw.x -in pw.inp   Done                     12/26/2018 15:09:53
00029 suncat0191 pw.x -in pw.inp   Done                     12/26/2018 15:09:53
00030 suncat0191 pw.x -in pw.inp   Done                     12/26/2018 15:09:53
00031 suncat0191 pw.x -in pw.inp   Done                     12/26/2018 15:09:53
00032 suncat0007 pw.x -in pw.inp   Done                     12/26/2018 15:09:53
00033 suncat0007 pw.x -in pw.inp   Done                     12/26/2018 15:09:53
00034 suncat0007 pw.x -in pw.inp   Done                     12/26/2018 15:09:53
00035 suncat0007 pw.x -in pw.inp   Done                     12/26/2018 15:09:53
00036 suncat0007 pw.x -in pw.inp   Done                     12/26/2018 15:09:53
00037 suncat0007 pw.x -in pw.inp   Done                     12/26/2018 15:09:53
00038 suncat0007 pw.x -in pw.inp   Done                     12/26/2018 15:09:53
00039 suncat0007 pw.x -in pw.inp   Done                     12/26/2018 15:09:53
00040 suncat0006 pw.x -in pw.inp   Done                     12/26/2018 15:09:53
00041 suncat0006 pw.x -in pw.inp   Done                     12/26/2018 15:09:53
00042 suncat0006 pw.x -in pw.inp   Done                     12/26/2018 15:09:53
00043 suncat0006 pw.x -in pw.inp   Done                     12/26/2018 15:09:53
00044 suncat0006 pw.x -in pw.inp   Done                     12/26/2018 15:09:53
00045 suncat0006 pw.x -in pw.inp   Done                     12/26/2018 15:09:53
00046 suncat0006 pw.x -in pw.inp   Done                     12/26/2018 15:09:53
00047 suncat0006 pw.x -in pw.inp   Done                     12/26/2018 15:09:53
00048 suncat0005 pw.x -in pw.inp   Done                     12/26/2018 15:09:53
00049 suncat0005 pw.x -in pw.inp   Done                     12/26/2018 15:09:53
00050 suncat0005 pw.x -in pw.inp   Done                     12/26/2018 15:09:53
00051 suncat0005 pw.x -in pw.inp   Done                     12/26/2018 15:09:53
00052 suncat0005 pw.x -in pw.inp   Done                     12/26/2018 15:09:53
00053 suncat0005 pw.x -in pw.inp   Done                     12/26/2018 15:09:53
00054 suncat0005 pw.x -in pw.inp   Done                     12/26/2018 15:09:53
00055 suncat0005 pw.x -in pw.inp   Done                     12/26/2018 15:09:53
00056 suncat0143 pw.x -in pw.inp   Done                     12/26/2018 15:09:53
00057 suncat0143 pw.x -in pw.inp   Done                     12/26/2018 15:09:53
00058 suncat0143 pw.x -in pw.inp   Done                     12/26/2018 15:09:53
00059 suncat0143 pw.x -in pw.inp   Done                     12/26/2018 15:09:53
00060 suncat0143 pw.x -in pw.inp   Done                     12/26/2018 15:09:53
00061 suncat0143 pw.x -in pw.inp   Done                     12/26/2018 15:09:53
00062 suncat0143 pw.x -in pw.inp   Done                     12/26/2018 15:09:53
00063 suncat0143 pw.x -in pw.inp   Done                     12/26/2018 15:09:53
