  python dir          : /u/if/mamunm/src/espresso
  espresso dir        : /nfs/slac/g/suncatfs/sw/espv18/espresso-dynpy-beef/bin
  pseudo dir          : /afs/slac.stanford.edu/u/if/mamunm/psp/gbrv1.5pbe
  ase-espresso py git : GITVERSION



     Program PWSCF v.5.1rc2 (svn rev. 11289) starts on 19Dec2018 at  7: 5:21 

     This program is part of the open-source Quantum ESPRESSO suite
     for quantum simulation of materials; please cite
         "P. Giannozzi et al., J. Phys.:Condens. Matter 21 395502 (2009);
          URL http://www.quantum-espresso.org", 
     in publications or presentations arising from this work. More details at
     http://www.quantum-espresso.org/quote

     Parallel version (MPI), running on    32 processors
     R & G space division:  proc/nbgrp/npool/nimage =      32
     Reading input from pw.inp
     Message from routine read_cards :
     DEPRECATED: no units specified in CELL_PARAMETERS card

     Current dimensions of program PWSCF are:
     Max number of different atomic species (ntypx) = 10
     Max number of k-points (npk) =  40000
     Max angular momentum in pseudopotentials (lmaxx) =  3
     Presently stress not available with electric field


     **************************************************************************
     Initializing libbeef V0.1.1 with the BEEF-vdW functional.
     Citation: Wellendorff et al., PRB 85, 235149 (2012).
     **************************************************************************


     IMPORTANT: XC functional enforced from input :
     Exchange-correlation      = BEEF-VDW ( 1  4 27 13 2)
     Any further DFT definition will be discarded
     Please, verify this is what you really want


     Subspace diagonalization in iterative solution of the eigenvalue problem:
     a serial algorithm will be used

     Found symmetry operation: I + ( -0.5000  0.0000  0.0000)
     This is a supercell, fractional translations are disabled
 
     Parallelization info
     --------------------
     sticks:   dense  smooth     PW     G-vecs:    dense   smooth      PW
     Min          96      38     11                18348     4631     749
     Max          97      39     12                18357     4655     760
     Sum        3097    1237    367               587285   148505   24081
 


     bravais-lattice index     =            0
     lattice parameter (alat)  =       1.8897  a.u.
     unit-cell volume          =    4937.2427 (a.u.)^3
     number of atoms/cell      =           12
     number of atomic types    =            2
     number of electrons       =       162.00
     number of Kohn-Sham states=          111
     kinetic-energy cutoff     =      36.7493  Ry
     charge density cutoff     =     367.4932  Ry
     convergence threshold     =      1.0E-06
     mixing beta               =       0.1000
     number of iterations used =           10  plain     mixing
     Exchange-correlation      = BEEF-VDW ( 1  4 27 13 2)
     nstep                     =           50


     celldm(1)=   1.889726  celldm(2)=   0.000000  celldm(3)=   0.000000
     celldm(4)=   0.000000  celldm(5)=   0.000000  celldm(6)=   0.000000

     crystal axes: (cart. coord. in units of alat)
               a(1) = (   5.448873   0.000000   0.000000 )  
               a(2) = (  -2.724436   5.432928   0.000000 )  
               a(3) = (   0.000000   0.000000  24.714237 )  

     reciprocal axes: (cart. coord. in units 2 pi/alat)
               b(1) = (  0.183524  0.092031  0.000000 )  
               b(2) = (  0.000000  0.184063  0.000000 )  
               b(3) = (  0.000000  0.000000  0.040463 )  


     PseudoPot. # 1 for Ta read from file:
     /afs/slac.stanford.edu/u/if/mamunm/psp/gbrv1.5pbe/Ta.UPF
     MD5 check sum: f8bbe9446314a3b8ea5d9f3e3836c939
     Pseudo is Ultrasoft + core correction, Zval = 13.0
     Generated by new atomic code, or converted to UPF format
     Using radial grid of  921 points,  7 beta functions with: 
                l(1) =   0
                l(2) =   0
                l(3) =   1
                l(4) =   1
                l(5) =   2
                l(6) =   2
                l(7) =   3
     Q(r) pseudized with  6 coefficients,  rinner =    1.300   1.300   1.300
                                                       1.300   1.300   1.300
                                                       1.300

     PseudoPot. # 2 for W  read from file:
     /afs/slac.stanford.edu/u/if/mamunm/psp/gbrv1.5pbe/W.UPF
     MD5 check sum: 9c083fa34c2a2ea0f02f1f893e16e1c8
     Pseudo is Ultrasoft + core correction, Zval = 14.0
     Generated by new atomic code, or converted to UPF format
     Using radial grid of  923 points,  8 beta functions with: 
                l(1) =   0
                l(2) =   0
                l(3) =   0
                l(4) =   1
                l(5) =   1
                l(6) =   2
                l(7) =   2
                l(8) =   3
     Q(r) pseudized with  6 coefficients,  rinner =    1.350   1.350   1.350
                                                       1.350   1.350   1.350
                                                       1.350

     vdW kernel table read from file vdW_kernel_table
     MD5 check sum: 095c7af220d748ca6e76c0b4c6cfb241

     atomic species   valence    mass     pseudopotential
        Ta1           13.00   180.94788     Ta( 1.00)
        W1            14.00   183.84000     W ( 1.00)

     No symmetry found



   Cartesian axes

     site n.     atom                  positions (alat units)
         1           Ta1 tau(   1) = (   0.0000000   0.0000000  10.0000000  )
         2           Ta1 tau(   2) = (   2.7244364   0.0000000  10.0000000  )
         3           W1  tau(   3) = (   1.3622182   2.7164642  10.0000000  )
         4           W1  tau(   4) = (  -1.3622182   2.7164642  10.0000000  )
         5           Ta1 tau(   5) = (   2.7244364   1.3662160  12.3571185  )
         6           Ta1 tau(   6) = (  -0.0000000   1.3662160  12.3571185  )
         7           W1  tau(   7) = (  -1.3622182   4.0826803  12.3571185  )
         8           W1  tau(   8) = (   1.3622182   4.0826803  12.3571185  )
         9           Ta1 tau(   9) = (   0.0000000   2.7324321  14.7142370  )
        10           Ta1 tau(  10) = (   2.7244364   2.7324321  14.7142370  )
        11           W1  tau(  11) = (   4.0866547   0.0159678  14.7142370  )
        12           W1  tau(  12) = (   1.3622182   0.0159678  14.7142370  )

     number of k points=    20  Fermi-Dirac smearing, width (Ry)=  0.0110
                       cart. coord. in units 2pi/alat
        k(    1) = (   0.0000000   0.0000000   0.0000000), wk =   0.0555556
        k(    2) = (   0.0000000   0.0306771   0.0000000), wk =   0.1111111
        k(    3) = (   0.0000000   0.0613543   0.0000000), wk =   0.1111111
        k(    4) = (   0.0000000  -0.0920314   0.0000000), wk =   0.0555556
        k(    5) = (   0.0305874   0.0153386   0.0000000), wk =   0.1111111
        k(    6) = (   0.0305874   0.0460157   0.0000000), wk =   0.1111111
        k(    7) = (   0.0305874   0.0766928   0.0000000), wk =   0.1111111
        k(    8) = (   0.0305874  -0.0766928   0.0000000), wk =   0.1111111
        k(    9) = (   0.0305874  -0.0460157   0.0000000), wk =   0.1111111
        k(   10) = (   0.0305874  -0.0153386   0.0000000), wk =   0.1111111
        k(   11) = (   0.0611747   0.0306771   0.0000000), wk =   0.1111111
        k(   12) = (   0.0611747   0.0613543   0.0000000), wk =   0.1111111
        k(   13) = (   0.0611747   0.0920314   0.0000000), wk =   0.1111111
        k(   14) = (   0.0611747  -0.0613543   0.0000000), wk =   0.1111111
        k(   15) = (   0.0611747  -0.0306771   0.0000000), wk =   0.1111111
        k(   16) = (   0.0611747   0.0000000   0.0000000), wk =   0.1111111
        k(   17) = (  -0.0917621  -0.0460157   0.0000000), wk =   0.0555556
        k(   18) = (  -0.0917621  -0.0153386   0.0000000), wk =   0.1111111
        k(   19) = (  -0.0917621   0.0153386   0.0000000), wk =   0.1111111
        k(   20) = (  -0.0917621  -0.1380471   0.0000000), wk =   0.0555556

     Dense  grid:   587285 G-vectors     FFT dimensions: (  64,  72, 288)

     Smooth grid:   148505 G-vectors     FFT dimensions: (  40,  45, 192)

     Largest allocated arrays     est. size (Mb)     dimensions
        Kohn-Sham Wavefunctions         1.02 Mb     (     602,  111)
        NL pseudopotentials             2.81 Mb     (     602,  306)
        Each V/rho on FFT grid          0.63 Mb     (   41472)
        Each G-vector array             0.14 Mb     (   18357)
        G-vector shells                 0.07 Mb     (    8950)
     Largest temporary arrays     est. size (Mb)     dimensions
        Auxiliary wavefunctions         4.08 Mb     (     602,  444)
        Each subspace H/S matrix        3.01 Mb     (     444,  444)
        Each <psi_i|beta_j> matrix      0.52 Mb     (     306,  111)
        Arrays for rho mixing           6.33 Mb     (   41472,   10)

     Initial potential from superposition of free atoms
     Check: negative starting charge=   -0.947228

     starting charge  161.39129, renormalised to  162.00000

     negative rho (up, down):  9.508E-01 0.000E+00


     ************************************************************************
     *
     * You are using vdW-DF for exchange-correlation in this calculation.
     * Please cite the following three references that made this development
     * possible:
     *
     *   M. Dion, H. Rydberg, E. Schroder, D. C. Langreth, and
     *   B. I. Lundqvist, Phys. Rev. Lett. 92, 246401 (2004).
     *
     *   T. Thonhauser, V. R. Cooper, S. Li, A. Puzder, P. Hyldgaard, and
     *   D. C. Langreth, Phys. Rev. B 76, 125112 (2007).
     *
     *   G. Roman-Perez and J. M. Soler, Phys. Rev. Lett. 103, 096102 (2009).
     *
     *
     * If you are using vdW-DF2, please also cite:
     *
     *   K. Lee, E. D. Murray, L. Kong, B. I. Lundqvist, and
     *   D. C. Langreth, Phys. Rev. B 82, 081101(R) (2010).
     *
     *
     * If you are calculating the stress with vdW-DF, please also cite:
     *
     *   R. Sabatini, E. Kucukbenli, B. Kolb, T. Thonhauser, and
     *   S. de Gironcoli, J. Phys.: Condens. Matter 24, 424209 (2012).
     *
     ************************************************************************

     Carrying out vdW-DF run using the following parameters:

     Nqs =      20    Nr_points =    1024   r_max =   100.000
     q_mesh =
               0.00001000     0.04494208     0.09755937     0.15916263
               0.23128650     0.31572767     0.41458969     0.53033537
               0.66584808     0.82450364     1.01025438     1.22772762
               1.48234092     1.78043706     2.12944203     2.53805004
               3.01644009     3.57652955     4.23227104     5.00000000

     Gradients computed in reciprocal space

     ************************************************************************


 
     Adding external electric field

     Computed dipole along edir(3) : 
        Dipole                0.0000 Ry au,          0.0000 Debye
        Dipole field          0.0000 Ry au
 
        Potential amp.       -0.0000 Ry
        Total length         45.5356 bohr
 
     Starting wfc are  156 randomized atomic wfcs

     total cpu time spent up to now is        9.4 secs

     Self-consistent Calculation

     iteration #  1     ecut=    36.75 Ry     beta=0.10
     Davidson diagonalization with overlap
     ethr =  1.00E-02,  avg # of iterations =  2.0

     negative rho (up, down):  9.540E-01 0.000E+00
 
     Adding external electric field

     Computed dipole along edir(3) : 
        Dipole               -0.0001 Ry au,         -0.0002 Debye
        Dipole field         -0.0000 Ry au
 
        Potential amp.        0.0000 Ry
        Total length         45.5356 bohr
 

     total cpu time spent up to now is       26.4 secs

     total energy              =   -1821.30531972 Ry
     Harris-Foulkes estimate   =   -1821.84483424 Ry
     estimated scf accuracy    <       3.18506824 Ry

     iteration #  2     ecut=    36.75 Ry     beta=0.10
     Davidson diagonalization with overlap
     ethr =  1.97E-03,  avg # of iterations =  1.9

     negative rho (up, down):  9.559E-01 0.000E+00
 
     Adding external electric field

     Computed dipole along edir(3) : 
        Dipole               -0.0002 Ry au,         -0.0004 Debye
        Dipole field         -0.0000 Ry au
 
        Potential amp.        0.0000 Ry
        Total length         45.5356 bohr
 

     total cpu time spent up to now is       41.5 secs

     total energy              =   -1821.53312001 Ry
     Harris-Foulkes estimate   =   -1821.65009021 Ry
     estimated scf accuracy    <       1.09245969 Ry

     iteration #  3     ecut=    36.75 Ry     beta=0.10
     Davidson diagonalization with overlap
     ethr =  6.74E-04,  avg # of iterations =  1.3

     negative rho (up, down):  9.626E-01 0.000E+00
 
     Adding external electric field

     Computed dipole along edir(3) : 
        Dipole                0.0009 Ry au,          0.0022 Debye
        Dipole field          0.0000 Ry au
 
        Potential amp.       -0.0002 Ry
        Total length         45.5356 bohr
 

     total cpu time spent up to now is       55.7 secs

     total energy              =   -1821.49634435 Ry
     Harris-Foulkes estimate   =   -1821.58115292 Ry
     estimated scf accuracy    <       0.35737221 Ry

     iteration #  4     ecut=    36.75 Ry     beta=0.10
     Davidson diagonalization with overlap
     ethr =  2.21E-04,  avg # of iterations =  5.1

     negative rho (up, down):  9.667E-01 0.000E+00
 
     Adding external electric field

     Computed dipole along edir(3) : 
        Dipole               -0.0118 Ry au,         -0.0300 Debye
        Dipole field         -0.0000 Ry au
 
        Potential amp.        0.0027 Ry
        Total length         45.5356 bohr
 

     total cpu time spent up to now is       75.1 secs

     total energy              =   -1821.51215745 Ry
     Harris-Foulkes estimate   =   -1821.52315078 Ry
     estimated scf accuracy    <       0.10573527 Ry

     iteration #  5     ecut=    36.75 Ry     beta=0.10
     Davidson diagonalization with overlap
     ethr =  6.53E-05,  avg # of iterations =  4.1

     negative rho (up, down):  9.703E-01 0.000E+00
 
     Adding external electric field

     Computed dipole along edir(3) : 
        Dipole                0.1024 Ry au,          0.2603 Debye
        Dipole field          0.0003 Ry au
 
        Potential amp.       -0.0237 Ry
        Total length         45.5356 bohr
 

     total cpu time spent up to now is       92.0 secs

     total energy              =   -1821.50744401 Ry
     Harris-Foulkes estimate   =   -1821.51454926 Ry
     estimated scf accuracy    <       0.06915076 Ry

     iteration #  6     ecut=    36.75 Ry     beta=0.10
     Davidson diagonalization with overlap
     ethr =  4.27E-05,  avg # of iterations =  4.5

     negative rho (up, down):  9.776E-01 0.000E+00
 
     Adding external electric field

     Computed dipole along edir(3) : 
        Dipole               -0.0022 Ry au,         -0.0057 Debye
        Dipole field         -0.0000 Ry au
 
        Potential amp.        0.0005 Ry
        Total length         45.5356 bohr
 

     total cpu time spent up to now is      109.4 secs

     total energy              =   -1821.49719078 Ry
     Harris-Foulkes estimate   =   -1821.51922031 Ry
     estimated scf accuracy    <       0.78927019 Ry

     iteration #  7     ecut=    36.75 Ry     beta=0.10
     Davidson diagonalization with overlap
     ethr =  4.27E-05,  avg # of iterations =  1.6

     negative rho (up, down):  9.812E-01 0.000E+00
 
     Adding external electric field

     Computed dipole along edir(3) : 
        Dipole               -0.0005 Ry au,         -0.0014 Debye
        Dipole field         -0.0000 Ry au
 
        Potential amp.        0.0001 Ry
        Total length         45.5356 bohr
 

     total cpu time spent up to now is      124.3 secs

     total energy              =   -1821.50833648 Ry
     Harris-Foulkes estimate   =   -1821.50862733 Ry
     estimated scf accuracy    <       0.00820044 Ry

     iteration #  8     ecut=    36.75 Ry     beta=0.10
     Davidson diagonalization with overlap
     ethr =  5.06E-06,  avg # of iterations =  5.6

     negative rho (up, down):  9.856E-01 0.000E+00
 
     Adding external electric field

     Computed dipole along edir(3) : 
        Dipole                0.0018 Ry au,          0.0045 Debye
        Dipole field          0.0000 Ry au
 
        Potential amp.       -0.0004 Ry
        Total length         45.5356 bohr
 

     total cpu time spent up to now is      145.6 secs

     total energy              =   -1821.50939787 Ry
     Harris-Foulkes estimate   =   -1821.50929383 Ry
     estimated scf accuracy    <       0.00297830 Ry

     iteration #  9     ecut=    36.75 Ry     beta=0.10
     Davidson diagonalization with overlap
     ethr =  1.84E-06,  avg # of iterations =  4.5

     negative rho (up, down):  9.890E-01 0.000E+00
 
     Adding external electric field

     Computed dipole along edir(3) : 
        Dipole               -0.0001 Ry au,         -0.0003 Debye
        Dipole field         -0.0000 Ry au
 
        Potential amp.        0.0000 Ry
        Total length         45.5356 bohr
 

     total cpu time spent up to now is      164.3 secs

     total energy              =   -1821.50952749 Ry
     Harris-Foulkes estimate   =   -1821.50983875 Ry
     estimated scf accuracy    <       0.00219132 Ry

     iteration # 10     ecut=    36.75 Ry     beta=0.10
     Davidson diagonalization with overlap
     ethr =  1.35E-06,  avg # of iterations =  1.9

     negative rho (up, down):  9.890E-01 0.000E+00
 
     Adding external electric field

     Computed dipole along edir(3) : 
        Dipole               -0.0000 Ry au,         -0.0001 Debye
        Dipole field         -0.0000 Ry au
 
        Potential amp.        0.0000 Ry
        Total length         45.5356 bohr
 

     total cpu time spent up to now is      179.1 secs

     total energy              =   -1821.50962197 Ry
     Harris-Foulkes estimate   =   -1821.50969803 Ry
     estimated scf accuracy    <       0.00026968 Ry

     iteration # 11     ecut=    36.75 Ry     beta=0.10
     Davidson diagonalization with overlap
     ethr =  1.66E-07,  avg # of iterations =  2.3

     negative rho (up, down):  9.893E-01 0.000E+00
 
     Adding external electric field

     Computed dipole along edir(3) : 
        Dipole                0.0003 Ry au,          0.0008 Debye
        Dipole field          0.0000 Ry au
 
        Potential amp.       -0.0001 Ry
        Total length         45.5356 bohr
 

     total cpu time spent up to now is      195.7 secs

     total energy              =   -1821.50965340 Ry
     Harris-Foulkes estimate   =   -1821.50965627 Ry
     estimated scf accuracy    <       0.00005018 Ry

     iteration # 12     ecut=    36.75 Ry     beta=0.10
     Davidson diagonalization with overlap
     c_bands:  1 eigenvalues not converged
     ethr =  3.10E-08,  avg # of iterations =  3.3

     negative rho (up, down):  9.895E-01 0.000E+00
 
     Adding external electric field

     Computed dipole along edir(3) : 
        Dipole                0.0001 Ry au,          0.0004 Debye
        Dipole field          0.0000 Ry au
 
        Potential amp.       -0.0000 Ry
        Total length         45.5356 bohr
 

     total cpu time spent up to now is      213.8 secs

     total energy              =   -1821.50965478 Ry
     Harris-Foulkes estimate   =   -1821.50966555 Ry
     estimated scf accuracy    <       0.00006868 Ry

     iteration # 13     ecut=    36.75 Ry     beta=0.10
     Davidson diagonalization with overlap
     ethr =  3.10E-08,  avg # of iterations =  2.1

     negative rho (up, down):  9.895E-01 0.000E+00
 
     Adding external electric field

     Computed dipole along edir(3) : 
        Dipole                0.0000 Ry au,          0.0000 Debye
        Dipole field          0.0000 Ry au
 
        Potential amp.       -0.0000 Ry
        Total length         45.5356 bohr
 

     total cpu time spent up to now is      228.8 secs

     total energy              =   -1821.50966015 Ry
     Harris-Foulkes estimate   =   -1821.50965971 Ry
     estimated scf accuracy    <       0.00000413 Ry

     iteration # 14     ecut=    36.75 Ry     beta=0.10
     Davidson diagonalization with overlap
     ethr =  2.55E-09,  avg # of iterations =  3.0

     negative rho (up, down):  9.896E-01 0.000E+00
 
     Adding external electric field

     Computed dipole along edir(3) : 
        Dipole               -0.0000 Ry au,         -0.0001 Debye
        Dipole field         -0.0000 Ry au
 
        Potential amp.        0.0000 Ry
        Total length         45.5356 bohr
 

     total cpu time spent up to now is      247.2 secs

     total energy              =   -1821.50966106 Ry
     Harris-Foulkes estimate   =   -1821.50966102 Ry
     estimated scf accuracy    <       0.00000312 Ry

     iteration # 15     ecut=    36.75 Ry     beta=0.10
     Davidson diagonalization with overlap
     ethr =  1.92E-09,  avg # of iterations =  2.0

     negative rho (up, down):  9.896E-01 0.000E+00

     negative rho (up, down):  9.896E-01 0.000E+00

     negative rho (up, down):  9.896E-01 0.000E+00

     negative rho (up, down):  9.896E-01 0.000E+00

     negative rho (up, down):  9.896E-01 0.000E+00

     negative rho (up, down):  9.896E-01 0.000E+00

     negative rho (up, down):  9.896E-01 0.000E+00

     negative rho (up, down):  9.896E-01 0.000E+00

     negative rho (up, down):  9.896E-01 0.000E+00

     negative rho (up, down):  9.896E-01 0.000E+00

     negative rho (up, down):  9.896E-01 0.000E+00

     negative rho (up, down):  9.896E-01 0.000E+00

     negative rho (up, down):  9.896E-01 0.000E+00

     negative rho (up, down):  9.896E-01 0.000E+00

     negative rho (up, down):  9.896E-01 0.000E+00

     negative rho (up, down):  9.896E-01 0.000E+00

     negative rho (up, down):  9.896E-01 0.000E+00

     negative rho (up, down):  9.896E-01 0.000E+00

     negative rho (up, down):  9.896E-01 0.000E+00

     negative rho (up, down):  9.896E-01 0.000E+00

     negative rho (up, down):  9.896E-01 0.000E+00

     negative rho (up, down):  9.896E-01 0.000E+00

     negative rho (up, down):  9.896E-01 0.000E+00

     negative rho (up, down):  9.896E-01 0.000E+00

     negative rho (up, down):  9.896E-01 0.000E+00

     negative rho (up, down):  9.896E-01 0.000E+00

     negative rho (up, down):  9.896E-01 0.000E+00

     negative rho (up, down):  9.896E-01 0.000E+00

     negative rho (up, down):  9.896E-01 0.000E+00

     negative rho (up, down):  9.896E-01 0.000E+00

     negative rho (up, down):  9.896E-01 0.000E+00

     negative rho (up, down):  9.896E-01 0.000E+00

     negative rho (up, down):  9.896E-01 0.000E+00

     negative rho (up, down):  9.896E-01 0.000E+00

     negative rho (up, down):  9.896E-01 0.000E+00
 
     Adding external electric field

     Computed dipole along edir(3) : 
        Dipole               -0.0020 Ry au,         -0.0050 Debye
        Dipole field         -0.0000 Ry au
 
        Potential amp.        0.0005 Ry
        Total length         45.5356 bohr
 

     total cpu time spent up to now is      277.7 secs

     End of self-consistent calculation

          k = 0.0000 0.0000 0.0000 ( 18445 PWs)   bands (ev):

   -72.2456 -72.1849 -72.0892 -72.0861 -72.0292 -72.0264 -66.0575 -66.0531
   -65.9710 -65.9667 -65.8418 -65.7540 -36.7609 -36.6126 -36.5045 -36.4990
   -36.4965 -36.3657 -36.2605 -36.2529 -36.1881 -36.1639 -36.1629 -36.0794
   -36.0538 -35.9507 -35.8682 -35.8649 -35.6255 -35.6217 -32.8907 -32.8665
   -32.8054 -32.7711 -32.6649 -32.5536 -32.4195 -32.3930 -32.3514 -32.2753
   -32.2317 -32.2274 -32.1053 -31.9272 -31.8121 -31.7319 -31.7182 -31.6238
    -5.6991  -3.9449  -3.0216  -2.6075  -2.4460  -2.3928  -2.3151  -2.2635
    -2.1210  -1.6561  -1.3725  -1.3117  -1.2749  -1.2746  -1.2146  -0.2924
    -0.0095   0.1028   0.1448   0.7202   0.7914   0.7998   0.8175   1.3057
     1.3431   1.4789   1.8733   1.9613   2.2002   2.3211   2.4614   2.4998
     2.6543   2.6959   3.1944   3.2741   3.2800   3.3999   3.4178   3.4250
     3.7915   3.8426   3.9726   4.1565   4.3088   4.3109   4.6881   4.6920
     4.8426   4.8732   5.2006   5.4327   5.5771   5.9330   6.2441   6.2892
     6.4211   6.4563   6.5586   6.7437   6.7688   6.8346   7.1034

          k = 0.0000 0.0307 0.0000 ( 18548 PWs)   bands (ev):

   -72.2457 -72.1850 -72.0892 -72.0861 -72.0293 -72.0264 -66.0576 -66.0531
   -65.9710 -65.9667 -65.8418 -65.7540 -36.7597 -36.6105 -36.5042 -36.4977
   -36.4959 -36.3625 -36.2621 -36.2516 -36.1850 -36.1647 -36.1595 -36.0789
   -36.0529 -35.9509 -35.8683 -35.8652 -35.6257 -35.6219 -32.8960 -32.8675
   -32.8102 -32.7725 -32.6665 -32.5512 -32.4188 -32.4024 -32.3572 -32.2788
   -32.2340 -32.2317 -32.1065 -31.9279 -31.8123 -31.7325 -31.7184 -31.6240
    -5.4892  -3.7403  -2.8285  -2.7010  -2.3022  -2.3004  -2.2158  -2.1189
    -1.9798  -1.5755  -1.1940  -1.1446  -1.1355  -1.1289  -1.0374  -0.3117
    -0.0227   0.1099   0.2686   0.4443   0.6641   0.7350   0.8297   1.1320
     1.2729   1.4453   1.6806   1.7502   1.9004   2.1306   2.3583   2.4508
     2.4867   2.5689   2.7319   2.8253   3.1808   3.2956   3.3721   3.5222
     3.5389   3.7801   3.7893   3.8873   4.1257   4.3209   4.6512   4.7888
     4.8083   4.8622   5.0811   5.1138   5.2157   5.6585   5.8102   5.8719
     6.0753   6.3277   6.3887   6.5555   6.5922   6.7434   7.1078

          k = 0.0000 0.0614 0.0000 ( 18574 PWs)   bands (ev):

   -72.2457 -72.1850 -72.0892 -72.0862 -72.0293 -72.0264 -66.0576 -66.0531
   -65.9710 -65.9667 -65.8418 -65.7540 -36.7573 -36.6063 -36.5031 -36.4949
   -36.4940 -36.3559 -36.2647 -36.2482 -36.1775 -36.1655 -36.1528 -36.0772
   -36.0500 -35.9503 -35.8684 -35.8652 -35.6257 -35.6221 -32.9059 -32.8702
   -32.8194 -32.7747 -32.6693 -32.5460 -32.4205 -32.4170 -32.3694 -32.2853
   -32.2398 -32.2376 -32.1082 -31.9286 -31.8123 -31.7338 -31.7187 -31.6242
    -4.9044  -3.3002  -3.1424  -2.3273  -2.1409  -1.9929  -1.7576  -1.6991
    -1.6416  -1.3884  -0.9002  -0.8999  -0.7692  -0.6667  -0.4430  -0.2552
    -0.0244   0.0091   0.1343   0.2538   0.4135   0.5388   0.6833   0.8710
     0.8847   1.1154   1.3487   1.5052   1.5969   1.6563   1.7038   1.9305
     1.9921   2.1420   2.3330   2.4352   2.4930   2.6425   3.0783   3.2953
     3.4487   3.5553   3.8256   3.9811   4.0005   4.1271   4.1294   4.3531
     4.5354   4.7387   4.8011   4.9045   5.3008   5.4105   5.4488   5.5080
     5.8885   5.9594   6.4743   6.5420   6.6971   6.7421   6.8795

          k = 0.0000-0.0920 0.0000 ( 18578 PWs)   bands (ev):

   -72.2457 -72.1849 -72.0892 -72.0862 -72.0292 -72.0263 -66.0577 -66.0531
   -65.9710 -65.9667 -65.8418 -65.7540 -36.7558 -36.6041 -36.5024 -36.4935
   -36.4929 -36.3529 -36.2663 -36.2463 -36.1737 -36.1659 -36.1494 -36.0760
   -36.0487 -35.9507 -35.8684 -35.8648 -35.6256 -35.6222 -32.9103 -32.8716
   -32.8240 -32.7759 -32.6705 -32.5437 -32.4296 -32.4160 -32.3757 -32.2884
   -32.2438 -32.2395 -32.1091 -31.9293 -31.8121 -31.7345 -31.7188 -31.6243
    -4.1893  -3.9509  -2.6063  -2.5710  -1.8237  -1.6092  -1.4509  -1.3615
    -1.3076  -1.2675  -1.0087  -0.7266  -0.6511  -0.3590  -0.2784  -0.1554
    -0.0366   0.0562   0.0596   0.1239   0.4926   0.5411   0.5425   0.6885
     0.7915   0.8241   1.2649   1.2679   1.2968   1.3457   1.4163   1.4555
     1.5198   1.7144   1.7221   2.1495   2.4074   2.7394   3.1524   3.2127
     3.3750   3.5457   3.5682   3.6466   3.9174   3.9992   4.1045   4.2039
     4.4862   4.7160   4.7756   4.9095   5.1946   5.3361   5.4702   5.8286
     5.8426   5.9494   6.0789   6.2444   6.3068   6.7693   6.8345

          k = 0.0306 0.0153 0.0000 ( 18549 PWs)   bands (ev):

   -72.2416 -72.1890 -72.0852 -72.0822 -72.0333 -72.0304 -66.0518 -66.0473
   -65.9769 -65.9726 -65.8359 -65.7599 -36.7042 -36.6044 -36.5039 -36.4486
   -36.4431 -36.3571 -36.2592 -36.2548 -36.1802 -36.1711 -36.1545 -36.0857
   -36.0600 -35.9454 -35.9314 -35.8708 -35.6878 -35.6841 -32.8201 -32.7979
   -32.7953 -32.7000 -32.6758 -32.5440 -32.4278 -32.3886 -32.3453 -32.2863
   -32.2418 -32.2207 -32.1149 -31.9201 -31.8202 -31.8172 -31.8012 -31.7072
    -5.4277  -3.6709  -2.7421  -2.4534  -2.3979  -2.2843  -2.1393  -2.0996
    -1.9666  -1.3386  -1.3114  -1.2586  -1.0835  -1.0518  -1.0049  -0.1947
     0.0659   0.1784   0.3161   0.7062   0.7376   0.9160   1.0153   1.2548
     1.4242   1.5060   1.7918   1.8019   2.1175   2.1842   2.2069   2.3501
     2.4342   2.5883   2.6650   2.9672   3.0994   3.2062   3.3219   3.3561
     3.4312   3.6783   3.7246   3.7738   3.9648   4.1019   4.2028   4.7137
     4.8020   5.0926   5.1126   5.2526   5.4485   5.6869   5.8559   5.9807
     6.1465   6.3243   6.3491   6.5329   6.6692   6.7424   6.8737

          k = 0.0306 0.0460 0.0000 ( 18573 PWs)   bands (ev):

   -72.2416 -72.1891 -72.0852 -72.0822 -72.0333 -72.0304 -66.0518 -66.0473
   -65.9769 -65.9726 -65.8360 -65.7599 -36.7022 -36.6008 -36.5028 -36.4478
   -36.4409 -36.3518 -36.2573 -36.2568 -36.1741 -36.1718 -36.1488 -36.0850
   -36.0584 -35.9449 -35.9314 -35.8711 -35.6878 -35.6842 -32.8283 -32.8051
   -32.7971 -32.7020 -32.6777 -32.5399 -32.4268 -32.4027 -32.3546 -32.2908
   -32.2443 -32.2270 -32.1160 -31.9207 -31.8203 -31.8174 -31.8012 -31.7071
    -5.0263  -3.2873  -2.7189  -2.3474  -2.2933  -2.0606  -2.0314  -1.7780
    -1.6551  -1.2001  -0.9999  -0.9712  -0.8854  -0.8061  -0.5761  -0.2180
     0.0335   0.2411   0.3033   0.4213   0.5698   0.6208   0.8055   1.0129
     1.1743   1.3767   1.5327   1.5849   1.6050   1.7087   1.8966   2.1142
     2.1177   2.2742   2.3937   2.4640   2.6299   3.0253   3.1684   3.3668
     3.4109   3.6272   3.6468   3.7286   4.0127   4.0891   4.1371   4.3881
     4.5537   4.8247   4.8481   5.1668   5.1678   5.2804   5.5541   5.5919
     5.8367   6.0429   6.3984   6.5275   6.6046   6.8887   6.8994

          k = 0.0306 0.0767 0.0000 ( 18564 PWs)   bands (ev):

   -72.2416 -72.1890 -72.0852 -72.0822 -72.0333 -72.0304 -66.0519 -66.0474
   -65.9769 -65.9726 -65.8360 -65.7599 -36.6999 -36.5974 -36.5017 -36.4467
   -36.4384 -36.3466 -36.2589 -36.2548 -36.1723 -36.1682 -36.1436 -36.0838
   -36.0567 -35.9446 -35.9315 -35.8709 -35.6878 -35.6843 -32.8356 -32.8122
   -32.7993 -32.7038 -32.6795 -32.5359 -32.4256 -32.4167 -32.3644 -32.2949
   -32.2467 -32.2336 -32.1169 -31.9213 -31.8201 -31.8177 -31.8012 -31.7070
    -4.3119  -3.4217  -2.6461  -2.1677  -2.1039  -1.8004  -1.5507  -1.3899
    -1.1019  -1.0237  -0.7965  -0.6344  -0.5595  -0.3649  -0.2076  -0.1692
    -0.0297   0.0519   0.1388   0.1947   0.3808   0.5469   0.6472   0.6582
     0.7854   0.9011   1.1015   1.1840   1.3139   1.3284   1.4442   1.5390
     1.7391   1.8382   2.0656   2.2182   2.4058   2.6989   2.9309   3.2185
     3.3613   3.4403   3.6801   3.7885   3.9113   4.0895   4.1169   4.2513
     4.4324   4.6854   4.8113   4.9109   5.2877   5.3112   5.3743   5.5201
     5.7307   5.9458   6.2049   6.2837   6.3639   6.5014   6.7166

          k = 0.0306-0.0767 0.0000 ( 18564 PWs)   bands (ev):

   -72.2416 -72.1890 -72.0852 -72.0822 -72.0333 -72.0304 -66.0519 -66.0474
   -65.9769 -65.9726 -65.8360 -65.7599 -36.6999 -36.5974 -36.5017 -36.4467
   -36.4384 -36.3466 -36.2589 -36.2548 -36.1723 -36.1682 -36.1436 -36.0838
   -36.0567 -35.9446 -35.9315 -35.8709 -35.6878 -35.6843 -32.8356 -32.8122
   -32.7993 -32.7038 -32.6795 -32.5359 -32.4256 -32.4167 -32.3644 -32.2949
   -32.2467 -32.2336 -32.1169 -31.9213 -31.8201 -31.8177 -31.8012 -31.7070
    -4.3119  -3.4217  -2.6461  -2.1677  -2.1039  -1.8004  -1.5507  -1.3899
    -1.1019  -1.0237  -0.7965  -0.6344  -0.5595  -0.3649  -0.2076  -0.1692
    -0.0297   0.0519   0.1388   0.1947   0.3808   0.5469   0.6472   0.6582
     0.7854   0.9011   1.1015   1.1840   1.3139   1.3284   1.4442   1.5390
     1.7391   1.8382   2.0656   2.2182   2.4058   2.6989   2.9309   3.2185
     3.3613   3.4403   3.6801   3.7885   3.9113   4.0895   4.1169   4.2513
     4.4324   4.6854   4.8113   4.9109   5.2877   5.3112   5.3743   5.5201
     5.7307   5.9458   6.2049   6.2837   6.3639   6.5014   6.7166

          k = 0.0306-0.0460 0.0000 ( 18573 PWs)   bands (ev):

   -72.2416 -72.1891 -72.0852 -72.0822 -72.0333 -72.0304 -66.0518 -66.0473
   -65.9769 -65.9726 -65.8360 -65.7599 -36.7022 -36.6008 -36.5028 -36.4478
   -36.4409 -36.3518 -36.2573 -36.2568 -36.1741 -36.1718 -36.1488 -36.0850
   -36.0584 -35.9449 -35.9314 -35.8711 -35.6878 -35.6842 -32.8283 -32.8051
   -32.7971 -32.7020 -32.6777 -32.5399 -32.4268 -32.4027 -32.3546 -32.2908
   -32.2443 -32.2270 -32.1160 -31.9207 -31.8203 -31.8174 -31.8012 -31.7071
    -5.0263  -3.2873  -2.7189  -2.3474  -2.2933  -2.0606  -2.0314  -1.7780
    -1.6551  -1.2001  -0.9999  -0.9712  -0.8854  -0.8061  -0.5761  -0.2180
     0.0335   0.2411   0.3033   0.4213   0.5698   0.6208   0.8055   1.0129
     1.1743   1.3767   1.5327   1.5849   1.6050   1.7087   1.8966   2.1142
     2.1177   2.2742   2.3937   2.4640   2.6299   3.0253   3.1684   3.3668
     3.4109   3.6272   3.6468   3.7286   4.0128   4.0891   4.1371   4.3881
     4.5537   4.8247   4.8481   5.1668   5.1678   5.2804   5.5541   5.5919
     5.8367   6.0429   6.3984   6.5275   6.6046   6.8886   6.8994

          k = 0.0306-0.0153 0.0000 ( 18549 PWs)   bands (ev):

   -72.2416 -72.1890 -72.0852 -72.0822 -72.0333 -72.0304 -66.0518 -66.0473
   -65.9769 -65.9726 -65.8359 -65.7599 -36.7042 -36.6044 -36.5039 -36.4486
   -36.4431 -36.3571 -36.2592 -36.2548 -36.1802 -36.1711 -36.1545 -36.0857
   -36.0600 -35.9454 -35.9314 -35.8708 -35.6878 -35.6841 -32.8201 -32.7979
   -32.7953 -32.7000 -32.6758 -32.5440 -32.4278 -32.3886 -32.3453 -32.2863
   -32.2418 -32.2207 -32.1149 -31.9201 -31.8202 -31.8172 -31.8012 -31.7072
    -5.4277  -3.6709  -2.7421  -2.4534  -2.3979  -2.2843  -2.1393  -2.0996
    -1.9666  -1.3386  -1.3114  -1.2586  -1.0835  -1.0518  -1.0049  -0.1947
     0.0659   0.1784   0.3161   0.7062   0.7376   0.9160   1.0153   1.2548
     1.4242   1.5060   1.7918   1.8019   2.1175   2.1842   2.2069   2.3501
     2.4342   2.5883   2.6650   2.9672   3.0994   3.2062   3.3219   3.3561
     3.4312   3.6783   3.7246   3.7738   3.9648   4.1019   4.2028   4.7137
     4.8020   5.0926   5.1126   5.2526   5.4485   5.6869   5.8559   5.9807
     6.1465   6.3243   6.3491   6.5329   6.6692   6.7424   6.8738

          k = 0.0612 0.0307 0.0000 ( 18589 PWs)   bands (ev):

   -72.2306 -72.2002 -72.0743 -72.0713 -72.0443 -72.0414 -66.0361 -66.0316
   -65.9928 -65.9884 -65.8200 -65.7761 -36.5819 -36.5469 -36.5235 -36.3341
   -36.2938 -36.2884 -36.2771 -36.2382 -36.1896 -36.1582 -36.1331 -36.1033
   -36.1000 -36.0775 -35.9299 -35.8867 -35.8546 -35.8506 -32.7754 -32.7050
   -32.6222 -32.5962 -32.5179 -32.5024 -32.4498 -32.3734 -32.3277 -32.3138
   -32.2676 -32.2010 -32.1398 -32.0434 -32.0239 -31.9292 -31.8987 -31.8417
    -4.6827  -2.9499  -2.8243  -2.0157  -1.9879  -1.9433  -1.8629  -1.5738
    -1.5348  -1.1706  -0.9366  -0.6274  -0.6271  -0.4965  -0.4062   0.0611
     0.1756   0.2020   0.5716   0.6154   0.7966   0.8337   1.1155   1.3023
     1.3032   1.4108   1.4723   1.6454   1.7555   1.8015   1.8720   2.0213
     2.0224   2.1004   2.3372   2.3790   2.6629   2.6806   2.9668   3.0884
     3.1385   3.1979   3.4393   3.5399   3.6431   3.6590   4.0632   4.2032
     4.5130   4.5583   4.6622   4.7602   4.9228   5.0496   5.3640   5.6042
     5.7197   5.7447   5.7851   5.8508   6.2827   6.3245   6.3917

          k = 0.0612 0.0614 0.0000 ( 18587 PWs)   bands (ev):

   -72.2306 -72.2002 -72.0742 -72.0713 -72.0443 -72.0414 -66.0361 -66.0316
   -65.9928 -65.9884 -65.8200 -65.7760 -36.5789 -36.5448 -36.5236 -36.3296
   -36.2929 -36.2862 -36.2766 -36.2403 -36.1897 -36.1528 -36.1280 -36.1041
   -36.1006 -36.0776 -35.9296 -35.8868 -35.8548 -35.8512 -32.7814 -32.7050
   -32.6291 -32.5981 -32.5146 -32.5042 -32.4497 -32.3848 -32.3356 -32.3144
   -32.2678 -32.2066 -32.1392 -32.0417 -32.0233 -31.9284 -31.8993 -31.8414
    -4.1497  -2.9712  -2.5575  -2.4109  -1.8858  -1.5730  -1.4670  -1.3071
    -1.1293  -0.8712  -0.6752  -0.4889  -0.3526  -0.3146  -0.2128   0.0623
     0.2228   0.2806   0.3434   0.4016   0.4695   0.6070   0.7717   0.8344
     0.9125   1.0303   1.2418   1.2947   1.4594   1.5006   1.6106   1.6547
     1.8843   1.9471   2.1513   2.2238   2.2618   2.4982   2.9160   3.1142
     3.3017   3.3767   3.4867   3.7055   3.8578   3.9250   4.0814   4.1930
     4.2773   4.4374   4.6975   4.8051   4.9052   4.9798   5.2019   5.4433
     5.5640   5.6211   5.6946   5.7644   6.0811   6.3437   6.5023

          k = 0.0612 0.0920 0.0000 ( 18608 PWs)   bands (ev):

   -72.2305 -72.2002 -72.0742 -72.0713 -72.0443 -72.0414 -66.0361 -66.0316
   -65.9928 -65.9884 -65.8200 -65.7760 -36.5772 -36.5439 -36.5238 -36.3274
   -36.2927 -36.2852 -36.2764 -36.2411 -36.1898 -36.1500 -36.1258 -36.1046
   -36.1010 -36.0775 -35.9294 -35.8868 -35.8549 -35.8515 -32.7843 -32.7051
   -32.6324 -32.5994 -32.5128 -32.5053 -32.4497 -32.3903 -32.3397 -32.3150
   -32.2677 -32.2094 -32.1390 -32.0410 -32.0231 -31.9280 -31.8997 -31.8413
    -3.4699  -3.2400  -3.0017  -1.8797  -1.8456  -1.8163  -0.9271  -0.8428
    -0.7696  -0.6184  -0.5761  -0.5661  -0.5283  -0.3111  -0.0898  -0.0281
     0.0264   0.2781   0.3064   0.3379   0.3723   0.4776   0.5576   0.5967
     0.7710   0.7941   1.0369   1.0893   1.2649   1.3433   1.4067   1.7744
     1.8205   1.9628   2.0678   2.1084   2.1552   2.6085   2.7438   2.8676
     3.1856   3.4521   3.4580   3.6545   3.8236   3.9630   3.9688   4.3941
     4.5280   4.6625   4.8538   4.9691   5.0106   5.2960   5.3825   5.4438
     5.5581   5.5970   5.6190   5.7123   5.9545   6.0750   6.1125

          k = 0.0612-0.0614 0.0000 ( 18587 PWs)   bands (ev):

   -72.2306 -72.2002 -72.0742 -72.0713 -72.0443 -72.0414 -66.0361 -66.0316
   -65.9928 -65.9884 -65.8200 -65.7760 -36.5789 -36.5448 -36.5236 -36.3296
   -36.2929 -36.2862 -36.2766 -36.2403 -36.1897 -36.1528 -36.1280 -36.1041
   -36.1006 -36.0776 -35.9296 -35.8868 -35.8548 -35.8512 -32.7814 -32.7050
   -32.6291 -32.5981 -32.5146 -32.5042 -32.4497 -32.3848 -32.3356 -32.3144
   -32.2678 -32.2066 -32.1392 -32.0417 -32.0233 -31.9284 -31.8993 -31.8414
    -4.1497  -2.9712  -2.5575  -2.4109  -1.8858  -1.5730  -1.4670  -1.3071
    -1.1293  -0.8712  -0.6752  -0.4889  -0.3526  -0.3146  -0.2128   0.0623
     0.2228   0.2806   0.3434   0.4016   0.4695   0.6070   0.7717   0.8344
     0.9125   1.0303   1.2418   1.2947   1.4594   1.5006   1.6106   1.6547
     1.8843   1.9471   2.1513   2.2238   2.2618   2.4982   2.9160   3.1142
     3.3017   3.3767   3.4867   3.7055   3.8578   3.9250   4.0814   4.1931
     4.2773   4.4374   4.6975   4.8051   4.9052   4.9798   5.2019   5.4433
     5.5640   5.6211   5.6946   5.7644   6.0811   6.3437   6.5023

          k = 0.0612-0.0307 0.0000 ( 18589 PWs)   bands (ev):

   -72.2306 -72.2002 -72.0743 -72.0713 -72.0443 -72.0414 -66.0361 -66.0316
   -65.9928 -65.9884 -65.8200 -65.7761 -36.5819 -36.5469 -36.5235 -36.3341
   -36.2938 -36.2884 -36.2771 -36.2382 -36.1896 -36.1582 -36.1331 -36.1033
   -36.1000 -36.0775 -35.9299 -35.8867 -35.8546 -35.8506 -32.7754 -32.7050
   -32.6222 -32.5962 -32.5179 -32.5024 -32.4498 -32.3734 -32.3277 -32.3138
   -32.2676 -32.2010 -32.1398 -32.0434 -32.0239 -31.9292 -31.8987 -31.8417
    -4.6827  -2.9499  -2.8243  -2.0157  -1.9879  -1.9433  -1.8629  -1.5738
    -1.5348  -1.1706  -0.9366  -0.6274  -0.6271  -0.4965  -0.4062   0.0611
     0.1756   0.2020   0.5716   0.6154   0.7966   0.8337   1.1155   1.3023
     1.3032   1.4108   1.4723   1.6454   1.7555   1.8015   1.8720   2.0213
     2.0224   2.1004   2.3372   2.3790   2.6629   2.6806   2.9668   3.0884
     3.1385   3.1979   3.4393   3.5399   3.6431   3.6590   4.0632   4.2032
     4.5130   4.5583   4.6622   4.7602   4.9228   5.0496   5.3640   5.6042
     5.7197   5.7447   5.7851   5.8508   6.2827   6.3245   6.3917

          k = 0.0612 0.0000 0.0000 ( 18590 PWs)   bands (ev):

   -72.2306 -72.2002 -72.0742 -72.0713 -72.0443 -72.0414 -66.0360 -66.0316
   -65.9928 -65.9885 -65.8199 -65.7761 -36.5832 -36.5479 -36.5235 -36.3362
   -36.2943 -36.2895 -36.2774 -36.2372 -36.1896 -36.1608 -36.1354 -36.1032
   -36.0998 -36.0776 -35.9302 -35.8866 -35.8545 -35.8505 -32.7723 -32.7050
   -32.6184 -32.5954 -32.5195 -32.5015 -32.4499 -32.3675 -32.3236 -32.3136
   -32.2676 -32.1981 -32.1402 -32.0445 -32.0241 -31.9295 -31.8984 -31.8418
    -4.8705  -3.1275  -2.5308  -2.4092  -2.1990  -1.9019  -1.7943  -1.7355
    -1.5963  -1.1810  -1.1463  -0.7143  -0.6753  -0.6342  -0.6028   0.0621
     0.1212   0.2559   0.6270   0.7563   0.8995   1.0969   1.1287   1.3540
     1.3806   1.4567   1.8329   1.8917   1.9190   1.9221   1.9758   2.2316
     2.2937   2.3611   2.5227   2.6013   2.6960   2.7120   2.7216   2.8687
     2.9267   3.1273   3.1470   3.4780   3.6053   3.6747   3.8959   4.4740
     4.4805   4.8157   4.9579   5.0663   5.1644   5.2401   5.3423   5.4381
     5.9018   5.9841   6.1547   6.1717   6.3176   6.3814   6.4295

          k =-0.0918-0.0460 0.0000 ( 18592 PWs)   bands (ev):

   -72.2154 -72.2154 -72.0593 -72.0593 -72.0563 -72.0563 -66.0145 -66.0145
   -66.0101 -66.0101 -65.7981 -65.7980 -36.5519 -36.5519 -36.3278 -36.3278
   -36.3041 -36.3041 -36.2139 -36.2139 -36.1297 -36.1297 -36.1038 -36.1038
   -36.0774 -36.0774 -36.0719 -36.0719 -35.9081 -35.9081 -32.7417 -32.7417
   -32.4840 -32.4840 -32.3513 -32.3512 -32.3354 -32.3354 -32.3163 -32.3163
   -32.2990 -32.2990 -32.2206 -32.2206 -32.1715 -32.1715 -31.8706 -31.8706
    -3.6838  -3.6838  -2.1681  -2.1681  -1.6859  -1.6859  -1.2882  -1.2882
    -1.2081  -1.2081  -0.5013  -0.5013  -0.0969  -0.0969   0.1008   0.1008
     0.1442   0.1442   0.5530   0.5530   0.7443   0.7443   1.0812   1.0812
     1.2440   1.2440   1.3685   1.3685   1.5498   1.5498   1.7241   1.7241
     1.9309   1.9309   2.0434   2.0434   2.1872   2.1872   3.0785   3.0785
     3.3745   3.3745   3.4668   3.4668   3.8877   3.8877   4.0230   4.0230
     4.2315   4.2315   4.2763   4.2763   4.3643   4.3643   4.7146   4.7146
     5.2307   5.2307   5.6922   5.6922   6.2079   6.2080   6.4292

          k =-0.0918-0.0153 0.0000 ( 18598 PWs)   bands (ev):

   -72.2154 -72.2154 -72.0593 -72.0593 -72.0563 -72.0563 -66.0145 -66.0144
   -66.0101 -66.0101 -65.7981 -65.7980 -36.5534 -36.5506 -36.3288 -36.3264
   -36.3061 -36.3025 -36.2145 -36.2131 -36.1325 -36.1269 -36.1058 -36.1017
   -36.0780 -36.0770 -36.0734 -36.0707 -35.9084 -35.9078 -32.7443 -32.7392
   -32.4855 -32.4824 -32.3519 -32.3463 -32.3393 -32.3357 -32.3164 -32.3151
   -32.3027 -32.2963 -32.2218 -32.2194 -32.1743 -32.1690 -31.8709 -31.8702
    -3.9594  -3.1585  -2.4148  -2.3481  -1.8144  -1.4387  -1.3904  -1.2438
    -1.0795  -1.0430  -0.7156  -0.4155  -0.1974  -0.1838  -0.0727   0.1078
     0.2516   0.2911   0.4160   0.4555   0.6676   0.8657   1.0605   1.1326
     1.2247   1.3580   1.3813   1.4084   1.5167   1.6640   1.7297   1.7297
     1.8135   1.9370   2.0704   2.0814   2.2550   2.5902   2.6953   2.9517
     3.1538   3.3421   3.4300   3.5320   3.7109   3.8101   3.8546   3.9488
     3.9515   4.1534   4.3582   4.6796   4.6971   4.9451   5.0880   5.1917
     5.4248   5.5073   5.6117   5.6997   5.9969   6.0295   6.2121

          k =-0.0918 0.0153 0.0000 ( 18598 PWs)   bands (ev):

   -72.2154 -72.2154 -72.0593 -72.0593 -72.0563 -72.0563 -66.0145 -66.0144
   -66.0101 -66.0101 -65.7981 -65.7980 -36.5534 -36.5506 -36.3288 -36.3264
   -36.3061 -36.3025 -36.2145 -36.2131 -36.1325 -36.1269 -36.1058 -36.1017
   -36.0780 -36.0770 -36.0734 -36.0707 -35.9084 -35.9078 -32.7443 -32.7392
   -32.4855 -32.4824 -32.3519 -32.3463 -32.3393 -32.3357 -32.3164 -32.3151
   -32.3027 -32.2963 -32.2218 -32.2194 -32.1743 -32.1690 -31.8709 -31.8702
    -3.9594  -3.1585  -2.4148  -2.3481  -1.8144  -1.4387  -1.3904  -1.2438
    -1.0795  -1.0430  -0.7156  -0.4155  -0.1974  -0.1838  -0.0727   0.1078
     0.2516   0.2911   0.4160   0.4555   0.6676   0.8657   1.0605   1.1326
     1.2247   1.3580   1.3813   1.4084   1.5167   1.6640   1.7297   1.7297
     1.8135   1.9370   2.0704   2.0814   2.2550   2.5902   2.6953   2.9517
     3.1538   3.3421   3.4300   3.5320   3.7109   3.8101   3.8546   3.9488
     3.9515   4.1534   4.3582   4.6796   4.6971   4.9451   5.0880   5.1917
     5.4248   5.5073   5.6117   5.6997   5.9969   6.0295   6.2121

          k =-0.0918-0.1380 0.0000 ( 18592 PWs)   bands (ev):

   -72.2154 -72.2154 -72.0593 -72.0593 -72.0563 -72.0563 -66.0145 -66.0145
   -66.0101 -66.0101 -65.7981 -65.7980 -36.5519 -36.5519 -36.3278 -36.3278
   -36.3041 -36.3041 -36.2139 -36.2139 -36.1297 -36.1297 -36.1038 -36.1038
   -36.0774 -36.0774 -36.0719 -36.0719 -35.9081 -35.9081 -32.7417 -32.7417
   -32.4840 -32.4840 -32.3512 -32.3512 -32.3354 -32.3354 -32.3163 -32.3163
   -32.2990 -32.2990 -32.2206 -32.2206 -32.1715 -32.1715 -31.8706 -31.8706
    -3.6838  -3.6838  -2.1681  -2.1681  -1.6859  -1.6859  -1.2882  -1.2882
    -1.2081  -1.2081  -0.5013  -0.5013  -0.0969  -0.0969   0.1008   0.1008
     0.1442   0.1442   0.5530   0.5530   0.7443   0.7443   1.0812   1.0812
     1.2440   1.2440   1.3685   1.3685   1.5498   1.5498   1.7241   1.7241
     1.9309   1.9309   2.0434   2.0434   2.1872   2.1872   3.0785   3.0785
     3.3745   3.3745   3.4668   3.4668   3.8877   3.8877   4.0230   4.0230
     4.2315   4.2315   4.2763   4.2763   4.3643   4.3643   4.7146   4.7146
     5.2307   5.2307   5.6922   5.6922   6.2079   6.2080   6.4292

     the Fermi energy is     2.1225 ev

!    total energy              =   -1821.50966169 Ry
     Harris-Foulkes estimate   =   -1821.50966130 Ry
     estimated scf accuracy    <       0.00000090 Ry

     The total energy is the sum of the following terms:

     one-electron contribution =  -12929.54163605 Ry
     hartree contribution      =    6446.88866551 Ry
     xc contribution           =    -516.64476291 Ry
     ewald contribution        =    5177.87277760 Ry
     electric field correction =       0.00000001 Ry
     smearing contrib. (-TS)   =      -0.08470585 Ry

     convergence has been achieved in  15 iterations
 
 BEEF-vdW xc energy contributions
           1 :   -454.865029644608     
           2 :    420.510938943519     
           3 :   -360.156366188679     
           4 :    287.282468634024     
           5 :   -215.771031816451     
           6 :    155.729603597051     
           7 :   -111.366137904773     
           8 :    81.3939774181662     
           9 :   -61.3124995389329     
          10 :    46.2280830537893     
          11 :   -32.9173317738995     
          12 :    20.4615881061689     
          13 :   -9.59281668091074     
          14 :    1.44838827821650     
          15 :    3.47750336268712     
          16 :   -5.70616972999130     
          17 :    6.45117568790340     
          18 :   -6.93858337967225     
          19 :    7.82120043571001     
          20 :   -8.99901464484060     
          21 :    9.88634612022213     
          22 :   -9.91452064485270     
          23 :    8.94983398559526     
          24 :   -7.39223608648825     
          25 :    5.93457047824859     
          26 :   -5.16230931325561     
          27 :    5.24462317760754     
          28 :   -5.88560093976980     
          29 :    6.53535033040316     
          30 :   -6.71353405723784     
          31 :   -40.8031619340488     
          32 :   -30.4255065582465     

     Forces acting on atoms (Ry/au):


     negative rho (up, down):  9.896E-01 0.000E+00
     atom    1 type  1   force =     0.00000065   -0.00747532   -0.01097336
     atom    2 type  1   force =    -0.00000074   -0.00747853   -0.01097659
     atom    3 type  2   force =    -0.00000328    0.00707274    0.02849222
     atom    4 type  2   force =     0.00000242    0.00707360    0.02849369
     atom    5 type  1   force =    -0.00000029    0.00000601    0.00004241
     atom    6 type  1   force =     0.00000046    0.00000725    0.00004327
     atom    7 type  2   force =     0.00000109   -0.00000701    0.00006855
     atom    8 type  2   force =    -0.00000077   -0.00000806    0.00006842
     atom    9 type  1   force =    -0.00000034    0.00750081    0.01091016
     atom   10 type  1   force =     0.00000085    0.00750323    0.01091373
     atom   11 type  2   force =     0.00000172   -0.00709663   -0.02854026
     atom   12 type  2   force =    -0.00000177   -0.00709810   -0.02854225

     Total force =     0.064476     Total SCF correction =     0.002591


     entering subroutine stress ...


     negative rho (up, down):  9.896E-01 0.000E+00
          total   stress  (Ry/bohr**3)                   (kbar)     P=  -38.66
  -0.00027290  -0.00000001  -0.00000000        -40.15     -0.00     -0.00
  -0.00000001  -0.00038871   0.00000195         -0.00    -57.18      0.29
  -0.00000000   0.00000195  -0.00012680         -0.00      0.29    -18.65

 !ASE

     Writing output data file calc.save
 
     init_run     :      5.60s CPU      9.02s WALL (       1 calls)
     electrons    :    183.26s CPU    268.42s WALL (       1 calls)
     forces       :      3.52s CPU      4.29s WALL (       1 calls)
     stress       :     11.92s CPU     13.97s WALL (       1 calls)

     Called by init_run:
     wfcinit      :      3.63s CPU      6.42s WALL (       1 calls)
     potinit      :      0.47s CPU      0.75s WALL (       1 calls)

     Called by electrons:
     c_bands      :    131.69s CPU    193.62s WALL (      15 calls)
     sum_band     :     26.48s CPU     39.00s WALL (      15 calls)
     v_of_rho     :      4.38s CPU      7.45s WALL (      16 calls)
     newd         :     12.45s CPU     14.21s WALL (      16 calls)
     mix_rho      :      0.21s CPU      0.32s WALL (      15 calls)
     vdW_energy   :      2.90s CPU      3.33s WALL (      52 calls)
     vdW_ffts     :      5.40s CPU     11.03s WALL (     106 calls)
     vdW_v        :      1.72s CPU      2.69s WALL (      52 calls)

     Called by c_bands:
     init_us_2    :      1.44s CPU      1.48s WALL (     660 calls)
     cegterg      :    123.42s CPU    185.10s WALL (     300 calls)

     Called by *egterg:
     h_psi        :     57.16s CPU    103.88s WALL (    1225 calls)
     s_psi        :      7.59s CPU      7.70s WALL (    1225 calls)
     g_psi        :      0.40s CPU      0.41s WALL (     905 calls)
     cdiaghg      :     34.82s CPU     36.02s WALL (    1205 calls)

     Called by h_psi:
     add_vuspsi   :      8.13s CPU      8.23s WALL (    1225 calls)

     General routines
     calbec       :     15.68s CPU     21.36s WALL (    1565 calls)
     fft          :      9.38s CPU     19.73s WALL (    3159 calls)
     ffts         :      0.02s CPU      0.06s WALL (      31 calls)
     fftw         :     42.42s CPU     92.71s WALL (  183228 calls)
     interpolate  :      0.10s CPU      0.21s WALL (      31 calls)
     davcio       :      0.01s CPU      0.20s WALL (      20 calls)
 
     Parallel routines
     fft_scatter  :     30.35s CPU     88.77s WALL (  186418 calls)
 
     PWSCF        :  3m24.88s CPU     4m56.98s WALL

 
   This run was terminated on:   7:10:18  19Dec2018            

=------------------------------------------------------------------------------=
   JOB DONE.
=------------------------------------------------------------------------------=
Job  /afs/slac/g/suncat/bin/suncat-tsmpirun -x LD_LIBRARY_PATH -wdir /scratch/qe530635_UjxYk pw.x -in pw.inp

TID   HOST_NAME   COMMAND_LINE            STATUS            TERMINATION_TIME
===== ========== ================  =======================  ===================
00000 suncat2063 pw.x -in pw.inp   Done                     12/19/2018 07:10:18
00001 suncat2063 pw.x -in pw.inp   Done                     12/19/2018 07:10:18
00002 suncat2063 pw.x -in pw.inp   Done                     12/19/2018 07:10:18
00003 suncat2063 pw.x -in pw.inp   Done                     12/19/2018 07:10:18
00004 suncat2063 pw.x -in pw.inp   Done                     12/19/2018 07:10:18
00005 suncat2063 pw.x -in pw.inp   Done                     12/19/2018 07:10:18
00006 suncat2063 pw.x -in pw.inp   Done                     12/19/2018 07:10:18
00007 suncat2063 pw.x -in pw.inp   Done                     12/19/2018 07:10:18
00008 suncat2063 pw.x -in pw.inp   Done                     12/19/2018 07:10:18
00009 suncat2063 pw.x -in pw.inp   Done                     12/19/2018 07:10:18
00010 suncat2063 pw.x -in pw.inp   Done                     12/19/2018 07:10:18
00011 suncat2063 pw.x -in pw.inp   Done                     12/19/2018 07:10:18
00012 suncat2063 pw.x -in pw.inp   Done                     12/19/2018 07:10:18
00013 suncat2063 pw.x -in pw.inp   Done                     12/19/2018 07:10:18
00014 suncat2063 pw.x -in pw.inp   Done                     12/19/2018 07:10:18
00015 suncat2063 pw.x -in pw.inp   Done                     12/19/2018 07:10:18
00016 suncat2042 pw.x -in pw.inp   Done                     12/19/2018 07:10:18
00017 suncat2042 pw.x -in pw.inp   Done                     12/19/2018 07:10:18
00018 suncat2042 pw.x -in pw.inp   Done                     12/19/2018 07:10:18
00019 suncat2042 pw.x -in pw.inp   Done                     12/19/2018 07:10:18
00020 suncat2042 pw.x -in pw.inp   Done                     12/19/2018 07:10:18
00021 suncat2042 pw.x -in pw.inp   Done                     12/19/2018 07:10:18
00022 suncat2042 pw.x -in pw.inp   Done                     12/19/2018 07:10:18
00023 suncat2042 pw.x -in pw.inp   Done                     12/19/2018 07:10:18
00024 suncat2042 pw.x -in pw.inp   Done                     12/19/2018 07:10:18
00025 suncat2042 pw.x -in pw.inp   Done                     12/19/2018 07:10:18
00026 suncat2042 pw.x -in pw.inp   Done                     12/19/2018 07:10:18
00027 suncat2042 pw.x -in pw.inp   Done                     12/19/2018 07:10:18
00028 suncat2042 pw.x -in pw.inp   Done                     12/19/2018 07:10:18
00029 suncat2042 pw.x -in pw.inp   Done                     12/19/2018 07:10:18
00030 suncat2042 pw.x -in pw.inp   Done                     12/19/2018 07:10:18
00031 suncat2042 pw.x -in pw.inp   Done                     12/19/2018 07:10:18

     Program PWSCF v.5.1rc2 (svn rev. 11289) starts on 19Dec2018 at  7:10:25 

     This program is part of the open-source Quantum ESPRESSO suite
     for quantum simulation of materials; please cite
         "P. Giannozzi et al., J. Phys.:Condens. Matter 21 395502 (2009);
          URL http://www.quantum-espresso.org", 
     in publications or presentations arising from this work. More details at
     http://www.quantum-espresso.org/quote

     Parallel version (MPI), running on    32 processors
     R & G space division:  proc/nbgrp/npool/nimage =      32
     Reading input from pw.inp
     Message from routine read_cards :
     DEPRECATED: no units specified in CELL_PARAMETERS card

     Current dimensions of program PWSCF are:
     Max number of different atomic species (ntypx) = 10
     Max number of k-points (npk) =  40000
     Max angular momentum in pseudopotentials (lmaxx) =  3
     Presently stress not available with electric field


     **************************************************************************
     Initializing libbeef V0.1.1 with the BEEF-vdW functional.
     Citation: Wellendorff et al., PRB 85, 235149 (2012).
     **************************************************************************


     IMPORTANT: XC functional enforced from input :
     Exchange-correlation      = BEEF-VDW ( 1  4 27 13 2)
     Any further DFT definition will be discarded
     Please, verify this is what you really want


     Subspace diagonalization in iterative solution of the eigenvalue problem:
     a serial algorithm will be used

     Found symmetry operation: I + ( -0.5000  0.0000  0.0000)
     This is a supercell, fractional translations are disabled
 
     Parallelization info
     --------------------
     sticks:   dense  smooth     PW     G-vecs:    dense   smooth      PW
     Min          96      38     11                18348     4631     749
     Max          97      39     12                18357     4655     760
     Sum        3097    1237    367               587285   148505   24081
 


     bravais-lattice index     =            0
     lattice parameter (alat)  =       1.8897  a.u.
     unit-cell volume          =    4937.2427 (a.u.)^3
     number of atoms/cell      =           12
     number of atomic types    =            2
     number of electrons       =       162.00
     number of Kohn-Sham states=          111
     kinetic-energy cutoff     =      36.7493  Ry
     charge density cutoff     =     367.4932  Ry
     convergence threshold     =      1.0E-06
     mixing beta               =       0.1000
     number of iterations used =           10  plain     mixing
     Exchange-correlation      = BEEF-VDW ( 1  4 27 13 2)
     nstep                     =           50


     celldm(1)=   1.889726  celldm(2)=   0.000000  celldm(3)=   0.000000
     celldm(4)=   0.000000  celldm(5)=   0.000000  celldm(6)=   0.000000

     crystal axes: (cart. coord. in units of alat)
               a(1) = (   5.448873   0.000000   0.000000 )  
               a(2) = (  -2.724436   5.432928   0.000000 )  
               a(3) = (   0.000000   0.000000  24.714237 )  

     reciprocal axes: (cart. coord. in units 2 pi/alat)
               b(1) = (  0.183524  0.092031  0.000000 )  
               b(2) = (  0.000000  0.184063  0.000000 )  
               b(3) = (  0.000000  0.000000  0.040463 )  


     PseudoPot. # 1 for Ta read from file:
     /afs/slac.stanford.edu/u/if/mamunm/psp/gbrv1.5pbe/Ta.UPF
     MD5 check sum: f8bbe9446314a3b8ea5d9f3e3836c939
     Pseudo is Ultrasoft + core correction, Zval = 13.0
     Generated by new atomic code, or converted to UPF format
     Using radial grid of  921 points,  7 beta functions with: 
                l(1) =   0
                l(2) =   0
                l(3) =   1
                l(4) =   1
                l(5) =   2
                l(6) =   2
                l(7) =   3
     Q(r) pseudized with  6 coefficients,  rinner =    1.300   1.300   1.300
                                                       1.300   1.300   1.300
                                                       1.300

     PseudoPot. # 2 for W  read from file:
     /afs/slac.stanford.edu/u/if/mamunm/psp/gbrv1.5pbe/W.UPF
     MD5 check sum: 9c083fa34c2a2ea0f02f1f893e16e1c8
     Pseudo is Ultrasoft + core correction, Zval = 14.0
     Generated by new atomic code, or converted to UPF format
     Using radial grid of  923 points,  8 beta functions with: 
                l(1) =   0
                l(2) =   0
                l(3) =   0
                l(4) =   1
                l(5) =   1
                l(6) =   2
                l(7) =   2
                l(8) =   3
     Q(r) pseudized with  6 coefficients,  rinner =    1.350   1.350   1.350
                                                       1.350   1.350   1.350
                                                       1.350

     vdW kernel table read from file vdW_kernel_table
     MD5 check sum: 095c7af220d748ca6e76c0b4c6cfb241

     atomic species   valence    mass     pseudopotential
        Ta1           13.00   180.94788     Ta( 1.00)
        W1            14.00   183.84000     W ( 1.00)

     No symmetry found



   Cartesian axes

     site n.     atom                  positions (alat units)
         1           Ta1 tau(   1) = (   0.0000000   0.0000000  10.0000000  )
         2           Ta1 tau(   2) = (   2.7244364   0.0000000  10.0000000  )
         3           W1  tau(   3) = (   1.3622182   2.7164642  10.0000000  )
         4           W1  tau(   4) = (  -1.3622182   2.7164642  10.0000000  )
         5           Ta1 tau(   5) = (   2.7244364   1.3662160  12.3571185  )
         6           Ta1 tau(   6) = (  -0.0000000   1.3662160  12.3571185  )
         7           W1  tau(   7) = (  -1.3622182   4.0826803  12.3571185  )
         8           W1  tau(   8) = (   1.3622182   4.0826803  12.3571185  )
         9           Ta1 tau(   9) = (  -0.0000009   2.7517174  14.7422882  )
        10           Ta1 tau(  10) = (   2.7244386   2.7517236  14.7422974  )
        11           W1  tau(  11) = (   1.3622226   5.4306501  14.6408571  )
        12           W1  tau(  12) = (  -1.3622228   5.4306463  14.6408520  )

     number of k points=    20  Fermi-Dirac smearing, width (Ry)=  0.0110
                       cart. coord. in units 2pi/alat
        k(    1) = (   0.0000000   0.0000000   0.0000000), wk =   0.0555556
        k(    2) = (   0.0000000   0.0306771   0.0000000), wk =   0.1111111
        k(    3) = (   0.0000000   0.0613543   0.0000000), wk =   0.1111111
        k(    4) = (   0.0000000  -0.0920314   0.0000000), wk =   0.0555556
        k(    5) = (   0.0305874   0.0153386   0.0000000), wk =   0.1111111
        k(    6) = (   0.0305874   0.0460157   0.0000000), wk =   0.1111111
        k(    7) = (   0.0305874   0.0766928   0.0000000), wk =   0.1111111
        k(    8) = (   0.0305874  -0.0766928   0.0000000), wk =   0.1111111
        k(    9) = (   0.0305874  -0.0460157   0.0000000), wk =   0.1111111
        k(   10) = (   0.0305874  -0.0153386   0.0000000), wk =   0.1111111
        k(   11) = (   0.0611747   0.0306771   0.0000000), wk =   0.1111111
        k(   12) = (   0.0611747   0.0613543   0.0000000), wk =   0.1111111
        k(   13) = (   0.0611747   0.0920314   0.0000000), wk =   0.1111111
        k(   14) = (   0.0611747  -0.0613543   0.0000000), wk =   0.1111111
        k(   15) = (   0.0611747  -0.0306771   0.0000000), wk =   0.1111111
        k(   16) = (   0.0611747   0.0000000   0.0000000), wk =   0.1111111
        k(   17) = (  -0.0917621  -0.0460157   0.0000000), wk =   0.0555556
        k(   18) = (  -0.0917621  -0.0153386   0.0000000), wk =   0.1111111
        k(   19) = (  -0.0917621   0.0153386   0.0000000), wk =   0.1111111
        k(   20) = (  -0.0917621  -0.1380471   0.0000000), wk =   0.0555556

     Dense  grid:   587285 G-vectors     FFT dimensions: (  64,  72, 288)

     Smooth grid:   148505 G-vectors     FFT dimensions: (  40,  45, 192)

     Largest allocated arrays     est. size (Mb)     dimensions
        Kohn-Sham Wavefunctions         1.02 Mb     (     602,  111)
        NL pseudopotentials             2.81 Mb     (     602,  306)
        Each V/rho on FFT grid          0.63 Mb     (   41472)
        Each G-vector array             0.14 Mb     (   18357)
        G-vector shells                 0.07 Mb     (    8950)
     Largest temporary arrays     est. size (Mb)     dimensions
        Auxiliary wavefunctions         4.08 Mb     (     602,  444)
        Each subspace H/S matrix        3.01 Mb     (     444,  444)
        Each <psi_i|beta_j> matrix      0.52 Mb     (     306,  111)
        Arrays for rho mixing           6.33 Mb     (   41472,   10)

     Initial potential from superposition of free atoms
     Check: negative starting charge=   -0.948548

     starting charge  161.39129, renormalised to  162.00000

     negative rho (up, down):  9.521E-01 0.000E+00


     ************************************************************************
     *
     * You are using vdW-DF for exchange-correlation in this calculation.
     * Please cite the following three references that made this development
     * possible:
     *
     *   M. Dion, H. Rydberg, E. Schroder, D. C. Langreth, and
     *   B. I. Lundqvist, Phys. Rev. Lett. 92, 246401 (2004).
     *
     *   T. Thonhauser, V. R. Cooper, S. Li, A. Puzder, P. Hyldgaard, and
     *   D. C. Langreth, Phys. Rev. B 76, 125112 (2007).
     *
     *   G. Roman-Perez and J. M. Soler, Phys. Rev. Lett. 103, 096102 (2009).
     *
     *
     * If you are using vdW-DF2, please also cite:
     *
     *   K. Lee, E. D. Murray, L. Kong, B. I. Lundqvist, and
     *   D. C. Langreth, Phys. Rev. B 82, 081101(R) (2010).
     *
     *
     * If you are calculating the stress with vdW-DF, please also cite:
     *
     *   R. Sabatini, E. Kucukbenli, B. Kolb, T. Thonhauser, and
     *   S. de Gironcoli, J. Phys.: Condens. Matter 24, 424209 (2012).
     *
     ************************************************************************

     Carrying out vdW-DF run using the following parameters:

     Nqs =      20    Nr_points =    1024   r_max =   100.000
     q_mesh =
               0.00001000     0.04494208     0.09755937     0.15916263
               0.23128650     0.31572767     0.41458969     0.53033537
               0.66584808     0.82450364     1.01025438     1.22772762
               1.48234092     1.78043706     2.12944203     2.53805004
               3.01644009     3.57652955     4.23227104     5.00000000

     Gradients computed in reciprocal space

     ************************************************************************


 
     Adding external electric field

     Computed dipole along edir(3) : 
        Dipole               -0.0184 Ry au,         -0.0467 Debye
        Dipole field         -0.0000 Ry au
 
        Potential amp.        0.0043 Ry
        Total length         45.5356 bohr
 
     Starting wfc are  156 randomized atomic wfcs

     total cpu time spent up to now is        9.3 secs

     Self-consistent Calculation

     iteration #  1     ecut=    36.75 Ry     beta=0.10
     Davidson diagonalization with overlap
     ethr =  1.00E-02,  avg # of iterations =  2.0

     negative rho (up, down):  9.553E-01 0.000E+00
 
     Adding external electric field

     Computed dipole along edir(3) : 
        Dipole                0.0603 Ry au,          0.1533 Debye
        Dipole field          0.0002 Ry au
 
        Potential amp.       -0.0140 Ry
        Total length         45.5356 bohr
 

     total cpu time spent up to now is       26.3 secs

     total energy              =   -1821.29938458 Ry
     Harris-Foulkes estimate   =   -1821.86477660 Ry
     estimated scf accuracy    <       3.32626975 Ry

     iteration #  2     ecut=    36.75 Ry     beta=0.10
     Davidson diagonalization with overlap
     ethr =  2.05E-03,  avg # of iterations =  1.8

     negative rho (up, down):  9.572E-01 0.000E+00
 
     Adding external electric field

     Computed dipole along edir(3) : 
        Dipole               -0.2354 Ry au,         -0.5983 Debye
        Dipole field         -0.0006 Ry au
 
        Potential amp.        0.0546 Ry
        Total length         45.5356 bohr
 

     total cpu time spent up to now is       41.7 secs

     total energy              =   -1821.52307219 Ry
     Harris-Foulkes estimate   =   -1821.65835171 Ry
     estimated scf accuracy    <       1.25065406 Ry

     iteration #  3     ecut=    36.75 Ry     beta=0.10
     Davidson diagonalization with overlap
     ethr =  7.72E-04,  avg # of iterations =  1.3

     negative rho (up, down):  9.577E-01 0.000E+00
 
     Adding external electric field

     Computed dipole along edir(3) : 
        Dipole                0.0605 Ry au,          0.1539 Debye
        Dipole field          0.0002 Ry au
 
        Potential amp.       -0.0140 Ry
        Total length         45.5356 bohr
 

     total cpu time spent up to now is       55.4 secs

     total energy              =   -1821.51588339 Ry
     Harris-Foulkes estimate   =   -1821.63690474 Ry
     estimated scf accuracy    <       4.21514752 Ry

     iteration #  4     ecut=    36.75 Ry     beta=0.10
     Davidson diagonalization with overlap
     ethr =  7.72E-04,  avg # of iterations =  1.0

     negative rho (up, down):  9.641E-01 0.000E+00
 
     Adding external electric field

     Computed dipole along edir(3) : 
        Dipole                0.0108 Ry au,          0.0275 Debye
        Dipole field          0.0000 Ry au
 
        Potential amp.       -0.0025 Ry
        Total length         45.5356 bohr
 

     total cpu time spent up to now is       69.0 secs

     total energy              =   -1821.50702240 Ry
     Harris-Foulkes estimate   =   -1821.58558867 Ry
     estimated scf accuracy    <       0.52647209 Ry

     iteration #  5     ecut=    36.75 Ry     beta=0.10
     Davidson diagonalization with overlap
     ethr =  3.25E-04,  avg # of iterations =  2.0

     negative rho (up, down):  9.690E-01 0.000E+00
 
     Adding external electric field

     Computed dipole along edir(3) : 
        Dipole                0.0201 Ry au,          0.0511 Debye
        Dipole field          0.0001 Ry au
 
        Potential amp.       -0.0047 Ry
        Total length         45.5356 bohr
 

     total cpu time spent up to now is       83.9 secs

     total energy              =   -1821.51642267 Ry
     Harris-Foulkes estimate   =   -1821.52965440 Ry
     estimated scf accuracy    <       0.10620303 Ry

     iteration #  6     ecut=    36.75 Ry     beta=0.10
     Davidson diagonalization with overlap
     ethr =  6.56E-05,  avg # of iterations =  6.3

     negative rho (up, down):  9.784E-01 0.000E+00
 
     Adding external electric field

     Computed dipole along edir(3) : 
        Dipole                0.0179 Ry au,          0.0455 Debye
        Dipole field          0.0000 Ry au
 
        Potential amp.       -0.0042 Ry
        Total length         45.5356 bohr
 

     total cpu time spent up to now is      102.9 secs

     total energy              =   -1821.51075928 Ry
     Harris-Foulkes estimate   =   -1821.51997148 Ry
     estimated scf accuracy    <       0.05295376 Ry

     iteration #  7     ecut=    36.75 Ry     beta=0.10
     Davidson diagonalization with overlap
     ethr =  3.27E-05,  avg # of iterations =  3.1

     negative rho (up, down):  9.831E-01 0.000E+00
 
     Adding external electric field

     Computed dipole along edir(3) : 
        Dipole                0.0197 Ry au,          0.0500 Debye
        Dipole field          0.0001 Ry au
 
        Potential amp.       -0.0046 Ry
        Total length         45.5356 bohr
 

     total cpu time spent up to now is      119.6 secs

     total energy              =   -1821.51535758 Ry
     Harris-Foulkes estimate   =   -1821.51471867 Ry
     estimated scf accuracy    <       0.00784022 Ry

     iteration #  8     ecut=    36.75 Ry     beta=0.10
     Davidson diagonalization with overlap
     ethr =  4.84E-06,  avg # of iterations =  5.5

     negative rho (up, down):  9.862E-01 0.000E+00
 
     Adding external electric field

     Computed dipole along edir(3) : 
        Dipole                0.0167 Ry au,          0.0425 Debye
        Dipole field          0.0000 Ry au
 
        Potential amp.       -0.0039 Ry
        Total length         45.5356 bohr
 

     total cpu time spent up to now is      139.8 secs

     total energy              =   -1821.51586772 Ry
     Harris-Foulkes estimate   =   -1821.51598275 Ry
     estimated scf accuracy    <       0.00269365 Ry

     iteration #  9     ecut=    36.75 Ry     beta=0.10
     Davidson diagonalization with overlap
     ethr =  1.66E-06,  avg # of iterations =  1.7

     negative rho (up, down):  9.903E-01 0.000E+00
 
     Adding external electric field

     Computed dipole along edir(3) : 
        Dipole                0.0184 Ry au,          0.0467 Debye
        Dipole field          0.0000 Ry au
 
        Potential amp.       -0.0043 Ry
        Total length         45.5356 bohr
 

     total cpu time spent up to now is      154.2 secs

     total energy              =   -1821.51613150 Ry
     Harris-Foulkes estimate   =   -1821.51598249 Ry
     estimated scf accuracy    <       0.00106655 Ry

     iteration # 10     ecut=    36.75 Ry     beta=0.10
     Davidson diagonalization with overlap
     ethr =  6.58E-07,  avg # of iterations =  2.9

     negative rho (up, down):  9.906E-01 0.000E+00
 
     Adding external electric field

     Computed dipole along edir(3) : 
        Dipole                0.0183 Ry au,          0.0466 Debye
        Dipole field          0.0000 Ry au
 
        Potential amp.       -0.0042 Ry
        Total length         45.5356 bohr
 

     total cpu time spent up to now is      170.6 secs

     total energy              =   -1821.51622757 Ry
     Harris-Foulkes estimate   =   -1821.51622286 Ry
     estimated scf accuracy    <       0.00007141 Ry

     iteration # 11     ecut=    36.75 Ry     beta=0.10
     Davidson diagonalization with overlap
     ethr =  4.41E-08,  avg # of iterations =  2.8

     negative rho (up, down):  9.908E-01 0.000E+00
 
     Adding external electric field

     Computed dipole along edir(3) : 
        Dipole                0.0192 Ry au,          0.0487 Debye
        Dipole field          0.0000 Ry au
 
        Potential amp.       -0.0044 Ry
        Total length         45.5356 bohr
 

     total cpu time spent up to now is      186.5 secs

     total energy              =   -1821.51623082 Ry
     Harris-Foulkes estimate   =   -1821.51623278 Ry
     estimated scf accuracy    <       0.00003911 Ry

     iteration # 12     ecut=    36.75 Ry     beta=0.10
     Davidson diagonalization with overlap
     ethr =  2.41E-08,  avg # of iterations =  2.0

     negative rho (up, down):  9.910E-01 0.000E+00
 
     Adding external electric field

     Computed dipole along edir(3) : 
        Dipole                0.0190 Ry au,          0.0483 Debye
        Dipole field          0.0000 Ry au
 
        Potential amp.       -0.0044 Ry
        Total length         45.5356 bohr
 

     total cpu time spent up to now is      202.7 secs

     total energy              =   -1821.51623877 Ry
     Harris-Foulkes estimate   =   -1821.51623741 Ry
     estimated scf accuracy    <       0.00000642 Ry

     iteration # 13     ecut=    36.75 Ry     beta=0.10
     Davidson diagonalization with overlap
     ethr =  3.96E-09,  avg # of iterations =  2.0

     negative rho (up, down):  9.910E-01 0.000E+00
 
     Adding external electric field

     Computed dipole along edir(3) : 
        Dipole                0.0186 Ry au,          0.0472 Debye
        Dipole field          0.0000 Ry au
 
        Potential amp.       -0.0043 Ry
        Total length         45.5356 bohr
 

     total cpu time spent up to now is      217.8 secs

     total energy              =   -1821.51624044 Ry
     Harris-Foulkes estimate   =   -1821.51623933 Ry
     estimated scf accuracy    <       0.00000238 Ry

     iteration # 14     ecut=    36.75 Ry     beta=0.10
     Davidson diagonalization with overlap
     ethr =  1.47E-09,  avg # of iterations =  2.4

     negative rho (up, down):  9.909E-01 0.000E+00

     negative rho (up, down):  9.909E-01 0.000E+00

     negative rho (up, down):  9.909E-01 0.000E+00

     negative rho (up, down):  9.909E-01 0.000E+00

     negative rho (up, down):  9.909E-01 0.000E+00

     negative rho (up, down):  9.909E-01 0.000E+00

     negative rho (up, down):  9.909E-01 0.000E+00

     negative rho (up, down):  9.909E-01 0.000E+00

     negative rho (up, down):  9.909E-01 0.000E+00

     negative rho (up, down):  9.909E-01 0.000E+00

     negative rho (up, down):  9.909E-01 0.000E+00

     negative rho (up, down):  9.909E-01 0.000E+00

     negative rho (up, down):  9.909E-01 0.000E+00

     negative rho (up, down):  9.909E-01 0.000E+00

     negative rho (up, down):  9.909E-01 0.000E+00

     negative rho (up, down):  9.909E-01 0.000E+00

     negative rho (up, down):  9.909E-01 0.000E+00

     negative rho (up, down):  9.909E-01 0.000E+00

     negative rho (up, down):  9.909E-01 0.000E+00

     negative rho (up, down):  9.909E-01 0.000E+00

     negative rho (up, down):  9.909E-01 0.000E+00

     negative rho (up, down):  9.909E-01 0.000E+00

     negative rho (up, down):  9.909E-01 0.000E+00

     negative rho (up, down):  9.909E-01 0.000E+00

     negative rho (up, down):  9.909E-01 0.000E+00

     negative rho (up, down):  9.909E-01 0.000E+00

     negative rho (up, down):  9.909E-01 0.000E+00

     negative rho (up, down):  9.909E-01 0.000E+00

     negative rho (up, down):  9.909E-01 0.000E+00

     negative rho (up, down):  9.909E-01 0.000E+00

     negative rho (up, down):  9.909E-01 0.000E+00

     negative rho (up, down):  9.909E-01 0.000E+00

     negative rho (up, down):  9.909E-01 0.000E+00

     negative rho (up, down):  9.909E-01 0.000E+00

     negative rho (up, down):  9.909E-01 0.000E+00
 
     Adding external electric field

     Computed dipole along edir(3) : 
        Dipole                0.0193 Ry au,          0.0490 Debye
        Dipole field          0.0000 Ry au
 
        Potential amp.       -0.0045 Ry
        Total length         45.5356 bohr
 

     total cpu time spent up to now is      249.0 secs

     End of self-consistent calculation

          k = 0.0000 0.0000 0.0000 ( 18445 PWs)   bands (ev):

   -72.2232 -72.1624 -72.0780 -72.0274 -72.0182 -71.9674 -66.0883 -66.0320
   -66.0021 -65.9456 -65.8314 -65.7435 -36.7460 -36.6386 -36.5211 -36.4898
   -36.4582 -36.3479 -36.2382 -36.2350 -36.1568 -36.1413 -36.1275 -36.0472
   -36.0178 -35.8851 -35.8514 -35.8002 -35.6118 -35.5779 -32.8948 -32.8569
   -32.7855 -32.7632 -32.6461 -32.5644 -32.4306 -32.4028 -32.3457 -32.2853
   -32.2262 -32.2200 -32.0984 -31.9371 -31.8213 -31.7440 -31.7037 -31.6140
    -5.7086  -3.9313  -3.0125  -2.6232  -2.5090  -2.4018  -2.3269  -2.2858
    -2.0997  -1.6517  -1.3701  -1.3179  -1.2887  -1.2596  -1.2384  -0.2917
    -0.0011   0.1411   0.1643   0.7281   0.7343   0.7639   0.8518   1.3205
     1.3368   1.5456   1.8898   1.9959   2.2143   2.3628   2.4503   2.5079
     2.6599   2.7260   3.1890   3.2001   3.3165   3.4099   3.4106   3.4439
     3.8076   3.8754   3.9823   4.1242   4.3201   4.3550   4.6655   4.7163
     4.8482   4.8724   5.2115   5.4430   5.6251   6.0225   6.2467   6.2873
     6.4614   6.4713   6.5346   6.7625   6.7819   6.8194   7.1132

          k = 0.0000 0.0307 0.0000 ( 18548 PWs)   bands (ev):

   -72.2232 -72.1624 -72.0780 -72.0275 -72.0182 -71.9675 -66.0884 -66.0321
   -66.0021 -65.9456 -65.8314 -65.7435 -36.7448 -36.6365 -36.5206 -36.4892
   -36.4573 -36.3447 -36.2397 -36.2336 -36.1534 -36.1420 -36.1246 -36.0465
   -36.0173 -35.8853 -35.8515 -35.8004 -35.6120 -35.5781 -32.8992 -32.8589
   -32.7902 -32.7644 -32.6477 -32.5622 -32.4300 -32.4118 -32.3520 -32.2886
   -32.2286 -32.2243 -32.0996 -31.9377 -31.8215 -31.7445 -31.7040 -31.6143
    -5.4988  -3.7284  -2.8155  -2.7165  -2.3701  -2.3135  -2.2252  -2.1362
    -1.9589  -1.5726  -1.1986  -1.1769  -1.1534  -1.1168  -1.0270  -0.3191
    -0.0092   0.1420   0.2900   0.4448   0.6297   0.6711   0.8532   1.1562
     1.2734   1.4747   1.7513   1.7661   1.8925   2.1266   2.3997   2.4484
     2.5284   2.5775   2.7460   2.8219   3.2026   3.2910   3.3523   3.5173
     3.5751   3.7387   3.8042   3.9026   4.1383   4.3710   4.6191   4.8063
     4.8070   4.8967   5.0824   5.1508   5.2163   5.6799   5.8639   5.8774
     6.1314   6.3757   6.3939   6.5587   6.6099   6.8481   7.0855

          k = 0.0000 0.0614 0.0000 ( 18574 PWs)   bands (ev):

   -72.2232 -72.1624 -72.0781 -72.0275 -72.0182 -71.9675 -66.0884 -66.0321
   -66.0021 -65.9456 -65.8314 -65.7435 -36.7423 -36.6322 -36.5186 -36.4876
   -36.4550 -36.3379 -36.2421 -36.2300 -36.1457 -36.1428 -36.1185 -36.0443
   -36.0152 -35.8848 -35.8516 -35.8004 -35.6121 -35.5782 -32.9078 -32.8631
   -32.7994 -32.7664 -32.6504 -32.5574 -32.4292 -32.4284 -32.3647 -32.2948
   -32.2325 -32.2325 -32.1015 -31.9379 -31.8213 -31.7454 -31.7047 -31.6145
    -4.9147  -3.3173  -3.1199  -2.3187  -2.1480  -2.0702  -1.7656  -1.7130
    -1.6261  -1.3881  -0.9267  -0.8837  -0.8215  -0.6933  -0.4203  -0.2523
    -0.0249  -0.0077   0.1519   0.2320   0.3601   0.5676   0.6792   0.8904
     0.8917   1.1269   1.3808   1.5270   1.5906   1.6551   1.7025   1.9599
     2.0365   2.1829   2.2962   2.4710   2.5431   2.6844   3.1311   3.3256
     3.4431   3.4716   3.8136   4.0194   4.0399   4.1391   4.1812   4.3267
     4.5533   4.7247   4.8387   4.8982   5.3903   5.3990   5.4679   5.5642
     5.9576   5.9725   6.4707   6.5635   6.7527   6.7898   6.9087

          k = 0.0000-0.0920 0.0000 ( 18578 PWs)   bands (ev):

[...]
     3.4642   3.6860   3.7813   3.7930   3.9710   4.1195   4.2090   4.6973
     4.8552   5.1153   5.1341   5.2730   5.4986   5.8159   5.8659   5.9825
     6.1861   6.3405   6.3823   6.5738   6.7180   6.8082   6.9056

          k = 0.0612 0.0307 0.0000 ( 18589 PWs)   bands (ev):

   -72.1931 -72.1627 -72.0559 -72.0260 -71.9841 -71.9541 -66.0727 -66.0296
   -65.9977 -65.9545 -65.7969 -65.7530 -36.6204 -36.5611 -36.5198 -36.3040
   -36.2710 -36.2471 -36.2253 -36.2080 -36.1590 -36.1147 -36.0763 -36.0708
   -36.0589 -36.0201 -35.8339 -35.8249 -35.7852 -35.7835 -32.7482 -32.6786
   -32.6269 -32.5758 -32.5284 -32.4846 -32.4599 -32.3827 -32.3233 -32.3126
   -32.2525 -32.1829 -32.1221 -32.0532 -32.0002 -31.9101 -31.9000 -31.8430
    -4.6939  -2.9308  -2.8420  -2.0401  -2.0152  -1.9668  -1.8683  -1.5869
    -1.5395  -1.1854  -0.9584  -0.6529  -0.6285  -0.5229  -0.3893   0.0255
     0.1699   0.2017   0.5438   0.6154   0.8246   0.8646   1.1344   1.2690
     1.3116   1.4256   1.4696   1.6504   1.7543   1.8426   1.9181   2.0212
     2.0313   2.1296   2.3490   2.4213   2.6805   2.6959   3.0120   3.1104
     3.1670   3.2801   3.4513   3.5360   3.6962   3.7546   4.0321   4.2518
     4.5289   4.5887   4.7114   4.7658   4.9972   5.1272   5.3737   5.6653
     5.7207   5.7586   5.8350   5.9079   6.2892   6.3837   6.4713

          k = 0.0612 0.0614 0.0000 ( 18587 PWs)   bands (ev):

   -72.1931 -72.1627 -72.0559 -72.0260 -71.9841 -71.9541 -66.0727 -66.0296
   -65.9978 -65.9545 -65.7969 -65.7529 -36.6173 -36.5612 -36.5177 -36.2994
   -36.2696 -36.2464 -36.2236 -36.2098 -36.1591 -36.1091 -36.0728 -36.0706
   -36.0594 -36.0207 -35.8343 -35.8245 -35.7856 -35.7835 -32.7540 -32.6786
   -32.6324 -32.5794 -32.5255 -32.4863 -32.4597 -32.3936 -32.3238 -32.3208
   -32.2527 -32.1885 -32.1216 -32.0519 -31.9992 -31.9093 -31.9003 -31.8428
    -4.1617  -2.9864  -2.5788  -2.3833  -1.9104  -1.5792  -1.4779  -1.3520
    -1.1480  -0.8824  -0.7032  -0.5258  -0.3927  -0.3511  -0.1892   0.0313
     0.1873   0.2480   0.3132   0.4426   0.5024   0.6207   0.7340   0.8695
     0.9323   1.0321   1.2426   1.3358   1.4277   1.5569   1.6386   1.6730
     1.8839   2.0015   2.1844   2.2505   2.3112   2.5390   2.9430   3.1815
     3.2913   3.4698   3.5608   3.8268   3.8305   3.9171   4.0849   4.1977
     4.3048   4.4682   4.7024   4.9243   4.9403   5.0036   5.2520   5.5037
     5.5560   5.6483   5.7339   5.8400   6.1140   6.4213   6.5181

          k = 0.0612 0.0920 0.0000 ( 18608 PWs)   bands (ev):

   -72.1931 -72.1627 -72.0559 -72.0260 -71.9841 -71.9541 -66.0727 -66.0296
   -65.9978 -65.9545 -65.7970 -65.7529 -36.6156 -36.5614 -36.5168 -36.2971
   -36.2691 -36.2461 -36.2229 -36.2105 -36.1592 -36.1064 -36.0725 -36.0693
   -36.0597 -36.0209 -35.8346 -35.8243 -35.7858 -35.7836 -32.7568 -32.6787
   -32.6351 -32.5812 -32.5240 -32.4874 -32.4597 -32.3990 -32.3251 -32.3242
   -32.2528 -32.1914 -32.1214 -32.0514 -31.9988 -31.9088 -31.9006 -31.8426
    -3.4928  -3.2407  -3.0159  -1.8867  -1.8338  -1.8170  -1.0111  -0.8943
    -0.8225  -0.6711  -0.5756  -0.5724  -0.4872  -0.3688  -0.1225  -0.0455
     0.0296   0.2283   0.2775   0.3543   0.3909   0.4847   0.5957   0.6159
     0.7667   0.8304   1.0312   1.1311   1.2258   1.3864   1.4001   1.8206
     1.8271   2.0349   2.0925   2.1350   2.2286   2.6897   2.7760   2.8628
     3.2598   3.4360   3.5617   3.7868   3.8426   3.9433   3.9973   4.4045
     4.5590   4.7008   4.8445   5.0136   5.0674   5.3369   5.4250   5.4892
     5.5513   5.5847   5.6671   5.8082   5.9746   6.1151   6.1523

          k = 0.0612-0.0614 0.0000 ( 18587 PWs)   bands (ev):

   -72.1931 -72.1627 -72.0559 -72.0260 -71.9841 -71.9541 -66.0727 -66.0296
   -65.9978 -65.9545 -65.7969 -65.7529 -36.6173 -36.5612 -36.5177 -36.2994
   -36.2696 -36.2464 -36.2236 -36.2098 -36.1591 -36.1091 -36.0728 -36.0706
   -36.0594 -36.0207 -35.8343 -35.8245 -35.7856 -35.7835 -32.7540 -32.6786
   -32.6324 -32.5794 -32.5255 -32.4863 -32.4597 -32.3936 -32.3238 -32.3208
   -32.2527 -32.1885 -32.1216 -32.0519 -31.9992 -31.9093 -31.9003 -31.8428
    -4.1617  -2.9864  -2.5788  -2.3833  -1.9104  -1.5792  -1.4779  -1.3520
    -1.1480  -0.8824  -0.7032  -0.5258  -0.3927  -0.3511  -0.1892   0.0313
     0.1873   0.2480   0.3132   0.4426   0.5024   0.6207   0.7340   0.8695
     0.9323   1.0321   1.2426   1.3358   1.4277   1.5569   1.6386   1.6730
     1.8839   2.0015   2.1844   2.2505   2.3112   2.5390   2.9430   3.1815
     3.2913   3.4698   3.5608   3.8268   3.8305   3.9171   4.0849   4.1977
     4.3048   4.4682   4.7024   4.9243   4.9403   5.0036   5.2520   5.5037
     5.5560   5.6483   5.7339   5.8400   6.1140   6.4213   6.5180

          k = 0.0612-0.0307 0.0000 ( 18589 PWs)   bands (ev):

   -72.1931 -72.1627 -72.0559 -72.0260 -71.9841 -71.9541 -66.0727 -66.0296
   -65.9977 -65.9545 -65.7969 -65.7530 -36.6204 -36.5611 -36.5198 -36.3040
   -36.2710 -36.2471 -36.2253 -36.2080 -36.1590 -36.1147 -36.0763 -36.0708
   -36.0589 -36.0201 -35.8339 -35.8249 -35.7852 -35.7835 -32.7482 -32.6786
   -32.6269 -32.5758 -32.5284 -32.4846 -32.4599 -32.3827 -32.3233 -32.3126
   -32.2525 -32.1829 -32.1221 -32.0532 -32.0002 -31.9101 -31.9000 -31.8430
    -4.6939  -2.9308  -2.8420  -2.0401  -2.0152  -1.9668  -1.8683  -1.5869
    -1.5395  -1.1854  -0.9584  -0.6529  -0.6285  -0.5229  -0.3893   0.0255
     0.1699   0.2017   0.5438   0.6154   0.8246   0.8646   1.1344   1.2690
     1.3116   1.4256   1.4696   1.6504   1.7543   1.8426   1.9181   2.0212
     2.0313   2.1296   2.3490   2.4213   2.6805   2.6959   3.0120   3.1104
     3.1670   3.2801   3.4513   3.5360   3.6961   3.7546   4.0321   4.2518
     4.5289   4.5887   4.7114   4.7658   4.9972   5.1272   5.3737   5.6653
     5.7207   5.7586   5.8350   5.9079   6.2892   6.3837   6.4712

          k = 0.0612 0.0000 0.0000 ( 18590 PWs)   bands (ev):

   -72.1931 -72.1627 -72.0559 -72.0260 -71.9841 -71.9541 -66.0726 -66.0296
   -65.9977 -65.9545 -65.7969 -65.7530 -36.6218 -36.5612 -36.5208 -36.3062
   -36.2717 -36.2474 -36.2262 -36.2071 -36.1590 -36.1173 -36.0783 -36.0707
   -36.0588 -36.0200 -35.8336 -35.8252 -35.7850 -35.7834 -32.7452 -32.6786
   -32.6241 -32.5740 -32.5299 -32.4838 -32.4600 -32.3771 -32.3232 -32.3083
   -32.2524 -32.1800 -32.1225 -32.0540 -32.0008 -31.9103 -31.9000 -31.8432
    -4.8815  -3.1059  -2.5512  -2.4364  -2.2013  -1.9565  -1.8191  -1.7072
    -1.6119  -1.2247  -1.1350  -0.7326  -0.6638  -0.6393  -0.6186   0.0397
     0.1207   0.2824   0.5577   0.7733   0.9643   1.1208   1.1415   1.3345
     1.3780   1.4543   1.8493   1.9061   1.9249   1.9450   1.9663   2.2380
     2.3227   2.3727   2.5222   2.6042   2.7410   2.7602   2.7688   2.8517
     3.0000   3.1301   3.2162   3.4332   3.6907   3.7621   3.8905   4.5298
     4.5411   4.7881   4.9483   5.1018   5.2378   5.3040   5.4034   5.5173
     5.8964   5.9524   6.1452   6.2063   6.3057   6.3849   6.5097

          k =-0.0918-0.0460 0.0000 ( 18592 PWs)   bands (ev):

   -72.1779 -72.1779 -72.0410 -72.0410 -71.9691 -71.9691 -66.0512 -66.0512
   -65.9762 -65.9762 -65.7750 -65.7750 -36.5900 -36.5900 -36.3001 -36.3001
   -36.2738 -36.2738 -36.1833 -36.1833 -36.0854 -36.0854 -36.0546 -36.0546
   -36.0470 -36.0470 -36.0082 -36.0081 -35.8046 -35.8045 -32.7148 -32.7148
   -32.4946 -32.4946 -32.3596 -32.3596 -32.3430 -32.3430 -32.2963 -32.2963
   -32.2826 -32.2826 -32.2017 -32.2017 -32.1536 -32.1536 -31.8721 -31.8721
    -3.6959  -3.6958  -2.1630  -2.1630  -1.7047  -1.7047  -1.3290  -1.3290
    -1.1940  -1.1940  -0.5539  -0.5539  -0.1361  -0.1360   0.1036   0.1036
     0.1283   0.1284   0.5062   0.5063   0.7777   0.7777   1.1081   1.1081
     1.2636   1.2636   1.3917   1.3917   1.5160   1.5161   1.7551   1.7551
     1.9333   1.9333   2.0833   2.0833   2.2698   2.2698   3.0780   3.0780
     3.4368   3.4368   3.5426   3.5426   3.8685   3.8685   4.0879   4.0879
     4.2397   4.2397   4.3397   4.3398   4.4021   4.4021   4.7475   4.7476
     5.2349   5.2349   5.7562   5.7562   6.2595   6.2595   6.4875

          k =-0.0918-0.0153 0.0000 ( 18598 PWs)   bands (ev):

   -72.1779 -72.1779 -72.0410 -72.0410 -71.9691 -71.9691 -66.0512 -66.0511
   -65.9762 -65.9762 -65.7750 -65.7750 -36.5914 -36.5886 -36.3012 -36.2986
   -36.2759 -36.2722 -36.1838 -36.1828 -36.0880 -36.0827 -36.0557 -36.0539
   -36.0490 -36.0448 -36.0093 -36.0072 -35.8048 -35.8044 -32.7173 -32.7124
   -32.4960 -32.4933 -32.3611 -32.3549 -32.3460 -32.3433 -32.2965 -32.2943
   -32.2862 -32.2806 -32.2028 -32.2005 -32.1563 -32.1511 -31.8723 -31.8718
    -3.9707  -3.1733  -2.4307  -2.3354  -1.8161  -1.4382  -1.4279  -1.2670
    -1.0840  -1.0753  -0.7490  -0.4719  -0.2063  -0.1961  -0.0592   0.0638
     0.1979   0.2568   0.4464   0.4772   0.6323   0.8548   1.0632   1.1744
     1.2488   1.3661   1.3841   1.4336   1.4991   1.7063   1.7433   1.7738
     1.8036   1.9708   2.0837   2.1370   2.3324   2.6254   2.6911   3.0054
     3.1823   3.3576   3.4917   3.5913   3.7207   3.8111   3.9213   4.0145
     4.0892   4.1934   4.3313   4.7144   4.7453   4.9143   5.0897   5.2084
     5.4523   5.5626   5.6585   5.7899   6.0276   6.0343   6.2379

          k =-0.0918 0.0153 0.0000 ( 18598 PWs)   bands (ev):

   -72.1779 -72.1779 -72.0410 -72.0410 -71.9691 -71.9691 -66.0512 -66.0511
   -65.9762 -65.9762 -65.7750 -65.7750 -36.5914 -36.5886 -36.3012 -36.2986
   -36.2759 -36.2722 -36.1838 -36.1828 -36.0880 -36.0827 -36.0557 -36.0539
   -36.0490 -36.0448 -36.0093 -36.0072 -35.8048 -35.8044 -32.7173 -32.7124
   -32.4960 -32.4933 -32.3611 -32.3549 -32.3460 -32.3433 -32.2965 -32.2943
   -32.2862 -32.2806 -32.2028 -32.2005 -32.1563 -32.1511 -31.8723 -31.8718
    -3.9707  -3.1733  -2.4307  -2.3354  -1.8161  -1.4382  -1.4279  -1.2670
    -1.0840  -1.0753  -0.7490  -0.4719  -0.2063  -0.1960  -0.0592   0.0638
     0.1979   0.2568   0.4464   0.4772   0.6323   0.8548   1.0632   1.1744
     1.2488   1.3661   1.3841   1.4336   1.4991   1.7063   1.7433   1.7738
     1.8036   1.9709   2.0837   2.1370   2.3324   2.6254   2.6911   3.0054
     3.1823   3.3576   3.4917   3.5913   3.7207   3.8111   3.9213   4.0145
     4.0892   4.1934   4.3313   4.7144   4.7453   4.9143   5.0897   5.2084
     5.4523   5.5626   5.6585   5.7899   6.0276   6.0343   6.2379

          k =-0.0918-0.1380 0.0000 ( 18592 PWs)   bands (ev):

   -72.1779 -72.1779 -72.0410 -72.0410 -71.9691 -71.9691 -66.0512 -66.0512
   -65.9762 -65.9762 -65.7750 -65.7750 -36.5900 -36.5900 -36.3001 -36.3001
   -36.2738 -36.2738 -36.1833 -36.1833 -36.0854 -36.0854 -36.0546 -36.0546
   -36.0470 -36.0470 -36.0082 -36.0081 -35.8046 -35.8045 -32.7148 -32.7148
   -32.4946 -32.4946 -32.3596 -32.3596 -32.3430 -32.3430 -32.2963 -32.2962
   -32.2826 -32.2826 -32.2017 -32.2017 -32.1536 -32.1536 -31.8721 -31.8721
    -3.6959  -3.6958  -2.1630  -2.1630  -1.7047  -1.7047  -1.3290  -1.3290
    -1.1940  -1.1940  -0.5539  -0.5539  -0.1361  -0.1360   0.1036   0.1036
     0.1283   0.1284   0.5062   0.5062   0.7777   0.7777   1.1081   1.1081
     1.2636   1.2636   1.3917   1.3917   1.5160   1.5161   1.7551   1.7552
     1.9333   1.9333   2.0833   2.0833   2.2698   2.2698   3.0780   3.0780
     3.4368   3.4368   3.5426   3.5427   3.8685   3.8685   4.0879   4.0879
     4.2397   4.2397   4.3397   4.3398   4.4021   4.4021   4.7476   4.7476
     5.2349   5.2349   5.7562   5.7562   6.2595   6.2595   6.4875

     the Fermi energy is     2.1529 ev

!    total energy              =   -1821.51674814 Ry
     Harris-Foulkes estimate   =   -1821.51674700 Ry
     estimated scf accuracy    <       0.00000038 Ry

     The total energy is the sum of the following terms:

     one-electron contribution =  -13003.06733171 Ry
     hartree contribution      =    6483.78994954 Ry
     xc contribution           =    -516.73954346 Ry
     ewald contribution        =    5214.58389770 Ry
     electric field correction =       0.00000280 Ry
     smearing contrib. (-TS)   =      -0.08372300 Ry

     convergence has been achieved in  16 iterations
 
 BEEF-vdW xc energy contributions
           1 :   -454.959869835872     
           2 :    420.634761085898     
           3 :   -360.319047963653     
           4 :    287.466280529613     
           5 :   -215.937385911211     
           6 :    155.838584569534     
           7 :   -111.399191674548     
           8 :    81.3665250047128     
           9 :   -61.2674130109275     
          10 :    46.2124266931942     
          11 :   -32.9560458237196     
          12 :    20.5444791964715     
          13 :   -9.68257591952266     
          14 :    1.50371374944518     
          15 :    3.47863532614303     
          16 :   -5.75668062688590     
          17 :    6.52210081626890     
          18 :   -6.99663426150227     
          19 :    7.84557097645143     
          20 :   -8.98902061982483     
          21 :    9.85810245293112     
          22 :   -9.89023578501701     
          23 :    8.94599115473710     
          24 :   -7.41261514268399     
          25 :    5.97083149005061     
          26 :   -5.20054957600280     
          27 :    5.27346386587328     
          28 :   -5.90108191287163     
          29 :    6.54055082332127     
          30 :   -6.71467914496282     
          31 :   -40.8093672169474     
          32 :   -30.4382969443365     

     Forces acting on atoms (Ry/au):


     negative rho (up, down):  9.912E-01 0.000E+00
     atom    1 type  1   force =    -0.00000013   -0.00931435   -0.01199802
     atom    2 type  1   force =     0.00000017   -0.00931568   -0.01199966
     atom    3 type  2   force =    -0.00000218    0.00402812    0.02802237
     atom    4 type  2   force =     0.00000091    0.00402787    0.02802269
     atom    5 type  1   force =    -0.00000020    0.01342548   -0.00230861
     atom    6 type  1   force =    -0.00000032    0.01342493   -0.00231567
     atom    7 type  2   force =     0.00000176   -0.00813709   -0.01460682
     atom    8 type  2   force =    -0.00000123   -0.00813613   -0.01460499
     atom    9 type  1   force =    -0.00000155   -0.00047945   -0.00078331
     atom   10 type  1   force =    -0.00000130   -0.00048522   -0.00078583
     atom   11 type  2   force =    -0.00000533    0.00048012    0.00167835
     atom   12 type  2   force =     0.00000940    0.00048140    0.00167951

     Total force =     0.054795     Total SCF correction =     0.003401


     entering subroutine stress ...


     negative rho (up, down):  9.912E-01 0.000E+00
          total   stress  (Ry/bohr**3)                   (kbar)     P=  -34.28
  -0.00025003  -0.00000001  -0.00000000        -36.78     -0.00     -0.00
  -0.00000001  -0.00035830   0.00001003         -0.00    -52.71      1.48
  -0.00000000   0.00001003  -0.00009070         -0.00      1.48    -13.34

 !ASE

     Writing output data file calc.save
 
     init_run     :      6.09s CPU      9.17s WALL (       1 calls)
     electrons    :    203.74s CPU    278.83s WALL (       1 calls)
     forces       :      3.54s CPU      4.19s WALL (       1 calls)
     stress       :     12.52s CPU     14.05s WALL (       1 calls)

     Called by init_run:
     wfcinit      :      4.08s CPU      6.59s WALL (       1 calls)
     potinit      :      0.45s CPU      0.66s WALL (       1 calls)

     Called by electrons:
     c_bands      :    147.02s CPU    200.00s WALL (      16 calls)
     sum_band     :     30.25s CPU     41.73s WALL (      16 calls)
     v_of_rho     :      4.89s CPU      8.09s WALL (      17 calls)
     newd         :     13.29s CPU     15.02s WALL (      17 calls)
     mix_rho      :      0.24s CPU      0.35s WALL (      16 calls)
     vdW_energy   :      2.39s CPU      2.71s WALL (      53 calls)
     vdW_ffts     :      6.35s CPU     12.13s WALL (     108 calls)
     vdW_v        :      1.76s CPU      2.71s WALL (      53 calls)

     Called by c_bands:
     init_us_2    :      1.08s CPU      1.09s WALL (     700 calls)
     cegterg      :    138.26s CPU    190.94s WALL (     320 calls)

     Called by *egterg:
     h_psi        :     74.33s CPU    112.99s WALL (    1175 calls)
     s_psi        :      7.89s CPU      7.93s WALL (    1175 calls)
     g_psi        :      0.44s CPU      0.43s WALL (     835 calls)
     cdiaghg      :     32.24s CPU     32.97s WALL (    1155 calls)

     Called by h_psi:
     add_vuspsi   :      8.43s CPU      8.46s WALL (    1175 calls)

     General routines
     calbec       :     16.60s CPU     21.91s WALL (    1535 calls)
     fft          :     10.93s CPU     21.16s WALL (    3225 calls)
     ffts         :      0.03s CPU      0.07s WALL (      33 calls)
     fftw         :     59.58s CPU    103.85s WALL (  195838 calls)
     interpolate  :      0.13s CPU      0.23s WALL (      33 calls)
     davcio       :      0.00s CPU      0.07s WALL (      20 calls)
 
     Parallel routines
     fft_scatter  :     42.10s CPU    103.71s WALL (  199096 calls)
 
     PWSCF        :  3m46.43s CPU     5m 7.35s WALL

 
   This run was terminated on:   7:20: 7  19Dec2018            

=------------------------------------------------------------------------------=
   JOB DONE.
=------------------------------------------------------------------------------=
Job  /afs/slac/g/suncat/bin/suncat-tsmpirun -x LD_LIBRARY_PATH -wdir /scratch/qe530635_UjxYk pw.x -in pw.inp

TID   HOST_NAME   COMMAND_LINE            STATUS            TERMINATION_TIME
===== ========== ================  =======================  ===================
00000 suncat2063 pw.x -in pw.inp   Done                     12/19/2018 07:20:07
00001 suncat2063 pw.x -in pw.inp   Done                     12/19/2018 07:20:07
00002 suncat2063 pw.x -in pw.inp   Done                     12/19/2018 07:20:07
00003 suncat2063 pw.x -in pw.inp   Done                     12/19/2018 07:20:07
00004 suncat2063 pw.x -in pw.inp   Done                     12/19/2018 07:20:07
00005 suncat2063 pw.x -in pw.inp   Done                     12/19/2018 07:20:07
00006 suncat2063 pw.x -in pw.inp   Done                     12/19/2018 07:20:07
00007 suncat2063 pw.x -in pw.inp   Done                     12/19/2018 07:20:07
00008 suncat2063 pw.x -in pw.inp   Done                     12/19/2018 07:20:07
00009 suncat2063 pw.x -in pw.inp   Done                     12/19/2018 07:20:07
00010 suncat2063 pw.x -in pw.inp   Done                     12/19/2018 07:20:07
00011 suncat2063 pw.x -in pw.inp   Done                     12/19/2018 07:20:07
00012 suncat2063 pw.x -in pw.inp   Done                     12/19/2018 07:20:07
00013 suncat2063 pw.x -in pw.inp   Done                     12/19/2018 07:20:07
00014 suncat2063 pw.x -in pw.inp   Done                     12/19/2018 07:20:07
00015 suncat2063 pw.x -in pw.inp   Done                     12/19/2018 07:20:07
00016 suncat2042 pw.x -in pw.inp   Done                     12/19/2018 07:20:07
00017 suncat2042 pw.x -in pw.inp   Done                     12/19/2018 07:20:07
00018 suncat2042 pw.x -in pw.inp   Done                     12/19/2018 07:20:07
00019 suncat2042 pw.x -in pw.inp   Done                     12/19/2018 07:20:07
00020 suncat2042 pw.x -in pw.inp   Done                     12/19/2018 07:20:07
00021 suncat2042 pw.x -in pw.inp   Done                     12/19/2018 07:20:07
00022 suncat2042 pw.x -in pw.inp   Done                     12/19/2018 07:20:07
00023 suncat2042 pw.x -in pw.inp   Done                     12/19/2018 07:20:07
00024 suncat2042 pw.x -in pw.inp   Done                     12/19/2018 07:20:07
00025 suncat2042 pw.x -in pw.inp   Done                     12/19/2018 07:20:07
00026 suncat2042 pw.x -in pw.inp   Done                     12/19/2018 07:20:07
00027 suncat2042 pw.x -in pw.inp   Done                     12/19/2018 07:20:07
00028 suncat2042 pw.x -in pw.inp   Done                     12/19/2018 07:20:07
00029 suncat2042 pw.x -in pw.inp   Done                     12/19/2018 07:20:07
00030 suncat2042 pw.x -in pw.inp   Done                     12/19/2018 07:20:07
00031 suncat2042 pw.x -in pw.inp   Done                     12/19/2018 07:20:07
