  python dir          : /u/if/mamunm/src/espresso
  espresso dir        : /nfs/slac/g/suncatfs/sw/espv18/espresso-dynpy-beef/bin
  pseudo dir          : /afs/slac.stanford.edu/u/if/mamunm/psp/gbrv1.5pbe
  ase-espresso py git : GITVERSION



     Program PWSCF v.5.1rc2 (svn rev. 11289) starts on 24Dec2018 at 21:18:22 

     This program is part of the open-source Quantum ESPRESSO suite
     for quantum simulation of materials; please cite
         "P. Giannozzi et al., J. Phys.:Condens. Matter 21 395502 (2009);
          URL http://www.quantum-espresso.org", 
     in publications or presentations arising from this work. More details at
     http://www.quantum-espresso.org/quote

     Parallel version (MPI), running on    64 processors
     R & G space division:  proc/nbgrp/npool/nimage =      64
     Reading input from pw.inp
     Message from routine read_cards :
     DEPRECATED: no units specified in CELL_PARAMETERS card

     Current dimensions of program PWSCF are:
     Max number of different atomic species (ntypx) = 10
     Max number of k-points (npk) =  40000
     Max angular momentum in pseudopotentials (lmaxx) =  3
     Presently stress not available with electric field


     **************************************************************************
     Initializing libbeef V0.1.1 with the BEEF-vdW functional.
     Citation: Wellendorff et al., PRB 85, 235149 (2012).
     **************************************************************************


     IMPORTANT: XC functional enforced from input :
     Exchange-correlation      = BEEF-VDW ( 1  4 27 13 2)
     Any further DFT definition will be discarded
     Please, verify this is what you really want


     Subspace diagonalization in iterative solution of the eigenvalue problem:
     a serial algorithm will be used

     Found symmetry operation: I + ( -0.5000  0.0000  0.0000)
     This is a supercell, fractional translations are disabled
 
     Parallelization info
     --------------------
     sticks:   dense  smooth     PW     G-vecs:    dense   smooth      PW
     Min          63      25      7                12377     3117     489
     Max          64      26      8                12395     3166     504
     Sum        4053    1617    475               792753   200621   31715
 


     bravais-lattice index     =            0
     lattice parameter (alat)  =       1.8897  a.u.
     unit-cell volume          =    6666.8462 (a.u.)^3
     number of atoms/cell      =           12
     number of atomic types    =            2
     number of electrons       =       138.00
     number of Kohn-Sham states=           99
     kinetic-energy cutoff     =      36.7493  Ry
     charge density cutoff     =     367.4932  Ry
     convergence threshold     =      1.0E-06
     mixing beta               =       0.1000
     number of iterations used =           10  plain     mixing
     Exchange-correlation      = BEEF-VDW ( 1  4 27 13 2)
     nstep                     =           50


     celldm(1)=   1.889726  celldm(2)=   0.000000  celldm(3)=   0.000000
     celldm(4)=   0.000000  celldm(5)=   0.000000  celldm(6)=   0.000000

     crystal axes: (cart. coord. in units of alat)
               a(1) = (   6.550380   0.000000   0.000000 )  
               a(2) = (  -3.275190   5.924176   0.000000 )  
               a(3) = (   0.000000   0.000000  25.458299 )  

     reciprocal axes: (cart. coord. in units 2 pi/alat)
               b(1) = (  0.152663  0.084400  0.000000 )  
               b(2) = (  0.000000  0.168800  0.000000 )  
               b(3) = (  0.000000  0.000000  0.039280 )  


     PseudoPot. # 1 for Hf read from file:
     /afs/slac.stanford.edu/u/if/mamunm/psp/gbrv1.5pbe/Hf.UPF
     MD5 check sum: 8ee9378dfe14276e333edf04c5e4aa26
     Pseudo is Ultrasoft + core correction, Zval = 12.0
     Generated by new atomic code, or converted to UPF format
     Using radial grid of  921 points,  8 beta functions with: 
                l(1) =   0
                l(2) =   0
                l(3) =   0
                l(4) =   1
                l(5) =   1
                l(6) =   2
                l(7) =   2
                l(8) =   3
     Q(r) pseudized with  6 coefficients,  rinner =    1.200   1.200   1.200
                                                       1.200   1.200   1.200
                                                       1.200

     PseudoPot. # 2 for Y  read from file:
     /afs/slac.stanford.edu/u/if/mamunm/psp/gbrv1.5pbe/Y.UPF
     MD5 check sum: d034151ed7554c50b6e82763ed42c788
     Pseudo is Ultrasoft + core correction, Zval = 11.0
     Generated by new atomic code, or converted to UPF format
     Using radial grid of  885 points,  6 beta functions with: 
                l(1) =   0
                l(2) =   0
                l(3) =   1
                l(4) =   1
                l(5) =   2
                l(6) =   2
     Q(r) pseudized with  8 coefficients,  rinner =    1.200   1.200   1.200
                                                       1.200   1.200

     vdW kernel table read from file vdW_kernel_table
     MD5 check sum: 095c7af220d748ca6e76c0b4c6cfb241

     atomic species   valence    mass     pseudopotential
        Hf1           12.00   178.49000     Hf( 1.00)
        Y1            11.00    88.90584     Y ( 1.00)

     No symmetry found



   Cartesian axes

     site n.     atom                  positions (alat units)
         1           Hf1 tau(   1) = (   0.0000000   0.0000000  10.0000000  )
         2           Hf1 tau(   2) = (  -0.0000000   5.9241758  10.0000000  )
         3           Y1  tau(   3) = (   1.6375951   2.9620879  10.0000000  )
         4           Y1  tau(   4) = (  -1.6375951   2.9620879  10.0000000  )
         5           Hf1 tau(   5) = (   3.2751901   1.8106941  12.7291495  )
         6           Hf1 tau(   6) = (  -0.0000000   1.8106941  12.7291495  )
         7           Y1  tau(   7) = (  -1.6375951   4.7727820  12.7291495  )
         8           Y1  tau(   8) = (   1.6375951   4.7727820  12.7291495  )
         9           Hf1 tau(   9) = (  -0.0000000   3.6213883  15.4582991  )
        10           Hf1 tau(  10) = (   3.2751901   3.6213883  15.4582991  )
        11           Y1  tau(  11) = (   4.9127852   0.6593004  15.4582991  )
        12           Y1  tau(  12) = (   1.6375951   0.6593004  15.4582991  )

     number of k points=    20  Fermi-Dirac smearing, width (Ry)=  0.0110
                       cart. coord. in units 2pi/alat
        k(    1) = (   0.0000000   0.0000000   0.0000000), wk =   0.0555556
        k(    2) = (   0.0000000   0.0281333   0.0000000), wk =   0.1111111
        k(    3) = (   0.0000000   0.0562666   0.0000000), wk =   0.1111111
        k(    4) = (   0.0000000  -0.0843999   0.0000000), wk =   0.0555556
        k(    5) = (   0.0254438   0.0140667   0.0000000), wk =   0.1111111
        k(    6) = (   0.0254438   0.0422000   0.0000000), wk =   0.1111111
        k(    7) = (   0.0254438   0.0703333   0.0000000), wk =   0.1111111
        k(    8) = (   0.0254438  -0.0703333   0.0000000), wk =   0.1111111
        k(    9) = (   0.0254438  -0.0422000   0.0000000), wk =   0.1111111
        k(   10) = (   0.0254438  -0.0140667   0.0000000), wk =   0.1111111
        k(   11) = (   0.0508876   0.0281333   0.0000000), wk =   0.1111111
        k(   12) = (   0.0508876   0.0562666   0.0000000), wk =   0.1111111
        k(   13) = (   0.0508876   0.0843999   0.0000000), wk =   0.1111111
        k(   14) = (   0.0508876  -0.0562666   0.0000000), wk =   0.1111111
        k(   15) = (   0.0508876  -0.0281333   0.0000000), wk =   0.1111111
        k(   16) = (   0.0508876   0.0000000   0.0000000), wk =   0.1111111
        k(   17) = (  -0.0763314  -0.0422000   0.0000000), wk =   0.0555556
        k(   18) = (  -0.0763314  -0.0140667   0.0000000), wk =   0.1111111
        k(   19) = (  -0.0763314   0.0140667   0.0000000), wk =   0.1111111
        k(   20) = (  -0.0763314  -0.1265999   0.0000000), wk =   0.0555556

     Dense  grid:   792753 G-vectors     FFT dimensions: (  75,  80, 300)

     Smooth grid:   200621 G-vectors     FFT dimensions: (  48,  50, 192)

     Largest allocated arrays     est. size (Mb)     dimensions
        Kohn-Sham Wavefunctions         0.61 Mb     (     403,   99)
        NL pseudopotentials             1.62 Mb     (     403,  264)
        Each V/rho on FFT grid          0.46 Mb     (   30000)
        Each G-vector array             0.09 Mb     (   12395)
        G-vector shells                 0.05 Mb     (    6086)
     Largest temporary arrays     est. size (Mb)     dimensions
        Auxiliary wavefunctions         2.44 Mb     (     403,  396)
        Each subspace H/S matrix        2.39 Mb     (     396,  396)
        Each <psi_i|beta_j> matrix      0.40 Mb     (     264,   99)
        Arrays for rho mixing           4.58 Mb     (   30000,   10)

     Check: negative/imaginary core charge=   -0.000003    0.000000

     Initial potential from superposition of free atoms
     Check: negative starting charge=   -0.645903

     starting charge  125.97317, renormalised to  138.00000

     negative rho (up, down):  7.076E-01 0.000E+00


     ************************************************************************
     *
     * You are using vdW-DF for exchange-correlation in this calculation.
     * Please cite the following three references that made this development
     * possible:
     *
     *   M. Dion, H. Rydberg, E. Schroder, D. C. Langreth, and
     *   B. I. Lundqvist, Phys. Rev. Lett. 92, 246401 (2004).
     *
     *   T. Thonhauser, V. R. Cooper, S. Li, A. Puzder, P. Hyldgaard, and
     *   D. C. Langreth, Phys. Rev. B 76, 125112 (2007).
     *
     *   G. Roman-Perez and J. M. Soler, Phys. Rev. Lett. 103, 096102 (2009).
     *
     *
     * If you are using vdW-DF2, please also cite:
     *
     *   K. Lee, E. D. Murray, L. Kong, B. I. Lundqvist, and
     *   D. C. Langreth, Phys. Rev. B 82, 081101(R) (2010).
     *
     *
     * If you are calculating the stress with vdW-DF, please also cite:
     *
     *   R. Sabatini, E. Kucukbenli, B. Kolb, T. Thonhauser, and
     *   S. de Gironcoli, J. Phys.: Condens. Matter 24, 424209 (2012).
     *
     ************************************************************************

     Carrying out vdW-DF run using the following parameters:

     Nqs =      20    Nr_points =    1024   r_max =   100.000
     q_mesh =
               0.00001000     0.04494208     0.09755937     0.15916263
               0.23128650     0.31572767     0.41458969     0.53033537
               0.66584808     0.82450364     1.01025438     1.22772762
               1.48234092     1.78043706     2.12944203     2.53805004
               3.01644009     3.57652955     4.23227104     5.00000000

     Gradients computed in reciprocal space

     ************************************************************************


 
     Adding external electric field

     Computed dipole along edir(3) : 
        Dipole               -0.0000 Ry au,         -0.0000 Debye
        Dipole field         -0.0000 Ry au
 
        Potential amp.        0.0000 Ry
        Total length         46.9065 bohr
 
     Starting wfc are  156 randomized atomic wfcs

     total cpu time spent up to now is       39.8 secs

     per-process dynamical memory:    47.0 Mb

     Self-consistent Calculation

     iteration #  1     ecut=    36.75 Ry     beta=0.10
     Davidson diagonalization with overlap
     ethr =  1.00E-02,  avg # of iterations =  4.8

     negative rho (up, down):  7.006E-01 0.000E+00
 
     Adding external electric field

     Computed dipole along edir(3) : 
        Dipole                0.0003 Ry au,          0.0008 Debye
        Dipole field          0.0000 Ry au
 
        Potential amp.       -0.0001 Ry
        Total length         46.9065 bohr
 

     total cpu time spent up to now is      114.8 secs

     total energy              =   -1527.85486564 Ry
     Harris-Foulkes estimate   =   -1529.14515040 Ry
     estimated scf accuracy    <       9.39444507 Ry

     iteration #  2     ecut=    36.75 Ry     beta=0.10
     Davidson diagonalization with overlap
     ethr =  6.81E-03,  avg # of iterations =  1.0

     negative rho (up, down):  6.847E-01 0.000E+00
 
     Adding external electric field

     Computed dipole along edir(3) : 
        Dipole               -0.0068 Ry au,         -0.0172 Debye
        Dipole field         -0.0000 Ry au
 
        Potential amp.        0.0012 Ry
        Total length         46.9065 bohr
 

     total cpu time spent up to now is      170.8 secs

     total energy              =   -1525.46570842 Ry
     Harris-Foulkes estimate   =   -1527.94946100 Ry
     estimated scf accuracy    <       6.39162906 Ry

     iteration #  3     ecut=    36.75 Ry     beta=0.10
     Davidson diagonalization with overlap
     ethr =  4.63E-03,  avg # of iterations =  2.0

     negative rho (up, down):  6.788E-01 0.000E+00
 
     Adding external electric field

     Computed dipole along edir(3) : 
        Dipole                0.0625 Ry au,          0.1589 Debye
        Dipole field          0.0001 Ry au
 
        Potential amp.       -0.0111 Ry
        Total length         46.9065 bohr
 

     total cpu time spent up to now is      228.1 secs

     total energy              =   -1525.39697359 Ry
     Harris-Foulkes estimate   =   -1525.93349269 Ry
     estimated scf accuracy    <       1.83480435 Ry

     iteration #  4     ecut=    36.75 Ry     beta=0.10
     Davidson diagonalization with overlap
     ethr =  1.33E-03,  avg # of iterations =  3.6

     negative rho (up, down):  6.794E-01 0.000E+00
 
     Adding external electric field

     Computed dipole along edir(3) : 
        Dipole               -0.4683 Ry au,         -1.1902 Debye
        Dipole field         -0.0009 Ry au
 
        Potential amp.        0.0828 Ry
        Total length         46.9065 bohr
 

     total cpu time spent up to now is      295.3 secs

     total energy              =   -1525.37769165 Ry
     Harris-Foulkes estimate   =   -1525.53993678 Ry
     estimated scf accuracy    <       1.33524002 Ry

     iteration #  5     ecut=    36.75 Ry     beta=0.10
     Davidson diagonalization with overlap
     ethr =  9.68E-04,  avg # of iterations =  2.9

     negative rho (up, down):  6.802E-01 0.000E+00
 
     Adding external electric field

     Computed dipole along edir(3) : 
        Dipole                0.0227 Ry au,          0.0576 Debye
        Dipole field          0.0000 Ry au
 
        Potential amp.       -0.0040 Ry
        Total length         46.9065 bohr
 

     total cpu time spent up to now is      351.9 secs

     total energy              =   -1525.19412892 Ry
     Harris-Foulkes estimate   =   -1525.58799133 Ry
     estimated scf accuracy    <      13.32022738 Ry

     iteration #  6     ecut=    36.75 Ry     beta=0.10
     Davidson diagonalization with overlap
     ethr =  9.68E-04,  avg # of iterations =  1.1

     negative rho (up, down):  6.768E-01 0.000E+00
 
     Adding external electric field

     Computed dipole along edir(3) : 
        Dipole               -0.0160 Ry au,         -0.0406 Debye
        Dipole field         -0.0000 Ry au
 
        Potential amp.        0.0028 Ry
        Total length         46.9065 bohr
 

     total cpu time spent up to now is      412.6 secs

     total energy              =   -1525.22228331 Ry
     Harris-Foulkes estimate   =   -1525.40528095 Ry
     estimated scf accuracy    <       0.74603983 Ry

     iteration #  7     ecut=    36.75 Ry     beta=0.10
     Davidson diagonalization with overlap
     ethr =  5.41E-04,  avg # of iterations =  2.3

     negative rho (up, down):  6.785E-01 0.000E+00
 
     Adding external electric field

     Computed dipole along edir(3) : 
        Dipole               -0.0029 Ry au,         -0.0073 Debye
        Dipole field         -0.0000 Ry au
 
        Potential amp.        0.0005 Ry
        Total length         46.9065 bohr
 

     total cpu time spent up to now is      472.4 secs

     total energy              =   -1525.27511315 Ry
     Harris-Foulkes estimate   =   -1525.28517409 Ry
     estimated scf accuracy    <       0.08136656 Ry

     iteration #  8     ecut=    36.75 Ry     beta=0.10
     Davidson diagonalization with overlap
     ethr =  5.90E-05,  avg # of iterations =  7.5

     negative rho (up, down):  6.805E-01 0.000E+00
 
     Adding external electric field

     Computed dipole along edir(3) : 
        Dipole                0.0056 Ry au,          0.0143 Debye
        Dipole field          0.0000 Ry au
 
        Potential amp.       -0.0010 Ry
        Total length         46.9065 bohr
 

     total cpu time spent up to now is      543.8 secs

     total energy              =   -1525.27324319 Ry
     Harris-Foulkes estimate   =   -1525.28169050 Ry
     estimated scf accuracy    <       0.03428662 Ry

     iteration #  9     ecut=    36.75 Ry     beta=0.10
     Davidson diagonalization with overlap
     ethr =  2.48E-05,  avg # of iterations =  5.9

     negative rho (up, down):  6.813E-01 0.000E+00
 
     Adding external electric field

     Computed dipole along edir(3) : 
        Dipole               -0.0011 Ry au,         -0.0027 Debye
        Dipole field         -0.0000 Ry au
 
        Potential amp.        0.0002 Ry
        Total length         46.9065 bohr
 

     total cpu time spent up to now is      624.4 secs

     total energy              =   -1525.26908719 Ry
     Harris-Foulkes estimate   =   -1525.28322190 Ry
     estimated scf accuracy    <       0.06332147 Ry

     iteration # 10     ecut=    36.75 Ry     beta=0.10
     Davidson diagonalization with overlap
     ethr =  2.48E-05,  avg # of iterations =  3.5

     negative rho (up, down):  6.840E-01 0.000E+00
 
     Adding external electric field

     Computed dipole along edir(3) : 
        Dipole               -0.0059 Ry au,         -0.0149 Debye
        Dipole field         -0.0000 Ry au
 
        Potential amp.        0.0010 Ry
        Total length         46.9065 bohr
 

     total cpu time spent up to now is      692.7 secs

     total energy              =   -1525.27540126 Ry
     Harris-Foulkes estimate   =   -1525.27916422 Ry
     estimated scf accuracy    <       0.01688027 Ry

     iteration # 11     ecut=    36.75 Ry     beta=0.10
     Davidson diagonalization with overlap
     ethr =  1.22E-05,  avg # of iterations =  2.9

     negative rho (up, down):  6.843E-01 0.000E+00
 
     Adding external electric field

     Computed dipole along edir(3) : 
        Dipole                0.0029 Ry au,          0.0073 Debye
        Dipole field          0.0000 Ry au
 
        Potential amp.       -0.0005 Ry
        Total length         46.9065 bohr
 

     total cpu time spent up to now is      754.5 secs

     total energy              =   -1525.27720337 Ry
     Harris-Foulkes estimate   =   -1525.27742297 Ry
     estimated scf accuracy    <       0.00294028 Ry

     iteration # 12     ecut=    36.75 Ry     beta=0.10
     Davidson diagonalization with overlap
     ethr =  2.13E-06,  avg # of iterations =  5.2

     negative rho (up, down):  6.850E-01 0.000E+00
 
     Adding external electric field

     Computed dipole along edir(3) : 
        Dipole                0.0015 Ry au,          0.0039 Debye
        Dipole field          0.0000 Ry au
 
        Potential amp.       -0.0003 Ry
        Total length         46.9065 bohr
 

     total cpu time spent up to now is      823.5 secs

     total energy              =   -1525.27734254 Ry
     Harris-Foulkes estimate   =   -1525.27743873 Ry
     estimated scf accuracy    <       0.00164905 Ry

     iteration # 13     ecut=    36.75 Ry     beta=0.10
     Davidson diagonalization with overlap
     ethr =  1.19E-06,  avg # of iterations =  1.4

     negative rho (up, down):  6.855E-01 0.000E+00
 
     Adding external electric field

     Computed dipole along edir(3) : 
        Dipole                0.0010 Ry au,          0.0024 Debye
        Dipole field          0.0000 Ry au
 
        Potential amp.       -0.0002 Ry
        Total length         46.9065 bohr
 

     total cpu time spent up to now is      882.6 secs

     total energy              =   -1525.27736300 Ry
     Harris-Foulkes estimate   =   -1525.27740910 Ry
     estimated scf accuracy    <       0.00027873 Ry

     iteration # 14     ecut=    36.75 Ry     beta=0.10
     Davidson diagonalization with overlap
     ethr =  2.02E-07,  avg # of iterations =  2.6

     negative rho (up, down):  6.856E-01 0.000E+00
 
     Adding external electric field

     Computed dipole along edir(3) : 
        Dipole                0.0004 Ry au,          0.0010 Debye
        Dipole field          0.0000 Ry au
 
        Potential amp.       -0.0001 Ry
        Total length         46.9065 bohr
 

     total cpu time spent up to now is      941.3 secs

     total energy              =   -1525.27738110 Ry
     Harris-Foulkes estimate   =   -1525.27738826 Ry
     estimated scf accuracy    <       0.00003969 Ry

     iteration # 15     ecut=    36.75 Ry     beta=0.10
     Davidson diagonalization with overlap
     ethr =  2.88E-08,  avg # of iterations =  3.1

     negative rho (up, down):  6.856E-01 0.000E+00
 
     Adding external electric field

     Computed dipole along edir(3) : 
        Dipole               -0.0001 Ry au,         -0.0002 Debye
        Dipole field         -0.0000 Ry au
 
        Potential amp.        0.0000 Ry
        Total length         46.9065 bohr
 

     total cpu time spent up to now is     1000.5 secs

     total energy              =   -1525.27738957 Ry
     Harris-Foulkes estimate   =   -1525.27738940 Ry
     estimated scf accuracy    <       0.00001891 Ry

     iteration # 16     ecut=    36.75 Ry     beta=0.10
     Davidson diagonalization with overlap
     ethr =  1.37E-08,  avg # of iterations =  1.4

     negative rho (up, down):  6.856E-01 0.000E+00
 
     Adding external electric field

     Computed dipole along edir(3) : 
        Dipole                0.0000 Ry au,          0.0001 Debye
        Dipole field          0.0000 Ry au
 
        Potential amp.       -0.0000 Ry
        Total length         46.9065 bohr
 

     total cpu time spent up to now is     1057.7 secs

     total energy              =   -1525.27739161 Ry
     Harris-Foulkes estimate   =   -1525.27739050 Ry
     estimated scf accuracy    <       0.00000729 Ry

     iteration # 17     ecut=    36.75 Ry     beta=0.10
     Davidson diagonalization with overlap
     ethr =  5.29E-09,  avg # of iterations =  3.0

     negative rho (up, down):  6.856E-01 0.000E+00
 
     Adding external electric field

     Computed dipole along edir(3) : 
        Dipole                0.0000 Ry au,          0.0000 Debye
        Dipole field          0.0000 Ry au
 
        Potential amp.       -0.0000 Ry
        Total length         46.9065 bohr
 

     total cpu time spent up to now is     1120.9 secs

     total energy              =   -1525.27739322 Ry
     Harris-Foulkes estimate   =   -1525.27739247 Ry
     estimated scf accuracy    <       0.00000215 Ry

     iteration # 18     ecut=    36.75 Ry     beta=0.10
     Davidson diagonalization with overlap
     ethr =  1.56E-09,  avg # of iterations =  2.9

     negative rho (up, down):  6.855E-01 0.000E+00

     negative rho (up, down):  6.855E-01 0.000E+00

     negative rho (up, down):  6.855E-01 0.000E+00

     negative rho (up, down):  6.855E-01 0.000E+00

     negative rho (up, down):  6.855E-01 0.000E+00

     negative rho (up, down):  6.855E-01 0.000E+00

     negative rho (up, down):  6.855E-01 0.000E+00

     negative rho (up, down):  6.855E-01 0.000E+00

     negative rho (up, down):  6.855E-01 0.000E+00

     negative rho (up, down):  6.855E-01 0.000E+00

     negative rho (up, down):  6.855E-01 0.000E+00

     negative rho (up, down):  6.855E-01 0.000E+00

     negative rho (up, down):  6.855E-01 0.000E+00

     negative rho (up, down):  6.855E-01 0.000E+00

     negative rho (up, down):  6.855E-01 0.000E+00

     negative rho (up, down):  6.855E-01 0.000E+00

     negative rho (up, down):  6.855E-01 0.000E+00

     negative rho (up, down):  6.855E-01 0.000E+00

     negative rho (up, down):  6.855E-01 0.000E+00

     negative rho (up, down):  6.855E-01 0.000E+00

     negative rho (up, down):  6.855E-01 0.000E+00

     negative rho (up, down):  6.855E-01 0.000E+00

     negative rho (up, down):  6.855E-01 0.000E+00

     negative rho (up, down):  6.855E-01 0.000E+00

     negative rho (up, down):  6.855E-01 0.000E+00

     negative rho (up, down):  6.855E-01 0.000E+00

     negative rho (up, down):  6.855E-01 0.000E+00

     negative rho (up, down):  6.855E-01 0.000E+00

     negative rho (up, down):  6.855E-01 0.000E+00

     negative rho (up, down):  6.855E-01 0.000E+00

     negative rho (up, down):  6.855E-01 0.000E+00

     negative rho (up, down):  6.855E-01 0.000E+00

     negative rho (up, down):  6.855E-01 0.000E+00

     negative rho (up, down):  6.855E-01 0.000E+00

     negative rho (up, down):  6.855E-01 0.000E+00
 
     Adding external electric field

     Computed dipole along edir(3) : 
        Dipole               -0.0000 Ry au,         -0.0000 Debye
        Dipole field         -0.0000 Ry au
 
        Potential amp.        0.0000 Ry
        Total length         46.9065 bohr
 

     total cpu time spent up to now is     1255.5 secs

     End of self-consistent calculation

          k = 0.0000 0.0000 0.0000 ( 25055 PWs)   bands (ev):

   -61.6537 -61.6536 -61.6418 -61.6416 -61.2379 -61.2258 -41.6491 -41.6485
   -41.5866 -41.5859 -41.0563 -40.9928 -30.2216 -30.2210 -30.2206 -30.2066
   -30.1911 -30.1787 -30.1485 -30.1405 -30.1165 -30.1093 -29.9369 -29.9367
   -29.8597 -29.7680 -29.7357 -29.6959 -29.6671 -29.5719 -21.9488 -21.9473
   -21.7428 -21.6714 -21.6621 -21.5941 -21.5579 -21.5555 -21.4845 -21.4802
   -21.3884 -21.3043 -21.3039 -21.0256 -20.9859 -20.9543 -20.9077 -20.7351
    -4.1679  -3.1127  -2.0826  -1.4695  -1.0196  -0.8787  -0.8327  -0.7750
    -0.7135  -0.6520  -0.4858  -0.2918   0.0159   0.0233   0.1258   0.5854
     0.6652   0.6856   1.2853   1.3743   1.5974   1.6501   1.7442   1.8748
     1.9402   1.9658   1.9980   2.1452   2.3390   2.4772   2.4957   2.6314
     2.6823   2.7310   2.8741   2.9226   2.9301   2.9314   3.0191   3.2080
     3.2341   3.2628   3.3440   3.7489   3.9514   4.1519   4.2047   4.3787
     4.4142   4.4291   4.6889

          k = 0.0000 0.0281 0.0000 ( 25083 PWs)   bands (ev):

   -61.6537 -61.6536 -61.6418 -61.6416 -61.2379 -61.2258 -41.6492 -41.6485
   -41.5866 -41.5859 -41.0563 -40.9928 -30.2211 -30.2207 -30.2202 -30.2071
   -30.1909 -30.1787 -30.1474 -30.1395 -30.1163 -30.1090 -29.9371 -29.9368
   -29.8593 -29.7674 -29.7356 -29.6957 -29.6671 -29.5720 -21.9511 -21.9482
   -21.7454 -21.6705 -21.6632 -21.5937 -21.5632 -21.5577 -21.4863 -21.4813
   -21.3899 -21.3047 -21.3040 -21.0259 -20.9887 -20.9545 -20.9090 -20.7353
    -4.0023  -2.9607  -1.9794  -1.3586  -1.0339  -0.9149  -0.8588  -0.6244
    -0.5713  -0.5589  -0.3558  -0.1239   0.1223   0.1293   0.2038   0.6101
     0.6957   0.7276   1.2804   1.3363   1.4530   1.6643   1.6722   1.7236
     1.8001   1.8658   1.9282   1.9970   2.2091   2.2651   2.2992   2.4806
     2.5814   2.6088   2.6348   2.6469   2.7850   2.8691   3.1464   3.1957
     3.3546   3.3745   3.4259   3.4589   4.0549   4.1750   4.1993   4.2505
     4.3491   4.4374   4.4921

          k = 0.0000 0.0563 0.0000 ( 25026 PWs)   bands (ev):

   -61.6537 -61.6536 -61.6418 -61.6416 -61.2379 -61.2258 -41.6494 -41.6486
   -41.5866 -41.5859 -41.0565 -40.9928 -30.2202 -30.2197 -30.2196 -30.2077
   -30.1906 -30.1790 -30.1452 -30.1375 -30.1154 -30.1082 -29.9371 -29.9367
   -29.8586 -29.7661 -29.7353 -29.6952 -29.6669 -29.5720 -21.9551 -21.9506
   -21.7504 -21.6690 -21.6652 -21.5930 -21.5722 -21.5635 -21.4898 -21.4836
   -21.3929 -21.3053 -21.3042 -21.0270 -20.9939 -20.9549 -20.9115 -20.7357
    -3.5456  -2.6242  -1.9512  -1.2448  -1.0996  -0.8355  -0.6263  -0.4344
    -0.2989  -0.2078  -0.0413   0.2810   0.4135   0.4151   0.4157   0.6814
     0.7270   0.8290   1.1565   1.2380   1.2676   1.3124   1.3565   1.4394
     1.5055   1.5174   1.6788   1.7329   1.9009   1.9182   2.0260   2.1158
     2.1599   2.3214   2.4235   2.5192   2.5221   2.8988   2.9377   3.3080
     3.4414   3.5377   3.6831   3.7554   3.8029   3.8287   4.0097   4.0165
     4.1347   4.1608   4.2470

          k = 0.0000-0.0844 0.0000 ( 25094 PWs)   bands (ev):

   -61.6537 -61.6536 -61.6418 -61.6416 -61.2379 -61.2258 -41.6495 -41.6486
   -41.5867 -41.5859 -41.0565 -40.9928 -30.2199 -30.2194 -30.2193 -30.2082
   -30.1906 -30.1791 -30.1442 -30.1367 -30.1152 -30.1080 -29.9372 -29.9368
   -29.8584 -29.7656 -29.7352 -29.6950 -29.6669 -29.5720 -21.9571 -21.9519
   -21.7528 -21.6684 -21.6662 -21.5927 -21.5764 -21.5666 -21.4915 -21.4849
   -21.3945 -21.3056 -21.3044 -21.0279 -20.9961 -20.9551 -20.9127 -20.7359
    -3.0579  -2.7338  -1.8813  -1.4547  -0.9414  -0.5676  -0.4107  -0.3094
    -0.3091  -0.1392   0.4141   0.5870   0.5960   0.6369   0.6400   0.7243
     0.8305   0.9748   0.9872   1.0345   1.0591   1.1140   1.1775   1.1938
     1.3191   1.3827   1.4062   1.4403   1.4931   1.7535   1.7678   1.8609
     2.0966   2.3094   2.3473   2.5237   2.6074   2.6743   3.1069   3.4238
     3.5245   3.5761   3.5849   3.5869   3.6803   3.7992   3.9252   4.0546
     4.0713   4.1576   4.2131

          k = 0.0254 0.0141 0.0000 ( 25092 PWs)   bands (ev):

   -61.6529 -61.6528 -61.6426 -61.6424 -61.2371 -61.2266 -41.6450 -41.6443
   -41.5908 -41.5901 -41.0521 -40.9971 -30.2189 -30.2048 -30.2030 -30.2019
   -30.1930 -30.1806 -30.1461 -30.1381 -30.1184 -30.1109 -29.9566 -29.9564
   -29.8409 -29.7657 -29.7377 -29.6939 -29.6690 -29.5918 -21.9084 -21.9066
   -21.7384 -21.6684 -21.6659 -21.5990 -21.5549 -21.5513 -21.4910 -21.4863
   -21.3504 -21.3498 -21.3473 -21.0209 -20.9818 -20.9592 -20.9140 -20.7818
    -3.9850  -2.9326  -1.9058  -1.5373  -1.0288  -0.8789  -0.7838  -0.7091
    -0.6158  -0.4475  -0.2813  -0.1737   0.1086   0.1212   0.2309   0.6318
     0.7187   0.7287   1.2927   1.3924   1.5087   1.5261   1.6663   1.7430
     1.8139   1.8623   2.0183   2.0487   2.2426   2.3526   2.3774   2.5094
     2.5909   2.6013   2.7052   2.7621   2.9317   2.9333   2.9614   3.1161
     3.1784   3.2093   3.2247   3.5932   3.7871   4.0196   4.3608   4.3845
     4.4357   4.4853   4.5032

          k = 0.0254 0.0422 0.0000 ( 25058 PWs)   bands (ev):

   -61.6529 -61.6528 -61.6426 -61.6424 -61.2371 -61.2266 -41.6452 -41.6444
   -41.5909 -41.5901 -41.0522 -40.9971 -30.2182 -30.2054 -30.2022 -30.2014
   -30.1928 -30.1808 -30.1442 -30.1364 -30.1179 -30.1105 -29.9566 -29.9564
   -29.8403 -29.7646 -29.7375 -29.6935 -29.6689 -29.5918 -21.9119 -21.9084
   -21.7423 -21.6698 -21.6646 -21.5986 -21.5625 -21.5554 -21.4934 -21.4878
   -21.3507 -21.3499 -21.3497 -21.0216 -20.9860 -20.9595 -20.9157 -20.7819
    -3.6699  -2.6582  -1.7813  -1.5095  -1.0314  -0.9341  -0.7265  -0.5104
    -0.3509  -0.1995  -0.1045   0.1311   0.2971   0.3262   0.3723   0.6784
     0.7784   0.7888   1.2380   1.2527   1.3483   1.3711   1.4814   1.5462
     1.5887   1.6702   1.8315   1.8938   1.9242   2.0563   2.0804   2.1393
     2.2781   2.3528   2.5868   2.6382   2.6450   2.7772   3.1179   3.2493
     3.3339   3.4175   3.5051   3.5761   3.7558   4.0355   4.0699   4.1192
     4.1354   4.3114   4.4361

          k = 0.0254 0.0703 0.0000 ( 25051 PWs)   bands (ev):

   -61.6529 -61.6528 -61.6426 -61.6424 -61.2371 -61.2266 -41.6453 -41.6444
   -41.5909 -41.5901 -41.0523 -40.9971 -30.2174 -30.2061 -30.2014 -30.2009
   -30.1926 -30.1809 -30.1426 -30.1350 -30.1174 -30.1102 -29.9566 -29.9564
   -29.8396 -29.7637 -29.7374 -29.6931 -29.6688 -29.5918 -21.9151 -21.9104
   -21.7462 -21.6712 -21.6636 -21.5982 -21.5693 -21.5601 -21.4957 -21.4894
   -21.3522 -21.3509 -21.3499 -21.0227 -20.9898 -20.9598 -20.9174 -20.7821
    -3.1299  -2.4836  -1.8256  -1.4635  -1.2268  -0.7401  -0.5611  -0.0912
    -0.0883   0.0055   0.2255   0.4831   0.5354   0.6032   0.6187   0.6953
     0.8539   0.9203   1.0410   1.1043   1.1361   1.1421   1.1693   1.2371
     1.3190   1.3899   1.4621   1.6155   1.6814   1.7233   1.8121   1.8581
     1.8906   2.2122   2.3902   2.5914   2.6997   2.9459   2.9584   3.3990
     3.4159   3.4721   3.5203   3.6667   3.7470   3.7499   3.9460   4.0135
     4.1154   4.1892   4.2826

          k = 0.0254-0.0703 0.0000 ( 25051 PWs)   bands (ev):

   -61.6529 -61.6528 -61.6426 -61.6424 -61.2371 -61.2266 -41.6453 -41.6444
   -41.5909 -41.5901 -41.0523 -40.9971 -30.2174 -30.2061 -30.2014 -30.2009
   -30.1926 -30.1809 -30.1426 -30.1350 -30.1174 -30.1102 -29.9566 -29.9564
   -29.8396 -29.7637 -29.7374 -29.6931 -29.6688 -29.5918 -21.9151 -21.9104
   -21.7462 -21.6712 -21.6636 -21.5982 -21.5693 -21.5601 -21.4957 -21.4894
   -21.3522 -21.3509 -21.3499 -21.0227 -20.9898 -20.9598 -20.9174 -20.7821
    -3.1299  -2.4836  -1.8256  -1.4635  -1.2268  -0.7401  -0.5611  -0.0912
    -0.0883   0.0055   0.2255   0.4831   0.5354   0.6032   0.6187   0.6953
     0.8539   0.9203   1.0410   1.1043   1.1361   1.1421   1.1693   1.2371
     1.3190   1.3899   1.4621   1.6155   1.6814   1.7233   1.8121   1.8581
     1.8906   2.2122   2.3902   2.5914   2.6997   2.9459   2.9584   3.3990
     3.4159   3.4721   3.5203   3.6667   3.7470   3.7499   3.9460   4.0135
     4.1154   4.1892   4.2825

          k = 0.0254-0.0422 0.0000 ( 25058 PWs)   bands (ev):

   -61.6529 -61.6528 -61.6426 -61.6424 -61.2371 -61.2266 -41.6452 -41.6444
   -41.5909 -41.5901 -41.0522 -40.9971 -30.2182 -30.2054 -30.2022 -30.2014
   -30.1928 -30.1808 -30.1442 -30.1364 -30.1179 -30.1105 -29.9566 -29.9564
   -29.8403 -29.7646 -29.7375 -29.6935 -29.6689 -29.5918 -21.9119 -21.9084
   -21.7423 -21.6698 -21.6646 -21.5986 -21.5625 -21.5554 -21.4934 -21.4878
   -21.3507 -21.3499 -21.3497 -21.0216 -20.9860 -20.9595 -20.9157 -20.7819
    -3.6699  -2.6582  -1.7813  -1.5095  -1.0314  -0.9341  -0.7265  -0.5104
    -0.3509  -0.1995  -0.1045   0.1311   0.2971   0.3262   0.3723   0.6784
     0.7784   0.7888   1.2380   1.2527   1.3483   1.3711   1.4814   1.5462
     1.5887   1.6702   1.8315   1.8938   1.9242   2.0563   2.0804   2.1393
     2.2781   2.3528   2.5868   2.6382   2.6450   2.7772   3.1179   3.2493
     3.3339   3.4175   3.5051   3.5761   3.7558   4.0355   4.0699   4.1192
     4.1354   4.3114   4.4363

          k = 0.0254-0.0141 0.0000 ( 25092 PWs)   bands (ev):

   -61.6529 -61.6528 -61.6426 -61.6424 -61.2371 -61.2266 -41.6450 -41.6443
   -41.5908 -41.5901 -41.0521 -40.9971 -30.2189 -30.2048 -30.2030 -30.2019
   -30.1930 -30.1806 -30.1461 -30.1381 -30.1184 -30.1109 -29.9566 -29.9564
   -29.8409 -29.7657 -29.7377 -29.6939 -29.6690 -29.5918 -21.9084 -21.9066
   -21.7384 -21.6684 -21.6659 -21.5990 -21.5549 -21.5513 -21.4910 -21.4863
   -21.3504 -21.3498 -21.3473 -21.0209 -20.9818 -20.9592 -20.9140 -20.7818
    -3.9850  -2.9326  -1.9058  -1.5373  -1.0288  -0.8789  -0.7838  -0.7091
    -0.6158  -0.4475  -0.2813  -0.1737   0.1086   0.1212   0.2309   0.6318
     0.7187   0.7287   1.2927   1.3924   1.5087   1.5261   1.6663   1.7430
     1.8139   1.8623   2.0183   2.0487   2.2426   2.3526   2.3774   2.5094
     2.5909   2.6013   2.7052   2.7621   2.9317   2.9333   2.9614   3.1161
     3.1784   3.2093   3.2247   3.5932   3.7871   4.0196   4.3608   4.3845
     4.4358   4.4853   4.5032

          k = 0.0509 0.0281 0.0000 ( 25114 PWs)   bands (ev):

   -61.6507 -61.6506 -61.6448 -61.6446 -61.2348 -61.2288 -41.6337 -41.6329
   -41.6024 -41.6017 -41.0406 -41.0088 -30.2132 -30.2000 -30.1982 -30.1860
   -30.1516 -30.1508 -30.1394 -30.1316 -30.1235 -30.1161 -30.0094 -30.0092
   -29.7890 -29.7594 -29.7433 -29.6885 -29.6741 -29.6453 -21.7962 -21.7941
   -21.7255 -21.6850 -21.6513 -21.6127 -21.5449 -21.5396 -21.5077 -21.5022
   -21.4741 -21.4728 -21.2332 -21.0082 -20.9727 -20.9696 -20.9304 -20.9070
    -3.4697  -2.4359  -1.9723  -1.4366  -1.2594  -0.7969  -0.5697  -0.3875
    -0.3545  -0.1890   0.2007   0.2169   0.3626   0.3893   0.5169   0.7572
     0.8096   0.8486   1.1709   1.2837   1.2838   1.3216   1.3762   1.4531
     1.5566   1.5724   1.7429   1.7890   1.9619   2.0304   2.1629   2.1791
     2.2413   2.2792   2.5673   2.6568   2.7108   2.7448   2.9150   3.2469
     3.2479   3.3812   3.4916   3.5098   3.6522   3.8910   4.0223   4.1577
     4.2368   4.3433   4.3711

          k = 0.0509 0.0563 0.0000 ( 25079 PWs)   bands (ev):

   -61.6507 -61.6506 -61.6448 -61.6446 -61.2348 -61.2288 -41.6338 -41.6330
   -41.6024 -41.6016 -41.0407 -41.0088 -30.2126 -30.2005 -30.1982 -30.1860
   -30.1509 -30.1504 -30.1380 -30.1303 -30.1235 -30.1160 -30.0096 -30.0092
   -29.7885 -29.7585 -29.7433 -29.6881 -29.6741 -29.6454 -21.7992 -21.7958
   -21.7287 -21.6854 -21.6504 -21.6126 -21.5508 -21.5433 -21.5081 -21.5025
   -21.4733 -21.4725 -21.2355 -21.0090 -20.9729 -20.9727 -20.9309 -20.9065
    -3.0526  -2.1734  -2.1380  -1.4737  -1.2921  -0.7715  -0.4074  -0.3959
     0.0199   0.0381   0.3644   0.5068   0.5578   0.5980   0.6581   0.7738
     0.8656   0.9576   0.9705   1.0516   1.1237   1.2032   1.2086   1.2899
     1.4050   1.4525   1.4740   1.5894   1.7257   1.7871   1.8664   1.9182
     1.9313   2.2186   2.3858   2.6882   2.7078   2.9187   2.9755   3.2559
     3.4444   3.4833   3.5206   3.5945   3.8047   3.8227   3.8656   3.9134
     4.1824   4.1986   4.4458

          k = 0.0509 0.0844 0.0000 ( 25068 PWs)   bands (ev):

   -61.6507 -61.6506 -61.6448 -61.6446 -61.2348 -61.2288 -41.6339 -41.6330
   -41.6024 -41.6016 -41.0407 -41.0088 -30.2122 -30.2008 -30.1983 -30.1860
   -30.1504 -30.1502 -30.1372 -30.1298 -30.1235 -30.1161 -30.0096 -30.0093
   -29.7882 -29.7581 -29.7434 -29.6880 -29.6741 -29.6454 -21.8006 -21.7967
   -21.7302 -21.6855 -21.6499 -21.6126 -21.5535 -21.5452 -21.5083 -21.5027
   -21.4729 -21.4725 -21.2366 -21.0094 -20.9743 -20.9727 -20.9312 -20.9063
    -2.6088  -2.2463  -2.2419  -1.4271  -1.2970  -1.0121  -0.2152  -0.0327
     0.0481   0.3053   0.3081   0.4179   0.6503   0.7585   0.7876   0.8107
     0.8465   0.8942   0.9312   0.9604   0.9850   1.0996   1.2094   1.3417
     1.3618   1.3907   1.4446   1.5249   1.5490   1.6398   1.7088   1.7212
     1.7848   1.9387   2.4962   2.7693   2.7953   3.1434   3.1692   3.1897
     3.3003   3.3562   3.3966   3.4924   3.5103   3.7108   3.7664   4.2928
     4.3016   4.3823   4.6069

          k = 0.0509-0.0563 0.0000 ( 25079 PWs)   bands (ev):

   -61.6507 -61.6506 -61.6448 -61.6446 -61.2348 -61.2288 -41.6338 -41.6330
   -41.6024 -41.6016 -41.0407 -41.0088 -30.2126 -30.2005 -30.1982 -30.1860
   -30.1509 -30.1504 -30.1380 -30.1303 -30.1235 -30.1160 -30.0096 -30.0092
   -29.7885 -29.7585 -29.7433 -29.6881 -29.6741 -29.6454 -21.7992 -21.7958
   -21.7287 -21.6854 -21.6504 -21.6126 -21.5508 -21.5433 -21.5081 -21.5025
   -21.4733 -21.4725 -21.2355 -21.0090 -20.9729 -20.9727 -20.9309 -20.9065
    -3.0526  -2.1734  -2.1380  -1.4737  -1.2921  -0.7715  -0.4074  -0.3959
     0.0199   0.0381   0.3644   0.5068   0.5578   0.5980   0.6581   0.7738
     0.8656   0.9576   0.9705   1.0516   1.1237   1.2032   1.2086   1.2899
     1.4050   1.4525   1.4740   1.5894   1.7257   1.7871   1.8664   1.9182
     1.9313   2.2186   2.3859   2.6882   2.7078   2.9187   2.9755   3.2559
     3.4444   3.4833   3.5206   3.5945   3.8047   3.8227   3.8656   3.9134
     4.1824   4.1986   4.4459

          k = 0.0509-0.0281 0.0000 ( 25114 PWs)   bands (ev):

   -61.6507 -61.6506 -61.6448 -61.6446 -61.2348 -61.2288 -41.6337 -41.6329
   -41.6024 -41.6017 -41.0406 -41.0088 -30.2132 -30.2000 -30.1982 -30.1860
   -30.1516 -30.1508 -30.1394 -30.1316 -30.1235 -30.1161 -30.0094 -30.0092
   -29.7890 -29.7594 -29.7433 -29.6885 -29.6741 -29.6453 -21.7962 -21.7941
   -21.7255 -21.6850 -21.6513 -21.6127 -21.5449 -21.5396 -21.5077 -21.5022
   -21.4741 -21.4728 -21.2332 -21.0082 -20.9727 -20.9696 -20.9304 -20.9070
    -3.4697  -2.4359  -1.9723  -1.4366  -1.2594  -0.7969  -0.5697  -0.3875
    -0.3545  -0.1890   0.2007   0.2169   0.3626   0.3893   0.5169   0.7572
     0.8096   0.8486   1.1709   1.2837   1.2838   1.3216   1.3762   1.4531
     1.5566   1.5724   1.7429   1.7890   1.9619   2.0304   2.1629   2.1791
     2.2413   2.2792   2.5673   2.6568   2.7108   2.7448   2.9150   3.2469
     3.2479   3.3812   3.4916   3.5098   3.6522   3.8910   4.0223   4.1577
     4.2367   4.3433   4.3711

          k = 0.0509 0.0000 0.0000 ( 25124 PWs)   bands (ev):

   -61.6508 -61.6506 -61.6448 -61.6446 -61.2349 -61.2288 -41.6336 -41.6329
   -41.6024 -41.6017 -41.0405 -41.0089 -30.2135 -30.1998 -30.1981 -30.1859
   -30.1519 -30.1509 -30.1404 -30.1325 -30.1234 -30.1159 -30.0094 -30.0091
   -29.7892 -29.7600 -29.7431 -29.6888 -29.6740 -29.6453 -21.7944 -21.7935
   -21.7238 -21.6848 -21.6519 -21.6128 -21.5415 -21.5381 -21.5076 -21.5020
   -21.4745 -21.4731 -21.2321 -21.0079 -20.9727 -20.9679 -20.9301 -20.9074
    -3.6192  -2.5685  -1.7783  -1.5149  -1.3070  -0.9690  -0.6092  -0.4130
    -0.3136  -0.2066  -0.0204   0.1029   0.2836   0.2846   0.4584   0.7153
     0.8046   0.8151   1.2864   1.2946   1.3421   1.4058   1.4132   1.5711
     1.6399   1.7038   1.8792   1.8889   1.9423   2.2190   2.2578   2.2925
     2.3963   2.4035   2.6193   2.6426   2.8040   2.8740   2.9729   2.9875
     3.1308   3.2338   3.2746   3.5928   3.6277   3.7730   4.1070   4.2580
     4.3077   4.3832   4.5634

          k =-0.0763-0.0422 0.0000 ( 25118 PWs)   bands (ev):

   -61.6478 -61.6478 -61.6476 -61.6476 -61.2318 -61.2318 -41.6181 -41.6181
   -41.6174 -41.6173 -41.0248 -41.0248 -30.2056 -30.2056 -30.1931 -30.1931
   -30.1312 -30.1312 -30.1235 -30.1235 -30.0809 -30.0809 -30.0804 -30.0804
   -29.7511 -29.7511 -29.7176 -29.7176 -29.6812 -29.6812 -21.7062 -21.7062
   -21.6384 -21.6384 -21.6366 -21.6366 -21.6310 -21.6310 -21.5277 -21.5277
   -21.5220 -21.5220 -21.0730 -21.0730 -20.9906 -20.9906 -20.9510 -20.9509
    -2.7284  -2.7284  -1.7765  -1.7765  -0.9342  -0.9342  -0.3344  -0.3344
    -0.1019  -0.1019   0.5827   0.5827   0.6831   0.6831   0.7455   0.7455
     0.8929   0.8929   1.0468   1.0468   1.0960   1.0960   1.1764   1.1764
     1.4531   1.4531   1.5005   1.5005   1.7513   1.7513   1.9645   1.9645
     2.2869   2.2869   2.3497   2.3497   2.6718   2.6718   3.2783   3.2783
     3.3998   3.3998   3.6334   3.6334   3.7746   3.7746   4.1377   4.1380
     4.1990   4.1991   4.3375

          k =-0.0763-0.0141 0.0000 ( 25098 PWs)   bands (ev):

   -61.6478 -61.6477 -61.6476 -61.6476 -61.2318 -61.2318 -41.6182 -41.6181
   -41.6174 -41.6173 -41.0248 -41.0247 -30.2059 -30.2052 -30.1933 -30.1929
   -30.1318 -30.1304 -30.1242 -30.1229 -30.0812 -30.0806 -30.0804 -30.0802
   -29.7516 -29.7506 -29.7178 -29.7172 -29.6814 -29.6810 -21.7075 -21.7050
   -21.6400 -21.6372 -21.6362 -21.6357 -21.6317 -21.6311 -21.5302 -21.5252
   -21.5234 -21.5206 -21.0742 -21.0717 -20.9910 -20.9904 -20.9521 -20.9498
    -2.9682  -2.3106  -1.9503  -1.6767  -1.1326  -0.8949  -0.6015  -0.0906
    -0.0520   0.0985   0.3378   0.4895   0.5756   0.5967   0.7302   0.7468
     0.8674   0.9263   0.9982   1.0456   1.1626   1.1627   1.2904   1.3974
     1.4253   1.5114   1.5357   1.5785   1.6860   1.8390   1.8874   1.9040
     1.9676   2.1779   2.4389   2.6758   2.7810   2.8405   3.0379   3.2708
     3.3490   3.4117   3.4773   3.5077   3.7820   3.8049   3.8856   4.0367
     4.0959   4.2044   4.5054

          k =-0.0763 0.0141 0.0000 ( 25098 PWs)   bands (ev):

   -61.6478 -61.6477 -61.6476 -61.6476 -61.2318 -61.2318 -41.6182 -41.6181
   -41.6174 -41.6173 -41.0248 -41.0247 -30.2059 -30.2052 -30.1933 -30.1929
   -30.1318 -30.1304 -30.1242 -30.1229 -30.0812 -30.0806 -30.0804 -30.0802
   -29.7516 -29.7506 -29.7178 -29.7172 -29.6814 -29.6810 -21.7075 -21.7050
   -21.6400 -21.6372 -21.6362 -21.6357 -21.6317 -21.6311 -21.5302 -21.5252
   -21.5234 -21.5206 -21.0742 -21.0717 -20.9910 -20.9904 -20.9521 -20.9498
    -2.9682  -2.3106  -1.9503  -1.6767  -1.1326  -0.8949  -0.6015  -0.0906
    -0.0520   0.0985   0.3378   0.4895   0.5756   0.5967   0.7302   0.7468
     0.8674   0.9263   0.9982   1.0456   1.1626   1.1627   1.2904   1.3974
     1.4253   1.5114   1.5357   1.5785   1.6860   1.8390   1.8874   1.9040
     1.9676   2.1779   2.4389   2.6758   2.7810   2.8405   3.0379   3.2708
     3.3490   3.4117   3.4773   3.5077   3.7820   3.8049   3.8856   4.0367
     4.0958   4.2044   4.5055

          k =-0.0763-0.1266 0.0000 ( 25118 PWs)   bands (ev):

   -61.6478 -61.6478 -61.6476 -61.6476 -61.2318 -61.2318 -41.6181 -41.6181
   -41.6174 -41.6173 -41.0248 -41.0248 -30.2056 -30.2056 -30.1931 -30.1931
   -30.1312 -30.1312 -30.1235 -30.1235 -30.0809 -30.0809 -30.0804 -30.0804
   -29.7511 -29.7511 -29.7176 -29.7176 -29.6812 -29.6812 -21.7062 -21.7062
   -21.6384 -21.6384 -21.6366 -21.6366 -21.6310 -21.6310 -21.5277 -21.5277
   -21.5220 -21.5220 -21.0730 -21.0730 -20.9906 -20.9906 -20.9510 -20.9509
    -2.7284  -2.7284  -1.7766  -1.7765  -0.9342  -0.9342  -0.3344  -0.3344
    -0.1019  -0.1019   0.5827   0.5827   0.6831   0.6831   0.7455   0.7455
     0.8929   0.8929   1.0468   1.0468   1.0960   1.0960   1.1764   1.1764
     1.4531   1.4531   1.5005   1.5005   1.7513   1.7513   1.9645   1.9645
     2.2869   2.2869   2.3497   2.3497   2.6718   2.6718   3.2783   3.2783
     3.3998   3.3998   3.6334   3.6334   3.7746   3.7746   4.1378   4.1378
     4.1991   4.1991   4.3377

     the Fermi energy is     1.2336 ev

!    total energy              =   -1525.27739498 Ry
     Harris-Foulkes estimate   =   -1525.27739333 Ry
     estimated scf accuracy    <       0.00000091 Ry

     The total energy is the sum of the following terms:

     one-electron contribution =   -6841.71285607 Ry
     hartree contribution      =    3408.80444799 Ry
     xc contribution           =    -633.33822310 Ry
     ewald contribution        =    2541.09447199 Ry
     electric field correction =       0.00000000 Ry
     smearing contrib. (-TS)   =      -0.12523579 Ry

     convergence has been achieved in  18 iterations
 
 BEEF-vdW xc energy contributions
           1 :   -567.440667472902     
           2 :    522.924529184384     
           3 :   -444.615411662931     
           4 :    349.549601311511     
           5 :   -254.931270301095     
           6 :    173.143411962815     
           7 :   -109.911317763538     
           8 :    65.4832540258820     
           9 :   -37.2770284942590     
          10 :    22.1124617214931     
          11 :   -17.0703425436253     
          12 :    19.1587598218113     
          13 :   -24.7611185664787     
          14 :    29.7427077797171     
          15 :   -30.4431028449843     
          16 :    24.9821374804834     
          17 :   -14.0148734800184     
          18 :   0.372257497821352     
          19 :    12.2501518537913     
          20 :   -20.8458333262161     
          21 :    24.0970149895636     
          22 :   -22.4582152378288     
          23 :    17.5089203872132     
          24 :   -11.1131695573138     
          25 :    4.85659915856968     
          26 :   9.012472216716105E-002
          27 :   -2.88122089248043     
          28 :    2.97599725919974     
          29 :  -0.325146048033844     
          30 :   -4.38705880303576     
          31 :   -44.1924644270483     
          32 :   -31.2836466185422     

     Forces acting on atoms (Ry/au):


     negative rho (up, down):  6.855E-01 0.000E+00
     atom    1 type  1   force =     0.00002229    0.00805930    0.02917165
     atom    2 type  1   force =    -0.00001183    0.00804899    0.02921138
     atom    3 type  2   force =    -0.00000174   -0.01127803   -0.00624627
     atom    4 type  2   force =     0.00000132   -0.01128108   -0.00624883
     atom    5 type  1   force =    -0.00002053   -0.00000243   -0.00000341
     atom    6 type  1   force =     0.00002267    0.00003279   -0.00000082
     atom    7 type  2   force =    -0.00000781   -0.00004034    0.00000449
     atom    8 type  2   force =     0.00000787   -0.00003534    0.00000578
     atom    9 type  1   force =    -0.00007026   -0.00802850   -0.02919173
     atom   10 type  1   force =     0.00005921   -0.00798753   -0.02923677
     atom   11 type  2   force =    -0.00000867    0.01124355    0.00626413
     atom   12 type  2   force =     0.00000749    0.01126863    0.00627039

     Total force =     0.065831     Total SCF correction =     0.001358


     entering subroutine stress ...


     negative rho (up, down):  6.855E-01 0.000E+00
          total   stress  (Ry/bohr**3)                   (kbar)     P=  -10.20
  -0.00004716   0.00000000   0.00000000         -6.94      0.00      0.00
   0.00000000  -0.00007707   0.00000985          0.00    -11.34      1.45
   0.00000000   0.00000985  -0.00008371          0.00      1.45    -12.31

 !ASE

     Writing output data file calc.save
 
     init_run     :     23.18s CPU     39.24s WALL (       1 calls)
     electrons    :    757.66s CPU   1215.98s WALL (       1 calls)
     forces       :      3.65s CPU      4.95s WALL (       1 calls)
     stress       :      9.05s CPU     11.66s WALL (       1 calls)

     Called by init_run:
     wfcinit      :     20.23s CPU     35.12s WALL (       1 calls)
     potinit      :      1.36s CPU      2.20s WALL (       1 calls)

     Called by electrons:
     c_bands      :    566.67s CPU    903.36s WALL (      18 calls)
     sum_band     :    113.66s CPU    188.03s WALL (      18 calls)
     v_of_rho     :     25.76s CPU     41.81s WALL (      19 calls)
     newd         :      9.17s CPU      9.52s WALL (      19 calls)
     mix_rho      :      1.09s CPU      1.73s WALL (      18 calls)
     vdW_energy   :      2.12s CPU      2.13s WALL (      55 calls)
     vdW_ffts     :     45.35s CPU     79.49s WALL (     112 calls)
     vdW_v        :      8.07s CPU     13.51s WALL (      55 calls)

     Called by c_bands:
     init_us_2    :      0.72s CPU      0.75s WALL (     780 calls)
     cegterg      :    558.29s CPU    893.58s WALL (     360 calls)

     Called by *egterg:
     h_psi        :    466.70s CPU    794.61s WALL (    1523 calls)
     s_psi        :      7.91s CPU      8.10s WALL (    1523 calls)
     g_psi        :      0.34s CPU      0.36s WALL (    1143 calls)
     cdiaghg      :     53.95s CPU     57.36s WALL (    1503 calls)

     Called by h_psi:
     add_vuspsi   :      8.12s CPU      8.20s WALL (    1523 calls)

     General routines
     calbec       :     23.67s CPU     31.76s WALL (    1923 calls)
     fft          :     68.17s CPU    119.73s WALL (    3357 calls)
     ffts         :      0.28s CPU      0.43s WALL (      37 calls)
     fftw         :    530.51s CPU    922.71s WALL (  199038 calls)
     interpolate  :      0.99s CPU      1.64s WALL (      37 calls)
     davcio       :      0.00s CPU      0.02s WALL (      20 calls)
 
     Parallel routines
     fft_scatter  :    577.83s CPU   1019.28s WALL (  202432 calls)
 
     PWSCF        : 13m14.74s CPU    21m13.87s WALL

 
   This run was terminated on:  21:39:36  24Dec2018            

=------------------------------------------------------------------------------=
   JOB DONE.
=------------------------------------------------------------------------------=
Job  /afs/slac/g/suncat/bin/suncat-tsmpirun -x LD_LIBRARY_PATH -wdir /scratch/qe109011_kEkDv pw.x -in pw.inp

TID   HOST_NAME   COMMAND_LINE            STATUS            TERMINATION_TIME
===== ========== ================  =======================  ===================
00000 suncat0082 pw.x -in pw.inp   Done                     12/24/2018 21:39:36
00001 suncat0082 pw.x -in pw.inp   Done                     12/24/2018 21:39:36
00002 suncat0082 pw.x -in pw.inp   Done                     12/24/2018 21:39:36
00003 suncat0082 pw.x -in pw.inp   Done                     12/24/2018 21:39:36
00004 suncat0082 pw.x -in pw.inp   Done                     12/24/2018 21:39:36
00005 suncat0082 pw.x -in pw.inp   Done                     12/24/2018 21:39:36
00006 suncat0082 pw.x -in pw.inp   Done                     12/24/2018 21:39:36
00007 suncat0082 pw.x -in pw.inp   Done                     12/24/2018 21:39:36
00008 suncat0062 pw.x -in pw.inp   Done                     12/24/2018 21:39:36
00009 suncat0062 pw.x -in pw.inp   Done                     12/24/2018 21:39:36
00010 suncat0062 pw.x -in pw.inp   Done                     12/24/2018 21:39:36
00011 suncat0062 pw.x -in pw.inp   Done                     12/24/2018 21:39:36
00012 suncat0062 pw.x -in pw.inp   Done                     12/24/2018 21:39:36
00013 suncat0062 pw.x -in pw.inp   Done                     12/24/2018 21:39:36
00014 suncat0062 pw.x -in pw.inp   Done                     12/24/2018 21:39:36
00015 suncat0062 pw.x -in pw.inp   Done                     12/24/2018 21:39:36
00016 suncat0056 pw.x -in pw.inp   Done                     12/24/2018 21:39:36
00017 suncat0056 pw.x -in pw.inp   Done                     12/24/2018 21:39:36
00018 suncat0056 pw.x -in pw.inp   Done                     12/24/2018 21:39:36
00019 suncat0056 pw.x -in pw.inp   Done                     12/24/2018 21:39:36
00020 suncat0056 pw.x -in pw.inp   Done                     12/24/2018 21:39:36
00021 suncat0056 pw.x -in pw.inp   Done                     12/24/2018 21:39:36
00022 suncat0056 pw.x -in pw.inp   Done                     12/24/2018 21:39:36
00023 suncat0056 pw.x -in pw.inp   Done                     12/24/2018 21:39:36
00024 suncat0055 pw.x -in pw.inp   Done                     12/24/2018 21:39:36
00025 suncat0055 pw.x -in pw.inp   Done                     12/24/2018 21:39:36
00026 suncat0055 pw.x -in pw.inp   Done                     12/24/2018 21:39:36
00027 suncat0055 pw.x -in pw.inp   Done                     12/24/2018 21:39:36
00028 suncat0055 pw.x -in pw.inp   Done                     12/24/2018 21:39:36
00029 suncat0055 pw.x -in pw.inp   Done                     12/24/2018 21:39:36
00030 suncat0055 pw.x -in pw.inp   Done                     12/24/2018 21:39:36
00031 suncat0055 pw.x -in pw.inp   Done                     12/24/2018 21:39:36
00032 suncat0217 pw.x -in pw.inp   Done                     12/24/2018 21:39:36
00033 suncat0217 pw.x -in pw.inp   Done                     12/24/2018 21:39:36
00034 suncat0217 pw.x -in pw.inp   Done                     12/24/2018 21:39:36
00035 suncat0217 pw.x -in pw.inp   Done                     12/24/2018 21:39:36
00036 suncat0217 pw.x -in pw.inp   Done                     12/24/2018 21:39:36
00037 suncat0217 pw.x -in pw.inp   Done                     12/24/2018 21:39:36
00038 suncat0217 pw.x -in pw.inp   Done                     12/24/2018 21:39:36
00039 suncat0217 pw.x -in pw.inp   Done                     12/24/2018 21:39:36
00040 suncat0216 pw.x -in pw.inp   Done                     12/24/2018 21:39:36
00041 suncat0216 pw.x -in pw.inp   Done                     12/24/2018 21:39:36
00042 suncat0216 pw.x -in pw.inp   Done                     12/24/2018 21:39:36
00043 suncat0216 pw.x -in pw.inp   Done                     12/24/2018 21:39:36
00044 suncat0216 pw.x -in pw.inp   Done                     12/24/2018 21:39:36
00045 suncat0216 pw.x -in pw.inp   Done                     12/24/2018 21:39:36
00046 suncat0216 pw.x -in pw.inp   Done                     12/24/2018 21:39:36
00047 suncat0216 pw.x -in pw.inp   Done                     12/24/2018 21:39:36
00048 suncat0215 pw.x -in pw.inp   Done                     12/24/2018 21:39:36
00049 suncat0215 pw.x -in pw.inp   Done                     12/24/2018 21:39:36
00050 suncat0215 pw.x -in pw.inp   Done                     12/24/2018 21:39:36
00051 suncat0215 pw.x -in pw.inp   Done                     12/24/2018 21:39:36
00052 suncat0215 pw.x -in pw.inp   Done                     12/24/2018 21:39:36
00053 suncat0215 pw.x -in pw.inp   Done                     12/24/2018 21:39:36
00054 suncat0215 pw.x -in pw.inp   Done                     12/24/2018 21:39:36
00055 suncat0215 pw.x -in pw.inp   Done                     12/24/2018 21:39:36
00056 suncat0210 pw.x -in pw.inp   Done                     12/24/2018 21:39:36
00057 suncat0210 pw.x -in pw.inp   Done                     12/24/2018 21:39:36
00058 suncat0210 pw.x -in pw.inp   Done                     12/24/2018 21:39:36
00059 suncat0210 pw.x -in pw.inp   Done                     12/24/2018 21:39:36
00060 suncat0210 pw.x -in pw.inp   Done                     12/24/2018 21:39:36
00061 suncat0210 pw.x -in pw.inp   Done                     12/24/2018 21:39:36
00062 suncat0210 pw.x -in pw.inp   Done                     12/24/2018 21:39:36
00063 suncat0210 pw.x -in pw.inp   Done                     12/24/2018 21:39:36

     Program PWSCF v.5.1rc2 (svn rev. 11289) starts on 24Dec2018 at 21:39:43 

     This program is part of the open-source Quantum ESPRESSO suite
     for quantum simulation of materials; please cite
         "P. Giannozzi et al., J. Phys.:Condens. Matter 21 395502 (2009);
          URL http://www.quantum-espresso.org", 
     in publications or presentations arising from this work. More details at
     http://www.quantum-espresso.org/quote

     Parallel version (MPI), running on    64 processors
     R & G space division:  proc/nbgrp/npool/nimage =      64
     Reading input from pw.inp
     Message from routine read_cards :
     DEPRECATED: no units specified in CELL_PARAMETERS card

     Current dimensions of program PWSCF are:
     Max number of different atomic species (ntypx) = 10
     Max number of k-points (npk) =  40000
     Max angular momentum in pseudopotentials (lmaxx) =  3
     Presently stress not available with electric field


     **************************************************************************
     Initializing libbeef V0.1.1 with the BEEF-vdW functional.
     Citation: Wellendorff et al., PRB 85, 235149 (2012).
     **************************************************************************


     IMPORTANT: XC functional enforced from input :
     Exchange-correlation      = BEEF-VDW ( 1  4 27 13 2)
     Any further DFT definition will be discarded
     Please, verify this is what you really want


     Subspace diagonalization in iterative solution of the eigenvalue problem:
     a serial algorithm will be used

 
     Parallelization info
     --------------------
     sticks:   dense  smooth     PW     G-vecs:    dense   smooth      PW
     Min          63      25      7                12377     3117     489
     Max          64      26      8                12395     3166     504
     Sum        4053    1617    475               792753   200621   31715
 


     bravais-lattice index     =            0
     lattice parameter (alat)  =       1.8897  a.u.
     unit-cell volume          =    6666.8462 (a.u.)^3
     number of atoms/cell      =           12
     number of atomic types    =            2
     number of electrons       =       138.00
     number of Kohn-Sham states=           99
     kinetic-energy cutoff     =      36.7493  Ry
     charge density cutoff     =     367.4932  Ry
     convergence threshold     =      1.0E-06
     mixing beta               =       0.1000
     number of iterations used =           10  plain     mixing
     Exchange-correlation      = BEEF-VDW ( 1  4 27 13 2)
     nstep                     =           50


     celldm(1)=   1.889726  celldm(2)=   0.000000  celldm(3)=   0.000000
     celldm(4)=   0.000000  celldm(5)=   0.000000  celldm(6)=   0.000000

     crystal axes: (cart. coord. in units of alat)
               a(1) = (   6.550380   0.000000   0.000000 )  
               a(2) = (  -3.275190   5.924176   0.000000 )  
               a(3) = (   0.000000   0.000000  25.458299 )  

     reciprocal axes: (cart. coord. in units 2 pi/alat)
               b(1) = (  0.152663  0.084400  0.000000 )  
               b(2) = (  0.000000  0.168800  0.000000 )  
               b(3) = (  0.000000  0.000000  0.039280 )  


     PseudoPot. # 1 for Hf read from file:
     /afs/slac.stanford.edu/u/if/mamunm/psp/gbrv1.5pbe/Hf.UPF
     MD5 check sum: 8ee9378dfe14276e333edf04c5e4aa26
     Pseudo is Ultrasoft + core correction, Zval = 12.0
     Generated by new atomic code, or converted to UPF format
     Using radial grid of  921 points,  8 beta functions with: 
                l(1) =   0
                l(2) =   0
                l(3) =   0
                l(4) =   1
                l(5) =   1
                l(6) =   2
                l(7) =   2
                l(8) =   3
     Q(r) pseudized with  6 coefficients,  rinner =    1.200   1.200   1.200
                                                       1.200   1.200   1.200
                                                       1.200

     PseudoPot. # 2 for Y  read from file:
     /afs/slac.stanford.edu/u/if/mamunm/psp/gbrv1.5pbe/Y.UPF
     MD5 check sum: d034151ed7554c50b6e82763ed42c788
     Pseudo is Ultrasoft + core correction, Zval = 11.0
     Generated by new atomic code, or converted to UPF format
     Using radial grid of  885 points,  6 beta functions with: 
                l(1) =   0
                l(2) =   0
                l(3) =   1
                l(4) =   1
                l(5) =   2
                l(6) =   2
     Q(r) pseudized with  8 coefficients,  rinner =    1.200   1.200   1.200
                                                       1.200   1.200

     vdW kernel table read from file vdW_kernel_table
     MD5 check sum: 095c7af220d748ca6e76c0b4c6cfb241

     atomic species   valence    mass     pseudopotential
        Hf1           12.00   178.49000     Hf( 1.00)
        Y1            11.00    88.90584     Y ( 1.00)

     No symmetry found



   Cartesian axes

     site n.     atom                  positions (alat units)
         1           Hf1 tau(   1) = (   0.0000000   0.0000000  10.0000000  )
         2           Hf1 tau(   2) = (  -0.0000000   5.9241758  10.0000000  )
         3           Y1  tau(   3) = (   1.6375951   2.9620879  10.0000000  )
         4           Y1  tau(   4) = (  -1.6375951   2.9620879  10.0000000  )
         5           Hf1 tau(   5) = (   3.2751901   1.8106941  12.7291495  )
         6           Hf1 tau(   6) = (  -0.0000000   1.8106941  12.7291495  )
         7           Y1  tau(   7) = (  -1.6375951   4.7727820  12.7291495  )
         8           Y1  tau(   8) = (   1.6375951   4.7727820  12.7291495  )
         9           Hf1 tau(   9) = (  -0.0001806   3.6007462  15.3832441  )
        10           Hf1 tau(  10) = (   3.2753424   3.6008515  15.3831283  )
        11           Y1  tau(  11) = (   4.9127629   0.6882087  15.4744048  )
        12           Y1  tau(  12) = (   1.6376143   0.6882732  15.4744209  )

     number of k points=    20  Fermi-Dirac smearing, width (Ry)=  0.0110
                       cart. coord. in units 2pi/alat
        k(    1) = (   0.0000000   0.0000000   0.0000000), wk =   0.0555556
        k(    2) = (   0.0000000   0.0281333   0.0000000), wk =   0.1111111
        k(    3) = (   0.0000000   0.0562666   0.0000000), wk =   0.1111111
        k(    4) = (   0.0000000  -0.0843999   0.0000000), wk =   0.0555556
        k(    5) = (   0.0254438   0.0140667   0.0000000), wk =   0.1111111
        k(    6) = (   0.0254438   0.0422000   0.0000000), wk =   0.1111111
        k(    7) = (   0.0254438   0.0703333   0.0000000), wk =   0.1111111
        k(    8) = (   0.0254438  -0.0703333   0.0000000), wk =   0.1111111
        k(    9) = (   0.0254438  -0.0422000   0.0000000), wk =   0.1111111
        k(   10) = (   0.0254438  -0.0140667   0.0000000), wk =   0.1111111
        k(   11) = (   0.0508876   0.0281333   0.0000000), wk =   0.1111111
        k(   12) = (   0.0508876   0.0562666   0.0000000), wk =   0.1111111
        k(   13) = (   0.0508876   0.0843999   0.0000000), wk =   0.1111111
        k(   14) = (   0.0508876  -0.0562666   0.0000000), wk =   0.1111111
        k(   15) = (   0.0508876  -0.0281333   0.0000000), wk =   0.1111111
        k(   16) = (   0.0508876   0.0000000   0.0000000), wk =   0.1111111
        k(   17) = (  -0.0763314  -0.0422000   0.0000000), wk =   0.0555556
        k(   18) = (  -0.0763314  -0.0140667   0.0000000), wk =   0.1111111
        k(   19) = (  -0.0763314   0.0140667   0.0000000), wk =   0.1111111
        k(   20) = (  -0.0763314  -0.1265999   0.0000000), wk =   0.0555556

     Dense  grid:   792753 G-vectors     FFT dimensions: (  75,  80, 300)

     Smooth grid:   200621 G-vectors     FFT dimensions: (  48,  50, 192)

     Largest allocated arrays     est. size (Mb)     dimensions
        Kohn-Sham Wavefunctions         0.61 Mb     (     403,   99)
        NL pseudopotentials             1.62 Mb     (     403,  264)
        Each V/rho on FFT grid          0.46 Mb     (   30000)
        Each G-vector array             0.09 Mb     (   12395)
        G-vector shells                 0.05 Mb     (    6086)
     Largest temporary arrays     est. size (Mb)     dimensions
        Auxiliary wavefunctions         2.44 Mb     (     403,  396)
        Each subspace H/S matrix        2.39 Mb     (     396,  396)
        Each <psi_i|beta_j> matrix      0.40 Mb     (     264,   99)
        Arrays for rho mixing           4.58 Mb     (   30000,   10)

     Check: negative/imaginary core charge=   -0.000003    0.000000

     Initial potential from superposition of free atoms
     Check: negative starting charge=   -0.645869

     starting charge  125.97317, renormalised to  138.00000

     negative rho (up, down):  7.075E-01 0.000E+00


     ************************************************************************
     *
     * You are using vdW-DF for exchange-correlation in this calculation.
     * Please cite the following three references that made this development
     * possible:
     *
     *   M. Dion, H. Rydberg, E. Schroder, D. C. Langreth, and
     *   B. I. Lundqvist, Phys. Rev. Lett. 92, 246401 (2004).
     *
     *   T. Thonhauser, V. R. Cooper, S. Li, A. Puzder, P. Hyldgaard, and
     *   D. C. Langreth, Phys. Rev. B 76, 125112 (2007).
     *
     *   G. Roman-Perez and J. M. Soler, Phys. Rev. Lett. 103, 096102 (2009).
     *
     *
     * If you are using vdW-DF2, please also cite:
     *
     *   K. Lee, E. D. Murray, L. Kong, B. I. Lundqvist, and
     *   D. C. Langreth, Phys. Rev. B 82, 081101(R) (2010).
     *
     *
     * If you are calculating the stress with vdW-DF, please also cite:
     *
     *   R. Sabatini, E. Kucukbenli, B. Kolb, T. Thonhauser, and
     *   S. de Gironcoli, J. Phys.: Condens. Matter 24, 424209 (2012).
     *
     ************************************************************************

     Carrying out vdW-DF run using the following parameters:

     Nqs =      20    Nr_points =    1024   r_max =   100.000
     q_mesh =
               0.00001000     0.04494208     0.09755937     0.15916263
               0.23128650     0.31572767     0.41458969     0.53033537
               0.66584808     0.82450364     1.01025438     1.22772762
               1.48234092     1.78043706     2.12944203     2.53805004
               3.01644009     3.57652955     4.23227104     5.00000000

     Gradients computed in reciprocal space

     ************************************************************************


 
     Adding external electric field

     Computed dipole along edir(3) : 
        Dipole               -0.3604 Ry au,         -0.9160 Debye
        Dipole field         -0.0007 Ry au
 
        Potential amp.        0.0637 Ry
        Total length         46.9065 bohr
 
     Starting wfc are  156 randomized atomic wfcs

     total cpu time spent up to now is       40.7 secs

     per-process dynamical memory:    45.7 Mb

     Self-consistent Calculation

     iteration #  1     ecut=    36.75 Ry     beta=0.10
     Davidson diagonalization with overlap
     ethr =  1.00E-02,  avg # of iterations =  4.5

     negative rho (up, down):  7.006E-01 0.000E+00
 
     Adding external electric field

     Computed dipole along edir(3) : 
        Dipole                1.7231 Ry au,          4.3798 Debye
        Dipole field          0.0032 Ry au
 
        Potential amp.       -0.3047 Ry
        Total length         46.9065 bohr
 

     total cpu time spent up to now is      118.0 secs

     total energy              =   -1527.41013750 Ry
     Harris-Foulkes estimate   =   -1529.18538218 Ry
     estimated scf accuracy    <      12.04723153 Ry

     iteration #  2     ecut=    36.75 Ry     beta=0.10
     Davidson diagonalization with overlap
     ethr =  8.73E-03,  avg # of iterations =  1.1

     negative rho (up, down):  6.996E-01 0.000E+00
 
     Adding external electric field

     Computed dipole along edir(3) : 
        Dipole               -0.2060 Ry au,         -0.5236 Debye
        Dipole field         -0.0004 Ry au
 
        Potential amp.        0.0364 Ry
        Total length         46.9065 bohr
 

     total cpu time spent up to now is      174.0 secs

     total energy              =   -1526.54077797 Ry
     Harris-Foulkes estimate   =   -1529.24060614 Ry
     estimated scf accuracy    <      79.17702761 Ry

     iteration #  3     ecut=    36.75 Ry     beta=0.10
     Davidson diagonalization with overlap
     ethr =  8.73E-03,  avg # of iterations =  1.1

     negative rho (up, down):  6.896E-01 0.000E+00
 
     Adding external electric field

     Computed dipole along edir(3) : 
        Dipole                0.2371 Ry au,          0.6028 Debye
        Dipole field          0.0004 Ry au
 
        Potential amp.       -0.0419 Ry
        Total length         46.9065 bohr
 

     total cpu time spent up to now is      232.8 secs

     total energy              =   -1526.15793252 Ry
     Harris-Foulkes estimate   =   -1527.83503235 Ry
     estimated scf accuracy    <       8.30384280 Ry

     iteration #  4     ecut=    36.75 Ry     beta=0.10
     Davidson diagonalization with overlap
     ethr =  6.02E-03,  avg # of iterations =  1.0

     negative rho (up, down):  6.775E-01 0.000E+00
 
     Adding external electric field

     Computed dipole along edir(3) : 
        Dipole               -0.0112 Ry au,         -0.0284 Debye
        Dipole field         -0.0000 Ry au
 
        Potential amp.        0.0020 Ry
        Total length         46.9065 bohr
 

     total cpu time spent up to now is      290.6 secs

     total energy              =   -1525.06702796 Ry
     Harris-Foulkes estimate   =   -1526.43093467 Ry
     estimated scf accuracy    <       4.47210291 Ry

     iteration #  5     ecut=    36.75 Ry     beta=0.10
     Davidson diagonalization with overlap
     ethr =  3.24E-03,  avg # of iterations =  2.0

     negative rho (up, down):  6.801E-01 0.000E+00
 
     Adding external electric field

     Computed dipole along edir(3) : 
        Dipole                0.0856 Ry au,          0.2175 Debye
        Dipole field          0.0002 Ry au
 
        Potential amp.       -0.0151 Ry
        Total length         46.9065 bohr
 

     total cpu time spent up to now is      353.7 secs

     total energy              =   -1525.33628908 Ry
     Harris-Foulkes estimate   =   -1525.53082281 Ry
     estimated scf accuracy    <       1.98782916 Ry

     iteration #  6     ecut=    36.75 Ry     beta=0.10
     Davidson diagonalization with overlap
     ethr =  1.44E-03,  avg # of iterations =  1.9

     negative rho (up, down):  6.771E-01 0.000E+00
 
     Adding external electric field

     Computed dipole along edir(3) : 
        Dipole               -0.0296 Ry au,         -0.0753 Debye
        Dipole field         -0.0001 Ry au
 
        Potential amp.        0.0052 Ry
        Total length         46.9065 bohr
 

     total cpu time spent up to now is      407.1 secs

     total energy              =   -1525.20950743 Ry
     Harris-Foulkes estimate   =   -1525.44920499 Ry
     estimated scf accuracy    <       0.73594396 Ry

     iteration #  7     ecut=    36.75 Ry     beta=0.10
     Davidson diagonalization with overlap
     ethr =  5.33E-04,  avg # of iterations =  4.3

     negative rho (up, down):  6.772E-01 0.000E+00
 
     Adding external electric field

     Computed dipole along edir(3) : 
        Dipole                0.0315 Ry au,          0.0799 Debye
        Dipole field          0.0001 Ry au
 
        Potential amp.       -0.0056 Ry
        Total length         46.9065 bohr
 

     total cpu time spent up to now is      477.2 secs

     total energy              =   -1525.28494399 Ry
     Harris-Foulkes estimate   =   -1525.30113207 Ry
     estimated scf accuracy    <       0.15797036 Ry

     iteration #  8     ecut=    36.75 Ry     beta=0.10
     Davidson diagonalization with overlap
     ethr =  1.14E-04,  avg # of iterations =  7.8

     negative rho (up, down):  6.788E-01 0.000E+00
 
     Adding external electric field

     Computed dipole along edir(3) : 
        Dipole               -0.0460 Ry au,         -0.1169 Debye
        Dipole field         -0.0001 Ry au
 
        Potential amp.        0.0081 Ry
        Total length         46.9065 bohr
 

     total cpu time spent up to now is      547.8 secs

     total energy              =   -1525.27936885 Ry
     Harris-Foulkes estimate   =   -1525.29354388 Ry
     estimated scf accuracy    <       0.10451201 Ry

     iteration #  9     ecut=    36.75 Ry     beta=0.10
     Davidson diagonalization with overlap
     ethr =  7.57E-05,  avg # of iterations =  2.8

     negative rho (up, down):  6.802E-01 0.000E+00
 
     Adding external electric field

     Computed dipole along edir(3) : 
        Dipole                0.0353 Ry au,          0.0896 Debye
        Dipole field          0.0001 Ry au
 
        Potential amp.       -0.0062 Ry
        Total length         46.9065 bohr
 

     total cpu time spent up to now is      607.7 secs

     total energy              =   -1525.27999126 Ry
     Harris-Foulkes estimate   =   -1525.29188905 Ry
     estimated scf accuracy    <       0.41684196 Ry

     iteration # 10     ecut=    36.75 Ry     beta=0.10
     Davidson diagonalization with overlap
     ethr =  7.57E-05,  avg # of iterations =  1.0

     negative rho (up, down):  6.827E-01 0.000E+00
 
     Adding external electric field

     Computed dipole along edir(3) : 
        Dipole               -0.0108 Ry au,         -0.0276 Debye
        Dipole field         -0.0000 Ry au
 
        Potential amp.        0.0019 Ry
        Total length         46.9065 bohr
 

     total cpu time spent up to now is      666.1 secs

     total energy              =   -1525.28538507 Ry
     Harris-Foulkes estimate   =   -1525.28744269 Ry
     estimated scf accuracy    <       0.04212971 Ry

     iteration # 11     ecut=    36.75 Ry     beta=0.10
     Davidson diagonalization with overlap
     ethr =  3.05E-05,  avg # of iterations =  2.8

     negative rho (up, down):  6.837E-01 0.000E+00
 
     Adding external electric field

     Computed dipole along edir(3) : 
        Dipole                0.0067 Ry au,          0.0169 Debye
        Dipole field          0.0000 Ry au
 
        Potential amp.       -0.0012 Ry
        Total length         46.9065 bohr
 

     total cpu time spent up to now is      726.7 secs

     total energy              =   -1525.28562687 Ry
     Harris-Foulkes estimate   =   -1525.28743556 Ry
     estimated scf accuracy    <       0.01772661 Ry

     iteration # 12     ecut=    36.75 Ry     beta=0.10
     Davidson diagonalization with overlap
     ethr =  1.28E-05,  avg # of iterations =  6.3

     negative rho (up, down):  6.841E-01 0.000E+00
 
     Adding external electric field

     Computed dipole along edir(3) : 
        Dipole                0.0027 Ry au,          0.0068 Debye
        Dipole field          0.0000 Ry au
 
        Potential amp.       -0.0005 Ry
        Total length         46.9065 bohr
 

     total cpu time spent up to now is      795.1 secs

     total energy              =   -1525.28655837 Ry
     Harris-Foulkes estimate   =   -1525.28663156 Ry
     estimated scf accuracy    <       0.00061174 Ry

     iteration # 13     ecut=    36.75 Ry     beta=0.10
     Davidson diagonalization with overlap
     ethr =  4.43E-07,  avg # of iterations =  6.5

     negative rho (up, down):  6.849E-01 0.000E+00
 
     Adding external electric field

     Computed dipole along edir(3) : 
        Dipole                0.0078 Ry au,          0.0198 Debye
        Dipole field          0.0000 Ry au
 
        Potential amp.       -0.0014 Ry
        Total length         46.9065 bohr
 

     total cpu time spent up to now is      874.6 secs

     total energy              =   -1525.28656222 Ry
     Harris-Foulkes estimate   =   -1525.28666834 Ry
     estimated scf accuracy    <       0.00274697 Ry

     iteration # 14     ecut=    36.75 Ry     beta=0.10
     Davidson diagonalization with overlap
     ethr =  4.43E-07,  avg # of iterations =  3.0

     negative rho (up, down):  6.852E-01 0.000E+00
 
     Adding external electric field

     Computed dipole along edir(3) : 
        Dipole                0.0092 Ry au,          0.0234 Debye
        Dipole field          0.0000 Ry au
 
        Potential amp.       -0.0016 Ry
        Total length         46.9065 bohr
 

     total cpu time spent up to now is      940.2 secs

     total energy              =   -1525.28659347 Ry
     Harris-Foulkes estimate   =   -1525.28668562 Ry
     estimated scf accuracy    <       0.00066337 Ry

     iteration # 15     ecut=    36.75 Ry     beta=0.10
     Davidson diagonalization with overlap
     ethr =  4.43E-07,  avg # of iterations =  1.0

     negative rho (up, down):  6.854E-01 0.000E+00
 
     Adding external electric field

     Computed dipole along edir(3) : 
        Dipole                0.0078 Ry au,          0.0199 Debye
        Dipole field          0.0000 Ry au
 
        Potential amp.       -0.0014 Ry
        Total length         46.9065 bohr
 

     total cpu time spent up to now is      996.8 secs

     total energy              =   -1525.28662972 Ry
     Harris-Foulkes estimate   =   -1525.28663396 Ry
     estimated scf accuracy    <       0.00004980 Ry

     iteration # 16     ecut=    36.75 Ry     beta=0.10
     Davidson diagonalization with overlap
     ethr =  3.61E-08,  avg # of iterations =  3.8

     negative rho (up, down):  6.854E-01 0.000E+00
 
     Adding external electric field

     Computed dipole along edir(3) : 
        Dipole                0.0081 Ry au,          0.0207 Debye
        Dipole field          0.0000 Ry au
 
        Potential amp.       -0.0014 Ry
        Total length         46.9065 bohr
 

     total cpu time spent up to now is     1067.5 secs

     total energy              =   -1525.28663883 Ry
     Harris-Foulkes estimate   =   -1525.28663853 Ry
     estimated scf accuracy    <       0.00001345 Ry

     iteration # 17     ecut=    36.75 Ry     beta=0.10
     Davidson diagonalization with overlap
     ethr =  9.74E-09,  avg # of iterations =  1.9

     negative rho (up, down):  6.855E-01 0.000E+00
 
     Adding external electric field

     Computed dipole along edir(3) : 
        Dipole                0.0082 Ry au,          0.0209 Debye
        Dipole field          0.0000 Ry au
 
        Potential amp.       -0.0015 Ry
        Total length         46.9065 bohr
 

     total cpu time spent up to now is     1125.6 secs

     total energy              =   -1525.28664102 Ry
     Harris-Foulkes estimate   =   -1525.28663993 Ry
     estimated scf accuracy    <       0.00000438 Ry

     iteration # 18     ecut=    36.75 Ry     beta=0.10
     Davidson diagonalization with overlap
     ethr =  3.17E-09,  avg # of iterations =  3.1

     negative rho (up, down):  6.855E-01 0.000E+00
 
     Adding external electric field

     Computed dipole along edir(3) : 
        Dipole                0.0083 Ry au,          0.0210 Debye
        Dipole field          0.0000 Ry au
 
        Potential amp.       -0.0015 Ry
        Total length         46.9065 bohr
 

     total cpu time spent up to now is     1184.5 secs

     total energy              =   -1525.28664220 Ry
     Harris-Foulkes estimate   =   -1525.28664149 Ry
     estimated scf accuracy    <       0.00000338 Ry

[...]
   -30.1128 -29.9969 -29.9763 -29.9610 -29.9419 -29.9141 -29.8990 -29.7978
   -29.6836 -29.6444 -29.6292 -29.5401 -29.5289 -29.5154 -21.8216 -21.7789
   -21.7143 -21.6725 -21.6566 -21.6187 -21.5848 -21.5433 -21.5299 -21.4980
   -21.4882 -21.4544 -21.1312 -20.9246 -20.8877 -20.8830 -20.8406 -20.7993
    -3.0595  -2.1809  -2.1094  -1.4169  -1.2569  -0.7127  -0.3959  -0.3565
    -0.0495   0.0623   0.3822   0.4501   0.5251   0.6524   0.6742   0.7620
     0.8655   0.9261   0.9904   1.0727   1.1765   1.2467   1.2530   1.3089
     1.4255   1.4819   1.5002   1.6560   1.7657   1.8316   1.8897   1.9541
     2.0213   2.2891   2.4540   2.7734   2.8445   2.8992   3.0664   3.3059
     3.3973   3.5474   3.6786   3.7455   3.8204   3.8675   3.9943   3.9966
     4.2125   4.2231   4.5717

          k = 0.0509 0.0844 0.0000 ( 25068 PWs)   bands (ev):

   -61.6441 -61.6381 -61.3884 -61.3824 -61.1103 -61.1042 -41.6664 -41.6350
   -41.6177 -41.5863 -40.9279 -40.8957 -30.2049 -30.1907 -30.1377 -30.1266
   -30.1129 -29.9969 -29.9762 -29.9610 -29.9416 -29.9136 -29.8990 -29.7979
   -29.6833 -29.6439 -29.6293 -29.5402 -29.5288 -29.5154 -21.8227 -21.7801
   -21.7156 -21.6726 -21.6561 -21.6186 -21.5873 -21.5435 -21.5321 -21.4978
   -21.4884 -21.4542 -21.1323 -20.9245 -20.8877 -20.8850 -20.8409 -20.7991
    -2.6230  -2.2489  -2.2421  -1.3439  -1.2600  -0.9741  -0.1676  -0.0302
     0.1240   0.2282   0.2993   0.4101   0.6013   0.7283   0.7448   0.8462
     0.8546   0.8829   0.9076   0.9858   1.0833   1.1198   1.2393   1.3303
     1.3747   1.4244   1.4444   1.5919   1.6591   1.6606   1.7373   1.7678
     1.8582   2.0143   2.5704   2.8461   2.9614   3.1083   3.2385   3.2390
     3.3352   3.3833   3.4801   3.6000   3.6978   3.8990   3.9085   4.2816
     4.3374   4.4399   4.6033

          k = 0.0509-0.0563 0.0000 ( 25079 PWs)   bands (ev):

   -61.6441 -61.6381 -61.3884 -61.3824 -61.1103 -61.1042 -41.6663 -41.6350
   -41.6177 -41.5863 -40.9279 -40.8957 -30.2051 -30.1907 -30.1381 -30.1273
   -30.1128 -29.9969 -29.9763 -29.9610 -29.9419 -29.9141 -29.8990 -29.7978
   -29.6836 -29.6444 -29.6292 -29.5401 -29.5289 -29.5154 -21.8216 -21.7789
   -21.7143 -21.6725 -21.6566 -21.6187 -21.5848 -21.5433 -21.5299 -21.4980
   -21.4882 -21.4544 -21.1312 -20.9246 -20.8877 -20.8830 -20.8406 -20.7993
    -3.0595  -2.1809  -2.1094  -1.4169  -1.2569  -0.7127  -0.3959  -0.3565
    -0.0495   0.0623   0.3822   0.4501   0.5251   0.6524   0.6742   0.7620
     0.8655   0.9261   0.9904   1.0727   1.1765   1.2467   1.2530   1.3089
     1.4255   1.4819   1.5002   1.6560   1.7657   1.8316   1.8897   1.9541
     2.0213   2.2891   2.4540   2.7734   2.8445   2.8991   3.0664   3.3059
     3.3973   3.5474   3.6786   3.7455   3.8204   3.8675   3.9943   3.9966
     4.2125   4.2231   4.5716

          k = 0.0509-0.0281 0.0000 ( 25114 PWs)   bands (ev):

   -61.6441 -61.6381 -61.3884 -61.3824 -61.1103 -61.1042 -41.6663 -41.6350
   -41.6176 -41.5863 -40.9278 -40.8958 -30.2052 -30.1907 -30.1386 -30.1286
   -30.1128 -29.9968 -29.9766 -29.9611 -29.9425 -29.9152 -29.8991 -29.7978
   -29.6841 -29.6453 -29.6290 -29.5400 -29.5291 -29.5154 -21.8194 -21.7766
   -21.7116 -21.6722 -21.6576 -21.6188 -21.5797 -21.5429 -21.5253 -21.4985
   -21.4879 -21.4550 -21.1289 -20.9248 -20.8878 -20.8787 -20.8400 -20.7998
    -3.4750  -2.3832  -1.9811  -1.3584  -1.2337  -0.7667  -0.5511  -0.3901
    -0.3816  -0.1891   0.2129   0.2211   0.3257   0.4596   0.5102   0.7624
     0.8467   0.9250   1.1455   1.2947   1.3152   1.3634   1.4288   1.4885
     1.5851   1.6270   1.7965   1.8127   2.0389   2.0703   2.1990   2.2129
     2.3220   2.3507   2.6063   2.6286   2.8194   2.8370   3.0205   3.2135
     3.2581   3.4171   3.5310   3.6212   3.7298   4.0214   4.0470   4.1768
     4.2300   4.3754   4.5175

          k = 0.0509 0.0000 0.0000 ( 25124 PWs)   bands (ev):

   -61.6441 -61.6381 -61.3885 -61.3824 -61.1103 -61.1042 -41.6662 -41.6351
   -41.6175 -41.5863 -40.9278 -40.8958 -30.2053 -30.1906 -30.1388 -30.1295
   -30.1128 -29.9968 -29.9768 -29.9610 -29.9427 -29.9159 -29.8991 -29.7977
   -29.6843 -29.6460 -29.6289 -29.5400 -29.5293 -29.5153 -21.8182 -21.7754
   -21.7102 -21.6721 -21.6582 -21.6188 -21.5771 -21.5427 -21.5229 -21.4988
   -21.4877 -21.4553 -21.1277 -20.9250 -20.8879 -20.8765 -20.8397 -20.8002
    -3.6242  -2.5119  -1.7894  -1.4288  -1.3005  -0.9270  -0.6085  -0.4171
    -0.3427  -0.1991   0.0150   0.1091   0.2379   0.3687   0.4522   0.7257
     0.8516   0.8967   1.2346   1.3359   1.3683   1.4739   1.5055   1.5966
     1.6881   1.7533   1.8975   1.9091   2.0626   2.2282   2.2980   2.3644
     2.4249   2.5071   2.5694   2.7654   2.9061   2.9352   2.9677   3.0306
     3.1315   3.2706   3.3208   3.6181   3.6819   3.8493   4.2041   4.2985
     4.4338   4.4473   4.5373

          k =-0.0763-0.0422 0.0000 ( 25118 PWs)   bands (ev):

   -61.6411 -61.6411 -61.3855 -61.3853 -61.1073 -61.1072 -41.6507 -41.6507
   -41.6020 -41.6020 -40.9121 -40.9116 -30.1979 -30.1979 -30.1204 -30.1204
   -30.0681 -30.0681 -29.9688 -29.9687 -29.9070 -29.9068 -29.8710 -29.8701
   -29.6370 -29.6370 -29.6125 -29.6125 -29.5223 -29.5222 -21.6927 -21.6927
   -21.6619 -21.6616 -21.6381 -21.6381 -21.6185 -21.6184 -21.5626 -21.5625
   -21.5077 -21.5077 -20.9676 -20.9671 -20.9065 -20.9060 -20.8608 -20.8603
    -2.7340  -2.7338  -1.7341  -1.7338  -0.8883  -0.8881  -0.2862  -0.2861
    -0.1313  -0.1310   0.5262   0.5264   0.6628   0.6630   0.7942   0.7944
     0.8847   0.8848   1.0566   1.0566   1.1579   1.1580   1.2574   1.2576
     1.4859   1.4861   1.5443   1.5445   1.7938   1.7949   1.9811   1.9818
     2.3139   2.3143   2.4139   2.4144   2.7748   2.7754   3.3188   3.3191
     3.4060   3.4063   3.7958   3.7962   3.9216   3.9224   4.0448   4.0452
     4.2743   4.2746   4.3622

          k =-0.0763-0.0141 0.0000 ( 25098 PWs)   bands (ev):

   -61.6411 -61.6411 -61.3855 -61.3853 -61.1073 -61.1072 -41.6508 -41.6507
   -41.6021 -41.6020 -40.9121 -40.9116 -30.1980 -30.1978 -30.1211 -30.1198
   -30.0684 -30.0678 -29.9689 -29.9686 -29.9074 -29.9064 -29.8711 -29.8699
   -29.6376 -29.6364 -29.6127 -29.6121 -29.5224 -29.5220 -21.6938 -21.6916
   -21.6629 -21.6605 -21.6385 -21.6376 -21.6197 -21.6172 -21.5646 -21.5606
   -21.5097 -21.5059 -20.9685 -20.9660 -20.9065 -20.9060 -20.8622 -20.8590
    -2.9728  -2.3194  -1.9005  -1.6672  -1.0801  -0.8234  -0.5668  -0.0685
    -0.0437   0.0551   0.3489   0.4653   0.5370   0.6559   0.6945   0.7255
     0.8388   0.9945   1.0601   1.0923   1.1959   1.2097   1.3131   1.4414
     1.4619   1.5336   1.5445   1.6349   1.7557   1.8779   1.9054   1.9370
     1.9951   2.2287   2.5239   2.7755   2.8010   2.9003   3.1816   3.2551
     3.3195   3.4920   3.5673   3.6550   3.8691   3.9236   3.9839   4.0462
     4.1473   4.1880   4.5227

          k =-0.0763 0.0141 0.0000 ( 25098 PWs)   bands (ev):

   -61.6411 -61.6411 -61.3855 -61.3853 -61.1073 -61.1072 -41.6508 -41.6507
   -41.6021 -41.6020 -40.9121 -40.9116 -30.1980 -30.1978 -30.1211 -30.1198
   -30.0684 -30.0678 -29.9689 -29.9686 -29.9074 -29.9064 -29.8711 -29.8699
   -29.6376 -29.6364 -29.6127 -29.6121 -29.5224 -29.5220 -21.6938 -21.6916
   -21.6629 -21.6605 -21.6385 -21.6376 -21.6197 -21.6172 -21.5646 -21.5606
   -21.5097 -21.5059 -20.9685 -20.9660 -20.9065 -20.9060 -20.8622 -20.8590
    -2.9728  -2.3194  -1.9005  -1.6672  -1.0801  -0.8234  -0.5668  -0.0685
    -0.0437   0.0551   0.3489   0.4653   0.5370   0.6559   0.6946   0.7255
     0.8388   0.9945   1.0601   1.0923   1.1959   1.2097   1.3131   1.4414
     1.4619   1.5336   1.5445   1.6349   1.7557   1.8779   1.9054   1.9370
     1.9951   2.2287   2.5239   2.7755   2.8010   2.9003   3.1816   3.2551
     3.3195   3.4920   3.5673   3.6550   3.8691   3.9236   3.9839   4.0462
     4.1473   4.1880   4.5225

          k =-0.0763-0.1266 0.0000 ( 25118 PWs)   bands (ev):

   -61.6411 -61.6411 -61.3855 -61.3853 -61.1073 -61.1072 -41.6507 -41.6507
   -41.6020 -41.6020 -40.9121 -40.9116 -30.1979 -30.1979 -30.1204 -30.1204
   -30.0681 -30.0681 -29.9688 -29.9687 -29.9070 -29.9068 -29.8710 -29.8701
   -29.6370 -29.6370 -29.6125 -29.6125 -29.5223 -29.5222 -21.6927 -21.6927
   -21.6619 -21.6616 -21.6381 -21.6381 -21.6185 -21.6184 -21.5626 -21.5625
   -21.5077 -21.5077 -20.9676 -20.9671 -20.9065 -20.9060 -20.8608 -20.8603
    -2.7340  -2.7338  -1.7341  -1.7338  -0.8883  -0.8881  -0.2861  -0.2861
    -0.1313  -0.1310   0.5262   0.5264   0.6628   0.6631   0.7941   0.7944
     0.8847   0.8849   1.0566   1.0566   1.1578   1.1580   1.2575   1.2575
     1.4859   1.4860   1.5443   1.5445   1.7939   1.7948   1.9812   1.9817
     2.3139   2.3144   2.4139   2.4143   2.7749   2.7753   3.3189   3.3190
     3.4060   3.4063   3.7958   3.7962   3.9218   3.9222   4.0448   4.0452
     4.2743   4.2747   4.3628

     the Fermi energy is     1.2574 ev

!    total energy              =   -1525.29587389 Ry
     Harris-Foulkes estimate   =   -1525.29587259 Ry
     estimated scf accuracy    <       0.00000073 Ry

     The total energy is the sum of the following terms:

     one-electron contribution =   -6949.13196742 Ry
     hartree contribution      =    3462.90796038 Ry
     xc contribution           =    -633.49962390 Ry
     ewald contribution        =    2594.54872630 Ry
     electric field correction =       0.00000344 Ry
     smearing contrib. (-TS)   =      -0.12097267 Ry

     convergence has been achieved in  20 iterations
 
 BEEF-vdW xc energy contributions
           1 :   -567.602888694499     
           2 :    523.137382831840     
           3 :   -444.873798841127     
           4 :    349.782162486508     
           5 :   -255.045726496561     
           6 :    173.096820224623     
           7 :   -109.749796658529     
           8 :    65.3146964085898     
           9 :   -37.1943900658594     
          10 :    22.1293777665775     
          11 :   -17.1199299171167     
          12 :    19.1522839204418     
          13 :   -24.6558868660443     
          14 :    29.5682056283621     
          15 :   -30.2739894245171     
          16 :    24.8838641550365     
          17 :   -14.0000237459626     
          18 :   0.393581900469144     
          19 :    12.2676028940299     
          20 :   -20.9538858237095     
          21 :    24.2883723693685     
          22 :   -22.6702260678566     
          23 :    17.6657750001910     
          24 :   -11.1773015156734     
          25 :    4.85294140513190     
          26 :   9.446801712385877E-002
          27 :   -2.82782638688138     
          28 :    2.85914866619555     
          29 :  -0.195144627725767     
          30 :   -4.46545644437390     
          31 :   -44.2048140135736     
          32 :   -31.3040917583779     

     Forces acting on atoms (Ry/au):


     negative rho (up, down):  6.850E-01 0.000E+00
     atom    1 type  1   force =     0.00000484    0.00845305    0.02625841
     atom    2 type  1   force =    -0.00000279    0.00845344    0.02628450
     atom    3 type  2   force =     0.00000159   -0.01064859   -0.00824638
     atom    4 type  2   force =    -0.00000315   -0.01066049   -0.00826068
     atom    5 type  1   force =    -0.00000952   -0.00296021   -0.00545334
     atom    6 type  1   force =     0.00000318   -0.00294241   -0.00547674
     atom    7 type  2   force =    -0.00001594    0.00433541   -0.01154315
     atom    8 type  2   force =     0.00001628    0.00430022   -0.01149638
     atom    9 type  1   force =    -0.00003544    0.00105022    0.00015583
     atom   10 type  1   force =     0.00004141    0.00105424    0.00017189
     atom   11 type  2   force =    -0.00000631   -0.00021106   -0.00118973
     atom   12 type  2   force =     0.00000583   -0.00022384   -0.00120423

     Total force =     0.047662     Total SCF correction =     0.001456


     entering subroutine stress ...


     negative rho (up, down):  6.850E-01 0.000E+00
          total   stress  (Ry/bohr**3)                   (kbar)     P=   -7.00
  -0.00003383   0.00000000  -0.00000000         -4.98      0.00     -0.00
   0.00000000  -0.00006696   0.00000456          0.00     -9.85      0.67
  -0.00000000   0.00000456  -0.00004201         -0.00      0.67     -6.18

 !ASE

     Writing output data file calc.save
 
     init_run     :     23.00s CPU     35.64s WALL (       1 calls)
     electrons    :    897.44s CPU   1367.69s WALL (       1 calls)
     forces       :      4.25s CPU      5.31s WALL (       1 calls)
     stress       :      9.73s CPU     11.37s WALL (       1 calls)

     Called by init_run:
     wfcinit      :     19.92s CPU     31.61s WALL (       1 calls)
     potinit      :      1.62s CPU      2.39s WALL (       1 calls)

     Called by electrons:
     c_bands      :    672.66s CPU   1026.68s WALL (      20 calls)
     sum_band     :    133.71s CPU    209.05s WALL (      20 calls)
     v_of_rho     :     30.74s CPU     46.45s WALL (      21 calls)
     newd         :     10.21s CPU     10.61s WALL (      21 calls)
     mix_rho      :      1.27s CPU      1.95s WALL (      20 calls)
     vdW_energy   :      2.05s CPU      2.06s WALL (      57 calls)
     vdW_ffts     :     55.93s CPU     84.93s WALL (     116 calls)
     vdW_v        :      9.07s CPU     13.73s WALL (      57 calls)

     Called by c_bands:
     init_us_2    :      0.71s CPU      0.77s WALL (     860 calls)
     cegterg      :    663.28s CPU   1015.97s WALL (     400 calls)

     Called by *egterg:
     h_psi        :    550.67s CPU    890.80s WALL (    1823 calls)
     s_psi        :      8.69s CPU      8.88s WALL (    1823 calls)
     g_psi        :      0.40s CPU      0.40s WALL (    1403 calls)
     cdiaghg      :     66.86s CPU     71.15s WALL (    1803 calls)

     Called by h_psi:
     add_vuspsi   :      8.97s CPU      9.06s WALL (    1823 calls)

     General routines
     calbec       :     26.26s CPU     34.58s WALL (    2263 calls)
     fft          :     83.31s CPU    127.46s WALL (    3489 calls)
     ffts         :      0.32s CPU      0.50s WALL (      41 calls)
     fftw         :    629.48s CPU   1034.39s WALL (  220374 calls)
     interpolate  :      1.25s CPU      1.91s WALL (      41 calls)
     davcio       :      0.00s CPU      0.01s WALL (      20 calls)
 
     Parallel routines
     fft_scatter  :    690.23s CPU   1136.80s WALL (  223904 calls)
 
     PWSCF        : 15m35.57s CPU    23m41.87s WALL

 
   This run was terminated on:  23:34:17  24Dec2018            

=------------------------------------------------------------------------------=
   JOB DONE.
=------------------------------------------------------------------------------=
Job  /afs/slac/g/suncat/bin/suncat-tsmpirun -x LD_LIBRARY_PATH -wdir /scratch/qe109011_kEkDv pw.x -in pw.inp

TID   HOST_NAME   COMMAND_LINE            STATUS            TERMINATION_TIME
===== ========== ================  =======================  ===================
00000 suncat0082 pw.x -in pw.inp   Done                     12/24/2018 23:34:17
00001 suncat0082 pw.x -in pw.inp   Done                     12/24/2018 23:34:17
00002 suncat0082 pw.x -in pw.inp   Done                     12/24/2018 23:34:17
00003 suncat0082 pw.x -in pw.inp   Done                     12/24/2018 23:34:17
00004 suncat0082 pw.x -in pw.inp   Done                     12/24/2018 23:34:17
00005 suncat0082 pw.x -in pw.inp   Done                     12/24/2018 23:34:17
00006 suncat0082 pw.x -in pw.inp   Done                     12/24/2018 23:34:17
00007 suncat0082 pw.x -in pw.inp   Done                     12/24/2018 23:34:17
00008 suncat0062 pw.x -in pw.inp   Done                     12/24/2018 23:34:17
00009 suncat0062 pw.x -in pw.inp   Done                     12/24/2018 23:34:17
00010 suncat0062 pw.x -in pw.inp   Done                     12/24/2018 23:34:17
00011 suncat0062 pw.x -in pw.inp   Done                     12/24/2018 23:34:17
00012 suncat0062 pw.x -in pw.inp   Done                     12/24/2018 23:34:17
00013 suncat0062 pw.x -in pw.inp   Done                     12/24/2018 23:34:17
00014 suncat0062 pw.x -in pw.inp   Done                     12/24/2018 23:34:17
00015 suncat0062 pw.x -in pw.inp   Done                     12/24/2018 23:34:17
00016 suncat0056 pw.x -in pw.inp   Done                     12/24/2018 23:34:17
00017 suncat0056 pw.x -in pw.inp   Done                     12/24/2018 23:34:17
00018 suncat0056 pw.x -in pw.inp   Done                     12/24/2018 23:34:17
00019 suncat0056 pw.x -in pw.inp   Done                     12/24/2018 23:34:17
00020 suncat0056 pw.x -in pw.inp   Done                     12/24/2018 23:34:17
00021 suncat0056 pw.x -in pw.inp   Done                     12/24/2018 23:34:17
00022 suncat0056 pw.x -in pw.inp   Done                     12/24/2018 23:34:17
00023 suncat0056 pw.x -in pw.inp   Done                     12/24/2018 23:34:17
00024 suncat0055 pw.x -in pw.inp   Done                     12/24/2018 23:34:17
00025 suncat0055 pw.x -in pw.inp   Done                     12/24/2018 23:34:17
00026 suncat0055 pw.x -in pw.inp   Done                     12/24/2018 23:34:17
00027 suncat0055 pw.x -in pw.inp   Done                     12/24/2018 23:34:17
00028 suncat0055 pw.x -in pw.inp   Done                     12/24/2018 23:34:17
00029 suncat0055 pw.x -in pw.inp   Done                     12/24/2018 23:34:17
00030 suncat0055 pw.x -in pw.inp   Done                     12/24/2018 23:34:17
00031 suncat0055 pw.x -in pw.inp   Done                     12/24/2018 23:34:17
00032 suncat0217 pw.x -in pw.inp   Done                     12/24/2018 23:34:17
00033 suncat0217 pw.x -in pw.inp   Done                     12/24/2018 23:34:17
00034 suncat0217 pw.x -in pw.inp   Done                     12/24/2018 23:34:17
00035 suncat0217 pw.x -in pw.inp   Done                     12/24/2018 23:34:17
00036 suncat0217 pw.x -in pw.inp   Done                     12/24/2018 23:34:17
00037 suncat0217 pw.x -in pw.inp   Done                     12/24/2018 23:34:17
00038 suncat0217 pw.x -in pw.inp   Done                     12/24/2018 23:34:17
00039 suncat0217 pw.x -in pw.inp   Done                     12/24/2018 23:34:17
00040 suncat0216 pw.x -in pw.inp   Done                     12/24/2018 23:34:17
00041 suncat0216 pw.x -in pw.inp   Done                     12/24/2018 23:34:17
00042 suncat0216 pw.x -in pw.inp   Done                     12/24/2018 23:34:17
00043 suncat0216 pw.x -in pw.inp   Done                     12/24/2018 23:34:17
00044 suncat0216 pw.x -in pw.inp   Done                     12/24/2018 23:34:17
00045 suncat0216 pw.x -in pw.inp   Done                     12/24/2018 23:34:17
00046 suncat0216 pw.x -in pw.inp   Done                     12/24/2018 23:34:17
00047 suncat0216 pw.x -in pw.inp   Done                     12/24/2018 23:34:17
00048 suncat0215 pw.x -in pw.inp   Done                     12/24/2018 23:34:17
00049 suncat0215 pw.x -in pw.inp   Done                     12/24/2018 23:34:17
00050 suncat0215 pw.x -in pw.inp   Done                     12/24/2018 23:34:17
00051 suncat0215 pw.x -in pw.inp   Done                     12/24/2018 23:34:17
00052 suncat0215 pw.x -in pw.inp   Done                     12/24/2018 23:34:17
00053 suncat0215 pw.x -in pw.inp   Done                     12/24/2018 23:34:17
00054 suncat0215 pw.x -in pw.inp   Done                     12/24/2018 23:34:17
00055 suncat0215 pw.x -in pw.inp   Done                     12/24/2018 23:34:17
00056 suncat0210 pw.x -in pw.inp   Done                     12/24/2018 23:34:17
00057 suncat0210 pw.x -in pw.inp   Done                     12/24/2018 23:34:17
00058 suncat0210 pw.x -in pw.inp   Done                     12/24/2018 23:34:17
00059 suncat0210 pw.x -in pw.inp   Done                     12/24/2018 23:34:17
00060 suncat0210 pw.x -in pw.inp   Done                     12/24/2018 23:34:17
00061 suncat0210 pw.x -in pw.inp   Done                     12/24/2018 23:34:17
00062 suncat0210 pw.x -in pw.inp   Done                     12/24/2018 23:34:17
00063 suncat0210 pw.x -in pw.inp   Done                     12/24/2018 23:34:17
