  python dir          : /u/if/mamunm/src/espresso
  espresso dir        : /nfs/slac/g/suncatfs/sw/espv18/espresso-dynpy-beef/bin
  pseudo dir          : /afs/slac.stanford.edu/u/if/mamunm/psp/gbrv1.5pbe
  ase-espresso py git : GITVERSION



     Program PWSCF v.5.1rc2 (svn rev. 11289) starts on 19Dec2018 at  5:42: 5 

     This program is part of the open-source Quantum ESPRESSO suite
     for quantum simulation of materials; please cite
         "P. Giannozzi et al., J. Phys.:Condens. Matter 21 395502 (2009);
          URL http://www.quantum-espresso.org", 
     in publications or presentations arising from this work. More details at
     http://www.quantum-espresso.org/quote

     Parallel version (MPI), running on    32 processors
     R & G space division:  proc/nbgrp/npool/nimage =      32
     Reading input from pw.inp
     Message from routine read_cards :
     DEPRECATED: no units specified in CELL_PARAMETERS card

     Current dimensions of program PWSCF are:
     Max number of different atomic species (ntypx) = 10
     Max number of k-points (npk) =  40000
     Max angular momentum in pseudopotentials (lmaxx) =  3
     Presently stress not available with electric field


     **************************************************************************
     Initializing libbeef V0.1.1 with the BEEF-vdW functional.
     Citation: Wellendorff et al., PRB 85, 235149 (2012).
     **************************************************************************


     IMPORTANT: XC functional enforced from input :
     Exchange-correlation      = BEEF-VDW ( 1  4 27 13 2)
     Any further DFT definition will be discarded
     Please, verify this is what you really want


     Subspace diagonalization in iterative solution of the eigenvalue problem:
     a serial algorithm will be used

     Found symmetry operation: I + (  0.5000  0.5000  0.0000)
     This is a supercell, fractional translations are disabled
 
     Parallelization info
     --------------------
     sticks:   dense  smooth     PW     G-vecs:    dense   smooth      PW
     Min         132      52     15                26032     6570     996
     Max         133      53     16                26041     6611    1006
     Sum        4239    1695    487               833153   211005   31961
 


     bravais-lattice index     =            0
     lattice parameter (alat)  =       1.8897  a.u.
     unit-cell volume          =    7005.4897 (a.u.)^3
     number of atoms/cell      =           12
     number of atomic types    =            2
     number of electrons       =       132.00
     number of Kohn-Sham states=           96
     kinetic-energy cutoff     =      36.7493  Ry
     charge density cutoff     =     367.4932  Ry
     convergence threshold     =      1.0E-06
     mixing beta               =       0.1000
     number of iterations used =           10  plain     mixing
     Exchange-correlation      = BEEF-VDW ( 1  4 27 13 2)
     nstep                     =           50


     celldm(1)=   1.889726  celldm(2)=   0.000000  celldm(3)=   0.000000
     celldm(4)=   0.000000  celldm(5)=   0.000000  celldm(6)=   0.000000

     crystal axes: (cart. coord. in units of alat)
               a(1) = (   6.780062   0.000000   0.000000 )  
               a(2) = (   3.185598   5.985082   0.000000 )  
               a(3) = (   0.000000   0.000000  25.582213 )  

     reciprocal axes: (cart. coord. in units 2 pi/alat)
               b(1) = (  0.147491 -0.078503  0.000000 )  
               b(2) = (  0.000000  0.167082  0.000000 )  
               b(3) = (  0.000000  0.000000  0.039090 )  


     PseudoPot. # 1 for Sc read from file:
     /afs/slac.stanford.edu/u/if/mamunm/psp/gbrv1.5pbe/Sc.UPF
     MD5 check sum: db30a2753ba66ef00f23801d899b7e7f
     Pseudo is Ultrasoft + core correction, Zval = 11.0
     Generated by new atomic code, or converted to UPF format
     Using radial grid of  849 points,  6 beta functions with: 
                l(1) =   0
                l(2) =   0
                l(3) =   1
                l(4) =   1
                l(5) =   2
                l(6) =   2
     Q(r) pseudized with  6 coefficients,  rinner =    1.200   1.200   1.200
                                                       1.200   1.200

     PseudoPot. # 2 for Y  read from file:
     /afs/slac.stanford.edu/u/if/mamunm/psp/gbrv1.5pbe/Y.UPF
     MD5 check sum: d034151ed7554c50b6e82763ed42c788
     Pseudo is Ultrasoft + core correction, Zval = 11.0
     Generated by new atomic code, or converted to UPF format
     Using radial grid of  885 points,  6 beta functions with: 
                l(1) =   0
                l(2) =   0
                l(3) =   1
                l(4) =   1
                l(5) =   2
                l(6) =   2
     Q(r) pseudized with  8 coefficients,  rinner =    1.200   1.200   1.200
                                                       1.200   1.200

     vdW kernel table read from file vdW_kernel_table
     MD5 check sum: 095c7af220d748ca6e76c0b4c6cfb241

     atomic species   valence    mass     pseudopotential
        Sc1           11.00    44.95591     Sc( 1.00)
        Y1            11.00    88.90584     Y ( 1.00)

     No symmetry found



   Cartesian axes

     site n.     atom                  positions (alat units)
         1           Sc1 tau(   1) = (   0.0000000   0.0000000  10.0000000  )
         2           Sc1 tau(   2) = (   4.9828303   2.9925411  10.0000000  )
         3           Y1  tau(   3) = (   3.3900312   0.0000000  10.0000000  )
         4           Y1  tau(   4) = (   1.5927992   2.9925411  10.0000000  )
         5           Sc1 tau(   5) = (   6.7800623   4.0719056  12.7911063  )
         6           Sc1 tau(   6) = (   1.7972320   1.0793646  12.7911063  )
         7           Y1  tau(   7) = (   3.3900312   4.0719056  12.7911063  )
         8           Y1  tau(   8) = (   5.1872631   1.0793646  12.7911063  )
         9           Sc1 tau(   9) = (   3.5944639   2.1587291  15.5822125  )
        10           Sc1 tau(  10) = (   8.5772943   5.1512702  15.5822125  )
        11           Y1  tau(  11) = (   6.9844951   2.1587291  15.5822125  )
        12           Y1  tau(  12) = (   5.1872631   5.1512702  15.5822125  )

     number of k points=    20  Fermi-Dirac smearing, width (Ry)=  0.0110
                       cart. coord. in units 2pi/alat
        k(    1) = (   0.0000000   0.0000000   0.0000000), wk =   0.0555556
        k(    2) = (   0.0000000   0.0278470   0.0000000), wk =   0.1111111
        k(    3) = (   0.0000000   0.0556940   0.0000000), wk =   0.1111111
        k(    4) = (   0.0000000  -0.0835410   0.0000000), wk =   0.0555556
        k(    5) = (   0.0245819  -0.0130839   0.0000000), wk =   0.1111111
        k(    6) = (   0.0245819   0.0147632   0.0000000), wk =   0.1111111
        k(    7) = (   0.0245819   0.0426102   0.0000000), wk =   0.1111111
        k(    8) = (   0.0245819  -0.0966249   0.0000000), wk =   0.1111111
        k(    9) = (   0.0245819  -0.0687779   0.0000000), wk =   0.1111111
        k(   10) = (   0.0245819  -0.0409309   0.0000000), wk =   0.1111111
        k(   11) = (   0.0491638  -0.0261677   0.0000000), wk =   0.1111111
        k(   12) = (   0.0491638   0.0016793   0.0000000), wk =   0.1111111
        k(   13) = (   0.0491638   0.0295263   0.0000000), wk =   0.1111111
        k(   14) = (   0.0491638  -0.1097088   0.0000000), wk =   0.1111111
        k(   15) = (   0.0491638  -0.0818618   0.0000000), wk =   0.1111111
        k(   16) = (   0.0491638  -0.0540147   0.0000000), wk =   0.1111111
        k(   17) = (  -0.0737456   0.0392516   0.0000000), wk =   0.0555556
        k(   18) = (  -0.0737456   0.0670986   0.0000000), wk =   0.1111111
        k(   19) = (  -0.0737456   0.0949456   0.0000000), wk =   0.1111111
        k(   20) = (  -0.0737456  -0.0442895   0.0000000), wk =   0.0555556

     Dense  grid:   833153 G-vectors     FFT dimensions: (  80,  80, 300)

     Smooth grid:   211005 G-vectors     FFT dimensions: (  50,  50, 192)

     Largest allocated arrays     est. size (Mb)     dimensions
        Kohn-Sham Wavefunctions         1.24 Mb     (     844,   96)
        NL pseudopotentials             2.78 Mb     (     844,  216)
        Each V/rho on FFT grid          0.98 Mb     (   64000)
        Each G-vector array             0.20 Mb     (   26040)
        G-vector shells                 0.10 Mb     (   12982)
     Largest temporary arrays     est. size (Mb)     dimensions
        Auxiliary wavefunctions         4.95 Mb     (     844,  384)
        Each subspace H/S matrix        2.25 Mb     (     384,  384)
        Each <psi_i|beta_j> matrix      0.32 Mb     (     216,   96)
        Arrays for rho mixing           9.77 Mb     (   64000,   10)

     Initial potential from superposition of free atoms
     Check: negative starting charge=   -0.000467

     starting charge  131.95877, renormalised to  132.00000

     negative rho (up, down):  4.668E-04 0.000E+00


     ************************************************************************
     *
     * You are using vdW-DF for exchange-correlation in this calculation.
     * Please cite the following three references that made this development
     * possible:
     *
     *   M. Dion, H. Rydberg, E. Schroder, D. C. Langreth, and
     *   B. I. Lundqvist, Phys. Rev. Lett. 92, 246401 (2004).
     *
     *   T. Thonhauser, V. R. Cooper, S. Li, A. Puzder, P. Hyldgaard, and
     *   D. C. Langreth, Phys. Rev. B 76, 125112 (2007).
     *
     *   G. Roman-Perez and J. M. Soler, Phys. Rev. Lett. 103, 096102 (2009).
     *
     *
     * If you are using vdW-DF2, please also cite:
     *
     *   K. Lee, E. D. Murray, L. Kong, B. I. Lundqvist, and
     *   D. C. Langreth, Phys. Rev. B 82, 081101(R) (2010).
     *
     *
     * If you are calculating the stress with vdW-DF, please also cite:
     *
     *   R. Sabatini, E. Kucukbenli, B. Kolb, T. Thonhauser, and
     *   S. de Gironcoli, J. Phys.: Condens. Matter 24, 424209 (2012).
     *
     ************************************************************************

     Carrying out vdW-DF run using the following parameters:

     Nqs =      20    Nr_points =    1024   r_max =   100.000
     q_mesh =
               0.00001000     0.04494208     0.09755937     0.15916263
               0.23128650     0.31572767     0.41458969     0.53033537
               0.66584808     0.82450364     1.01025438     1.22772762
               1.48234092     1.78043706     2.12944203     2.53805004
               3.01644009     3.57652955     4.23227104     5.00000000

     Gradients computed in reciprocal space

     ************************************************************************


 
     Adding external electric field

     Computed dipole along edir(3) : 
        Dipole                0.0000 Ry au,          0.0000 Debye
        Dipole field          0.0000 Ry au
 
        Potential amp.       -0.0000 Ry
        Total length         47.1348 bohr
 
     Starting wfc are  156 randomized atomic wfcs

     total cpu time spent up to now is        9.9 secs

     Self-consistent Calculation

     iteration #  1     ecut=    36.75 Ry     beta=0.10
     Davidson diagonalization with overlap
     ethr =  1.00E-02,  avg # of iterations =  2.0

     negative rho (up, down):  3.922E-04 0.000E+00
 
     Adding external electric field

     Computed dipole along edir(3) : 
        Dipole               -0.0000 Ry au,         -0.0001 Debye
        Dipole field         -0.0000 Ry au
 
        Potential amp.        0.0000 Ry
        Total length         47.1348 bohr
 

     total cpu time spent up to now is       24.8 secs

     total energy              =   -1130.28979613 Ry
     Harris-Foulkes estimate   =   -1131.37874046 Ry
     estimated scf accuracy    <       6.12136770 Ry

     iteration #  2     ecut=    36.75 Ry     beta=0.10
     Davidson diagonalization with overlap
     ethr =  4.64E-03,  avg # of iterations =  1.2

     negative rho (up, down):  3.331E-04 0.000E+00
 
     Adding external electric field

     Computed dipole along edir(3) : 
        Dipole               -0.0002 Ry au,         -0.0005 Debye
        Dipole field         -0.0000 Ry au
 
        Potential amp.        0.0000 Ry
        Total length         47.1348 bohr
 

     total cpu time spent up to now is       38.3 secs

     total energy              =   -1130.76006513 Ry
     Harris-Foulkes estimate   =   -1131.11580185 Ry
     estimated scf accuracy    <       3.39127767 Ry

     iteration #  3     ecut=    36.75 Ry     beta=0.10
     Davidson diagonalization with overlap
     ethr =  2.57E-03,  avg # of iterations =  1.3

     negative rho (up, down):  2.788E-04 0.000E+00
 
     Adding external electric field

     Computed dipole along edir(3) : 
        Dipole                0.0003 Ry au,          0.0008 Debye
        Dipole field          0.0000 Ry au
 
        Potential amp.       -0.0001 Ry
        Total length         47.1348 bohr
 

     total cpu time spent up to now is       51.5 secs

     total energy              =   -1130.86207549 Ry
     Harris-Foulkes estimate   =   -1130.93736510 Ry
     estimated scf accuracy    <       0.38433493 Ry

     iteration #  4     ecut=    36.75 Ry     beta=0.10
     Davidson diagonalization with overlap
     ethr =  2.91E-04,  avg # of iterations =  5.4

     negative rho (up, down):  2.175E-04 0.000E+00
 
     Adding external electric field

     Computed dipole along edir(3) : 
        Dipole               -0.0064 Ry au,         -0.0162 Debye
        Dipole field         -0.0000 Ry au
 
        Potential amp.        0.0011 Ry
        Total length         47.1348 bohr
 

     total cpu time spent up to now is       70.5 secs

     total energy              =   -1130.89010169 Ry
     Harris-Foulkes estimate   =   -1130.90086872 Ry
     estimated scf accuracy    <       0.10677156 Ry

     iteration #  5     ecut=    36.75 Ry     beta=0.10
     Davidson diagonalization with overlap
     ethr =  8.09E-05,  avg # of iterations =  2.6

     negative rho (up, down):  1.888E-04 0.000E+00
 
     Adding external electric field

     Computed dipole along edir(3) : 
        Dipole                0.0610 Ry au,          0.1550 Debye
        Dipole field          0.0001 Ry au
 
        Potential amp.       -0.0103 Ry
        Total length         47.1348 bohr
 

     total cpu time spent up to now is       85.8 secs

     total energy              =   -1130.88660711 Ry
     Harris-Foulkes estimate   =   -1130.89973655 Ry
     estimated scf accuracy    <       0.09162104 Ry

     iteration #  6     ecut=    36.75 Ry     beta=0.10
     Davidson diagonalization with overlap
     ethr =  6.94E-05,  avg # of iterations =  2.0

     negative rho (up, down):  1.644E-04 0.000E+00
 
     Adding external electric field

     Computed dipole along edir(3) : 
        Dipole               -0.0082 Ry au,         -0.0208 Debye
        Dipole field         -0.0000 Ry au
 
        Potential amp.        0.0014 Ry
        Total length         47.1348 bohr
 

     total cpu time spent up to now is       99.4 secs

     total energy              =   -1130.88972783 Ry
     Harris-Foulkes estimate   =   -1130.89536423 Ry
     estimated scf accuracy    <       0.29178204 Ry

     iteration #  7     ecut=    36.75 Ry     beta=0.10
     Davidson diagonalization with overlap
     ethr =  6.94E-05,  avg # of iterations =  1.0

     negative rho (up, down):  1.660E-04 0.000E+00
 
     Adding external electric field

     Computed dipole along edir(3) : 
        Dipole                0.0019 Ry au,          0.0048 Debye
        Dipole field          0.0000 Ry au
 
        Potential amp.       -0.0003 Ry
        Total length         47.1348 bohr
 

     total cpu time spent up to now is      112.3 secs

     total energy              =   -1130.89369854 Ry
     Harris-Foulkes estimate   =   -1130.89370586 Ry
     estimated scf accuracy    <       0.01859284 Ry

     iteration #  8     ecut=    36.75 Ry     beta=0.10
     Davidson diagonalization with overlap
     ethr =  1.41E-05,  avg # of iterations =  8.1

     negative rho (up, down):  2.573E-04 0.000E+00
 
     Adding external electric field

     Computed dipole along edir(3) : 
        Dipole                0.0005 Ry au,          0.0012 Debye
        Dipole field          0.0000 Ry au
 
        Potential amp.       -0.0001 Ry
        Total length         47.1348 bohr
 

     total cpu time spent up to now is      133.3 secs

     total energy              =   -1130.89571634 Ry
     Harris-Foulkes estimate   =   -1130.89670249 Ry
     estimated scf accuracy    <       0.01930055 Ry

     iteration #  9     ecut=    36.75 Ry     beta=0.10
     Davidson diagonalization with overlap
     ethr =  1.41E-05,  avg # of iterations =  2.4

     negative rho (up, down):  2.241E-04 0.000E+00
 
     Adding external electric field

     Computed dipole along edir(3) : 
        Dipole                0.0005 Ry au,          0.0013 Debye
        Dipole field          0.0000 Ry au
 
        Potential amp.       -0.0001 Ry
        Total length         47.1348 bohr
 

     total cpu time spent up to now is      147.7 secs

     total energy              =   -1130.89758978 Ry
     Harris-Foulkes estimate   =   -1130.89787764 Ry
     estimated scf accuracy    <       0.00214005 Ry

     iteration # 10     ecut=    36.75 Ry     beta=0.10
     Davidson diagonalization with overlap
     ethr =  1.62E-06,  avg # of iterations =  6.7

     negative rho (up, down):  2.364E-04 0.000E+00
 
     Adding external electric field

     Computed dipole along edir(3) : 
        Dipole                0.0003 Ry au,          0.0007 Debye
        Dipole field          0.0000 Ry au
 
        Potential amp.       -0.0000 Ry
        Total length         47.1348 bohr
 

     total cpu time spent up to now is      174.1 secs

     total energy              =   -1130.89773287 Ry
     Harris-Foulkes estimate   =   -1130.89913747 Ry
     estimated scf accuracy    <       0.01544727 Ry

     iteration # 11     ecut=    36.75 Ry     beta=0.10
     Davidson diagonalization with overlap
     ethr =  1.62E-06,  avg # of iterations =  3.7

     negative rho (up, down):  2.296E-04 0.000E+00
 
     Adding external electric field

     Computed dipole along edir(3) : 
        Dipole               -0.0006 Ry au,         -0.0015 Debye
        Dipole field         -0.0000 Ry au
 
        Potential amp.        0.0001 Ry
        Total length         47.1348 bohr
 

     total cpu time spent up to now is      191.7 secs

     total energy              =   -1130.89851418 Ry
     Harris-Foulkes estimate   =   -1130.89845045 Ry
     estimated scf accuracy    <       0.00169231 Ry

     iteration # 12     ecut=    36.75 Ry     beta=0.10
     Davidson diagonalization with overlap
     ethr =  1.28E-06,  avg # of iterations =  1.2

     negative rho (up, down):  2.206E-04 0.000E+00
 
     Adding external electric field

     Computed dipole along edir(3) : 
        Dipole               -0.0005 Ry au,         -0.0012 Debye
        Dipole field         -0.0000 Ry au
 
        Potential amp.        0.0001 Ry
        Total length         47.1348 bohr
 

     total cpu time spent up to now is      204.9 secs

     total energy              =   -1130.89842424 Ry
     Harris-Foulkes estimate   =   -1130.89854731 Ry
     estimated scf accuracy    <       0.00140018 Ry

     iteration # 13     ecut=    36.75 Ry     beta=0.10
     Davidson diagonalization with overlap
     ethr =  1.06E-06,  avg # of iterations =  3.0

     negative rho (up, down):  2.014E-04 0.000E+00
 
     Adding external electric field

     Computed dipole along edir(3) : 
        Dipole               -0.0003 Ry au,         -0.0007 Debye
        Dipole field         -0.0000 Ry au
 
        Potential amp.        0.0000 Ry
        Total length         47.1348 bohr
 

     total cpu time spent up to now is      220.2 secs

     total energy              =   -1130.89853315 Ry
     Harris-Foulkes estimate   =   -1130.89853077 Ry
     estimated scf accuracy    <       0.00006704 Ry

     iteration # 14     ecut=    36.75 Ry     beta=0.10
     Davidson diagonalization with overlap
     ethr =  5.08E-08,  avg # of iterations =  4.0

     negative rho (up, down):  1.809E-04 0.000E+00
 
     Adding external electric field

     Computed dipole along edir(3) : 
        Dipole                0.0001 Ry au,          0.0003 Debye
        Dipole field          0.0000 Ry au
 
        Potential amp.       -0.0000 Ry
        Total length         47.1348 bohr
 

     total cpu time spent up to now is      238.8 secs

     total energy              =   -1130.89854345 Ry
     Harris-Foulkes estimate   =   -1130.89854874 Ry
     estimated scf accuracy    <       0.00003026 Ry

     iteration # 15     ecut=    36.75 Ry     beta=0.10
     Davidson diagonalization with overlap
     ethr =  2.29E-08,  avg # of iterations =  3.9

     negative rho (up, down):  1.658E-04 0.000E+00
 
     Adding external electric field

     Computed dipole along edir(3) : 
        Dipole                0.0001 Ry au,          0.0002 Debye
        Dipole field          0.0000 Ry au
 
        Potential amp.       -0.0000 Ry
        Total length         47.1348 bohr
 

     total cpu time spent up to now is      256.7 secs

     total energy              =   -1130.89855229 Ry
     Harris-Foulkes estimate   =   -1130.89855199 Ry
     estimated scf accuracy    <       0.00001513 Ry

     iteration # 16     ecut=    36.75 Ry     beta=0.10
     Davidson diagonalization with overlap
     ethr =  1.15E-08,  avg # of iterations =  3.2

     negative rho (up, down):  1.502E-04 0.000E+00
 
     Adding external electric field

     Computed dipole along edir(3) : 
        Dipole                0.0000 Ry au,          0.0000 Debye
        Dipole field          0.0000 Ry au
 
        Potential amp.       -0.0000 Ry
        Total length         47.1348 bohr
 

     total cpu time spent up to now is      273.0 secs

     total energy              =   -1130.89855567 Ry
     Harris-Foulkes estimate   =   -1130.89855590 Ry
     estimated scf accuracy    <       0.00000805 Ry

     iteration # 17     ecut=    36.75 Ry     beta=0.10
     Davidson diagonalization with overlap
     ethr =  6.10E-09,  avg # of iterations =  2.3

     negative rho (up, down):  1.366E-04 0.000E+00
 
     Adding external electric field

     Computed dipole along edir(3) : 
        Dipole                0.0000 Ry au,          0.0000 Debye
        Dipole field          0.0000 Ry au
 
        Potential amp.       -0.0000 Ry
        Total length         47.1348 bohr
 

     total cpu time spent up to now is      287.3 secs

     total energy              =   -1130.89855685 Ry
     Harris-Foulkes estimate   =   -1130.89855625 Ry
     estimated scf accuracy    <       0.00000144 Ry

     iteration # 18     ecut=    36.75 Ry     beta=0.10
     Davidson diagonalization with overlap
     ethr =  1.09E-09,  avg # of iterations =  4.0

     negative rho (up, down):  6.382E-05 0.000E+00

     negative rho (up, down):  6.382E-05 0.000E+00

     negative rho (up, down):  6.382E-05 0.000E+00

     negative rho (up, down):  6.382E-05 0.000E+00

     negative rho (up, down):  6.382E-05 0.000E+00

     negative rho (up, down):  6.382E-05 0.000E+00

     negative rho (up, down):  6.382E-05 0.000E+00

     negative rho (up, down):  6.382E-05 0.000E+00

     negative rho (up, down):  6.382E-05 0.000E+00

     negative rho (up, down):  6.382E-05 0.000E+00

     negative rho (up, down):  6.382E-05 0.000E+00

     negative rho (up, down):  6.382E-05 0.000E+00

     negative rho (up, down):  6.382E-05 0.000E+00

     negative rho (up, down):  6.382E-05 0.000E+00

     negative rho (up, down):  6.382E-05 0.000E+00

     negative rho (up, down):  6.382E-05 0.000E+00

     negative rho (up, down):  6.382E-05 0.000E+00

     negative rho (up, down):  6.382E-05 0.000E+00

     negative rho (up, down):  6.382E-05 0.000E+00

     negative rho (up, down):  6.382E-05 0.000E+00

     negative rho (up, down):  6.382E-05 0.000E+00

     negative rho (up, down):  6.382E-05 0.000E+00

     negative rho (up, down):  6.382E-05 0.000E+00

     negative rho (up, down):  6.382E-05 0.000E+00

     negative rho (up, down):  6.382E-05 0.000E+00

     negative rho (up, down):  6.382E-05 0.000E+00

     negative rho (up, down):  6.382E-05 0.000E+00

     negative rho (up, down):  6.382E-05 0.000E+00

     negative rho (up, down):  6.382E-05 0.000E+00

     negative rho (up, down):  6.382E-05 0.000E+00

     negative rho (up, down):  6.382E-05 0.000E+00

     negative rho (up, down):  6.382E-05 0.000E+00

     negative rho (up, down):  6.382E-05 0.000E+00

     negative rho (up, down):  6.382E-05 0.000E+00

     negative rho (up, down):  6.382E-05 0.000E+00
 
     Adding external electric field

     Computed dipole along edir(3) : 
        Dipole               -0.0026 Ry au,         -0.0067 Debye
        Dipole field         -0.0000 Ry au
 
        Potential amp.        0.0004 Ry
        Total length         47.1348 bohr
 

     total cpu time spent up to now is      326.6 secs

     End of self-consistent calculation

          k = 0.0000 0.0000 0.0000 ( 26377 PWs)   bands (ev):

   -49.4603 -49.4602 -49.4522 -49.4521 -49.0844 -49.0763 -42.3910 -42.3908
   -42.3622 -42.3620 -41.8300 -41.8005 -28.1057 -28.1024 -28.0947 -28.0925
   -28.0538 -28.0529 -28.0150 -28.0131 -28.0024 -28.0007 -27.9493 -27.9492
   -27.6922 -27.6914 -27.6786 -27.6503 -27.6391 -27.5864 -22.4746 -22.4727
   -22.4225 -22.4077 -22.3834 -22.3672 -22.3169 -22.3104 -22.2800 -22.2730
   -22.1128 -22.1126 -21.9767 -21.7892 -21.7787 -21.7480 -21.7412 -21.6076
    -3.7216  -2.7673  -1.6213  -1.0108  -0.9314  -0.7719  -0.6196  -0.6169
    -0.6095  -0.4588  -0.3772  -0.2394   0.0418   0.1641   0.2347   0.3907
     0.4180   0.5711   0.8658   0.9415   1.2485   1.2582   1.2763   1.3201
     1.4329   1.4356   1.5841   1.8284   1.8653   1.8792   1.9104   1.9297
     1.9742   2.0601   2.1542   2.1717   2.2150   2.2712   2.3355   2.4860
     2.5239   2.6884   2.7010   2.8611   2.8970   3.0434   3.1608   3.4063

          k = 0.0000 0.0278 0.0000 ( 26375 PWs)   bands (ev):

   -49.4597 -49.4596 -49.4527 -49.4527 -49.0839 -49.0768 -42.3891 -42.3889
   -42.3642 -42.3640 -41.8280 -41.8025 -28.1048 -28.1018 -28.0952 -28.0933
   -28.0467 -28.0459 -28.0138 -28.0120 -28.0029 -28.0012 -27.9562 -27.9561
   -27.6903 -27.6851 -27.6792 -27.6495 -27.6398 -27.5934 -22.4516 -22.4497
   -22.4205 -22.4046 -22.3866 -22.3696 -22.3155 -22.3088 -22.2835 -22.2764
   -22.1382 -22.1380 -21.9531 -21.7866 -21.7768 -21.7510 -21.7443 -21.6335
    -3.5715  -2.6211  -1.4809  -1.1648  -0.9153  -0.8085  -0.7330  -0.5555
    -0.5011  -0.3113  -0.2239  -0.1413   0.1157   0.2332   0.2826   0.4538
     0.4591   0.5959   0.8883   0.9384   1.1269   1.1631   1.2262   1.2951
     1.3517   1.3852   1.4979   1.6856   1.7850   1.8086   1.8334   1.8349
     1.8699   1.9172   2.0285   2.0890   2.1914   2.2999   2.3047   2.4936
     2.5901   2.6309   2.7487   2.7858   2.8185   3.0738   3.0821   3.3464

          k = 0.0000 0.0557 0.0000 ( 26396 PWs)   bands (ev):

   -49.4582 -49.4582 -49.4542 -49.4541 -49.0824 -49.0783 -42.3839 -42.3837
   -42.3695 -42.3693 -41.8227 -41.8080 -28.1025 -28.1002 -28.0969 -28.0954
   -28.0275 -28.0269 -28.0108 -28.0090 -28.0045 -28.0028 -27.9752 -27.9750
   -27.6875 -27.6811 -27.6656 -27.6473 -27.6416 -27.6127 -22.4145 -22.3964
   -22.3949 -22.3876 -22.3862 -22.3761 -22.3108 -22.3037 -22.2922 -22.2850
   -22.2068 -22.2062 -21.8880 -21.7796 -21.7711 -21.7591 -21.7522 -21.7035
    -3.1429  -2.2102  -1.7717  -1.1032  -1.0991  -0.7555  -0.6484  -0.3924
    -0.3493  -0.1403   0.1136   0.1398   0.3056   0.3495   0.4743   0.5508
     0.5713   0.6892   0.8059   0.9138   0.9718   1.0162   1.0779   1.1197
     1.1754   1.1961   1.2144   1.3866   1.4952   1.5755   1.6032   1.6715
     1.7549   1.8823   1.9212   2.0060   2.0623   2.1207   2.2864   2.5712
     2.6358   2.7313   2.7351   2.8260   2.9374   2.9806   3.0353   3.0783

          k = 0.0000-0.0835 0.0000 ( 26364 PWs)   bands (ev):

   -49.4563 -49.4562 -49.4562 -49.4561 -49.0804 -49.0803 -42.3767 -42.3767
   -42.3765 -42.3765 -41.8154 -41.8153 -28.0996 -28.0995 -28.0980 -28.0979
   -28.0074 -28.0074 -28.0057 -28.0057 -28.0012 -28.0011 -28.0008 -28.0007
   -27.6841 -27.6841 -27.6444 -27.6444 -27.6391 -27.6390 -22.4052 -22.4052
   -22.3860 -22.3860 -22.3038 -22.3038 -22.2987 -22.2987 -22.2968 -22.2967
   -22.2942 -22.2942 -21.7971 -21.7971 -21.7696 -21.7696 -21.7621 -21.7621
    -2.5020  -2.5020  -1.6311  -1.6311  -0.7468  -0.7468  -0.4653  -0.4653
    -0.1991  -0.1991   0.4215   0.4215   0.4552   0.4552   0.6082   0.6082
     0.7054   0.7054   0.7570   0.7570   0.8597   0.8597   0.9287   0.9287
     1.1065   1.1065   1.2642   1.2642   1.2887   1.2887   1.4555   1.4555
     1.8322   1.8322   1.9448   1.9449   1.9885   1.9886   2.5086   2.5086
     2.6302   2.6302   2.8540   2.8541   2.9045   2.9045   3.2671   3.2671

          k = 0.0246-0.0131 0.0000 ( 26375 PWs)   bands (ev):

   -49.4597 -49.4596 -49.4527 -49.4527 -49.0839 -49.0768 -42.3891 -42.3889
   -42.3642 -42.3640 -41.8280 -41.8025 -28.1048 -28.1018 -28.0952 -28.0933
   -28.0467 -28.0459 -28.0138 -28.0120 -28.0029 -28.0012 -27.9562 -27.9561
   -27.6903 -27.6851 -27.6792 -27.6495 -27.6398 -27.5934 -22.4516 -22.4497
   -22.4205 -22.4046 -22.3866 -22.3696 -22.3155 -22.3088 -22.2835 -22.2764
   -22.1382 -22.1380 -21.9531 -21.7866 -21.7768 -21.7510 -21.7443 -21.6335
    -3.5715  -2.6211  -1.4809  -1.1648  -0.9153  -0.8085  -0.7330  -0.5555
    -0.5011  -0.3113  -0.2239  -0.1413   0.1157   0.2332   0.2826   0.4538
     0.4591   0.5959   0.8883   0.9384   1.1269   1.1631   1.2262   1.2951
     1.3517   1.3852   1.4979   1.6856   1.7850   1.8086   1.8334   1.8349
     1.8699   1.9172   2.0285   2.0890   2.1914   2.2999   2.3047   2.4936
     2.5901   2.6309   2.7487   2.7858   2.8185   3.0738   3.0821   3.3464

          k = 0.0246 0.0148 0.0000 ( 26383 PWs)   bands (ev):

   -49.4603 -49.4602 -49.4522 -49.4521 -49.0844 -49.0763 -42.3911 -42.3909
   -42.3622 -42.3620 -41.8300 -41.8005 -28.1054 -28.1026 -28.0945 -28.0926
   -28.0533 -28.0525 -28.0140 -28.0122 -28.0020 -28.0003 -27.9493 -27.9491
   -27.6918 -27.6907 -27.6784 -27.6501 -27.6390 -27.5863 -22.4760 -22.4737
   -22.4243 -22.4064 -22.3841 -22.3667 -22.3199 -22.3128 -22.2810 -22.2740
   -22.1131 -22.1127 -21.9779 -21.7896 -21.7804 -21.7484 -21.7419 -21.6078
    -3.5628  -2.6132  -1.4714  -1.0360  -0.9438  -0.8386  -0.7070  -0.6971
    -0.4708  -0.4068  -0.2501  -0.0326   0.1007   0.2195   0.2925   0.4405
     0.4752   0.6356   0.8900   0.9355   1.1890   1.2323   1.2475   1.2479
     1.2715   1.4152   1.4634   1.6806   1.7355   1.7979   1.8553   1.9095
     2.0403   2.0645   2.1275   2.1662   2.2138   2.2325   2.3137   2.3505
     2.4443   2.5505   2.6236   2.6723   2.7037   3.1485   3.2419   3.2660

          k = 0.0246 0.0426 0.0000 ( 26366 PWs)   bands (ev):

   -49.4597 -49.4596 -49.4527 -49.4527 -49.0839 -49.0768 -42.3892 -42.3890
   -42.3642 -42.3640 -41.8281 -41.8025 -28.1043 -28.1022 -28.0950 -28.0934
   -28.0460 -28.0453 -28.0122 -28.0105 -28.0023 -28.0007 -27.9562 -27.9561
   -27.6893 -27.6844 -27.6789 -27.6490 -27.6397 -27.5934 -22.4537 -22.4514
   -22.4231 -22.4027 -22.3874 -22.3689 -22.3202 -22.3125 -22.2848 -22.2778
   -22.1384 -22.1381 -21.9550 -21.7875 -21.7791 -21.7517 -21.7452 -21.6337
    -3.2643  -2.3258  -1.3552  -1.2737  -1.1425  -0.8473  -0.7008  -0.5114
    -0.2979  -0.1654  -0.0807   0.1071   0.2269   0.3179   0.3971   0.5416
     0.5534   0.7067   0.8589   0.9103   1.0673   1.0944   1.1030   1.2223
     1.2495   1.2503   1.2741   1.4310   1.5188   1.6601   1.7661   1.7924
     1.8527   1.8911   2.0166   2.0893   2.1666   2.2138   2.3327   2.4474
     2.5181   2.5746   2.6045   2.6195   2.7420   3.0286   3.0505   3.1963

          k = 0.0246-0.0966 0.0000 ( 26336 PWs)   bands (ev):

   -49.4582 -49.4582 -49.4542 -49.4542 -49.0824 -49.0783 -42.3840 -42.3837
   -42.3695 -42.3693 -41.8228 -41.8080 -28.1020 -28.1006 -28.0969 -28.0954
   -28.0268 -28.0262 -28.0095 -28.0078 -28.0043 -28.0027 -27.9753 -27.9752
   -27.6867 -27.6811 -27.6649 -27.6469 -27.6416 -27.6128 -22.4165 -22.3950
   -22.3950 -22.3897 -22.3877 -22.3760 -22.3147 -22.3068 -22.2924 -22.2853
   -22.2063 -22.2060 -21.8896 -21.7806 -21.7726 -21.7595 -21.7525 -21.7032
    -2.7175  -2.0651  -1.8143  -1.3346  -1.2569  -0.7099  -0.6270  -0.3824
    -0.0241   0.0033   0.2139   0.2322   0.4310   0.4522   0.5547   0.6008
     0.6740   0.7144   0.7833   0.8417   0.9486   0.9608   0.9857   1.0656
     1.1288   1.1300   1.1646   1.2487   1.3486   1.3750   1.4388   1.5219
     1.5367   1.7539   1.9909   2.0274   2.1376   2.1762   2.4242   2.5132
     2.6412   2.6722   2.7283   2.7336   2.8221   2.9454   3.0230   3.0294

          k = 0.0246-0.0688 0.0000 ( 26356 PWs)   bands (ev):

   -49.4563 -49.4562 -49.4562 -49.4561 -49.0804 -49.0803 -42.3768 -42.3767
   -42.3765 -42.3765 -41.8154 -41.8153 -28.0998 -28.0993 -28.0982 -28.0978
   -28.0078 -28.0068 -28.0061 -28.0051 -28.0016 -28.0012 -28.0008 -28.0005
   -27.6845 -27.6837 -27.6445 -27.6442 -27.6394 -27.6387 -22.4060 -22.4044
   -22.3865 -22.3855 -22.3045 -22.3017 -22.2989 -22.2980 -22.2978 -22.2964
   -22.2958 -22.2938 -21.7978 -21.7961 -21.7699 -21.7695 -21.7627 -21.7615
    -2.7599  -2.0135  -1.8501  -1.3739  -1.2008  -0.7722  -0.6831  -0.1882
    -0.0957   0.0116   0.2387   0.3028   0.4165   0.4669   0.4793   0.6690
     0.6735   0.7139   0.7601   0.7984   0.8807   0.9157   0.9961   1.0495
     1.1266   1.1472   1.2171   1.2192   1.3103   1.3763   1.3887   1.4638
     1.5378   1.7974   1.9381   2.0318   2.0531   2.2464   2.2959   2.5331
     2.5821   2.7025   2.7692   2.8639   2.8744   2.9780   3.0850   3.2633

          k = 0.0246-0.0409 0.0000 ( 26371 PWs)   bands (ev):

   -49.4582 -49.4582 -49.4542 -49.4541 -49.0824 -49.0783 -42.3838 -42.3837
   -42.3695 -42.3693 -41.8227 -41.8080 -28.1027 -28.1001 -28.0969 -28.0953
   -28.0278 -28.0272 -28.0114 -28.0096 -28.0046 -28.0029 -27.9751 -27.9750
   -27.6880 -27.6811 -27.6659 -27.6474 -27.6416 -27.6126 -22.4134 -22.3972
   -22.3949 -22.3865 -22.3855 -22.3762 -22.3088 -22.3021 -22.2922 -22.2848
   -22.2070 -22.2064 -21.8871 -21.7793 -21.7701 -21.7588 -21.7521 -21.7037
    -3.2906  -2.3493  -1.3574  -1.2675  -1.2251  -0.8959  -0.6505  -0.3562
    -0.3008  -0.0936  -0.0430   0.0078   0.2591   0.3444   0.3801   0.5307
     0.5652   0.6109   0.8719   0.9067   0.9617   0.9883   1.1448   1.1721
     1.2076   1.3492   1.3852   1.4760   1.5370   1.5633   1.6326   1.6784
     1.7735   1.8146   1.8868   2.0499   2.0587   2.1748   2.3643   2.5827
     2.6680   2.7167   2.7772   2.8208   2.9255   2.9554   3.0667   3.1551

          k = 0.0492-0.0262 0.0000 ( 26396 PWs)   bands (ev):

   -49.4582 -49.4582 -49.4542 -49.4541 -49.0824 -49.0783 -42.3839 -42.3837
   -42.3695 -42.3693 -41.8227 -41.8080 -28.1025 -28.1002 -28.0969 -28.0954
   -28.0275 -28.0269 -28.0108 -28.0090 -28.0045 -28.0028 -27.9752 -27.9750
   -27.6875 -27.6811 -27.6656 -27.6473 -27.6416 -27.6127 -22.4145 -22.3964
   -22.3949 -22.3876 -22.3862 -22.3761 -22.3108 -22.3037 -22.2922 -22.2850
   -22.2068 -22.2062 -21.8880 -21.7796 -21.7711 -21.7591 -21.7522 -21.7035
    -3.1429  -2.2102  -1.7717  -1.1032  -1.0991  -0.7555  -0.6484  -0.3924
    -0.3493  -0.1403   0.1136   0.1398   0.3056   0.3495   0.4743   0.5508
     0.5713   0.6892   0.8059   0.9138   0.9718   1.0162   1.0779   1.1197
     1.1754   1.1961   1.2144   1.3866   1.4952   1.5755   1.6032   1.6715
     1.7549   1.8823   1.9212   2.0060   2.0623   2.1207   2.2864   2.5712
     2.6358   2.7313   2.7351   2.8260   2.9374   2.9806   3.0353   3.0783

          k = 0.0492 0.0017 0.0000 ( 26366 PWs)   bands (ev):

   -49.4597 -49.4596 -49.4527 -49.4527 -49.0839 -49.0768 -42.3892 -42.3890
   -42.3642 -42.3640 -41.8281 -41.8025 -28.1043 -28.1022 -28.0950 -28.0934
   -28.0460 -28.0453 -28.0122 -28.0105 -28.0023 -28.0007 -27.9562 -27.9561
   -27.6893 -27.6844 -27.6789 -27.6490 -27.6397 -27.5934 -22.4537 -22.4514
   -22.4231 -22.4027 -22.3874 -22.3689 -22.3202 -22.3125 -22.2848 -22.2778
   -22.1384 -22.1381 -21.9550 -21.7875 -21.7791 -21.7517 -21.7452 -21.6337
    -3.2643  -2.3258  -1.3552  -1.2737  -1.1425  -0.8473  -0.7008  -0.5114
    -0.2979  -0.1654  -0.0807   0.1071   0.2269   0.3179   0.3971   0.5416
     0.5534   0.7067   0.8589   0.9103   1.0673   1.0944   1.1030   1.2223
     1.2495   1.2503   1.2741   1.4310   1.5188   1.6601   1.7661   1.7924
     1.8527   1.8911   2.0166   2.0893   2.1666   2.2138   2.3327   2.4474
     2.5181   2.5746   2.6045   2.6195   2.7420   3.0286   3.0505   3.1963

          k = 0.0492 0.0295 0.0000 ( 26339 PWs)   bands (ev):

   -49.4602 -49.4602 -49.4522 -49.4521 -49.0844 -49.0763 -42.3912 -42.3909
   -42.3623 -42.3621 -41.8301 -41.8006 -28.1047 -28.1031 -28.0942 -28.0929
   -28.0524 -28.0517 -28.0120 -28.0103 -28.0012 -27.9996 -27.9492 -27.9490
   -27.6909 -27.6894 -27.6779 -27.6495 -27.6389 -27.5862 -22.4787 -22.4759
   -22.4273 -22.4043 -22.3853 -22.3658 -22.3259 -22.3176 -22.2832 -22.2761
   -22.1136 -22.1130 -21.9802 -21.7914 -21.7826 -21.7495 -21.7431 -21.6082
    -3.1093  -2.1809  -1.6765  -1.0448  -0.9783  -0.8238  -0.8039  -0.5824
    -0.2434  -0.1954  -0.0954   0.2738   0.3508   0.3518   0.4413   0.5536
     0.6262   0.7723   0.7842   0.9261   1.0302   1.0443   1.1213   1.1403
     1.1522   1.2279   1.2733   1.3420   1.4105   1.6729   1.7382   1.7969
     1.8621   1.8955   1.9533   2.1718   2.2741   2.3004   2.3055   2.3283
     2.4005   2.4406   2.5060   2.5446   2.6946   3.0113   3.0409   3.0724

          k = 0.0492-0.1097 0.0000 ( 26332 PWs)   bands (ev):

   -49.4597 -49.4596 -49.4528 -49.4527 -49.0839 -49.0769 -42.3893 -42.3890
   -42.3642 -42.3640 -41.8282 -41.8025 -28.1036 -28.1028 -28.0948 -28.0937
   -28.0453 -28.0446 -28.0106 -28.0090 -28.0018 -28.0002 -27.9561 -27.9561
   -27.6883 -27.6837 -27.6787 -27.6486 -27.6396 -27.5934 -22.4559 -22.4531
   -22.4253 -22.4012 -22.3882 -22.3683 -22.3249 -22.3162 -22.2863 -22.2791
   -22.1386 -22.1382 -21.9568 -21.7894 -21.7803 -21.7526 -21.7459 -21.6339
    -2.6942  -1.9596  -1.7954  -1.4603  -1.1480  -0.7575  -0.6848  -0.2769
    -0.1982  -0.0483   0.1533   0.3140   0.4206   0.4620   0.5382   0.6432
     0.6878   0.7246   0.8180   0.8885   0.8943   0.9601   1.0591   1.1031
     1.1436   1.1581   1.1812   1.2288   1.2726   1.4605   1.5119   1.5807
     1.6088   1.6908   1.9689   2.1400   2.2398   2.3636   2.3673   2.3908
     2.5263   2.5702   2.6785   2.6874   2.7343   2.7772   2.8806   2.9870

          k = 0.0492-0.0819 0.0000 ( 26329 PWs)   bands (ev):

   -49.4582 -49.4582 -49.4542 -49.4542 -49.0824 -49.0783 -42.3840 -42.3837
   -42.3695 -42.3693 -41.8228 -41.8079 -28.1015 -28.1011 -28.0969 -28.0954
   -28.0265 -28.0259 -28.0088 -28.0072 -28.0043 -28.0027 -27.9754 -27.9752
   -27.6862 -27.6811 -27.6646 -27.6466 -27.6417 -27.6129 -22.4174 -22.3951
   -22.3944 -22.3907 -22.3883 -22.3759 -22.3167 -22.3083 -22.2925 -22.2855
   -22.2061 -22.2059 -21.8904 -21.7814 -21.7730 -21.7598 -21.7526 -21.7031
    -2.1654  -2.0770  -2.0711  -1.3091  -1.2655  -1.1959  -0.2951  -0.1981
    -0.1468   0.1715   0.1761   0.2586   0.5103   0.5510   0.5877   0.6031
     0.7070   0.7648   0.8011   0.8205   0.9053   0.9843   1.0079   1.0218
     1.1082   1.1361   1.1362   1.2315   1.2509   1.2993   1.3166   1.3734
     1.3839   1.5510   2.0602   2.0760   2.2477   2.3809   2.4200   2.4217
     2.5169   2.6536   2.6577   2.6941   2.7381   2.8811   2.8969   3.1744

          k = 0.0492-0.0540 0.0000 ( 26356 PWs)   bands (ev):

   -49.4563 -49.4562 -49.4562 -49.4561 -49.0804 -49.0803 -42.3768 -42.3767
   -42.3765 -42.3765 -41.8154 -41.8153 -28.0998 -28.0993 -28.0982 -28.0978
   -28.0078 -28.0068 -28.0061 -28.0051 -28.0016 -28.0012 -28.0008 -28.0005
   -27.6845 -27.6837 -27.6445 -27.6442 -27.6394 -27.6387 -22.4060 -22.4044
   -22.3865 -22.3855 -22.3045 -22.3017 -22.2989 -22.2980 -22.2978 -22.2964
   -22.2958 -22.2938 -21.7978 -21.7961 -21.7699 -21.7695 -21.7627 -21.7615
    -2.7599  -2.0135  -1.8501  -1.3739  -1.2008  -0.7722  -0.6831  -0.1882
    -0.0957   0.0116   0.2387   0.3028   0.4165   0.4669   0.4793   0.6690
     0.6735   0.7139   0.7601   0.7984   0.8807   0.9157   0.9961   1.0495
     1.1266   1.1472   1.2171   1.2192   1.3103   1.3763   1.3887   1.4638
     1.5378   1.7974   1.9381   2.0318   2.0531   2.2464   2.2959   2.5331
     2.5821   2.7025   2.7692   2.8639   2.8744   2.9780   3.0850   3.2633

          k =-0.0737 0.0393 0.0000 ( 26364 PWs)   bands (ev):

   -49.4563 -49.4562 -49.4562 -49.4561 -49.0804 -49.0803 -42.3767 -42.3767
   -42.3765 -42.3765 -41.8154 -41.8153 -28.0996 -28.0995 -28.0980 -28.0979
   -28.0074 -28.0074 -28.0057 -28.0057 -28.0012 -28.0011 -28.0008 -28.0007
   -27.6841 -27.6841 -27.6444 -27.6444 -27.6391 -27.6390 -22.4052 -22.4052
   -22.3860 -22.3860 -22.3038 -22.3038 -22.2987 -22.2987 -22.2968 -22.2967
   -22.2942 -22.2942 -21.7971 -21.7971 -21.7696 -21.7696 -21.7621 -21.7621
    -2.5020  -2.5020  -1.6311  -1.6311  -0.7468  -0.7468  -0.4653  -0.4653
    -0.1991  -0.1991   0.4215   0.4215   0.4552   0.4552   0.6082   0.6082
     0.7054   0.7054   0.7570   0.7570   0.8597   0.8597   0.9287   0.9287
     1.1065   1.1065   1.2642   1.2642   1.2887   1.2887   1.4555   1.4555
     1.8322   1.8322   1.9448   1.9448   1.9885   1.9886   2.5086   2.5086
     2.6302   2.6302   2.8540   2.8541   2.9045   2.9045   3.2671   3.2671

          k =-0.0737 0.0671 0.0000 ( 26336 PWs)   bands (ev):

   -49.4582 -49.4582 -49.4542 -49.4542 -49.0824 -49.0783 -42.3840 -42.3837
   -42.3695 -42.3693 -41.8228 -41.8080 -28.1020 -28.1006 -28.0969 -28.0954
   -28.0268 -28.0262 -28.0095 -28.0078 -28.0043 -28.0027 -27.9753 -27.9752
   -27.6867 -27.6811 -27.6649 -27.6469 -27.6416 -27.6128 -22.4165 -22.3950
   -22.3950 -22.3897 -22.3877 -22.3760 -22.3147 -22.3068 -22.2924 -22.2853
   -22.2063 -22.2060 -21.8896 -21.7806 -21.7726 -21.7595 -21.7525 -21.7032
    -2.7175  -2.0651  -1.8143  -1.3346  -1.2569  -0.7099  -0.6270  -0.3824
    -0.0241   0.0033   0.2139   0.2322   0.4310   0.4522   0.5547   0.6008
     0.6740   0.7144   0.7833   0.8417   0.9486   0.9608   0.9857   1.0656
     1.1288   1.1300   1.1646   1.2487   1.3486   1.3750   1.4388   1.5219
     1.5367   1.7539   1.9909   2.0274   2.1376   2.1762   2.4242   2.5132
     2.6412   2.6722   2.7283   2.7336   2.8221   2.9454   3.0231   3.0294

          k =-0.0737 0.0949 0.0000 ( 26332 PWs)   bands (ev):

   -49.4597 -49.4596 -49.4528 -49.4527 -49.0839 -49.0769 -42.3893 -42.3890
   -42.3642 -42.3640 -41.8282 -41.8025 -28.1036 -28.1028 -28.0948 -28.0937
   -28.0453 -28.0446 -28.0106 -28.0090 -28.0018 -28.0002 -27.9561 -27.9561
   -27.6883 -27.6837 -27.6787 -27.6486 -27.6396 -27.5934 -22.4559 -22.4531
   -22.4253 -22.4012 -22.3882 -22.3683 -22.3249 -22.3162 -22.2863 -22.2791
   -22.1386 -22.1382 -21.9568 -21.7894 -21.7803 -21.7526 -21.7459 -21.6339
    -2.6942  -1.9596  -1.7954  -1.4603  -1.1480  -0.7575  -0.6848  -0.2769
    -0.1982  -0.0483   0.1533   0.3140   0.4206   0.4620   0.5382   0.6432
     0.6878   0.7246   0.8180   0.8885   0.8943   0.9601   1.0591   1.1031
     1.1436   1.1581   1.1812   1.2288   1.2726   1.4605   1.5119   1.5807
     1.6088   1.6908   1.9689   2.1400   2.2398   2.3636   2.3673   2.3908
     2.5263   2.5702   2.6785   2.6874   2.7343   2.7772   2.8806   2.9870

          k =-0.0737-0.0443 0.0000 ( 26314 PWs)   bands (ev):

   -49.4602 -49.4602 -49.4522 -49.4521 -49.0844 -49.0763 -42.3912 -42.3909
   -42.3623 -42.3621 -41.8302 -41.8006 -28.1040 -28.1038 -28.0939 -28.0931
   -28.0520 -28.0512 -28.0109 -28.0093 -28.0007 -27.9992 -27.9491 -27.9490
   -27.6905 -27.6888 -27.6777 -27.6492 -27.6388 -27.5862 -22.4800 -22.4770
   -22.4287 -22.4034 -22.3858 -22.3653 -22.3289 -22.3199 -22.2843 -22.2771
   -22.1138 -22.1132 -21.9813 -21.7929 -21.7831 -21.7502 -21.7435 -21.6084
    -2.4498  -2.4180  -1.6467  -1.4730  -0.8664  -0.7228  -0.5394  -0.4892
    -0.4009  -0.1308   0.2327   0.4250   0.5086   0.5319   0.5327   0.6334
     0.7334   0.7844   0.7849   0.8013   0.8612   0.8803   0.8866   1.0942
     1.0945   1.1790   1.2074   1.2397   1.3754   1.4432   1.5956   1.6947
     1.7200   1.7201   1.9223   2.0557   2.1732   2.2574   2.3890   2.4432
     2.4554   2.6401   2.6813   2.7262   2.7290   2.7327   2.7777   2.9251

     the Fermi energy is     0.7390 ev

!    total energy              =   -1130.89855464 Ry
     Harris-Foulkes estimate   =   -1130.89855727 Ry
     estimated scf accuracy    <       0.00000069 Ry

     The total energy is the sum of the following terms:

     one-electron contribution =   -6083.10507610 Ry
     hartree contribution      =    3028.27180492 Ry
     xc contribution           =    -252.46138424 Ry
     ewald contribution        =    2176.53920260 Ry
     electric field correction =       0.00000001 Ry
     smearing contrib. (-TS)   =      -0.14310182 Ry

     convergence has been achieved in  18 iterations
 
 BEEF-vdW xc energy contributions
           1 :   -218.213150849490     
           2 :    194.755188416302     
           3 :   -155.750660622816     
           4 :    112.664282544515     
           5 :   -74.9725990112718     
           6 :    46.9292044551823     
           7 :   -27.9943647920023     
           8 :    15.6088794256180     
           9 :   -7.83830514123247     
          10 :    4.22663362150968     
          11 :   -4.92616318179466     
          12 :    9.35466375031251     
          13 :   -15.6394530315407     
          14 :    21.2268901067450     
          15 :   -24.0854035176403     
          16 :    23.5638978317949     
          17 :   -20.3613126939168     
          18 :    15.8000643269795     
          19 :   -11.0578339164371     
          20 :    6.86238650272452     
          21 :   -3.63950278160092     
          22 :    1.73605971451539     
          23 :   -1.41401439672961     
          24 :    2.64544800417031     
          25 :   -4.96880978505857     
          26 :    7.59679017835703     
          27 :   -9.72884888465404     
          28 :    10.8548835165953     
          29 :   -10.8718795420460     
          30 :    9.99826411831697     
          31 :   -22.3919316803800     
          32 :   -15.5957317998846     

     Forces acting on atoms (Ry/au):


     negative rho (up, down):  6.382E-05 0.000E+00
     atom    1 type  1   force =     0.00280618    0.00168055    0.00866024
     atom    2 type  1   force =     0.00281217    0.00169299    0.00865552
     atom    3 type  2   force =    -0.00131513   -0.00077973    0.00209167
     atom    4 type  2   force =    -0.00131325   -0.00079737    0.00209117
     atom    5 type  1   force =    -0.00001149   -0.00000460   -0.00012420
     atom    6 type  1   force =    -0.00000034   -0.00000261   -0.00011227
     atom    7 type  2   force =     0.00000102    0.00001977    0.00012823
     atom    8 type  2   force =     0.00001996   -0.00000690    0.00012883
     atom    9 type  1   force =    -0.00284758   -0.00170660   -0.00878429
     atom   10 type  1   force =    -0.00284817   -0.00171414   -0.00879215
     atom   11 type  2   force =     0.00134754    0.00080660   -0.00197275
     atom   12 type  2   force =     0.00134908    0.00081204   -0.00197000

     Total force =     0.019343     Total SCF correction =     0.001499


     entering subroutine stress ...


     negative rho (up, down):  6.382E-05 0.000E+00
          total   stress  (Ry/bohr**3)                   (kbar)     P=   -3.52
  -0.00001719   0.00000459  -0.00000433         -2.53      0.67     -0.64
   0.00000459  -0.00002208  -0.00000260          0.67     -3.25     -0.38
  -0.00000433  -0.00000260  -0.00003247         -0.64     -0.38     -4.78

 !ASE

     Writing output data file calc.save
 
     init_run     :      6.25s CPU      9.59s WALL (       1 calls)
     electrons    :    220.96s CPU    316.84s WALL (       1 calls)
     forces       :      3.09s CPU      3.46s WALL (       1 calls)
     stress       :     10.01s CPU     10.91s WALL (       1 calls)

     Called by init_run:
     wfcinit      :      4.14s CPU      6.91s WALL (       1 calls)
     potinit      :      0.66s CPU      0.98s WALL (       1 calls)

     Called by electrons:
     c_bands      :    162.22s CPU    231.67s WALL (      18 calls)
     sum_band     :     28.75s CPU     41.64s WALL (      18 calls)
     v_of_rho     :      7.77s CPU     12.60s WALL (      19 calls)
     newd         :      9.52s CPU      9.97s WALL (      19 calls)
     mix_rho      :      0.34s CPU      0.49s WALL (      18 calls)
     vdW_energy   :      3.63s CPU      4.04s WALL (      55 calls)
     vdW_ffts     :      9.57s CPU     18.51s WALL (     112 calls)
     vdW_v        :      2.58s CPU      3.78s WALL (      55 calls)

     Called by c_bands:
     init_us_2    :      1.25s CPU      1.26s WALL (     780 calls)
     cegterg      :    154.62s CPU    223.65s WALL (     360 calls)

     Called by *egterg:
     h_psi        :     82.35s CPU    139.95s WALL (    1536 calls)
     s_psi        :      8.54s CPU      8.57s WALL (    1536 calls)
     g_psi        :      0.65s CPU      0.65s WALL (    1156 calls)
     cdiaghg      :     36.32s CPU     37.12s WALL (    1516 calls)

     Called by h_psi:
     add_vuspsi   :      8.70s CPU      8.70s WALL (    1536 calls)

     General routines
     calbec       :     12.73s CPU     14.57s WALL (    1936 calls)
     fft          :     14.29s CPU     27.93s WALL (    3357 calls)
     ffts         :      0.03s CPU      0.06s WALL (      37 calls)
     fftw         :     67.80s CPU    136.03s WALL (  199228 calls)
     interpolate  :      0.17s CPU      0.33s WALL (      37 calls)
     davcio       :      0.00s CPU      0.03s WALL (      20 calls)
 
     Parallel routines
     fft_scatter  :     51.81s CPU    132.15s WALL (  202622 calls)
 
     PWSCF        :  4m 0.90s CPU     5m42.08s WALL

 
   This run was terminated on:   5:47:47  19Dec2018            

=------------------------------------------------------------------------------=
   JOB DONE.
=------------------------------------------------------------------------------=
Job  /afs/slac/g/suncat/bin/suncat-tsmpirun -x LD_LIBRARY_PATH -wdir /scratch/qe530594_Ti6or pw.x -in pw.inp

TID   HOST_NAME   COMMAND_LINE            STATUS            TERMINATION_TIME
===== ========== ================  =======================  ===================
00000 suncat2054 pw.x -in pw.inp   Done                     12/19/2018 05:47:47
00001 suncat2054 pw.x -in pw.inp   Done                     12/19/2018 05:47:47
00002 suncat2054 pw.x -in pw.inp   Done                     12/19/2018 05:47:47
00003 suncat2054 pw.x -in pw.inp   Done                     12/19/2018 05:47:47
00004 suncat2054 pw.x -in pw.inp   Done                     12/19/2018 05:47:47
00005 suncat2054 pw.x -in pw.inp   Done                     12/19/2018 05:47:47
00006 suncat2054 pw.x -in pw.inp   Done                     12/19/2018 05:47:47
00007 suncat2054 pw.x -in pw.inp   Done                     12/19/2018 05:47:47
00008 suncat2054 pw.x -in pw.inp   Done                     12/19/2018 05:47:47
00009 suncat2054 pw.x -in pw.inp   Done                     12/19/2018 05:47:47
00010 suncat2054 pw.x -in pw.inp   Done                     12/19/2018 05:47:47
00011 suncat2054 pw.x -in pw.inp   Done                     12/19/2018 05:47:47
00012 suncat2054 pw.x -in pw.inp   Done                     12/19/2018 05:47:47
00013 suncat2054 pw.x -in pw.inp   Done                     12/19/2018 05:47:47
00014 suncat2054 pw.x -in pw.inp   Done                     12/19/2018 05:47:47
00015 suncat2054 pw.x -in pw.inp   Done                     12/19/2018 05:47:47
00016 suncat2053 pw.x -in pw.inp   Done                     12/19/2018 05:47:47
00017 suncat2053 pw.x -in pw.inp   Done                     12/19/2018 05:47:47
00018 suncat2053 pw.x -in pw.inp   Done                     12/19/2018 05:47:47
00019 suncat2053 pw.x -in pw.inp   Done                     12/19/2018 05:47:47
00020 suncat2053 pw.x -in pw.inp   Done                     12/19/2018 05:47:47
00021 suncat2053 pw.x -in pw.inp   Done                     12/19/2018 05:47:47
00022 suncat2053 pw.x -in pw.inp   Done                     12/19/2018 05:47:47
00023 suncat2053 pw.x -in pw.inp   Done                     12/19/2018 05:47:47
00024 suncat2053 pw.x -in pw.inp   Done                     12/19/2018 05:47:47
00025 suncat2053 pw.x -in pw.inp   Done                     12/19/2018 05:47:47
00026 suncat2053 pw.x -in pw.inp   Done                     12/19/2018 05:47:47
00027 suncat2053 pw.x -in pw.inp   Done                     12/19/2018 05:47:47
00028 suncat2053 pw.x -in pw.inp   Done                     12/19/2018 05:47:47
00029 suncat2053 pw.x -in pw.inp   Done                     12/19/2018 05:47:47
00030 suncat2053 pw.x -in pw.inp   Done                     12/19/2018 05:47:47
00031 suncat2053 pw.x -in pw.inp   Done                     12/19/2018 05:47:47

     Program PWSCF v.5.1rc2 (svn rev. 11289) starts on 19Dec2018 at  5:47:54 

     This program is part of the open-source Quantum ESPRESSO suite
     for quantum simulation of materials; please cite
         "P. Giannozzi et al., J. Phys.:Condens. Matter 21 395502 (2009);
          URL http://www.quantum-espresso.org", 
     in publications or presentations arising from this work. More details at
     http://www.quantum-espresso.org/quote

     Parallel version (MPI), running on    32 processors
     R & G space division:  proc/nbgrp/npool/nimage =      32
     Reading input from pw.inp
     Message from routine read_cards :
     DEPRECATED: no units specified in CELL_PARAMETERS card

     Current dimensions of program PWSCF are:
     Max number of different atomic species (ntypx) = 10
     Max number of k-points (npk) =  40000
     Max angular momentum in pseudopotentials (lmaxx) =  3
     Presently stress not available with electric field


     **************************************************************************
     Initializing libbeef V0.1.1 with the BEEF-vdW functional.
     Citation: Wellendorff et al., PRB 85, 235149 (2012).
     **************************************************************************


     IMPORTANT: XC functional enforced from input :
     Exchange-correlation      = BEEF-VDW ( 1  4 27 13 2)
     Any further DFT definition will be discarded
     Please, verify this is what you really want


     Subspace diagonalization in iterative solution of the eigenvalue problem:
     a serial algorithm will be used

     Found symmetry operation: I + (  0.5000  0.5000  0.0000)
     This is a supercell, fractional translations are disabled
 
     Parallelization info
     --------------------
     sticks:   dense  smooth     PW     G-vecs:    dense   smooth      PW
     Min         132      52     15                26032     6570     996
     Max         133      53     16                26041     6611    1006
     Sum        4239    1695    487               833153   211005   31961
 


     bravais-lattice index     =            0
     lattice parameter (alat)  =       1.8897  a.u.
     unit-cell volume          =    7005.4897 (a.u.)^3
     number of atoms/cell      =           12
     number of atomic types    =            2
     number of electrons       =       132.00
     number of Kohn-Sham states=           96
     kinetic-energy cutoff     =      36.7493  Ry
     charge density cutoff     =     367.4932  Ry
     convergence threshold     =      1.0E-06
     mixing beta               =       0.1000
     number of iterations used =           10  plain     mixing
     Exchange-correlation      = BEEF-VDW ( 1  4 27 13 2)
     nstep                     =           50


     celldm(1)=   1.889726  celldm(2)=   0.000000  celldm(3)=   0.000000
     celldm(4)=   0.000000  celldm(5)=   0.000000  celldm(6)=   0.000000

     crystal axes: (cart. coord. in units of alat)
               a(1) = (   6.780062   0.000000   0.000000 )  
               a(2) = (   3.185598   5.985082   0.000000 )  
               a(3) = (   0.000000   0.000000  25.582213 )  

     reciprocal axes: (cart. coord. in units 2 pi/alat)
               b(1) = (  0.147491 -0.078503  0.000000 )  
               b(2) = (  0.000000  0.167082  0.000000 )  
               b(3) = (  0.000000  0.000000  0.039090 )  


     PseudoPot. # 1 for Sc read from file:
     /afs/slac.stanford.edu/u/if/mamunm/psp/gbrv1.5pbe/Sc.UPF
     MD5 check sum: db30a2753ba66ef00f23801d899b7e7f
     Pseudo is Ultrasoft + core correction, Zval = 11.0
     Generated by new atomic code, or converted to UPF format
     Using radial grid of  849 points,  6 beta functions with: 
                l(1) =   0
                l(2) =   0
                l(3) =   1
                l(4) =   1
                l(5) =   2
                l(6) =   2
     Q(r) pseudized with  6 coefficients,  rinner =    1.200   1.200   1.200
                                                       1.200   1.200

     PseudoPot. # 2 for Y  read from file:
     /afs/slac.stanford.edu/u/if/mamunm/psp/gbrv1.5pbe/Y.UPF
     MD5 check sum: d034151ed7554c50b6e82763ed42c788
     Pseudo is Ultrasoft + core correction, Zval = 11.0
     Generated by new atomic code, or converted to UPF format
     Using radial grid of  885 points,  6 beta functions with: 
                l(1) =   0
                l(2) =   0
                l(3) =   1
                l(4) =   1
                l(5) =   2
                l(6) =   2
     Q(r) pseudized with  8 coefficients,  rinner =    1.200   1.200   1.200
                                                       1.200   1.200

     vdW kernel table read from file vdW_kernel_table
     MD5 check sum: 095c7af220d748ca6e76c0b4c6cfb241

     atomic species   valence    mass     pseudopotential
        Sc1           11.00    44.95591     Sc( 1.00)
        Y1            11.00    88.90584     Y ( 1.00)

     No symmetry found



   Cartesian axes

     site n.     atom                  positions (alat units)
         1           Sc1 tau(   1) = (   0.0000000   0.0000000  10.0000000  )
         2           Sc1 tau(   2) = (   4.9828303   2.9925411  10.0000000  )
         3           Y1  tau(   3) = (   3.3900312   0.0000000  10.0000000  )
         4           Y1  tau(   4) = (   1.5927992   2.9925411  10.0000000  )
         5           Sc1 tau(   5) = (   6.7800623   4.0719056  12.7911063  )
         6           Sc1 tau(   6) = (   1.7972320   1.0793646  12.7911063  )
         7           Y1  tau(   7) = (   3.3900312   4.0719056  12.7911063  )
         8           Y1  tau(   8) = (   5.1872631   1.0793646  12.7911063  )
         9           Sc1 tau(   9) = (   3.5871425   2.1543413  15.5596272  )
        10           Sc1 tau(  10) = (   8.5699713   5.1468629  15.5596070  )
        11           Y1  tau(  11) = (   6.9879598   2.1608030  15.5771404  )
        12           Y1  tau(  12) = (   5.1907317   5.1533580  15.5771474  )

     number of k points=    20  Fermi-Dirac smearing, width (Ry)=  0.0110
                       cart. coord. in units 2pi/alat
        k(    1) = (   0.0000000   0.0000000   0.0000000), wk =   0.0555556
        k(    2) = (   0.0000000   0.0278470   0.0000000), wk =   0.1111111
        k(    3) = (   0.0000000   0.0556940   0.0000000), wk =   0.1111111
        k(    4) = (   0.0000000  -0.0835410   0.0000000), wk =   0.0555556
        k(    5) = (   0.0245819  -0.0130839   0.0000000), wk =   0.1111111
        k(    6) = (   0.0245819   0.0147632   0.0000000), wk =   0.1111111
        k(    7) = (   0.0245819   0.0426102   0.0000000), wk =   0.1111111
        k(    8) = (   0.0245819  -0.0966249   0.0000000), wk =   0.1111111
        k(    9) = (   0.0245819  -0.0687779   0.0000000), wk =   0.1111111
        k(   10) = (   0.0245819  -0.0409309   0.0000000), wk =   0.1111111
        k(   11) = (   0.0491638  -0.0261677   0.0000000), wk =   0.1111111
        k(   12) = (   0.0491638   0.0016793   0.0000000), wk =   0.1111111
        k(   13) = (   0.0491638   0.0295263   0.0000000), wk =   0.1111111
        k(   14) = (   0.0491638  -0.1097088   0.0000000), wk =   0.1111111
        k(   15) = (   0.0491638  -0.0818618   0.0000000), wk =   0.1111111
        k(   16) = (   0.0491638  -0.0540147   0.0000000), wk =   0.1111111
        k(   17) = (  -0.0737456   0.0392516   0.0000000), wk =   0.0555556
        k(   18) = (  -0.0737456   0.0670986   0.0000000), wk =   0.1111111
        k(   19) = (  -0.0737456   0.0949456   0.0000000), wk =   0.1111111
        k(   20) = (  -0.0737456  -0.0442895   0.0000000), wk =   0.0555556

     Dense  grid:   833153 G-vectors     FFT dimensions: (  80,  80, 300)

     Smooth grid:   211005 G-vectors     FFT dimensions: (  50,  50, 192)

     Largest allocated arrays     est. size (Mb)     dimensions
        Kohn-Sham Wavefunctions         1.24 Mb     (     844,   96)
        NL pseudopotentials             2.78 Mb     (     844,  216)
        Each V/rho on FFT grid          0.98 Mb     (   64000)
        Each G-vector array             0.20 Mb     (   26040)
        G-vector shells                 0.10 Mb     (   12982)
     Largest temporary arrays     est. size (Mb)     dimensions
        Auxiliary wavefunctions         4.95 Mb     (     844,  384)
        Each subspace H/S matrix        2.25 Mb     (     384,  384)
        Each <psi_i|beta_j> matrix      0.32 Mb     (     216,   96)
        Arrays for rho mixing           9.77 Mb     (   64000,   10)

     Initial potential from superposition of free atoms
     Check: negative starting charge=   -0.000471

     starting charge  131.95877, renormalised to  132.00000

     negative rho (up, down):  4.711E-04 0.000E+00


     ************************************************************************
     *
     * You are using vdW-DF for exchange-correlation in this calculation.
     * Please cite the following three references that made this development
     * possible:
     *
     *   M. Dion, H. Rydberg, E. Schroder, D. C. Langreth, and
     *   B. I. Lundqvist, Phys. Rev. Lett. 92, 246401 (2004).
     *
     *   T. Thonhauser, V. R. Cooper, S. Li, A. Puzder, P. Hyldgaard, and
     *   D. C. Langreth, Phys. Rev. B 76, 125112 (2007).
     *
     *   G. Roman-Perez and J. M. Soler, Phys. Rev. Lett. 103, 096102 (2009).
     *
     *
     * If you are using vdW-DF2, please also cite:
     *
     *   K. Lee, E. D. Murray, L. Kong, B. I. Lundqvist, and
     *   D. C. Langreth, Phys. Rev. B 82, 081101(R) (2010).
     *
     *
     * If you are calculating the stress with vdW-DF, please also cite:
     *
     *   R. Sabatini, E. Kucukbenli, B. Kolb, T. Thonhauser, and
     *   S. de Gironcoli, J. Phys.: Condens. Matter 24, 424209 (2012).
     *
     ************************************************************************

     Carrying out vdW-DF run using the following parameters:

     Nqs =      20    Nr_points =    1024   r_max =   100.000
     q_mesh =
               0.00001000     0.04494208     0.09755937     0.15916263
               0.23128650     0.31572767     0.41458969     0.53033537
               0.66584808     0.82450364     1.01025438     1.22772762
               1.48234092     1.78043706     2.12944203     2.53805004
               3.01644009     3.57652955     4.23227104     5.00000000

     Gradients computed in reciprocal space

     ************************************************************************


 
     Adding external electric field

     Computed dipole along edir(3) : 
        Dipole                0.0001 Ry au,          0.0002 Debye
        Dipole field          0.0000 Ry au
 
        Potential amp.       -0.0000 Ry
        Total length         47.1348 bohr
 
     Starting wfc are  156 randomized atomic wfcs

     total cpu time spent up to now is       10.2 secs

     Self-consistent Calculation

     iteration #  1     ecut=    36.75 Ry     beta=0.10
     Davidson diagonalization with overlap
     ethr =  1.00E-02,  avg # of iterations =  2.0

     negative rho (up, down):  3.962E-04 0.000E+00
 
     Adding external electric field

     Computed dipole along edir(3) : 
        Dipole               -0.0469 Ry au,         -0.1192 Debye
        Dipole field         -0.0001 Ry au
 
        Potential amp.        0.0079 Ry
        Total length         47.1348 bohr
 

     total cpu time spent up to now is       25.3 secs

     total energy              =   -1130.28956595 Ry
     Harris-Foulkes estimate   =   -1131.38485312 Ry
     estimated scf accuracy    <       6.15679611 Ry

     iteration #  2     ecut=    36.75 Ry     beta=0.10
     Davidson diagonalization with overlap
     ethr =  4.66E-03,  avg # of iterations =  1.1

     negative rho (up, down):  3.375E-04 0.000E+00
 
     Adding external electric field

     Computed dipole along edir(3) : 
        Dipole                0.3485 Ry au,          0.8859 Debye
        Dipole field          0.0006 Ry au
 
        Potential amp.       -0.0589 Ry
        Total length         47.1348 bohr
 

     total cpu time spent up to now is       39.2 secs

     total energy              =   -1130.73697578 Ry
     Harris-Foulkes estimate   =   -1131.11557286 Ry
     estimated scf accuracy    <       3.64063312 Ry

     iteration #  3     ecut=    36.75 Ry     beta=0.10
     Davidson diagonalization with overlap
     ethr =  2.76E-03,  avg # of iterations =  1.1

     negative rho (up, down):  3.139E-04 0.000E+00
 
     Adding external electric field

     Computed dipole along edir(3) : 
        Dipole               -0.0772 Ry au,         -0.1961 Debye
        Dipole field         -0.0001 Ry au
 
        Potential amp.        0.0130 Ry
        Total length         47.1348 bohr
 

     total cpu time spent up to now is       52.1 secs

     total energy              =   -1130.82573978 Ry
     Harris-Foulkes estimate   =   -1131.01211611 Ry
     estimated scf accuracy    <       7.29649724 Ry

     iteration #  4     ecut=    36.75 Ry     beta=0.10
     Davidson diagonalization with overlap
     ethr =  2.76E-03,  avg # of iterations =  1.0

     negative rho (up, down):  2.575E-04 0.000E+00
 
     Adding external electric field

     Computed dipole along edir(3) : 
        Dipole               -0.0036 Ry au,         -0.0091 Debye
        Dipole field         -0.0000 Ry au
 
        Potential amp.        0.0006 Ry
        Total length         47.1348 bohr
 

     total cpu time spent up to now is       64.9 secs

     total energy              =   -1130.87286353 Ry
     Harris-Foulkes estimate   =   -1130.94317172 Ry
     estimated scf accuracy    <       0.68813683 Ry

     iteration #  5     ecut=    36.75 Ry     beta=0.10
     Davidson diagonalization with overlap
     ethr =  5.21E-04,  avg # of iterations =  3.7

     negative rho (up, down):  1.970E-04 0.000E+00
 
     Adding external electric field

     Computed dipole along edir(3) : 
        Dipole                0.0154 Ry au,          0.0391 Debye
        Dipole field          0.0000 Ry au
 
        Potential amp.       -0.0026 Ry
        Total length         47.1348 bohr
 

     total cpu time spent up to now is       80.7 secs

     total energy              =   -1130.88704459 Ry
     Harris-Foulkes estimate   =   -1130.89832406 Ry
     estimated scf accuracy    <       0.10116482 Ry

     iteration #  6     ecut=    36.75 Ry     beta=0.10
     Davidson diagonalization with overlap
     ethr =  7.66E-05,  avg # of iterations =  7.2

     negative rho (up, down):  1.686E-04 0.000E+00
 
     Adding external electric field

     Computed dipole along edir(3) : 
        Dipole               -0.0014 Ry au,         -0.0036 Debye
        Dipole field         -0.0000 Ry au
 
        Potential amp.        0.0002 Ry
        Total length         47.1348 bohr
 

     total cpu time spent up to now is      100.2 secs

     total energy              =   -1130.89112866 Ry
     Harris-Foulkes estimate   =   -1130.89469268 Ry
     estimated scf accuracy    <       0.04179356 Ry

     iteration #  7     ecut=    36.75 Ry     beta=0.10
     Davidson diagonalization with overlap
     ethr =  3.17E-05,  avg # of iterations =  6.2

     negative rho (up, down):  1.760E-04 0.000E+00
 
     Adding external electric field

     Computed dipole along edir(3) : 
        Dipole                0.0145 Ry au,          0.0370 Debye
        Dipole field          0.0000 Ry au
 
        Potential amp.       -0.0025 Ry
        Total length         47.1348 bohr
 

     total cpu time spent up to now is      118.6 secs

     total energy              =   -1130.89499499 Ry
     Harris-Foulkes estimate   =   -1130.89467971 Ry
     estimated scf accuracy    <       0.01487119 Ry

     iteration #  8     ecut=    36.75 Ry     beta=0.10
     Davidson diagonalization with overlap
     ethr =  1.13E-05,  avg # of iterations =  6.8

     negative rho (up, down):  2.489E-04 0.000E+00
 
     Adding external electric field

     Computed dipole along edir(3) : 
        Dipole                0.0040 Ry au,          0.0101 Debye
        Dipole field          0.0000 Ry au
 
        Potential amp.       -0.0007 Ry
        Total length         47.1348 bohr
 

     total cpu time spent up to now is      138.0 secs

     total energy              =   -1130.89734841 Ry
     Harris-Foulkes estimate   =   -1130.89692400 Ry
     estimated scf accuracy    <       0.01460933 Ry

     iteration #  9     ecut=    36.75 Ry     beta=0.10
     Davidson diagonalization with overlap
     ethr =  1.11E-05,  avg # of iterations =  2.1

     negative rho (up, down):  2.229E-04 0.000E+00
 
     Adding external electric field

     Computed dipole along edir(3) : 
        Dipole                0.0044 Ry au,          0.0112 Debye
        Dipole field          0.0000 Ry au
 
        Potential amp.       -0.0007 Ry
        Total length         47.1348 bohr
 

     total cpu time spent up to now is      152.0 secs

     total energy              =   -1130.89835891 Ry
     Harris-Foulkes estimate   =   -1130.89855144 Ry
     estimated scf accuracy    <       0.00202250 Ry

     iteration # 10     ecut=    36.75 Ry     beta=0.10
     Davidson diagonalization with overlap
     c_bands:  1 eigenvalues not converged
     ethr =  1.53E-06,  avg # of iterations =  8.2

     negative rho (up, down):  2.390E-04 0.000E+00
 
     Adding external electric field

     Computed dipole along edir(3) : 
        Dipole                0.0024 Ry au,          0.0061 Debye
        Dipole field          0.0000 Ry au
 
        Potential amp.       -0.0004 Ry
        Total length         47.1348 bohr
 

     total cpu time spent up to now is      176.0 secs

     total energy              =   -1130.89876910 Ry
     Harris-Foulkes estimate   =   -1130.89894570 Ry
     estimated scf accuracy    <       0.00414607 Ry

     iteration # 11     ecut=    36.75 Ry     beta=0.10
     Davidson diagonalization with overlap
     ethr =  1.53E-06,  avg # of iterations =  3.2

     negative rho (up, down):  2.440E-04 0.000E+00
 
     Adding external electric field

     Computed dipole along edir(3) : 
        Dipole               -0.0022 Ry au,         -0.0056 Debye
        Dipole field         -0.0000 Ry au
 
        Potential amp.        0.0004 Ry
        Total length         47.1348 bohr
 

     total cpu time spent up to now is      192.3 secs

     total energy              =   -1130.89918492 Ry
     Harris-Foulkes estimate   =   -1130.89925102 Ry
     estimated scf accuracy    <       0.00105070 Ry

     iteration # 12     ecut=    36.75 Ry     beta=0.10
     Davidson diagonalization with overlap
     ethr =  7.96E-07,  avg # of iterations =  2.4

     negative rho (up, down):  2.270E-04 0.000E+00
 
     Adding external electric field

     Computed dipole along edir(3) : 
        Dipole                0.0033 Ry au,          0.0085 Debye
        Dipole field          0.0000 Ry au
 
        Potential amp.       -0.0006 Ry
        Total length         47.1348 bohr
 

     total cpu time spent up to now is      207.1 secs

     total energy              =   -1130.89931181 Ry
     Harris-Foulkes estimate   =   -1130.89935693 Ry
     estimated scf accuracy    <       0.00135920 Ry

     iteration # 13     ecut=    36.75 Ry     beta=0.10
     Davidson diagonalization with overlap
     ethr =  7.96E-07,  avg # of iterations =  1.0

     negative rho (up, down):  2.049E-04 0.000E+00
 
     Adding external electric field

     Computed dipole along edir(3) : 
        Dipole                0.0032 Ry au,          0.0081 Debye
        Dipole field          0.0000 Ry au
 
        Potential amp.       -0.0005 Ry
        Total length         47.1348 bohr
 

     total cpu time spent up to now is      220.2 secs

     total energy              =   -1130.89935213 Ry
     Harris-Foulkes estimate   =   -1130.89935224 Ry
     estimated scf accuracy    <       0.00007418 Ry

     iteration # 14     ecut=    36.75 Ry     beta=0.10
     Davidson diagonalization with overlap
     ethr =  5.62E-08,  avg # of iterations =  4.1

     negative rho (up, down):  1.859E-04 0.000E+00
 
     Adding external electric field

     Computed dipole along edir(3) : 
        Dipole                0.0026 Ry au,          0.0065 Debye
        Dipole field          0.0000 Ry au
 
        Potential amp.       -0.0004 Ry
        Total length         47.1348 bohr
 

     total cpu time spent up to now is      238.9 secs

     total energy              =   -1130.89936102 Ry
     Harris-Foulkes estimate   =   -1130.89936763 Ry
     estimated scf accuracy    <       0.00005757 Ry

     iteration # 15     ecut=    36.75 Ry     beta=0.10
     Davidson diagonalization with overlap
     ethr =  4.36E-08,  avg # of iterations =  3.4

     negative rho (up, down):  1.697E-04 0.000E+00
 
     Adding external electric field

     Computed dipole along edir(3) : 
        Dipole                0.0029 Ry au,          0.0074 Debye
        Dipole field          0.0000 Ry au
 
        Potential amp.       -0.0005 Ry
        Total length         47.1348 bohr
 

     total cpu time spent up to now is      255.4 secs

     total energy              =   -1130.89936893 Ry
     Harris-Foulkes estimate   =   -1130.89936879 Ry
     estimated scf accuracy    <       0.00001469 Ry

     iteration # 16     ecut=    36.75 Ry     beta=0.10
     Davidson diagonalization with overlap
     ethr =  1.11E-08,  avg # of iterations =  3.1

     negative rho (up, down):  1.535E-04 0.000E+00
 
     Adding external electric field

     Computed dipole along edir(3) : 
        Dipole                0.0029 Ry au,          0.0073 Debye
        Dipole field          0.0000 Ry au
 
        Potential amp.       -0.0005 Ry
        Total length         47.1348 bohr
 

     total cpu time spent up to now is      271.8 secs

     total energy              =   -1130.89937261 Ry
     Harris-Foulkes estimate   =   -1130.89937216 Ry
     estimated scf accuracy    <       0.00000520 Ry

     iteration # 17     ecut=    36.75 Ry     beta=0.10
     Davidson diagonalization with overlap
     ethr =  3.94E-09,  avg # of iterations =  3.1

     negative rho (up, down):  1.396E-04 0.000E+00
 
     Adding external electric field

     Computed dipole along edir(3) : 
        Dipole                0.0028 Ry au,          0.0070 Debye
        Dipole field          0.0000 Ry au
 
        Potential amp.       -0.0005 Ry
        Total length         47.1348 bohr
 

     total cpu time spent up to now is      287.9 secs

     total energy              =   -1130.89937369 Ry
     Harris-Foulkes estimate   =   -1130.89937334 Ry
     estimated scf accuracy    <       0.00000185 Ry

     iteration # 18     ecut=    36.75 Ry     beta=0.10
     Davidson diagonalization with overlap
     ethr =  1.40E-09,  avg # of iterations =  4.3

     negative rho (up, down):  1.274E-04 0.000E+00
 
     Adding external electric field

     Computed dipole along edir(3) : 
        Dipole                0.0028 Ry au,          0.0072 Debye
        Dipole field          0.0000 Ry au
 
        Potential amp.       -0.0005 Ry
        Total length         47.1348 bohr
 

     total cpu time spent up to now is      307.1 secs

     total energy              =   -1130.89937390 Ry
     Harris-Foulkes estimate   =   -1130.89937426 Ry
     estimated scf accuracy    <       0.00000171 Ry

     iteration # 19     ecut=    36.75 Ry     beta=0.10
     Davidson diagonalization with overlap
     ethr =  1.30E-09,  avg # of iterations =  1.9

     negative rho (up, down):  1.168E-04 0.000E+00
 
     Adding external electric field

     Computed dipole along edir(3) : 
        Dipole                0.0027 Ry au,          0.0069 Debye
        Dipole field          0.0000 Ry au
 
        Potential amp.       -0.0005 Ry
        Total length         47.1348 bohr
 

     total cpu time spent up to now is      321.1 secs

     total energy              =   -1130.89937323 Ry
     Harris-Foulkes estimate   =   -1130.89937394 Ry
     estimated scf accuracy    <       0.00000129 Ry

     iteration # 20     ecut=    36.75 Ry     beta=0.10
     Davidson diagonalization with overlap
     ethr =  9.76E-10,  avg # of iterations =  3.6

     negative rho (up, down):  6.321E-05 0.000E+00

     negative rho (up, down):  6.321E-05 0.000E+00

     negative rho (up, down):  6.321E-05 0.000E+00

     negative rho (up, down):  6.321E-05 0.000E+00

     negative rho (up, down):  6.321E-05 0.000E+00

     negative rho (up, down):  6.321E-05 0.000E+00

     negative rho (up, down):  6.321E-05 0.000E+00

     negative rho (up, down):  6.321E-05 0.000E+00

     negative rho (up, down):  6.321E-05 0.000E+00

     negative rho (up, down):  6.321E-05 0.000E+00

     negative rho (up, down):  6.321E-05 0.000E+00

     negative rho (up, down):  6.321E-05 0.000E+00

     negative rho (up, down):  6.321E-05 0.000E+00

     negative rho (up, down):  6.321E-05 0.000E+00

     negative rho (up, down):  6.321E-05 0.000E+00

     negative rho (up, down):  6.321E-05 0.000E+00

     negative rho (up, down):  6.321E-05 0.000E+00

     negative rho (up, down):  6.321E-05 0.000E+00

     negative rho (up, down):  6.321E-05 0.000E+00

     negative rho (up, down):  6.321E-05 0.000E+00

     negative rho (up, down):  6.321E-05 0.000E+00

     negative rho (up, down):  6.321E-05 0.000E+00

     negative rho (up, down):  6.321E-05 0.000E+00

     negative rho (up, down):  6.321E-05 0.000E+00

     negative rho (up, down):  6.321E-05 0.000E+00

     negative rho (up, down):  6.321E-05 0.000E+00

     negative rho (up, down):  6.321E-05 0.000E+00

     negative rho (up, down):  6.321E-05 0.000E+00

     negative rho (up, down):  6.321E-05 0.000E+00

     negative rho (up, down):  6.321E-05 0.000E+00

     negative rho (up, down):  6.321E-05 0.000E+00

     negative rho (up, down):  6.321E-05 0.000E+00

     negative rho (up, down):  6.321E-05 0.000E+00

     negative rho (up, down):  6.321E-05 0.000E+00

     negative rho (up, down):  6.321E-05 0.000E+00
 
     Adding external electric field

     Computed dipole along edir(3) : 
        Dipole                0.0031 Ry au,          0.0078 Debye
        Dipole field          0.0000 Ry au
 
        Potential amp.       -0.0005 Ry
        Total length         47.1348 bohr
 

     total cpu time spent up to now is      359.6 secs

     End of self-consistent calculation

          k = 0.0000 0.0000 0.0000 ( 26377 PWs)   bands (ev):

   -49.4603 -49.4523 -49.4449 -49.4368 -49.0743 -49.0661 -42.3917 -42.3886
   -42.3629 -42.3598 -41.8202 -41.7907 -28.1049 -28.0943 -28.0889 -28.0785
   -28.0533 -28.0397 -28.0139 -28.0014 -27.9999 -27.9873 -27.9492 -27.9354
   -27.6833 -27.6821 -27.6693 -27.6394 -27.6281 -27.5774 -22.4745 -22.4708
   -22.4222 -22.4075 -22.3831 -22.3670 -22.3165 -22.3096 -22.2795 -22.2721
[...]
   -22.3815 -22.3806 -22.3021 -22.3003 -22.2979 -22.2972 -22.2840 -22.2825
   -22.2803 -22.2796 -21.7196 -21.7178 -21.7047 -21.7043 -21.6910 -21.6890
    -2.7630  -2.0176  -1.8340  -1.3797  -1.1879  -0.7488  -0.6754  -0.1715
    -0.1080  -0.0062   0.2447   0.2947   0.4165   0.4593   0.5031   0.6683
     0.6913   0.7463   0.7476   0.8031   0.8689   0.9371   0.9735   1.0396
     1.1334   1.1654   1.2203   1.2395   1.3060   1.3956   1.3978   1.4785
     1.5659   1.8196   2.0168   2.1025   2.1064   2.3057   2.3105   2.5557
     2.5912   2.7558   2.8142   2.8771   2.8951   3.0099   3.0994   3.2827

          k = 0.0246-0.0409 0.0000 ( 26371 PWs)   bands (ev):

   -49.4633 -49.4593 -49.3554 -49.3513 -49.0293 -49.0252 -42.3855 -42.3712
   -42.3661 -42.3517 -41.7422 -41.7274 -28.1097 -28.1044 -28.0315 -28.0135
   -28.0067 -28.0027 -27.9973 -27.9791 -27.9349 -27.9164 -27.9095 -27.8817
   -27.6380 -27.6311 -27.6201 -27.5898 -27.5839 -27.5666 -22.4116 -22.3929
   -22.3920 -22.3865 -22.3714 -22.3689 -22.3068 -22.2900 -22.2892 -22.2720
   -22.2072 -22.1895 -21.8094 -21.7148 -21.6974 -21.6940 -21.6796 -21.6248
    -3.2942  -2.3322  -1.3666  -1.2710  -1.1973  -0.8894  -0.6520  -0.3664
    -0.3200  -0.0887  -0.0420   0.0065   0.2599   0.3456   0.3869   0.5439
     0.5731   0.6097   0.8912   0.9179   0.9773   1.0132   1.1515   1.1947
     1.2042   1.3462   1.3961   1.5127   1.5297   1.5687   1.6408   1.7080
     1.8091   1.9023   1.9714   2.0577   2.1381   2.2200   2.3641   2.6100
     2.6395   2.7271   2.7791   2.8418   2.9489   2.9968   3.0885   3.2072

          k = 0.0492-0.0262 0.0000 ( 26396 PWs)   bands (ev):

   -49.4633 -49.4593 -49.3553 -49.3513 -49.0293 -49.0252 -42.3856 -42.3712
   -42.3662 -42.3517 -41.7422 -41.7274 -28.1096 -28.1044 -28.0312 -28.0129
   -28.0066 -28.0027 -27.9973 -27.9792 -27.9346 -27.9158 -27.9094 -27.8818
   -27.6376 -27.6311 -27.6198 -27.5896 -27.5840 -27.5667 -22.4125 -22.3930
   -22.3914 -22.3874 -22.3714 -22.3697 -22.3086 -22.2909 -22.2900 -22.2722
   -22.2070 -22.1893 -21.8102 -21.7147 -21.6988 -21.6942 -21.6798 -21.6246
    -3.1464  -2.1935  -1.7764  -1.0910  -1.0781  -0.7620  -0.6542  -0.3931
    -0.3615  -0.1378   0.1081   0.1410   0.3063   0.3582   0.4651   0.5587
     0.5781   0.6954   0.8349   0.9169   0.9873   1.0405   1.0754   1.1246
     1.1935   1.1943   1.2234   1.4108   1.5081   1.5784   1.6113   1.6860
     1.8100   1.9159   2.0066   2.0437   2.1045   2.1275   2.3428   2.6111
     2.6525   2.7118   2.7303   2.8558   2.9842   3.0328   3.0539   3.1065

          k = 0.0492 0.0017 0.0000 ( 26366 PWs)   bands (ev):

   -49.4648 -49.4578 -49.3568 -49.3498 -49.0307 -49.0237 -42.3908 -42.3715
   -42.3659 -42.3464 -41.7477 -41.7220 -28.1115 -28.1025 -28.0497 -28.0144
   -28.0046 -28.0045 -27.9953 -27.9602 -27.9533 -27.9172 -27.9072 -27.8626
   -27.6394 -27.6387 -27.6289 -27.5913 -27.5820 -27.5473 -22.4531 -22.4357
   -22.4210 -22.3978 -22.3855 -22.3639 -22.3179 -22.2999 -22.2827 -22.2649
   -22.1388 -22.1209 -21.8776 -21.7221 -21.7074 -21.6869 -21.6726 -21.5544
    -3.2681  -2.3094  -1.3616  -1.2708  -1.1236  -0.8455  -0.7041  -0.5165
    -0.3036  -0.1712  -0.0755   0.0994   0.2342   0.3239   0.3900   0.5390
     0.5526   0.7224   0.8884   0.9147   1.0794   1.1038   1.1099   1.2486
     1.2553   1.2567   1.2890   1.4489   1.5377   1.6956   1.7732   1.8161
     1.8740   1.9774   2.0268   2.1456   2.2030   2.2192   2.3809   2.4425
     2.5653   2.5911   2.6178   2.6243   2.7784   3.0752   3.0942   3.2073

          k = 0.0492 0.0295 0.0000 ( 26339 PWs)   bands (ev):

   -49.4653 -49.4573 -49.3574 -49.3492 -49.0313 -49.0231 -42.3928 -42.3734
   -42.3639 -42.3445 -41.7497 -41.7200 -28.1122 -28.1018 -28.0561 -28.0142
   -28.0052 -28.0034 -27.9946 -27.9598 -27.9532 -27.9170 -27.9060 -27.8554
   -27.6452 -27.6396 -27.6279 -27.5917 -27.5812 -27.5401 -22.4779 -22.4604
   -22.4251 -22.3995 -22.3834 -22.3608 -22.3234 -22.3052 -22.2811 -22.2633
   -22.1138 -22.0959 -21.9029 -21.7249 -21.7119 -21.6843 -21.6708 -21.5287
    -3.1130  -2.1655  -1.6812  -1.0198  -0.9717  -0.8280  -0.8185  -0.5856
    -0.2490  -0.1853  -0.0841   0.2849   0.3301   0.3579   0.4387   0.5449
     0.6158   0.7790   0.8147   0.9305   1.0266   1.0470   1.1285   1.1614
     1.1688   1.2393   1.2819   1.3657   1.4234   1.6727   1.7465   1.8237
     1.9258   1.9305   1.9604   2.2258   2.2694   2.3190   2.3599   2.3751
     2.4513   2.4535   2.5712   2.5728   2.7013   3.0120   3.0598   3.0826

          k = 0.0492-0.1097 0.0000 ( 26332 PWs)   bands (ev):

   -49.4648 -49.4578 -49.3568 -49.3498 -49.0307 -49.0237 -42.3909 -42.3715
   -42.3659 -42.3464 -41.7477 -41.7220 -28.1114 -28.1025 -28.0490 -28.0129
   -28.0045 -28.0040 -27.9953 -27.9602 -27.9526 -27.9157 -27.9066 -27.8625
   -27.6384 -27.6380 -27.6287 -27.5908 -27.5819 -27.5473 -22.4551 -22.4376
   -22.4231 -22.3965 -22.3862 -22.3633 -22.3223 -22.3039 -22.2842 -22.2663
   -22.1390 -22.1211 -21.8794 -21.7223 -21.7103 -21.6872 -21.6738 -21.5546
    -2.6978  -1.9639  -1.7819  -1.4651  -1.1356  -0.7505  -0.6610  -0.2881
    -0.1824  -0.0504   0.1460   0.3235   0.4354   0.4513   0.5243   0.6620
     0.6800   0.7124   0.8145   0.8935   0.9013   0.9550   1.0726   1.0971
     1.1536   1.1734   1.2034   1.2248   1.2851   1.4617   1.5162   1.6036
     1.6378   1.6865   2.0628   2.1986   2.2988   2.3539   2.4106   2.4255
     2.5366   2.6427   2.6857   2.7153   2.7943   2.8468   2.8847   2.9780

          k = 0.0492-0.0819 0.0000 ( 26329 PWs)   bands (ev):

   -49.4633 -49.4593 -49.3553 -49.3513 -49.0292 -49.0252 -42.3856 -42.3712
   -42.3662 -42.3517 -41.7423 -41.7274 -28.1095 -28.1044 -28.0303 -28.0110
   -28.0065 -28.0026 -27.9973 -27.9794 -27.9336 -27.9138 -27.9092 -27.8820
   -27.6363 -27.6312 -27.6188 -27.5889 -27.5840 -27.5669 -22.4152 -22.3931
   -22.3901 -22.3896 -22.3727 -22.3708 -22.3142 -22.2959 -22.2904 -22.2726
   -22.2065 -22.1888 -21.8127 -21.7146 -21.7025 -21.6946 -21.6803 -21.6242
    -2.1686  -2.0814  -2.0747  -1.2952  -1.2601  -1.1742  -0.2777  -0.1723
    -0.1345   0.1349   0.1815   0.2476   0.5345   0.5560   0.5955   0.6185
     0.6914   0.7509   0.7976   0.8070   0.9162   0.9626   1.0051   1.0125
     1.1166   1.1299   1.1657   1.2108   1.2654   1.3277   1.3343   1.4011
     1.4086   1.5735   2.1404   2.1554   2.2805   2.4016   2.4450   2.4600
     2.5811   2.6676   2.6766   2.7164   2.7665   2.9518   2.9528   3.1946

          k = 0.0492-0.0540 0.0000 ( 26356 PWs)   bands (ev):

   -49.4613 -49.4613 -49.3534 -49.3533 -49.0272 -49.0272 -42.3784 -42.3784
   -42.3590 -42.3589 -41.7349 -41.7348 -28.1070 -28.1070 -28.0100 -28.0090
   -28.0055 -28.0048 -28.0000 -27.9999 -27.9128 -27.9118 -27.9084 -27.9077
   -27.6345 -27.6338 -27.5935 -27.5928 -27.5869 -27.5865 -22.4039 -22.4025
   -22.3815 -22.3806 -22.3021 -22.3003 -22.2979 -22.2972 -22.2840 -22.2825
   -22.2803 -22.2796 -21.7196 -21.7178 -21.7047 -21.7043 -21.6910 -21.6890
    -2.7630  -2.0176  -1.8340  -1.3797  -1.1879  -0.7488  -0.6754  -0.1715
    -0.1080  -0.0062   0.2447   0.2947   0.4165   0.4593   0.5031   0.6683
     0.6913   0.7463   0.7476   0.8031   0.8689   0.9371   0.9735   1.0396
     1.1334   1.1654   1.2203   1.2395   1.3060   1.3956   1.3978   1.4785
     1.5659   1.8196   2.0168   2.1025   2.1064   2.3057   2.3105   2.5557
     2.5912   2.7558   2.8142   2.8771   2.8951   3.0099   3.0994   3.2825

          k =-0.0737 0.0393 0.0000 ( 26364 PWs)   bands (ev):

   -49.4613 -49.4613 -49.3534 -49.3533 -49.0272 -49.0272 -42.3784 -42.3784
   -42.3590 -42.3590 -41.7348 -41.7348 -28.1070 -28.1070 -28.0096 -28.0096
   -28.0051 -28.0051 -28.0000 -27.9998 -27.9124 -27.9123 -27.9080 -27.9079
   -27.6342 -27.6341 -27.5932 -27.5932 -27.5867 -27.5866 -22.4032 -22.4032
   -22.3810 -22.3810 -22.3019 -22.3019 -22.2969 -22.2969 -22.2839 -22.2839
   -22.2794 -22.2793 -21.7188 -21.7188 -21.7045 -21.7045 -21.6899 -21.6899
    -2.5053  -2.5053  -1.6165  -1.6165  -0.7472  -0.7472  -0.4484  -0.4484
    -0.2062  -0.2062   0.4104   0.4104   0.4552   0.4552   0.6197   0.6197
     0.7139   0.7139   0.7731   0.7731   0.8382   0.8382   0.9571   0.9571
     1.1038   1.1038   1.2738   1.2738   1.3054   1.3054   1.4633   1.4633
     1.8483   1.8483   1.9733   1.9733   2.0613   2.0613   2.5582   2.5583
     2.6824   2.6824   2.8559   2.8559   2.9394   2.9394   3.2626   3.2627

          k =-0.0737 0.0671 0.0000 ( 26336 PWs)   bands (ev):

   -49.4633 -49.4593 -49.3553 -49.3513 -49.0292 -49.0252 -42.3856 -42.3712
   -42.3662 -42.3517 -41.7423 -41.7274 -28.1096 -28.1044 -28.0306 -28.0117
   -28.0065 -28.0026 -27.9973 -27.9793 -27.9339 -27.9145 -27.9092 -27.8819
   -27.6367 -27.6312 -27.6191 -27.5892 -27.5840 -27.5668 -22.4143 -22.3931
   -22.3902 -22.3892 -22.3721 -22.3706 -22.3123 -22.2942 -22.2903 -22.2725
   -22.2067 -22.1889 -21.8119 -21.7146 -21.7013 -21.6945 -21.6801 -21.6243
    -2.7209  -2.0687  -1.7993  -1.3396  -1.2446  -0.6840  -0.6228  -0.3737
    -0.0288  -0.0111   0.2223   0.2223   0.4359   0.4564   0.5568   0.5925
     0.6990   0.7051   0.7879   0.8661   0.9337   0.9700   0.9827   1.0516
     1.1341   1.1369   1.1842   1.2726   1.3558   1.3796   1.4581   1.5467
     1.5492   1.7713   2.0749   2.0949   2.1538   2.1990   2.4887   2.5789
     2.6342   2.6853   2.7690   2.7807   2.8428   2.9599   3.0631   3.0715

          k =-0.0737 0.0949 0.0000 ( 26332 PWs)   bands (ev):

   -49.4648 -49.4578 -49.3568 -49.3498 -49.0307 -49.0237 -42.3909 -42.3715
   -42.3659 -42.3464 -41.7477 -41.7220 -28.1114 -28.1025 -28.0490 -28.0129
   -28.0045 -28.0040 -27.9953 -27.9602 -27.9526 -27.9157 -27.9066 -27.8625
   -27.6384 -27.6380 -27.6287 -27.5908 -27.5819 -27.5473 -22.4551 -22.4376
   -22.4231 -22.3965 -22.3862 -22.3633 -22.3223 -22.3039 -22.2842 -22.2663
   -22.1390 -22.1211 -21.8794 -21.7223 -21.7103 -21.6872 -21.6738 -21.5546
    -2.6978  -1.9639  -1.7819  -1.4651  -1.1356  -0.7505  -0.6610  -0.2881
    -0.1824  -0.0504   0.1460   0.3235   0.4354   0.4513   0.5243   0.6620
     0.6800   0.7124   0.8145   0.8935   0.9013   0.9550   1.0726   1.0971
     1.1536   1.1734   1.2034   1.2248   1.2851   1.4616   1.5162   1.6036
     1.6378   1.6865   2.0628   2.1986   2.2989   2.3539   2.4106   2.4255
     2.5366   2.6427   2.6857   2.7153   2.7943   2.8468   2.8847   2.9780

          k =-0.0737-0.0443 0.0000 ( 26314 PWs)   bands (ev):

   -49.4653 -49.4573 -49.3574 -49.3492 -49.0313 -49.0231 -42.3929 -42.3735
   -42.3640 -42.3445 -41.7497 -41.7200 -28.1121 -28.1018 -28.0557 -28.0132
   -28.0052 -28.0030 -27.9945 -27.9594 -27.9531 -27.9160 -27.9056 -27.8554
   -27.6448 -27.6390 -27.6278 -27.5914 -27.5811 -27.5401 -22.4791 -22.4616
   -22.4264 -22.3987 -22.3839 -22.3604 -22.3262 -22.3077 -22.2822 -22.2643
   -22.1140 -22.0961 -21.9040 -21.7252 -21.7137 -21.6845 -21.6717 -21.5289
    -2.4529  -2.4220  -1.6420  -1.4511  -0.8705  -0.7365  -0.5187  -0.4681
    -0.4028  -0.1240   0.2263   0.4272   0.4944   0.5270   0.5577   0.6561
     0.7117   0.7437   0.7728   0.7965   0.8695   0.9043   0.9084   1.1094
     1.1293   1.1918   1.2030   1.2382   1.3669   1.4435   1.6229   1.6488
     1.7230   1.7305   1.9965   2.1841   2.2259   2.3538   2.3703   2.4363
     2.5039   2.6477   2.6856   2.7625   2.7714   2.7786   2.8601   2.9218

     the Fermi energy is     0.7447 ev

!    total energy              =   -1130.90129180 Ry
     Harris-Foulkes estimate   =   -1130.90129245 Ry
     estimated scf accuracy    <       0.00000053 Ry

     The total energy is the sum of the following terms:

     one-electron contribution =   -6158.73868174 Ry
     hartree contribution      =    3066.28477872 Ry
     xc contribution           =    -252.54331598 Ry
     ewald contribution        =    2214.23772897 Ry
     electric field correction =       0.00000027 Ry
     smearing contrib. (-TS)   =      -0.14180204 Ry

     convergence has been achieved in  19 iterations
 
 BEEF-vdW xc energy contributions
           1 :   -218.295385262846     
           2 :    194.862939964975     
           3 :   -155.872525752618     
           4 :    112.755916664378     
           5 :   -74.9969890854318     
           6 :    46.8919659346968     
           7 :   -27.9410806137381     
           8 :    15.5894454214854     
           9 :   -7.86976175516145     
          10 :    4.28260990602072     
          11 :   -4.95916190480870     
          12 :    9.33470599876983     
          13 :   -15.5794391482752     
          14 :    21.1726690413588     
          15 :   -24.0767031576531     
          16 :    23.6001507037799     
          17 :   -20.4044187794404     
          18 :    15.8109436313404     
          19 :   -11.0306231342055     
          20 :    6.82475747977827     
          21 :   -3.62343430381074     
          22 :    1.74978881765463     
          23 :   -1.43881518824287     
          24 :    2.65479055453585     
          25 :   -4.94968252914413     
          26 :    7.55623977667960     
          27 :   -9.68444324006333     
          28 :    10.8202958416137     
          29 :   -10.8501915995253     
          30 :    9.98632122680598     
          31 :   -22.3989641678809     
          32 :   -15.6063398898884     

     Forces acting on atoms (Ry/au):


     negative rho (up, down):  6.150E-05 0.000E+00
     atom    1 type  1   force =     0.00290132    0.00174019    0.00780001
     atom    2 type  1   force =     0.00290208    0.00174527    0.00779765
     atom    3 type  2   force =    -0.00152488   -0.00091056    0.00086361
     atom    4 type  2   force =    -0.00152196   -0.00091940    0.00086561
     atom    5 type  1   force =     0.00040442    0.00024318   -0.00163706
     atom    6 type  1   force =     0.00040211    0.00024094   -0.00163902
     atom    7 type  2   force =     0.00024991    0.00014246   -0.00825432
     atom    8 type  2   force =     0.00024116    0.00015315   -0.00825335
     atom    9 type  1   force =    -0.00103082   -0.00061740    0.00019144
     atom   10 type  1   force =    -0.00103007   -0.00061978    0.00019950
     atom   11 type  2   force =    -0.00099320   -0.00060485    0.00103377
     atom   12 type  2   force =    -0.00100006   -0.00059319    0.00103216

     Total force =     0.017390     Total SCF correction =     0.002378
     SCF correction compared to forces is large: reduce conv_thr to get better values


     entering subroutine stress ...


     negative rho (up, down):  6.150E-05 0.000E+00
          total   stress  (Ry/bohr**3)                   (kbar)     P=   -2.02
  -0.00001175   0.00000466  -0.00000507         -1.73      0.69     -0.75
   0.00000466  -0.00001671  -0.00000304          0.69     -2.46     -0.45
  -0.00000507  -0.00000304  -0.00001275         -0.75     -0.45     -1.88

 !ASE

     Writing output data file calc.save
 
     init_run     :      6.50s CPU      9.86s WALL (       1 calls)
     electrons    :    221.72s CPU    321.04s WALL (       1 calls)
     forces       :      3.20s CPU      3.73s WALL (       1 calls)
     stress       :      9.88s CPU     10.70s WALL (       1 calls)

     Called by init_run:
     wfcinit      :      4.24s CPU      7.00s WALL (       1 calls)
     potinit      :      0.74s CPU      1.01s WALL (       1 calls)

     Called by electrons:
     c_bands      :    161.22s CPU    233.91s WALL (      19 calls)
     sum_band     :     29.65s CPU     42.43s WALL (      19 calls)
     v_of_rho     :      8.06s CPU     13.22s WALL (      20 calls)
     newd         :     10.02s CPU     10.42s WALL (      20 calls)
     mix_rho      :      0.36s CPU      0.52s WALL (      19 calls)
     vdW_energy   :      3.65s CPU      4.07s WALL (      56 calls)
     vdW_ffts     :      9.47s CPU     18.34s WALL (     114 calls)
     vdW_v        :      2.70s CPU      4.10s WALL (      56 calls)

     Called by c_bands:
     init_us_2    :      1.34s CPU      1.36s WALL (     820 calls)
     cegterg      :    153.24s CPU    225.49s WALL (     380 calls)

     Called by *egterg:
     h_psi        :     83.79s CPU    144.26s WALL (    1557 calls)
     s_psi        :      8.68s CPU      8.70s WALL (    1557 calls)
     g_psi        :      0.68s CPU      0.65s WALL (    1157 calls)
     cdiaghg      :     34.31s CPU     35.05s WALL (    1537 calls)

     Called by h_psi:
     add_vuspsi   :      8.87s CPU      8.91s WALL (    1557 calls)

     General routines
     calbec       :     13.36s CPU     15.59s WALL (    1977 calls)
     fft          :     14.52s CPU     28.33s WALL (    3423 calls)
     ffts         :      0.03s CPU      0.06s WALL (      39 calls)
     fftw         :     68.70s CPU    139.15s WALL (  203752 calls)
     interpolate  :      0.19s CPU      0.35s WALL (      39 calls)
     davcio       :      0.00s CPU      0.08s WALL (      20 calls)
 
     Parallel routines
     fft_scatter  :     52.26s CPU    134.71s WALL (  207214 calls)
 
     PWSCF        :  4m 1.83s CPU     5m46.44s WALL

 
   This run was terminated on:   6:17:41  19Dec2018            

=------------------------------------------------------------------------------=
   JOB DONE.
=------------------------------------------------------------------------------=
Job  /afs/slac/g/suncat/bin/suncat-tsmpirun -x LD_LIBRARY_PATH -wdir /scratch/qe530594_Ti6or pw.x -in pw.inp

TID   HOST_NAME   COMMAND_LINE            STATUS            TERMINATION_TIME
===== ========== ================  =======================  ===================
00000 suncat2054 pw.x -in pw.inp   Done                     12/19/2018 06:17:41
00001 suncat2054 pw.x -in pw.inp   Done                     12/19/2018 06:17:41
00002 suncat2054 pw.x -in pw.inp   Done                     12/19/2018 06:17:41
00003 suncat2054 pw.x -in pw.inp   Done                     12/19/2018 06:17:41
00004 suncat2054 pw.x -in pw.inp   Done                     12/19/2018 06:17:41
00005 suncat2054 pw.x -in pw.inp   Done                     12/19/2018 06:17:41
00006 suncat2054 pw.x -in pw.inp   Done                     12/19/2018 06:17:41
00007 suncat2054 pw.x -in pw.inp   Done                     12/19/2018 06:17:41
00008 suncat2054 pw.x -in pw.inp   Done                     12/19/2018 06:17:41
00009 suncat2054 pw.x -in pw.inp   Done                     12/19/2018 06:17:41
00010 suncat2054 pw.x -in pw.inp   Done                     12/19/2018 06:17:41
00011 suncat2054 pw.x -in pw.inp   Done                     12/19/2018 06:17:41
00012 suncat2054 pw.x -in pw.inp   Done                     12/19/2018 06:17:41
00013 suncat2054 pw.x -in pw.inp   Done                     12/19/2018 06:17:41
00014 suncat2054 pw.x -in pw.inp   Done                     12/19/2018 06:17:41
00015 suncat2054 pw.x -in pw.inp   Done                     12/19/2018 06:17:41
00016 suncat2053 pw.x -in pw.inp   Done                     12/19/2018 06:17:41
00017 suncat2053 pw.x -in pw.inp   Done                     12/19/2018 06:17:41
00018 suncat2053 pw.x -in pw.inp   Done                     12/19/2018 06:17:41
00019 suncat2053 pw.x -in pw.inp   Done                     12/19/2018 06:17:41
00020 suncat2053 pw.x -in pw.inp   Done                     12/19/2018 06:17:41
00021 suncat2053 pw.x -in pw.inp   Done                     12/19/2018 06:17:41
00022 suncat2053 pw.x -in pw.inp   Done                     12/19/2018 06:17:41
00023 suncat2053 pw.x -in pw.inp   Done                     12/19/2018 06:17:41
00024 suncat2053 pw.x -in pw.inp   Done                     12/19/2018 06:17:41
00025 suncat2053 pw.x -in pw.inp   Done                     12/19/2018 06:17:41
00026 suncat2053 pw.x -in pw.inp   Done                     12/19/2018 06:17:41
00027 suncat2053 pw.x -in pw.inp   Done                     12/19/2018 06:17:41
00028 suncat2053 pw.x -in pw.inp   Done                     12/19/2018 06:17:41
00029 suncat2053 pw.x -in pw.inp   Done                     12/19/2018 06:17:41
00030 suncat2053 pw.x -in pw.inp   Done                     12/19/2018 06:17:41
00031 suncat2053 pw.x -in pw.inp   Done                     12/19/2018 06:17:41
