  python dir          : /u/if/mamunm/src/espresso
  espresso dir        : /nfs/slac/g/suncatfs/sw/espv18/espresso-dynpy-beef/bin
  pseudo dir          : /afs/slac.stanford.edu/u/if/mamunm/psp/gbrv1.5pbe
  ase-espresso py git : GITVERSION



     Program PWSCF v.5.1rc2 (svn rev. 11289) starts on  1Jan2019 at 13: 6:38 

     This program is part of the open-source Quantum ESPRESSO suite
     for quantum simulation of materials; please cite
         "P. Giannozzi et al., J. Phys.:Condens. Matter 21 395502 (2009);
          URL http://www.quantum-espresso.org", 
     in publications or presentations arising from this work. More details at
     http://www.quantum-espresso.org/quote

     Parallel version (MPI), running on    64 processors
     R & G space division:  proc/nbgrp/npool/nimage =      64
     Reading input from pw.inp
     Message from routine read_cards :
     DEPRECATED: no units specified in CELL_PARAMETERS card

     Current dimensions of program PWSCF are:
     Max number of different atomic species (ntypx) = 10
     Max number of k-points (npk) =  40000
     Max angular momentum in pseudopotentials (lmaxx) =  3
     Presently stress not available with electric field


     **************************************************************************
     Initializing libbeef V0.1.1 with the BEEF-vdW functional.
     Citation: Wellendorff et al., PRB 85, 235149 (2012).
     **************************************************************************


     IMPORTANT: XC functional enforced from input :
     Exchange-correlation      = BEEF-VDW ( 1  4 27 13 2)
     Any further DFT definition will be discarded
     Please, verify this is what you really want


     Subspace diagonalization in iterative solution of the eigenvalue problem:
     a serial algorithm will be used

 
     Parallelization info
     --------------------
     sticks:   dense  smooth     PW     G-vecs:    dense   smooth      PW
     Min          56      22      6                10842     2722     430
     Max          57      23      8                10858     2779     451
     Sum        3595    1417    433               694663   175539   28227
 


     bravais-lattice index     =            0
     lattice parameter (alat)  =       1.8897  a.u.
     unit-cell volume          =    5838.8734 (a.u.)^3
     number of atoms/cell      =           12
     number of atomic types    =            2
     number of electrons       =       174.00
     number of Kohn-Sham states=          117
     kinetic-energy cutoff     =      36.7493  Ry
     charge density cutoff     =     367.4932  Ry
     convergence threshold     =      1.0E-06
     mixing beta               =       0.1000
     number of iterations used =           10  plain     mixing
     Exchange-correlation      = BEEF-VDW ( 1  4 27 13 2)
     nstep                     =           50


     celldm(1)=   1.889726  celldm(2)=   0.000000  celldm(3)=   0.000000
     celldm(4)=   0.000000  celldm(5)=   0.000000  celldm(6)=   0.000000

     crystal axes: (cart. coord. in units of alat)
               a(1) = (   6.303209   0.000000   0.000000 )  
               a(2) = (  -3.151605   5.458739   0.000000 )  
               a(3) = (   0.000000   0.000000  25.146549 )  

     reciprocal axes: (cart. coord. in units 2 pi/alat)
               b(1) = (  0.158649  0.091596  0.000000 )  
               b(2) = (  0.000000  0.183192  0.000000 )  
               b(3) = (  0.000000  0.000000  0.039767 )  


     PseudoPot. # 1 for Sn read from file:
     /afs/slac.stanford.edu/u/if/mamunm/psp/gbrv1.5pbe/Sn.UPF
     MD5 check sum: 469debedee59599fedebd795477fea03
     Pseudo is Ultrasoft + core correction, Zval = 14.0
     Generated by new atomic code, or converted to UPF format
     Using radial grid of  891 points,  6 beta functions with: 
                l(1) =   0
                l(2) =   0
                l(3) =   1
                l(4) =   1
                l(5) =   2
                l(6) =   2
     Q(r) pseudized with  8 coefficients,  rinner =    1.350   1.350   1.350
                                                       1.350   1.350

     PseudoPot. # 2 for Os read from file:
     /afs/slac.stanford.edu/u/if/mamunm/psp/gbrv1.5pbe/Os.UPF
     MD5 check sum: a3fb40a04f0c37c25c34bbc47164c9a8
     Pseudo is Ultrasoft + core correction, Zval = 16.0
     Generated by new atomic code, or converted to UPF format
     Using radial grid of  983 points,  8 beta functions with: 
                l(1) =   0
                l(2) =   0
                l(3) =   1
                l(4) =   1
                l(5) =   2
                l(6) =   2
                l(7) =   3
                l(8) =   3
     Q(r) pseudized with  8 coefficients,  rinner =    1.150   1.150   1.150
                                                       1.150   1.150   1.150
                                                       1.150

     vdW kernel table read from file vdW_kernel_table
     MD5 check sum: 095c7af220d748ca6e76c0b4c6cfb241

     atomic species   valence    mass     pseudopotential
        Sn1           14.00   118.71000     Sn( 1.00)
        Os1           16.00   190.23000     Os( 1.00)

     No symmetry found



   Cartesian axes

     site n.     atom                  positions (alat units)
         1           Sn1 tau(   1) = (   0.0000000   0.0000000  10.0000000  )
         2           Sn1 tau(   2) = (  -1.5758023   2.7293696  10.0000000  )
         3           Sn1 tau(   3) = (   1.5758023   2.7293696  10.0000000  )
         4           Os1 tau(   4) = (   3.1516046   0.0000000  10.0000000  )
         5           Sn1 tau(   5) = (   3.1516046   1.8195798  12.5732744  )
         6           Sn1 tau(   6) = (   1.5758023   4.5489494  12.5732744  )
         7           Sn1 tau(   7) = (  -1.5758023   4.5489494  12.5732744  )
         8           Os1 tau(   8) = (   0.0000000   1.8195798  12.5732744  )
         9           Sn1 tau(   9) = (  -0.0000000   3.6391595  15.1465487  )
        10           Sn1 tau(  10) = (   1.5758023   0.9097899  15.1465487  )
        11           Sn1 tau(  11) = (   4.7274069   0.9097899  15.1465487  )
        12           Os1 tau(  12) = (   3.1516046   3.6391595  15.1465487  )

     number of k points=    20  Fermi-Dirac smearing, width (Ry)=  0.0110
                       cart. coord. in units 2pi/alat
        k(    1) = (   0.0000000   0.0000000   0.0000000), wk =   0.0555556
        k(    2) = (   0.0000000   0.0305321   0.0000000), wk =   0.1111111
        k(    3) = (   0.0000000   0.0610642   0.0000000), wk =   0.1111111
        k(    4) = (   0.0000000  -0.0915962   0.0000000), wk =   0.0555556
        k(    5) = (   0.0264416   0.0152660   0.0000000), wk =   0.1111111
        k(    6) = (   0.0264416   0.0457981   0.0000000), wk =   0.1111111
        k(    7) = (   0.0264416   0.0763302   0.0000000), wk =   0.1111111
        k(    8) = (   0.0264416  -0.0763302   0.0000000), wk =   0.1111111
        k(    9) = (   0.0264416  -0.0457981   0.0000000), wk =   0.1111111
        k(   10) = (   0.0264416  -0.0152660   0.0000000), wk =   0.1111111
        k(   11) = (   0.0528831   0.0305321   0.0000000), wk =   0.1111111
        k(   12) = (   0.0528831   0.0610642   0.0000000), wk =   0.1111111
        k(   13) = (   0.0528831   0.0915962   0.0000000), wk =   0.1111111
        k(   14) = (   0.0528831  -0.0610642   0.0000000), wk =   0.1111111
        k(   15) = (   0.0528831  -0.0305321   0.0000000), wk =   0.1111111
        k(   16) = (   0.0528831   0.0000000   0.0000000), wk =   0.1111111
        k(   17) = (  -0.0793247  -0.0457981   0.0000000), wk =   0.0555556
        k(   18) = (  -0.0793247  -0.0152660   0.0000000), wk =   0.1111111
        k(   19) = (  -0.0793247   0.0152660   0.0000000), wk =   0.1111111
        k(   20) = (  -0.0793247  -0.1373944   0.0000000), wk =   0.0555556

     Dense  grid:   694663 G-vectors     FFT dimensions: (  75,  75, 300)

     Smooth grid:   175539 G-vectors     FFT dimensions: (  45,  45, 192)

     Largest allocated arrays     est. size (Mb)     dimensions
        Kohn-Sham Wavefunctions         0.62 Mb     (     347,  117)
        NL pseudopotentials             1.37 Mb     (     347,  258)
        Each V/rho on FFT grid          0.43 Mb     (   28125)
        Each G-vector array             0.08 Mb     (   10858)
        G-vector shells                 0.04 Mb     (    5457)
     Largest temporary arrays     est. size (Mb)     dimensions
        Auxiliary wavefunctions         2.48 Mb     (     347,  468)
        Each subspace H/S matrix        3.34 Mb     (     468,  468)
        Each <psi_i|beta_j> matrix      0.46 Mb     (     258,  117)
        Arrays for rho mixing           4.29 Mb     (   28125,   10)

     Initial potential from superposition of free atoms
     Check: negative starting charge=   -0.376599

     starting charge  163.49948, renormalised to  174.00000

     negative rho (up, down):  4.008E-01 0.000E+00


     ************************************************************************
     *
     * You are using vdW-DF for exchange-correlation in this calculation.
     * Please cite the following three references that made this development
     * possible:
     *
     *   M. Dion, H. Rydberg, E. Schroder, D. C. Langreth, and
     *   B. I. Lundqvist, Phys. Rev. Lett. 92, 246401 (2004).
     *
     *   T. Thonhauser, V. R. Cooper, S. Li, A. Puzder, P. Hyldgaard, and
     *   D. C. Langreth, Phys. Rev. B 76, 125112 (2007).
     *
     *   G. Roman-Perez and J. M. Soler, Phys. Rev. Lett. 103, 096102 (2009).
     *
     *
     * If you are using vdW-DF2, please also cite:
     *
     *   K. Lee, E. D. Murray, L. Kong, B. I. Lundqvist, and
     *   D. C. Langreth, Phys. Rev. B 82, 081101(R) (2010).
     *
     *
     * If you are calculating the stress with vdW-DF, please also cite:
     *
     *   R. Sabatini, E. Kucukbenli, B. Kolb, T. Thonhauser, and
     *   S. de Gironcoli, J. Phys.: Condens. Matter 24, 424209 (2012).
     *
     ************************************************************************

     Carrying out vdW-DF run using the following parameters:

     Nqs =      20    Nr_points =    1024   r_max =   100.000
     q_mesh =
               0.00001000     0.04494208     0.09755937     0.15916263
               0.23128650     0.31572767     0.41458969     0.53033537
               0.66584808     0.82450364     1.01025438     1.22772762
               1.48234092     1.78043706     2.12944203     2.53805004
               3.01644009     3.57652955     4.23227104     5.00000000

     Gradients computed in reciprocal space

     ************************************************************************


 
     Adding external electric field

     Computed dipole along edir(3) : 
        Dipole                0.0000 Ry au,          0.0000 Debye
        Dipole field          0.0000 Ry au
 
        Potential amp.       -0.0000 Ry
        Total length         46.3321 bohr
 
     Starting wfc are  120 randomized atomic wfcs

     total cpu time spent up to now is       27.9 secs

     per-process dynamical memory:    45.5 Mb

     Self-consistent Calculation

     iteration #  1     ecut=    36.75 Ry     beta=0.10
     Davidson diagonalization with overlap
     ethr =  1.00E-02,  avg # of iterations =  8.1

     negative rho (up, down):  4.010E-01 0.000E+00
 
     Adding external electric field

     Computed dipole along edir(3) : 
        Dipole               -0.0102 Ry au,         -0.0258 Debye
        Dipole field         -0.0000 Ry au
 
        Potential amp.        0.0020 Ry
        Total length         46.3321 bohr
 

     total cpu time spent up to now is      163.1 secs

     total energy              =   -2046.71891881 Ry
     Harris-Foulkes estimate   =   -2048.73902327 Ry
     estimated scf accuracy    <      12.00320815 Ry

     iteration #  2     ecut=    36.75 Ry     beta=0.10
     Davidson diagonalization with overlap
     ethr =  6.90E-03,  avg # of iterations =  1.0

     negative rho (up, down):  3.949E-01 0.000E+00
 
     Adding external electric field

     Computed dipole along edir(3) : 
        Dipole                0.0102 Ry au,          0.0258 Debye
        Dipole field          0.0000 Ry au
 
        Potential amp.       -0.0020 Ry
        Total length         46.3321 bohr
 

     total cpu time spent up to now is      235.3 secs

     total energy              =   -2046.13393443 Ry
     Harris-Foulkes estimate   =   -2047.18220007 Ry
     estimated scf accuracy    <       5.05260146 Ry

     iteration #  3     ecut=    36.75 Ry     beta=0.10
     Davidson diagonalization with overlap
     ethr =  2.90E-03,  avg # of iterations =  1.0

     negative rho (up, down):  3.845E-01 0.000E+00
 
     Adding external electric field

     Computed dipole along edir(3) : 
        Dipole               -0.1395 Ry au,         -0.3546 Debye
        Dipole field         -0.0003 Ry au
 
        Potential amp.        0.0278 Ry
        Total length         46.3321 bohr
 

     total cpu time spent up to now is      298.9 secs

     total energy              =   -2045.22120375 Ry
     Harris-Foulkes estimate   =   -2046.24195817 Ry
     estimated scf accuracy    <       2.98043415 Ry

     iteration #  4     ecut=    36.75 Ry     beta=0.10
     Davidson diagonalization with overlap
     ethr =  1.71E-03,  avg # of iterations =  3.4

     negative rho (up, down):  3.752E-01 0.000E+00
 
     Adding external electric field

     Computed dipole along edir(3) : 
        Dipole                0.5250 Ry au,          1.3344 Debye
        Dipole field          0.0011 Ry au
 
        Potential amp.       -0.1047 Ry
        Total length         46.3321 bohr
 

     total cpu time spent up to now is      371.2 secs

     total energy              =   -2044.87260370 Ry
     Harris-Foulkes estimate   =   -2045.42614733 Ry
     estimated scf accuracy    <       2.29115643 Ry

     iteration #  5     ecut=    36.75 Ry     beta=0.10
     Davidson diagonalization with overlap
     ethr =  1.32E-03,  avg # of iterations =  5.4

     negative rho (up, down):  3.706E-01 0.000E+00
 
     Adding external electric field

     Computed dipole along edir(3) : 
        Dipole                0.0059 Ry au,          0.0151 Debye
        Dipole field          0.0000 Ry au
 
        Potential amp.       -0.0012 Ry
        Total length         46.3321 bohr
 

     total cpu time spent up to now is      451.1 secs

     total energy              =   -2044.88374333 Ry
     Harris-Foulkes estimate   =   -2045.29415381 Ry
     estimated scf accuracy    <      11.72053926 Ry

     iteration #  6     ecut=    36.75 Ry     beta=0.10
     Davidson diagonalization with overlap
     ethr =  1.32E-03,  avg # of iterations =  2.0

     negative rho (up, down):  3.619E-01 0.000E+00
 
     Adding external electric field

     Computed dipole along edir(3) : 
        Dipole               -0.0263 Ry au,         -0.0667 Debye
        Dipole field         -0.0001 Ry au
 
        Potential amp.        0.0052 Ry
        Total length         46.3321 bohr
 

     total cpu time spent up to now is      525.3 secs

     total energy              =   -2045.08305527 Ry
     Harris-Foulkes estimate   =   -2045.10582495 Ry
     estimated scf accuracy    <       0.09638005 Ry

     iteration #  7     ecut=    36.75 Ry     beta=0.10
     Davidson diagonalization with overlap
     ethr =  5.54E-05,  avg # of iterations =  8.1

     negative rho (up, down):  3.596E-01 0.000E+00
 
     Adding external electric field

     Computed dipole along edir(3) : 
        Dipole               -0.0171 Ry au,         -0.0435 Debye
        Dipole field         -0.0000 Ry au
 
        Potential amp.        0.0034 Ry
        Total length         46.3321 bohr
 

     total cpu time spent up to now is      627.1 secs

     total energy              =   -2045.09796583 Ry
     Harris-Foulkes estimate   =   -2045.10384217 Ry
     estimated scf accuracy    <       0.21908536 Ry

     iteration #  8     ecut=    36.75 Ry     beta=0.10
     Davidson diagonalization with overlap
     ethr =  5.54E-05,  avg # of iterations =  1.0

     negative rho (up, down):  3.540E-01 0.000E+00
 
     Adding external electric field

     Computed dipole along edir(3) : 
        Dipole               -0.0058 Ry au,         -0.0147 Debye
        Dipole field         -0.0000 Ry au
 
        Potential amp.        0.0012 Ry
        Total length         46.3321 bohr
 

     total cpu time spent up to now is      692.7 secs

     total energy              =   -2045.09287659 Ry
     Harris-Foulkes estimate   =   -2045.09947547 Ry
     estimated scf accuracy    <       0.09762471 Ry

     iteration #  9     ecut=    36.75 Ry     beta=0.10
     Davidson diagonalization with overlap
     ethr =  5.54E-05,  avg # of iterations =  1.0

     negative rho (up, down):  3.506E-01 0.000E+00
 
     Adding external electric field

     Computed dipole along edir(3) : 
        Dipole               -0.0045 Ry au,         -0.0113 Debye
        Dipole field         -0.0000 Ry au
 
        Potential amp.        0.0009 Ry
        Total length         46.3321 bohr
 

     total cpu time spent up to now is      752.9 secs

     total energy              =   -2045.09311490 Ry
     Harris-Foulkes estimate   =   -2045.09444177 Ry
     estimated scf accuracy    <       0.01979537 Ry

     iteration # 10     ecut=    36.75 Ry     beta=0.10
     Davidson diagonalization with overlap
     ethr =  1.14E-05,  avg # of iterations =  4.0

     negative rho (up, down):  3.464E-01 0.000E+00
 
     Adding external electric field

     Computed dipole along edir(3) : 
        Dipole               -0.0009 Ry au,         -0.0024 Debye
        Dipole field         -0.0000 Ry au
 
        Potential amp.        0.0002 Ry
        Total length         46.3321 bohr
 

     total cpu time spent up to now is      824.7 secs

     total energy              =   -2045.09271611 Ry
     Harris-Foulkes estimate   =   -2045.09346495 Ry
     estimated scf accuracy    <       0.00566476 Ry

     iteration # 11     ecut=    36.75 Ry     beta=0.10
     Davidson diagonalization with overlap
     ethr =  3.26E-06,  avg # of iterations =  5.2

     negative rho (up, down):  3.462E-01 0.000E+00
 
     Adding external electric field

     Computed dipole along edir(3) : 
        Dipole               -0.0007 Ry au,         -0.0018 Debye
        Dipole field         -0.0000 Ry au
 
        Potential amp.        0.0001 Ry
        Total length         46.3321 bohr
 

     total cpu time spent up to now is      902.1 secs

     total energy              =   -2045.09294130 Ry
     Harris-Foulkes estimate   =   -2045.09298587 Ry
     estimated scf accuracy    <       0.00033486 Ry

     iteration # 12     ecut=    36.75 Ry     beta=0.10
     Davidson diagonalization with overlap
     ethr =  1.92E-07,  avg # of iterations =  2.0

     negative rho (up, down):  3.459E-01 0.000E+00
 
     Adding external electric field

     Computed dipole along edir(3) : 
        Dipole                0.0003 Ry au,          0.0007 Debye
        Dipole field          0.0000 Ry au
 
        Potential amp.       -0.0001 Ry
        Total length         46.3321 bohr
 

     total cpu time spent up to now is      970.1 secs

     total energy              =   -2045.09298088 Ry
     Harris-Foulkes estimate   =   -2045.09299216 Ry
     estimated scf accuracy    <       0.00022595 Ry

     iteration # 13     ecut=    36.75 Ry     beta=0.10
     Davidson diagonalization with overlap
     ethr =  1.30E-07,  avg # of iterations =  1.0

     negative rho (up, down):  3.455E-01 0.000E+00
 
     Adding external electric field

     Computed dipole along edir(3) : 
        Dipole               -0.0001 Ry au,         -0.0002 Debye
        Dipole field         -0.0000 Ry au
 
        Potential amp.        0.0000 Ry
        Total length         46.3321 bohr
 

     total cpu time spent up to now is     1035.4 secs

     total energy              =   -2045.09298746 Ry
     Harris-Foulkes estimate   =   -2045.09301352 Ry
     estimated scf accuracy    <       0.00040017 Ry

     iteration # 14     ecut=    36.75 Ry     beta=0.10
     Davidson diagonalization with overlap
     ethr =  1.30E-07,  avg # of iterations =  1.0

     negative rho (up, down):  3.454E-01 0.000E+00
 
     Adding external electric field

     Computed dipole along edir(3) : 
        Dipole                0.0002 Ry au,          0.0005 Debye
        Dipole field          0.0000 Ry au
 
        Potential amp.       -0.0000 Ry
        Total length         46.3321 bohr
 

     total cpu time spent up to now is     1099.4 secs

     total energy              =   -2045.09300481 Ry
     Harris-Foulkes estimate   =   -2045.09300530 Ry
     estimated scf accuracy    <       0.00001491 Ry

     iteration # 15     ecut=    36.75 Ry     beta=0.10
     Davidson diagonalization with overlap
     ethr =  8.57E-09,  avg # of iterations =  2.8

     negative rho (up, down):  3.454E-01 0.000E+00
 
     Adding external electric field

     Computed dipole along edir(3) : 
        Dipole                0.0000 Ry au,          0.0000 Debye
        Dipole field          0.0000 Ry au
 
        Potential amp.       -0.0000 Ry
        Total length         46.3321 bohr
 

     total cpu time spent up to now is     1178.2 secs

     total energy              =   -2045.09300731 Ry
     Harris-Foulkes estimate   =   -2045.09300873 Ry
     estimated scf accuracy    <       0.00000911 Ry

     iteration # 16     ecut=    36.75 Ry     beta=0.10
     Davidson diagonalization with overlap
     ethr =  5.23E-09,  avg # of iterations =  2.0

     negative rho (up, down):  3.453E-01 0.000E+00
 
     Adding external electric field

     Computed dipole along edir(3) : 
        Dipole               -0.0000 Ry au,         -0.0000 Debye
        Dipole field         -0.0000 Ry au
 
        Potential amp.        0.0000 Ry
        Total length         46.3321 bohr
 

     total cpu time spent up to now is     1252.1 secs

     total energy              =   -2045.09300909 Ry
     Harris-Foulkes estimate   =   -2045.09300832 Ry
     estimated scf accuracy    <       0.00000139 Ry

     iteration # 17     ecut=    36.75 Ry     beta=0.10
     Davidson diagonalization with overlap
     ethr =  7.98E-10,  avg # of iterations =  2.0

     negative rho (up, down):  3.452E-01 0.000E+00

     negative rho (up, down):  3.452E-01 0.000E+00

     negative rho (up, down):  3.452E-01 0.000E+00

     negative rho (up, down):  3.452E-01 0.000E+00

     negative rho (up, down):  3.452E-01 0.000E+00

     negative rho (up, down):  3.452E-01 0.000E+00

     negative rho (up, down):  3.452E-01 0.000E+00

     negative rho (up, down):  3.452E-01 0.000E+00

     negative rho (up, down):  3.452E-01 0.000E+00

     negative rho (up, down):  3.452E-01 0.000E+00

     negative rho (up, down):  3.452E-01 0.000E+00

     negative rho (up, down):  3.452E-01 0.000E+00

     negative rho (up, down):  3.452E-01 0.000E+00

     negative rho (up, down):  3.452E-01 0.000E+00

     negative rho (up, down):  3.452E-01 0.000E+00

     negative rho (up, down):  3.452E-01 0.000E+00

     negative rho (up, down):  3.452E-01 0.000E+00

     negative rho (up, down):  3.452E-01 0.000E+00

     negative rho (up, down):  3.452E-01 0.000E+00

     negative rho (up, down):  3.452E-01 0.000E+00

     negative rho (up, down):  3.452E-01 0.000E+00

     negative rho (up, down):  3.452E-01 0.000E+00

     negative rho (up, down):  3.452E-01 0.000E+00

     negative rho (up, down):  3.452E-01 0.000E+00

     negative rho (up, down):  3.452E-01 0.000E+00

     negative rho (up, down):  3.452E-01 0.000E+00

     negative rho (up, down):  3.452E-01 0.000E+00

     negative rho (up, down):  3.452E-01 0.000E+00

     negative rho (up, down):  3.452E-01 0.000E+00

     negative rho (up, down):  3.452E-01 0.000E+00

     negative rho (up, down):  3.452E-01 0.000E+00

     negative rho (up, down):  3.452E-01 0.000E+00

     negative rho (up, down):  3.452E-01 0.000E+00

     negative rho (up, down):  3.452E-01 0.000E+00

     negative rho (up, down):  3.452E-01 0.000E+00
 
     Adding external electric field

     Computed dipole along edir(3) : 
        Dipole                0.0007 Ry au,          0.0017 Debye
        Dipole field          0.0000 Ry au
 
        Potential amp.       -0.0001 Ry
        Total length         46.3321 bohr
 

     total cpu time spent up to now is     1387.5 secs

     End of self-consistent calculation

          k = 0.0000 0.0000 0.0000 ( 22027 PWs)   bands (ev):

   -84.3528 -84.1508 -84.1506 -43.6876 -43.6876 -43.6100 -43.5185 -43.5185
   -43.5184 -43.5184 -43.3780 -43.3778 -20.9138 -20.8824 -20.8824 -20.8630
   -20.8148 -20.8067 -20.7784 -20.7784 -20.7614 -20.7614 -20.7574 -20.7574
   -20.7235 -20.7202 -20.7199 -20.6953 -20.6953 -20.6687 -20.6687 -20.6657
   -20.6481 -20.6481 -20.6265 -20.6224 -20.6224 -20.6062 -20.5999 -20.5999
   -20.5897 -20.5897 -20.5735 -20.5601 -20.5601 -20.5500 -20.5500 -20.5436
   -20.5399 -20.5399 -20.5357 -20.5357 -20.5112 -20.5112 -20.5082 -20.4510
   -20.4507  -9.9001  -8.4852  -6.6536  -5.6539  -5.6539  -4.8905  -4.8905
    -3.8899  -3.8899  -3.7381  -3.1247  -2.5026  -2.1780  -2.1780  -1.8479
    -0.7681  -0.7681  -0.7588  -0.7588  -0.6752   0.1856   0.1856   0.2668
     0.2668   0.4099   0.6646   0.6646   0.8356   0.8611   1.1321   1.1321
     1.1484   1.1484   1.4661   1.5753   1.5753   1.6930   2.9326   3.8291
     3.8291   3.9537   3.9537   4.4235   4.6638   4.7752   4.8284   5.3182
     5.9419   5.9419   6.0019   6.0326   6.3047   6.8074   6.8074   7.0359
     7.4853   7.7348   7.7348   8.1175   8.1560

          k = 0.0000 0.0305 0.0000 ( 21998 PWs)   bands (ev):

   -84.3528 -84.1508 -84.1506 -43.6876 -43.6876 -43.6100 -43.5185 -43.5185
   -43.5184 -43.5184 -43.3779 -43.3778 -20.9018 -20.8780 -20.8664 -20.8558
   -20.8029 -20.7954 -20.7800 -20.7736 -20.7586 -20.7519 -20.7498 -20.7419
   -20.7232 -20.7197 -20.7140 -20.6953 -20.6890 -20.6774 -20.6697 -20.6627
   -20.6477 -20.6416 -20.6311 -20.6231 -20.6196 -20.6071 -20.6034 -20.6032
   -20.5921 -20.5903 -20.5744 -20.5675 -20.5662 -20.5549 -20.5538 -20.5529
   -20.5499 -20.5434 -20.5434 -20.5333 -20.5257 -20.5146 -20.5111 -20.4651
   -20.4648  -9.7553  -8.3608  -6.6168  -6.2966  -5.8117  -5.4377  -4.8428
    -4.4385  -3.7439  -3.0977  -2.5880  -2.3432  -2.1423  -2.0019  -1.6063
    -1.4594  -0.9719  -0.8422  -0.6492  -0.2938  -0.1887  -0.0177   0.2724
     0.3989   0.5070   0.6634   0.7393   0.9604   1.0123   1.0653   1.2121
     1.2775   1.3363   1.7578   1.7681   2.1667   2.6387   3.0792   3.3129
     3.6337   3.6592   4.0183   4.5114   4.8538   4.8890   4.9811   5.2971
     5.5016   5.6863   5.8800   6.1750   6.2166   6.3175   6.7126   6.7191
     7.2048   7.4864   7.5043   7.6058   7.6213

          k = 0.0000 0.0611 0.0000 ( 21976 PWs)   bands (ev):

   -84.3528 -84.1508 -84.1506 -43.6877 -43.6876 -43.6100 -43.5186 -43.5185
   -43.5185 -43.5184 -43.3779 -43.3778 -20.8886 -20.8492 -20.8364 -20.8250
   -20.7957 -20.7807 -20.7763 -20.7676 -20.7427 -20.7382 -20.7269 -20.7245
   -20.7188 -20.7004 -20.6954 -20.6922 -20.6799 -20.6791 -20.6583 -20.6548
   -20.6505 -20.6452 -20.6301 -20.6261 -20.6240 -20.6139 -20.6104 -20.6030
   -20.5988 -20.5960 -20.5928 -20.5911 -20.5766 -20.5754 -20.5690 -20.5685
   -20.5655 -20.5522 -20.5510 -20.5465 -20.5356 -20.5326 -20.5210 -20.4905
   -20.4886  -9.3308  -8.1026  -7.3510  -6.3928  -6.1557  -6.0288  -5.1108
    -4.8692  -3.3727  -3.3469  -2.6958  -2.1010  -1.6468  -1.5872  -1.2502
    -1.1292  -0.8943  -0.7044  -0.6794  -0.3641  -0.2276   0.2479   0.4213
     0.5360   0.6188   0.7605   0.8338   0.9023   1.0620   1.0783   1.3121
     1.5224   1.7830   1.9589   2.1935   2.4500   3.0201   3.1993   3.5060
     3.6767   4.0042   4.2206   4.3162   4.5663   4.6487   4.8395   5.0181
     5.2892   5.3438   5.5011   5.8336   6.1169   6.2349   6.4857   6.5936
     6.6857   6.7979   7.0463   7.5506   7.6888

          k = 0.0000-0.0916 0.0000 ( 21900 PWs)   bands (ev):

   -84.3528 -84.1508 -84.1506 -43.6877 -43.6876 -43.6100 -43.5186 -43.5185
   -43.5185 -43.5184 -43.3779 -43.3778 -20.8861 -20.8254 -20.8072 -20.8063
   -20.7834 -20.7782 -20.7734 -20.7729 -20.7604 -20.7595 -20.7112 -20.6928
   -20.6916 -20.6906 -20.6782 -20.6780 -20.6685 -20.6652 -20.6628 -20.6571
   -20.6452 -20.6447 -20.6345 -20.6343 -20.6243 -20.6242 -20.6182 -20.6136
   -20.6062 -20.6057 -20.5964 -20.5903 -20.5903 -20.5895 -20.5865 -20.5833
   -20.5762 -20.5631 -20.5515 -20.5475 -20.5461 -20.5453 -20.5261 -20.4963
   -20.4960  -8.7913  -8.4808  -7.1579  -7.1137  -6.1135  -5.9885  -5.4211
    -4.9020  -3.5755  -3.1600  -3.0460  -2.1641  -1.4716  -1.2713  -1.0576
    -1.0001  -0.9888  -0.5227  -0.4275   0.0410   0.1276   0.1798   0.5800
     0.5815   0.6078   0.8171   0.8864   0.9428   0.9525   1.2339   1.5384
     1.7176   1.8222   2.1341   2.3978   2.4323   2.5966   2.6297   3.3035
     3.3354   3.5827   4.0706   4.2212   4.6777   4.9402   5.2970   5.4289
     5.4660   5.6612   5.7207   6.1067   6.1818   6.2319   6.4436   6.6669
     6.6850   6.8295   6.9302   7.1725   7.1893

          k = 0.0264 0.0153 0.0000 ( 21998 PWs)   bands (ev):

   -84.3528 -84.1508 -84.1506 -43.6876 -43.6876 -43.6100 -43.5185 -43.5185
   -43.5184 -43.5184 -43.3779 -43.3778 -20.9018 -20.8780 -20.8664 -20.8558
   -20.8029 -20.7955 -20.7800 -20.7736 -20.7586 -20.7519 -20.7498 -20.7419
   -20.7232 -20.7197 -20.7140 -20.6953 -20.6890 -20.6774 -20.6697 -20.6627
   -20.6477 -20.6416 -20.6311 -20.6231 -20.6196 -20.6071 -20.6034 -20.6032
   -20.5921 -20.5903 -20.5744 -20.5675 -20.5662 -20.5549 -20.5538 -20.5529
   -20.5499 -20.5434 -20.5434 -20.5333 -20.5257 -20.5146 -20.5111 -20.4651
   -20.4648  -9.7553  -8.3608  -6.6168  -6.2966  -5.8117  -5.4377  -4.8428
    -4.4385  -3.7439  -3.0977  -2.5880  -2.3432  -2.1423  -2.0019  -1.6063
    -1.4594  -0.9719  -0.8422  -0.6492  -0.2938  -0.1887  -0.0177   0.2724
     0.3989   0.5070   0.6634   0.7393   0.9604   1.0123   1.0653   1.2121
     1.2775   1.3363   1.7578   1.7681   2.1667   2.6387   3.0792   3.3129
     3.6337   3.6592   4.0183   4.5114   4.8538   4.8889   4.9811   5.2971
     5.5016   5.6863   5.8800   6.1750   6.2166   6.3176   6.7126   6.7190
     7.2048   7.4864   7.5043   7.6058   7.6213

          k = 0.0264 0.0458 0.0000 ( 22021 PWs)   bands (ev):

   -84.3528 -84.1508 -84.1506 -43.6877 -43.6876 -43.6100 -43.5186 -43.5185
   -43.5184 -43.5184 -43.3779 -43.3778 -20.8813 -20.8724 -20.8435 -20.8331
   -20.7906 -20.7792 -20.7776 -20.7680 -20.7540 -20.7439 -20.7396 -20.7237
   -20.7180 -20.7040 -20.7026 -20.6988 -20.6804 -20.6791 -20.6697 -20.6544
   -20.6475 -20.6410 -20.6346 -20.6255 -20.6190 -20.6114 -20.6093 -20.6007
   -20.5963 -20.5935 -20.5893 -20.5877 -20.5757 -20.5668 -20.5647 -20.5631
   -20.5569 -20.5498 -20.5493 -20.5406 -20.5377 -20.5191 -20.5167 -20.4886
   -20.4883  -9.4701  -8.1464  -6.9207  -6.7938  -6.0774  -5.5451  -5.4587
    -4.3273  -3.9987  -2.7830  -2.4753  -2.2019  -1.8161  -1.5863  -1.5370
    -1.3839  -1.0457  -0.6341  -0.4926  -0.2887  -0.2568   0.0628   0.1406
     0.5126   0.5582   0.6297   0.6355   0.8125   0.8858   1.1720   1.3541
     1.5787   1.9596   1.9641   2.4055   2.6247   2.6965   3.1170   3.5235
     3.6957   4.0381   4.1778   4.2001   4.3653   4.8506   5.1188   5.2572
     5.3500   5.5084   5.5989   5.6772   6.0060   6.1973   6.5123   6.5272
     6.7518   7.1159   7.2876   7.5051   7.5242

          k = 0.0264 0.0763 0.0000 ( 21919 PWs)   bands (ev):

   -84.3528 -84.1508 -84.1506 -43.6877 -43.6877 -43.6100 -43.5186 -43.5186
   -43.5185 -43.5184 -43.3779 -43.3778 -20.8725 -20.8379 -20.8228 -20.8025
   -20.7865 -20.7741 -20.7673 -20.7625 -20.7605 -20.7402 -20.7244 -20.7150
   -20.6983 -20.6916 -20.6872 -20.6800 -20.6732 -20.6601 -20.6574 -20.6546
   -20.6491 -20.6453 -20.6429 -20.6311 -20.6266 -20.6259 -20.6153 -20.6116
   -20.6043 -20.5975 -20.5959 -20.5919 -20.5845 -20.5828 -20.5787 -20.5736
   -20.5725 -20.5606 -20.5499 -20.5466 -20.5431 -20.5400 -20.5272 -20.5105
   -20.5080  -8.9317  -8.1786  -7.3643  -7.0535  -6.4010  -5.8312  -5.4353
    -4.7428  -3.8969  -3.0862  -2.4379  -1.9458  -1.4942  -1.3222  -1.2226
    -1.0521  -0.9024  -0.5464  -0.4117  -0.3060  -0.2693   0.2068   0.3542
     0.4549   0.5600   0.7275   0.8248   0.8493   1.0460   1.1220   1.3240
     1.8128   2.1025   2.2373   2.4192   2.5920   2.9173   3.0585   3.4195
     3.5102   3.9487   4.1968   4.4264   4.4955   4.9184   5.0741   5.2199
     5.5510   5.7531   5.8741   5.9344   6.0725   6.0971   6.4675   6.5237
     6.6579   6.6671   6.8499   7.0025   7.0875

          k = 0.0264-0.0763 0.0000 ( 21919 PWs)   bands (ev):

   -84.3528 -84.1508 -84.1506 -43.6877 -43.6877 -43.6100 -43.5186 -43.5186
   -43.5185 -43.5184 -43.3779 -43.3778 -20.8725 -20.8379 -20.8228 -20.8025
   -20.7865 -20.7741 -20.7673 -20.7625 -20.7605 -20.7402 -20.7244 -20.7150
   -20.6983 -20.6916 -20.6872 -20.6800 -20.6732 -20.6601 -20.6574 -20.6546
   -20.6491 -20.6453 -20.6429 -20.6311 -20.6266 -20.6259 -20.6153 -20.6116
   -20.6043 -20.5975 -20.5959 -20.5919 -20.5845 -20.5828 -20.5787 -20.5736
   -20.5725 -20.5606 -20.5499 -20.5466 -20.5431 -20.5400 -20.5272 -20.5105
   -20.5080  -8.9317  -8.1786  -7.3643  -7.0535  -6.4010  -5.8312  -5.4353
    -4.7428  -3.8969  -3.0862  -2.4379  -1.9458  -1.4942  -1.3222  -1.2226
    -1.0521  -0.9024  -0.5464  -0.4117  -0.3060  -0.2693   0.2068   0.3542
     0.4549   0.5600   0.7275   0.8248   0.8493   1.0460   1.1220   1.3240
     1.8128   2.1025   2.2373   2.4192   2.5920   2.9173   3.0585   3.4195
     3.5102   3.9487   4.1968   4.4264   4.4955   4.9184   5.0741   5.2199
     5.5510   5.7531   5.8741   5.9344   6.0725   6.0971   6.4675   6.5237
     6.6579   6.6671   6.8499   7.0025   7.0875

          k = 0.0264-0.0458 0.0000 ( 22021 PWs)   bands (ev):

   -84.3528 -84.1508 -84.1506 -43.6877 -43.6876 -43.6100 -43.5186 -43.5185
   -43.5184 -43.5184 -43.3779 -43.3778 -20.8813 -20.8724 -20.8435 -20.8331
   -20.7906 -20.7792 -20.7776 -20.7680 -20.7540 -20.7439 -20.7396 -20.7237
   -20.7180 -20.7040 -20.7026 -20.6988 -20.6804 -20.6791 -20.6697 -20.6544
   -20.6475 -20.6410 -20.6346 -20.6255 -20.6190 -20.6114 -20.6093 -20.6007
   -20.5963 -20.5935 -20.5894 -20.5877 -20.5757 -20.5668 -20.5647 -20.5631
   -20.5569 -20.5498 -20.5493 -20.5406 -20.5377 -20.5191 -20.5167 -20.4886
   -20.4883  -9.4701  -8.1464  -6.9207  -6.7938  -6.0774  -5.5451  -5.4587
    -4.3273  -3.9987  -2.7830  -2.4753  -2.2019  -1.8161  -1.5863  -1.5370
    -1.3839  -1.0457  -0.6341  -0.4926  -0.2887  -0.2568   0.0628   0.1406
     0.5126   0.5582   0.6297   0.6355   0.8125   0.8858   1.1720   1.3541
     1.5787   1.9596   1.9641   2.4055   2.6247   2.6965   3.1170   3.5235
     3.6957   4.0381   4.1778   4.2001   4.3653   4.8506   5.1188   5.2572
     5.3500   5.5084   5.5989   5.6772   6.0060   6.1973   6.5123   6.5272
     6.7518   7.1159   7.2876   7.5051   7.5242

          k = 0.0264-0.0153 0.0000 ( 21998 PWs)   bands (ev):

   -84.3528 -84.1508 -84.1506 -43.6876 -43.6876 -43.6100 -43.5185 -43.5185
   -43.5184 -43.5184 -43.3779 -43.3778 -20.9018 -20.8780 -20.8664 -20.8558
   -20.8029 -20.7955 -20.7800 -20.7736 -20.7586 -20.7519 -20.7498 -20.7419
   -20.7232 -20.7197 -20.7140 -20.6953 -20.6890 -20.6774 -20.6697 -20.6627
   -20.6477 -20.6416 -20.6311 -20.6231 -20.6196 -20.6071 -20.6034 -20.6032
   -20.5921 -20.5903 -20.5744 -20.5675 -20.5662 -20.5549 -20.5538 -20.5529
   -20.5499 -20.5434 -20.5434 -20.5333 -20.5257 -20.5146 -20.5111 -20.4651
   -20.4648  -9.7553  -8.3608  -6.6168  -6.2966  -5.8117  -5.4377  -4.8428
    -4.4385  -3.7439  -3.0977  -2.5880  -2.3432  -2.1423  -2.0019  -1.6063
    -1.4594  -0.9719  -0.8422  -0.6492  -0.2938  -0.1887  -0.0177   0.2724
     0.3989   0.5070   0.6634   0.7393   0.9604   1.0123   1.0653   1.2121
     1.2775   1.3363   1.7578   1.7681   2.1667   2.6387   3.0792   3.3129
     3.6337   3.6592   4.0183   4.5114   4.8538   4.8889   4.9811   5.2971
     5.5016   5.6863   5.8800   6.1750   6.2166   6.3176   6.7126   6.7191
     7.2048   7.4864   7.5043   7.6058   7.6213

          k = 0.0529 0.0305 0.0000 ( 21976 PWs)   bands (ev):

   -84.3528 -84.1508 -84.1506 -43.6877 -43.6876 -43.6100 -43.5186 -43.5185
   -43.5185 -43.5184 -43.3779 -43.3778 -20.8886 -20.8492 -20.8364 -20.8250
   -20.7957 -20.7807 -20.7763 -20.7676 -20.7427 -20.7382 -20.7269 -20.7245
   -20.7188 -20.7004 -20.6954 -20.6922 -20.6799 -20.6791 -20.6583 -20.6548
   -20.6505 -20.6452 -20.6301 -20.6261 -20.6240 -20.6139 -20.6104 -20.6030
   -20.5988 -20.5960 -20.5928 -20.5911 -20.5766 -20.5754 -20.5690 -20.5685
   -20.5655 -20.5522 -20.5510 -20.5465 -20.5356 -20.5326 -20.5210 -20.4905
   -20.4886  -9.3308  -8.1026  -7.3510  -6.3928  -6.1557  -6.0288  -5.1108
    -4.8692  -3.3727  -3.3469  -2.6958  -2.1010  -1.6468  -1.5872  -1.2502
    -1.1292  -0.8943  -0.7044  -0.6794  -0.3641  -0.2276   0.2479   0.4213
     0.5360   0.6188   0.7605   0.8338   0.9023   1.0620   1.0783   1.3121
     1.5224   1.7830   1.9589   2.1935   2.4500   3.0201   3.1993   3.5060
     3.6767   4.0043   4.2206   4.3162   4.5663   4.6487   4.8395   5.0181
     5.2891   5.3438   5.5011   5.8337   6.1168   6.2349   6.4858   6.5935
     6.6857   6.7978   7.0462   7.5506   7.6888

          k = 0.0529 0.0611 0.0000 ( 21919 PWs)   bands (ev):

   -84.3528 -84.1508 -84.1506 -43.6877 -43.6877 -43.6100 -43.5186 -43.5186
   -43.5185 -43.5184 -43.3779 -43.3778 -20.8725 -20.8379 -20.8228 -20.8025
   -20.7865 -20.7741 -20.7673 -20.7625 -20.7606 -20.7402 -20.7244 -20.7150
   -20.6983 -20.6916 -20.6872 -20.6800 -20.6732 -20.6601 -20.6574 -20.6546
   -20.6491 -20.6453 -20.6429 -20.6311 -20.6266 -20.6259 -20.6153 -20.6116
   -20.6043 -20.5975 -20.5959 -20.5919 -20.5845 -20.5828 -20.5787 -20.5736
   -20.5725 -20.5606 -20.5499 -20.5466 -20.5431 -20.5400 -20.5272 -20.5105
   -20.5080  -8.9317  -8.1786  -7.3643  -7.0535  -6.4010  -5.8312  -5.4353
    -4.7428  -3.8969  -3.0862  -2.4379  -1.9458  -1.4942  -1.3222  -1.2226
    -1.0521  -0.9024  -0.5464  -0.4117  -0.3060  -0.2693   0.2068   0.3542
     0.4549   0.5600   0.7275   0.8248   0.8493   1.0460   1.1220   1.3240
     1.8128   2.1025   2.2373   2.4192   2.5920   2.9173   3.0585   3.4195
     3.5102   3.9487   4.1968   4.4264   4.4955   4.9184   5.0741   5.2198
     5.5510   5.7532   5.8741   5.9342   6.0726   6.0971   6.4675   6.5237
     6.6579   6.6672   6.8499   7.0025   7.0874

          k = 0.0529 0.0916 0.0000 ( 21906 PWs)   bands (ev):

   -84.3528 -84.1508 -84.1506 -43.6877 -43.6877 -43.6100 -43.5186 -43.5186
   -43.5185 -43.5185 -43.3779 -43.3778 -20.8487 -20.8259 -20.8258 -20.8043
   -20.8043 -20.7696 -20.7537 -20.7537 -20.7461 -20.7186 -20.7185 -20.7178
   -20.7013 -20.7013 -20.6981 -20.6765 -20.6689 -20.6689 -20.6551 -20.6551
   -20.6539 -20.6490 -20.6490 -20.6489 -20.6299 -20.6112 -20.6112 -20.5980
   -20.5980 -20.5952 -20.5913 -20.5913 -20.5857 -20.5848 -20.5815 -20.5815
   -20.5584 -20.5584 -20.5560 -20.5474 -20.5474 -20.5420 -20.5417 -20.5302
   -20.5302  -8.4175  -8.4174  -7.7209  -6.8849  -6.4336  -6.4335  -4.8974
    -4.6705  -4.6705  -2.1661  -2.1661  -2.0720  -1.6910  -1.1857  -1.1857
    -1.1162  -1.1162  -0.5591  -0.3586  -0.2094  -0.2094  -0.0130   0.3218
     0.3218   0.6155   0.6155   0.8489   0.8489   1.0510   1.2136   1.3642
     1.9198   2.0392   2.0392   2.6102   2.6102   2.9741   2.9741   3.9306
     4.1522   4.1522   4.2751   4.7812   4.8680   4.8680   4.9357   5.2098
     5.2098   5.6230   5.6230   5.8716   6.3617   6.3618   6.4596   6.4597
     6.4644   6.6032   6.6429   6.6803   6.6804

          k = 0.0529-0.0611 0.0000 ( 21919 PWs)   bands (ev):

   -84.3528 -84.1508 -84.1506 -43.6877 -43.6877 -43.6100 -43.5186 -43.5185
   -43.5185 -43.5184 -43.3779 -43.3778 -20.8725 -20.8379 -20.8228 -20.8025
   -20.7865 -20.7741 -20.7673 -20.7625 -20.7606 -20.7402 -20.7244 -20.7150
   -20.6983 -20.6916 -20.6872 -20.6800 -20.6732 -20.6601 -20.6574 -20.6546
   -20.6491 -20.6453 -20.6429 -20.6311 -20.6266 -20.6259 -20.6153 -20.6116
   -20.6043 -20.5975 -20.5959 -20.5919 -20.5845 -20.5828 -20.5787 -20.5736
   -20.5725 -20.5606 -20.5499 -20.5466 -20.5431 -20.5400 -20.5272 -20.5105
   -20.5080  -8.9317  -8.1786  -7.3643  -7.0535  -6.4010  -5.8312  -5.4353
    -4.7428  -3.8969  -3.0862  -2.4379  -1.9458  -1.4942  -1.3222  -1.2226
    -1.0521  -0.9024  -0.5464  -0.4117  -0.3060  -0.2693   0.2068   0.3542
     0.4549   0.5600   0.7275   0.8248   0.8493   1.0460   1.1220   1.3240
     1.8128   2.1025   2.2373   2.4192   2.5920   2.9173   3.0585   3.4195
     3.5102   3.9487   4.1968   4.4264   4.4955   4.9184   5.0741   5.2198
     5.5510   5.7532   5.8741   5.9342   6.0726   6.0971   6.4675   6.5237
     6.6579   6.6672   6.8499   7.0025   7.0873

          k = 0.0529-0.0305 0.0000 ( 21976 PWs)   bands (ev):

   -84.3528 -84.1508 -84.1506 -43.6877 -43.6876 -43.6100 -43.5186 -43.5185
   -43.5185 -43.5184 -43.3779 -43.3778 -20.8886 -20.8492 -20.8364 -20.8250
   -20.7957 -20.7807 -20.7763 -20.7676 -20.7427 -20.7382 -20.7269 -20.7245
   -20.7188 -20.7004 -20.6954 -20.6922 -20.6799 -20.6791 -20.6583 -20.6548
   -20.6505 -20.6452 -20.6301 -20.6261 -20.6240 -20.6139 -20.6104 -20.6030
   -20.5988 -20.5960 -20.5928 -20.5911 -20.5766 -20.5754 -20.5690 -20.5685
   -20.5655 -20.5522 -20.5510 -20.5465 -20.5356 -20.5326 -20.5210 -20.4905
   -20.4886  -9.3308  -8.1026  -7.3510  -6.3928  -6.1557  -6.0288  -5.1108
    -4.8692  -3.3727  -3.3469  -2.6958  -2.1010  -1.6468  -1.5872  -1.2502
    -1.1292  -0.8943  -0.7044  -0.6794  -0.3641  -0.2276   0.2479   0.4213
     0.5360   0.6188   0.7605   0.8338   0.9023   1.0620   1.0783   1.3121
     1.5224   1.7830   1.9589   2.1935   2.4500   3.0201   3.1993   3.5060
     3.6767   4.0043   4.2206   4.3162   4.5663   4.6487   4.8395   5.0181
     5.2891   5.3438   5.5011   5.8337   6.1168   6.2349   6.4858   6.5935
     6.6857   6.7978   7.0462   7.5507   7.6888

          k = 0.0529 0.0000 0.0000 ( 22021 PWs)   bands (ev):

   -84.3528 -84.1508 -84.1506 -43.6877 -43.6876 -43.6100 -43.5186 -43.5185
   -43.5185 -43.5184 -43.3779 -43.3778 -20.8813 -20.8724 -20.8435 -20.8331
   -20.7906 -20.7792 -20.7776 -20.7680 -20.7540 -20.7439 -20.7396 -20.7237
   -20.7180 -20.7040 -20.7026 -20.6988 -20.6804 -20.6791 -20.6697 -20.6544
   -20.6475 -20.6410 -20.6346 -20.6255 -20.6190 -20.6114 -20.6093 -20.6007
   -20.5963 -20.5935 -20.5893 -20.5877 -20.5757 -20.5668 -20.5647 -20.5631
   -20.5569 -20.5498 -20.5493 -20.5406 -20.5377 -20.5191 -20.5167 -20.4886
   -20.4883  -9.4701  -8.1464  -6.9207  -6.7938  -6.0774  -5.5451  -5.4587
    -4.3273  -3.9987  -2.7830  -2.4753  -2.2019  -1.8161  -1.5863  -1.5370
    -1.3839  -1.0457  -0.6341  -0.4926  -0.2887  -0.2568   0.0628   0.1406
     0.5126   0.5582   0.6297   0.6355   0.8125   0.8858   1.1720   1.3541
     1.5787   1.9596   1.9641   2.4055   2.6247   2.6965   3.1170   3.5235
     3.6956   4.0381   4.1778   4.2001   4.3653   4.8506   5.1188   5.2572
     5.3500   5.5084   5.5990   5.6771   6.0060   6.1973   6.5123   6.5272
     6.7518   7.1159   7.2876   7.5050   7.5243

          k =-0.0793-0.0458 0.0000 ( 21900 PWs)   bands (ev):

   -84.3528 -84.1508 -84.1506 -43.6877 -43.6876 -43.6100 -43.5186 -43.5185
   -43.5185 -43.5184 -43.3779 -43.3778 -20.8861 -20.8254 -20.8072 -20.8063
   -20.7834 -20.7782 -20.7734 -20.7729 -20.7604 -20.7595 -20.7112 -20.6928
   -20.6916 -20.6906 -20.6782 -20.6780 -20.6685 -20.6652 -20.6628 -20.6571
   -20.6452 -20.6447 -20.6345 -20.6343 -20.6243 -20.6242 -20.6182 -20.6136
   -20.6062 -20.6057 -20.5964 -20.5903 -20.5903 -20.5895 -20.5865 -20.5833
   -20.5762 -20.5631 -20.5515 -20.5475 -20.5461 -20.5453 -20.5261 -20.4963
   -20.4960  -8.7913  -8.4809  -7.1579  -7.1137  -6.1135  -5.9885  -5.4211
    -4.9020  -3.5755  -3.1600  -3.0460  -2.1641  -1.4716  -1.2713  -1.0576
    -1.0001  -0.9888  -0.5227  -0.4275   0.0410   0.1276   0.1798   0.5800
     0.5815   0.6078   0.8171   0.8864   0.9428   0.9525   1.2339   1.5384
     1.7176   1.8222   2.1341   2.3978   2.4323   2.5966   2.6297   3.3035
     3.3354   3.5827   4.0706   4.2212   4.6777   4.9402   5.2968   5.4289
     5.4658   5.6613   5.7210   6.1066   6.1819   6.2319   6.4436   6.6668
     6.6849   6.8294   6.9302   7.1723   7.1894

          k =-0.0793-0.0153 0.0000 ( 21919 PWs)   bands (ev):

   -84.3528 -84.1508 -84.1506 -43.6877 -43.6877 -43.6100 -43.5186 -43.5186
   -43.5185 -43.5184 -43.3779 -43.3778 -20.8725 -20.8379 -20.8228 -20.8025
   -20.7865 -20.7741 -20.7673 -20.7625 -20.7606 -20.7402 -20.7244 -20.7150
   -20.6983 -20.6916 -20.6872 -20.6800 -20.6732 -20.6601 -20.6574 -20.6546
   -20.6491 -20.6453 -20.6429 -20.6311 -20.6266 -20.6259 -20.6153 -20.6116
   -20.6043 -20.5975 -20.5959 -20.5919 -20.5845 -20.5828 -20.5787 -20.5736
   -20.5725 -20.5606 -20.5499 -20.5466 -20.5431 -20.5400 -20.5272 -20.5105
   -20.5080  -8.9317  -8.1786  -7.3643  -7.0535  -6.4010  -5.8312  -5.4353
    -4.7428  -3.8969  -3.0862  -2.4379  -1.9458  -1.4942  -1.3222  -1.2226
    -1.0521  -0.9024  -0.5464  -0.4117  -0.3060  -0.2693   0.2068   0.3542
     0.4549   0.5600   0.7275   0.8248   0.8493   1.0460   1.1220   1.3240
     1.8128   2.1025   2.2373   2.4192   2.5920   2.9173   3.0585   3.4195
     3.5102   3.9487   4.1968   4.4264   4.4955   4.9184   5.0741   5.2198
     5.5510   5.7532   5.8741   5.9342   6.0726   6.0971   6.4675   6.5236
     6.6580   6.6671   6.8499   7.0025   7.0873

          k =-0.0793 0.0153 0.0000 ( 21919 PWs)   bands (ev):

   -84.3528 -84.1508 -84.1506 -43.6877 -43.6876 -43.6100 -43.5186 -43.5185
   -43.5185 -43.5184 -43.3779 -43.3778 -20.8725 -20.8379 -20.8228 -20.8025
   -20.7865 -20.7741 -20.7673 -20.7625 -20.7606 -20.7402 -20.7244 -20.7150
   -20.6983 -20.6916 -20.6872 -20.6800 -20.6732 -20.6601 -20.6574 -20.6546
   -20.6491 -20.6453 -20.6429 -20.6311 -20.6266 -20.6259 -20.6153 -20.6116
   -20.6043 -20.5975 -20.5959 -20.5919 -20.5845 -20.5828 -20.5787 -20.5736
   -20.5725 -20.5606 -20.5499 -20.5466 -20.5431 -20.5400 -20.5272 -20.5105
   -20.5080  -8.9317  -8.1786  -7.3643  -7.0535  -6.4010  -5.8312  -5.4353
    -4.7428  -3.8969  -3.0862  -2.4379  -1.9458  -1.4942  -1.3222  -1.2226
    -1.0521  -0.9024  -0.5464  -0.4117  -0.3060  -0.2693   0.2068   0.3542
     0.4549   0.5600   0.7275   0.8248   0.8493   1.0460   1.1220   1.3240
     1.8128   2.1025   2.2373   2.4192   2.5920   2.9173   3.0585   3.4195
     3.5102   3.9487   4.1968   4.4264   4.4955   4.9184   5.0741   5.2198
     5.5510   5.7532   5.8741   5.9342   6.0726   6.0971   6.4675   6.5236
     6.6580   6.6671   6.8499   7.0025   7.0873

          k =-0.0793-0.1374 0.0000 ( 21900 PWs)   bands (ev):

   -84.3528 -84.1508 -84.1506 -43.6877 -43.6876 -43.6100 -43.5186 -43.5185
   -43.5185 -43.5184 -43.3779 -43.3778 -20.8861 -20.8254 -20.8072 -20.8063
   -20.7834 -20.7782 -20.7734 -20.7729 -20.7604 -20.7595 -20.7112 -20.6928
   -20.6916 -20.6906 -20.6782 -20.6780 -20.6685 -20.6652 -20.6628 -20.6571
   -20.6452 -20.6447 -20.6345 -20.6343 -20.6243 -20.6242 -20.6182 -20.6136
   -20.6062 -20.6057 -20.5964 -20.5903 -20.5903 -20.5895 -20.5865 -20.5833
   -20.5762 -20.5631 -20.5515 -20.5475 -20.5461 -20.5453 -20.5261 -20.4963
   -20.4960  -8.7913  -8.4809  -7.1579  -7.1137  -6.1135  -5.9885  -5.4211
    -4.9020  -3.5755  -3.1600  -3.0460  -2.1641  -1.4716  -1.2713  -1.0576
    -1.0001  -0.9888  -0.5227  -0.4275   0.0410   0.1276   0.1798   0.5800
     0.5815   0.6078   0.8171   0.8864   0.9428   0.9525   1.2339   1.5384
     1.7176   1.8222   2.1341   2.3978   2.4323   2.5966   2.6297   3.3035
     3.3354   3.5827   4.0706   4.2212   4.6777   4.9402   5.2968   5.4289
     5.4658   5.6613   5.7210   6.1066   6.1819   6.2319   6.4436   6.6668
     6.6849   6.8294   6.9302   7.1723   7.1894

     the Fermi energy is     1.2513 ev

!    total energy              =   -2045.09157512 Ry
     Harris-Foulkes estimate   =   -2045.09300923 Ry
     estimated scf accuracy    <       0.00000029 Ry

     The total energy is the sum of the following terms:

     one-electron contribution =  -12756.13253870 Ry
     hartree contribution      =    6422.58981086 Ry
     xc contribution           =    -516.67755578 Ry
     ewald contribution        =    4805.19473715 Ry
     electric field correction =       0.00000000 Ry
     smearing contrib. (-TS)   =      -0.06602866 Ry

     convergence has been achieved in  17 iterations
 
 BEEF-vdW xc energy contributions
           1 :   -453.733725992050     
           2 :    416.509937283891     
           3 :   -352.842811000418     
           4 :    279.678983392909     
           5 :   -213.505133852739     
           6 :    164.735609671207     
           7 :   -135.338663474093     
           8 :    120.259082792967     
           9 :   -111.467163981851     
          10 :    102.360868736396     
          11 :   -90.3958486952431     
          12 :    77.0099607443738     
          13 :   -65.4667011676898     
          14 :    58.2162032178892     
          15 :   -55.3484581813923     
          16 :    54.8060569084439     
          17 :   -53.9029142533739     
          18 :    51.0040383139213     
          19 :   -46.3179918628340     
          20 :    41.4401366742171     
          21 :   -38.1037632142030     
          22 :    37.0193067002022     
          23 :   -37.5188931761932     
          24 :    38.1245232346064     
          25 :   -37.5664751939474     
          26 :    35.5484683825607     
          27 :   -32.8028592808216     
          28 :    30.4826715810335     
          29 :   -29.3613287397565     
          30 :    29.3794927856943     
          31 :   -40.3613048559619     
          32 :   -29.7132751245013     

     Forces acting on atoms (Ry/au):


     negative rho (up, down):  3.452E-01 0.000E+00
     atom    1 type  1   force =    -0.00000496    0.02580486   -0.00904707
     atom    2 type  1   force =     0.02235045   -0.01290670   -0.00903580
     atom    3 type  1   force =    -0.02235167   -0.01290197   -0.00905678
     atom    4 type  2   force =    -0.00000088    0.00000166    0.05613671
     atom    5 type  1   force =     0.00000108   -0.00000647    0.00003995
     atom    6 type  1   force =    -0.00000801    0.00000165    0.00004087
     atom    7 type  1   force =     0.00000632   -0.00000000    0.00003950
     atom    8 type  2   force =     0.00000135   -0.00000046   -0.00010054
     atom    9 type  1   force =     0.00000673   -0.02571554    0.00911731
     atom   10 type  1   force =    -0.02227603    0.01286673    0.00911071
     atom   11 type  1   force =     0.02227469    0.01285595    0.00912317
     atom   12 type  2   force =     0.00000093    0.00000029   -0.05636803

     Total force =     0.103953     Total SCF correction =     0.001004


     entering subroutine stress ...


     negative rho (up, down):  3.452E-01 0.000E+00
          total   stress  (Ry/bohr**3)                   (kbar)     P=  -14.05
  -0.00010990   0.00000000  -0.00000000        -16.17      0.00     -0.00
   0.00000000  -0.00010989  -0.00000000          0.00    -16.17     -0.00
  -0.00000000  -0.00000000  -0.00006676         -0.00     -0.00     -9.82

 !ASE

     Writing output data file calc.save
 
     init_run     :     17.70s CPU     27.42s WALL (       1 calls)
     electrons    :    861.00s CPU   1359.86s WALL (       1 calls)
     forces       :      3.78s CPU      4.56s WALL (       1 calls)
     stress       :      9.00s CPU     10.37s WALL (       1 calls)

     Called by init_run:
     wfcinit      :     15.03s CPU     23.94s WALL (       1 calls)
     potinit      :      1.29s CPU      1.90s WALL (       1 calls)

     Called by electrons:
     c_bands      :    667.29s CPU   1054.93s WALL (      17 calls)
     sum_band     :    116.83s CPU    193.90s WALL (      17 calls)
     v_of_rho     :     22.72s CPU     34.53s WALL (      18 calls)
     newd         :      8.81s CPU      9.42s WALL (      18 calls)
     mix_rho      :      1.00s CPU      1.48s WALL (      17 calls)
     vdW_energy   :      1.94s CPU      1.95s WALL (      54 calls)
     vdW_ffts     :     46.05s CPU     70.32s WALL (     110 calls)
     vdW_v        :      7.93s CPU     11.46s WALL (      54 calls)

     Called by c_bands:
     init_us_2    :      0.55s CPU      0.56s WALL (     740 calls)
     cegterg      :    656.40s CPU   1040.66s WALL (     340 calls)

     Called by *egterg:
     h_psi        :    503.47s CPU    858.70s WALL (    1378 calls)
     s_psi        :      7.66s CPU      7.78s WALL (    1378 calls)
     g_psi        :      0.35s CPU      0.36s WALL (    1018 calls)
     cdiaghg      :     81.96s CPU     86.29s WALL (    1358 calls)

     Called by h_psi:
     add_vuspsi   :      7.86s CPU      7.94s WALL (    1378 calls)

     General routines
     calbec       :     25.44s CPU     34.45s WALL (    1758 calls)
     fft          :     69.21s CPU    105.62s WALL (    3291 calls)
     ffts         :      0.23s CPU      0.38s WALL (      35 calls)
     fftw         :    570.22s CPU    991.64s WALL (  219712 calls)
     interpolate  :      1.06s CPU      1.64s WALL (      35 calls)
     davcio       :      0.00s CPU      0.02s WALL (      20 calls)
 
     Parallel routines
     fft_scatter  :    619.05s CPU   1075.23s WALL (  223038 calls)
 
     PWSCF        : 14m52.54s CPU    23m24.12s WALL

 
   This run was terminated on:  13:30: 2   1Jan2019            

=------------------------------------------------------------------------------=
   JOB DONE.
=------------------------------------------------------------------------------=
Job  /afs/slac/g/suncat/bin/suncat-tsmpirun -x LD_LIBRARY_PATH -wdir /scratch/qe649027_9655Z pw.x -in pw.inp

TID   HOST_NAME   COMMAND_LINE            STATUS            TERMINATION_TIME
===== ========== ================  =======================  ===================
00000 suncat0043 pw.x -in pw.inp   Done                     01/01/2019 13:30:02
00001 suncat0043 pw.x -in pw.inp   Done                     01/01/2019 13:30:02
00002 suncat0043 pw.x -in pw.inp   Done                     01/01/2019 13:30:02
00003 suncat0043 pw.x -in pw.inp   Done                     01/01/2019 13:30:02
00004 suncat0043 pw.x -in pw.inp   Done                     01/01/2019 13:30:02
00005 suncat0043 pw.x -in pw.inp   Done                     01/01/2019 13:30:02
00006 suncat0043 pw.x -in pw.inp   Done                     01/01/2019 13:30:02
00007 suncat0043 pw.x -in pw.inp   Done                     01/01/2019 13:30:02
00008 suncat0041 pw.x -in pw.inp   Done                     01/01/2019 13:30:02
00009 suncat0041 pw.x -in pw.inp   Done                     01/01/2019 13:30:02
00010 suncat0041 pw.x -in pw.inp   Done                     01/01/2019 13:30:02
00011 suncat0041 pw.x -in pw.inp   Done                     01/01/2019 13:30:02
00012 suncat0041 pw.x -in pw.inp   Done                     01/01/2019 13:30:02
00013 suncat0041 pw.x -in pw.inp   Done                     01/01/2019 13:30:02
00014 suncat0041 pw.x -in pw.inp   Done                     01/01/2019 13:30:02
00015 suncat0041 pw.x -in pw.inp   Done                     01/01/2019 13:30:02
00016 suncat0039 pw.x -in pw.inp   Done                     01/01/2019 13:30:02
00017 suncat0039 pw.x -in pw.inp   Done                     01/01/2019 13:30:02
00018 suncat0039 pw.x -in pw.inp   Done                     01/01/2019 13:30:02
00019 suncat0039 pw.x -in pw.inp   Done                     01/01/2019 13:30:02
00020 suncat0039 pw.x -in pw.inp   Done                     01/01/2019 13:30:02
00021 suncat0039 pw.x -in pw.inp   Done                     01/01/2019 13:30:02
00022 suncat0039 pw.x -in pw.inp   Done                     01/01/2019 13:30:02
00023 suncat0039 pw.x -in pw.inp   Done                     01/01/2019 13:30:02
00024 suncat0025 pw.x -in pw.inp   Done                     01/01/2019 13:30:02
00025 suncat0025 pw.x -in pw.inp   Done                     01/01/2019 13:30:02
00026 suncat0025 pw.x -in pw.inp   Done                     01/01/2019 13:30:02
00027 suncat0025 pw.x -in pw.inp   Done                     01/01/2019 13:30:02
00028 suncat0025 pw.x -in pw.inp   Done                     01/01/2019 13:30:02
00029 suncat0025 pw.x -in pw.inp   Done                     01/01/2019 13:30:02
00030 suncat0025 pw.x -in pw.inp   Done                     01/01/2019 13:30:02
00031 suncat0025 pw.x -in pw.inp   Done                     01/01/2019 13:30:02
00032 suncat0013 pw.x -in pw.inp   Done                     01/01/2019 13:30:02
00033 suncat0013 pw.x -in pw.inp   Done                     01/01/2019 13:30:02
00034 suncat0013 pw.x -in pw.inp   Done                     01/01/2019 13:30:02
00035 suncat0013 pw.x -in pw.inp   Done                     01/01/2019 13:30:02
00036 suncat0013 pw.x -in pw.inp   Done                     01/01/2019 13:30:02
00037 suncat0013 pw.x -in pw.inp   Done                     01/01/2019 13:30:02
00038 suncat0013 pw.x -in pw.inp   Done                     01/01/2019 13:30:02
00039 suncat0013 pw.x -in pw.inp   Done                     01/01/2019 13:30:02
00040 suncat0008 pw.x -in pw.inp   Done                     01/01/2019 13:30:02
00041 suncat0008 pw.x -in pw.inp   Done                     01/01/2019 13:30:02
00042 suncat0008 pw.x -in pw.inp   Done                     01/01/2019 13:30:02
00043 suncat0008 pw.x -in pw.inp   Done                     01/01/2019 13:30:02
00044 suncat0008 pw.x -in pw.inp   Done                     01/01/2019 13:30:02
00045 suncat0008 pw.x -in pw.inp   Done                     01/01/2019 13:30:02
00046 suncat0008 pw.x -in pw.inp   Done                     01/01/2019 13:30:02
00047 suncat0008 pw.x -in pw.inp   Done                     01/01/2019 13:30:02
00048 suncat0117 pw.x -in pw.inp   Done                     01/01/2019 13:30:02
00049 suncat0117 pw.x -in pw.inp   Done                     01/01/2019 13:30:02
00050 suncat0117 pw.x -in pw.inp   Done                     01/01/2019 13:30:02
00051 suncat0117 pw.x -in pw.inp   Done                     01/01/2019 13:30:02
00052 suncat0117 pw.x -in pw.inp   Done                     01/01/2019 13:30:02
00053 suncat0117 pw.x -in pw.inp   Done                     01/01/2019 13:30:02
00054 suncat0117 pw.x -in pw.inp   Done                     01/01/2019 13:30:02
00055 suncat0117 pw.x -in pw.inp   Done                     01/01/2019 13:30:02
00056 suncat0250 pw.x -in pw.inp   Done                     01/01/2019 13:30:02
00057 suncat0250 pw.x -in pw.inp   Done                     01/01/2019 13:30:02
00058 suncat0250 pw.x -in pw.inp   Done                     01/01/2019 13:30:02
00059 suncat0250 pw.x -in pw.inp   Done                     01/01/2019 13:30:02
00060 suncat0250 pw.x -in pw.inp   Done                     01/01/2019 13:30:02
00061 suncat0250 pw.x -in pw.inp   Done                     01/01/2019 13:30:02
00062 suncat0250 pw.x -in pw.inp   Done                     01/01/2019 13:30:02
00063 suncat0250 pw.x -in pw.inp   Done                     01/01/2019 13:30:02

     Program PWSCF v.5.1rc2 (svn rev. 11289) starts on  1Jan2019 at 13:30: 9 

     This program is part of the open-source Quantum ESPRESSO suite
     for quantum simulation of materials; please cite
         "P. Giannozzi et al., J. Phys.:Condens. Matter 21 395502 (2009);
          URL http://www.quantum-espresso.org", 
     in publications or presentations arising from this work. More details at
     http://www.quantum-espresso.org/quote

     Parallel version (MPI), running on    64 processors
     R & G space division:  proc/nbgrp/npool/nimage =      64
     Reading input from pw.inp
     Message from routine read_cards :
     DEPRECATED: no units specified in CELL_PARAMETERS card

     Current dimensions of program PWSCF are:
     Max number of different atomic species (ntypx) = 10
     Max number of k-points (npk) =  40000
     Max angular momentum in pseudopotentials (lmaxx) =  3
     Presently stress not available with electric field


     **************************************************************************
     Initializing libbeef V0.1.1 with the BEEF-vdW functional.
     Citation: Wellendorff et al., PRB 85, 235149 (2012).
     **************************************************************************


     IMPORTANT: XC functional enforced from input :
     Exchange-correlation      = BEEF-VDW ( 1  4 27 13 2)
     Any further DFT definition will be discarded
     Please, verify this is what you really want


     Subspace diagonalization in iterative solution of the eigenvalue problem:
     a serial algorithm will be used

 
     Parallelization info
     --------------------
     sticks:   dense  smooth     PW     G-vecs:    dense   smooth      PW
     Min          56      22      6                10842     2722     430
     Max          57      23      8                10858     2779     451
     Sum        3595    1417    433               694663   175539   28227
 


     bravais-lattice index     =            0
     lattice parameter (alat)  =       1.8897  a.u.
     unit-cell volume          =    5838.8734 (a.u.)^3
     number of atoms/cell      =           12
     number of atomic types    =            2
     number of electrons       =       174.00
     number of Kohn-Sham states=          117
     kinetic-energy cutoff     =      36.7493  Ry
     charge density cutoff     =     367.4932  Ry
     convergence threshold     =      1.0E-06
     mixing beta               =       0.1000
     number of iterations used =           10  plain     mixing
     Exchange-correlation      = BEEF-VDW ( 1  4 27 13 2)
     nstep                     =           50


     celldm(1)=   1.889726  celldm(2)=   0.000000  celldm(3)=   0.000000
     celldm(4)=   0.000000  celldm(5)=   0.000000  celldm(6)=   0.000000

     crystal axes: (cart. coord. in units of alat)
               a(1) = (   6.303209   0.000000   0.000000 )  
               a(2) = (  -3.151605   5.458739   0.000000 )  
               a(3) = (   0.000000   0.000000  25.146549 )  

     reciprocal axes: (cart. coord. in units 2 pi/alat)
               b(1) = (  0.158649  0.091596  0.000000 )  
               b(2) = (  0.000000  0.183192  0.000000 )  
               b(3) = (  0.000000  0.000000  0.039767 )  


     PseudoPot. # 1 for Sn read from file:
     /afs/slac.stanford.edu/u/if/mamunm/psp/gbrv1.5pbe/Sn.UPF
     MD5 check sum: 469debedee59599fedebd795477fea03
     Pseudo is Ultrasoft + core correction, Zval = 14.0
     Generated by new atomic code, or converted to UPF format
     Using radial grid of  891 points,  6 beta functions with: 
                l(1) =   0
                l(2) =   0
                l(3) =   1
                l(4) =   1
                l(5) =   2
                l(6) =   2
     Q(r) pseudized with  8 coefficients,  rinner =    1.350   1.350   1.350
                                                       1.350   1.350

     PseudoPot. # 2 for Os read from file:
     /afs/slac.stanford.edu/u/if/mamunm/psp/gbrv1.5pbe/Os.UPF
     MD5 check sum: a3fb40a04f0c37c25c34bbc47164c9a8
     Pseudo is Ultrasoft + core correction, Zval = 16.0
     Generated by new atomic code, or converted to UPF format
     Using radial grid of  983 points,  8 beta functions with: 
                l(1) =   0
                l(2) =   0
                l(3) =   1
                l(4) =   1
                l(5) =   2
                l(6) =   2
                l(7) =   3
                l(8) =   3
     Q(r) pseudized with  8 coefficients,  rinner =    1.150   1.150   1.150
                                                       1.150   1.150   1.150
                                                       1.150

     vdW kernel table read from file vdW_kernel_table
     MD5 check sum: 095c7af220d748ca6e76c0b4c6cfb241

     atomic species   valence    mass     pseudopotential
        Sn1           14.00   118.71000     Sn( 1.00)
        Os1           16.00   190.23000     Os( 1.00)

     No symmetry found



   Cartesian axes

     site n.     atom                  positions (alat units)
         1           Sn1 tau(   1) = (   0.0000000   0.0000000  10.0000000  )
         2           Sn1 tau(   2) = (  -1.5758023   2.7293696  10.0000000  )
         3           Sn1 tau(   3) = (   1.5758023   2.7293696  10.0000000  )
         4           Os1 tau(   4) = (   3.1516046   0.0000000  10.0000000  )
         5           Sn1 tau(   5) = (   3.1516046   1.8195798  12.5732744  )
         6           Sn1 tau(   6) = (   1.5758023   4.5489494  12.5732744  )
         7           Sn1 tau(   7) = (  -1.5758023   4.5489494  12.5732744  )
         8           Os1 tau(   8) = (   0.0000000   1.8195798  12.5732744  )
         9           Sn1 tau(   9) = (   0.0000173   3.5730422  15.1699903  )
        10           Sn1 tau(  10) = (   1.5185283   0.9428716  15.1699733  )
        11           Sn1 tau(  11) = (   4.7846774   0.9428439  15.1700054  )
        12           Os1 tau(  12) = (   3.1516070   3.6391603  15.0016207  )

     number of k points=    20  Fermi-Dirac smearing, width (Ry)=  0.0110
                       cart. coord. in units 2pi/alat
        k(    1) = (   0.0000000   0.0000000   0.0000000), wk =   0.0555556
        k(    2) = (   0.0000000   0.0305321   0.0000000), wk =   0.1111111
        k(    3) = (   0.0000000   0.0610642   0.0000000), wk =   0.1111111
        k(    4) = (   0.0000000  -0.0915962   0.0000000), wk =   0.0555556
        k(    5) = (   0.0264416   0.0152660   0.0000000), wk =   0.1111111
        k(    6) = (   0.0264416   0.0457981   0.0000000), wk =   0.1111111
        k(    7) = (   0.0264416   0.0763302   0.0000000), wk =   0.1111111
        k(    8) = (   0.0264416  -0.0763302   0.0000000), wk =   0.1111111
        k(    9) = (   0.0264416  -0.0457981   0.0000000), wk =   0.1111111
        k(   10) = (   0.0264416  -0.0152660   0.0000000), wk =   0.1111111
        k(   11) = (   0.0528831   0.0305321   0.0000000), wk =   0.1111111
        k(   12) = (   0.0528831   0.0610642   0.0000000), wk =   0.1111111
        k(   13) = (   0.0528831   0.0915962   0.0000000), wk =   0.1111111
        k(   14) = (   0.0528831  -0.0610642   0.0000000), wk =   0.1111111
        k(   15) = (   0.0528831  -0.0305321   0.0000000), wk =   0.1111111
        k(   16) = (   0.0528831   0.0000000   0.0000000), wk =   0.1111111
        k(   17) = (  -0.0793247  -0.0457981   0.0000000), wk =   0.0555556
        k(   18) = (  -0.0793247  -0.0152660   0.0000000), wk =   0.1111111
        k(   19) = (  -0.0793247   0.0152660   0.0000000), wk =   0.1111111
        k(   20) = (  -0.0793247  -0.1373944   0.0000000), wk =   0.0555556

     Dense  grid:   694663 G-vectors     FFT dimensions: (  75,  75, 300)

     Smooth grid:   175539 G-vectors     FFT dimensions: (  45,  45, 192)

     Largest allocated arrays     est. size (Mb)     dimensions
        Kohn-Sham Wavefunctions         0.62 Mb     (     347,  117)
        NL pseudopotentials             1.37 Mb     (     347,  258)
        Each V/rho on FFT grid          0.43 Mb     (   28125)
        Each G-vector array             0.08 Mb     (   10858)
        G-vector shells                 0.04 Mb     (    5457)
     Largest temporary arrays     est. size (Mb)     dimensions
        Auxiliary wavefunctions         2.48 Mb     (     347,  468)
        Each subspace H/S matrix        3.34 Mb     (     468,  468)
        Each <psi_i|beta_j> matrix      0.46 Mb     (     258,  117)
        Arrays for rho mixing           4.29 Mb     (   28125,   10)

     Initial potential from superposition of free atoms
     Check: negative starting charge=   -0.375945

     starting charge  163.49948, renormalised to  174.00000

     negative rho (up, down):  4.001E-01 0.000E+00


     ************************************************************************
     *
     * You are using vdW-DF for exchange-correlation in this calculation.
     * Please cite the following three references that made this development
     * possible:
     *
     *   M. Dion, H. Rydberg, E. Schroder, D. C. Langreth, and
     *   B. I. Lundqvist, Phys. Rev. Lett. 92, 246401 (2004).
     *
     *   T. Thonhauser, V. R. Cooper, S. Li, A. Puzder, P. Hyldgaard, and
     *   D. C. Langreth, Phys. Rev. B 76, 125112 (2007).
     *
     *   G. Roman-Perez and J. M. Soler, Phys. Rev. Lett. 103, 096102 (2009).
     *
     *
     * If you are using vdW-DF2, please also cite:
     *
     *   K. Lee, E. D. Murray, L. Kong, B. I. Lundqvist, and
     *   D. C. Langreth, Phys. Rev. B 82, 081101(R) (2010).
     *
     *
     * If you are calculating the stress with vdW-DF, please also cite:
     *
     *   R. Sabatini, E. Kucukbenli, B. Kolb, T. Thonhauser, and
     *   S. de Gironcoli, J. Phys.: Condens. Matter 24, 424209 (2012).
     *
     ************************************************************************

     Carrying out vdW-DF run using the following parameters:

     Nqs =      20    Nr_points =    1024   r_max =   100.000
     q_mesh =
               0.00001000     0.04494208     0.09755937     0.15916263
               0.23128650     0.31572767     0.41458969     0.53033537
               0.66584808     0.82450364     1.01025438     1.22772762
               1.48234092     1.78043706     2.12944203     2.53805004
               3.01644009     3.57652955     4.23227104     5.00000000

     Gradients computed in reciprocal space

     ************************************************************************


 
     Adding external electric field

     Computed dipole along edir(3) : 
        Dipole                0.1576 Ry au,          0.4007 Debye
        Dipole field          0.0003 Ry au
 
        Potential amp.       -0.0314 Ry
        Total length         46.3321 bohr
 
     Starting wfc are  120 randomized atomic wfcs

     total cpu time spent up to now is       28.1 secs

     per-process dynamical memory:    43.6 Mb

     Self-consistent Calculation

     iteration #  1     ecut=    36.75 Ry     beta=0.10
     Davidson diagonalization with overlap
     ethr =  1.00E-02,  avg # of iterations =  8.2

     negative rho (up, down):  4.006E-01 0.000E+00
 
     Adding external electric field

     Computed dipole along edir(3) : 
        Dipole               -1.0113 Ry au,         -2.5704 Debye
        Dipole field         -0.0022 Ry au
 
        Potential amp.        0.2017 Ry
        Total length         46.3321 bohr
 

     total cpu time spent up to now is      161.3 secs

     total energy              =   -2046.49120037 Ry
     Harris-Foulkes estimate   =   -2048.79918248 Ry
     estimated scf accuracy    <      13.59116433 Ry

     iteration #  2     ecut=    36.75 Ry     beta=0.10
     Davidson diagonalization with overlap
     ethr =  7.81E-03,  avg # of iterations =  1.1

     negative rho (up, down):  3.991E-01 0.000E+00
 
     Adding external electric field

     Computed dipole along edir(3) : 
        Dipole                0.5491 Ry au,          1.3957 Debye
        Dipole field          0.0012 Ry au
 
        Potential amp.       -0.1095 Ry
        Total length         46.3321 bohr
 

     total cpu time spent up to now is      223.5 secs

     total energy              =   -2046.05211027 Ry
     Harris-Foulkes estimate   =   -2047.52800590 Ry
     estimated scf accuracy    <      21.34594702 Ry

     iteration #  3     ecut=    36.75 Ry     beta=0.10
     Davidson diagonalization with overlap
     ethr =  7.81E-03,  avg # of iterations =  1.1

     negative rho (up, down):  3.942E-01 0.000E+00
 
     Adding external electric field

     Computed dipole along edir(3) : 
        Dipole               -0.1296 Ry au,         -0.3294 Debye
        Dipole field         -0.0003 Ry au
 
        Potential amp.        0.0258 Ry
        Total length         46.3321 bohr
 

     total cpu time spent up to now is      290.5 secs

     total energy              =   -2045.84487668 Ry
     Harris-Foulkes estimate   =   -2047.17881161 Ry
     estimated scf accuracy    <      17.22667365 Ry

     iteration #  4     ecut=    36.75 Ry     beta=0.10
     Davidson diagonalization with overlap
     ethr =  7.81E-03,  avg # of iterations =  1.0

     negative rho (up, down):  3.889E-01 0.000E+00
 
     Adding external electric field

     Computed dipole along edir(3) : 
        Dipole               -0.0608 Ry au,         -0.1546 Debye
        Dipole field         -0.0001 Ry au
 
        Potential amp.        0.0121 Ry
        Total length         46.3321 bohr
 

     total cpu time spent up to now is      352.2 secs

     total energy              =   -2045.66157546 Ry
     Harris-Foulkes estimate   =   -2046.23804282 Ry
     estimated scf accuracy    <       3.64238738 Ry

     iteration #  5     ecut=    36.75 Ry     beta=0.10
     Davidson diagonalization with overlap
     ethr =  2.09E-03,  avg # of iterations =  1.3

     negative rho (up, down):  3.685E-01 0.000E+00
 
     Adding external electric field

     Computed dipole along edir(3) : 
        Dipole               -0.0408 Ry au,         -0.1037 Debye
        Dipole field         -0.0001 Ry au
 
        Potential amp.        0.0081 Ry
        Total length         46.3321 bohr
 

     total cpu time spent up to now is      418.9 secs

     total energy              =   -2044.80415791 Ry
     Harris-Foulkes estimate   =   -2045.76622576 Ry
     estimated scf accuracy    <       1.60955352 Ry

     iteration #  6     ecut=    36.75 Ry     beta=0.10
     Davidson diagonalization with overlap
     ethr =  9.25E-04,  avg # of iterations =  5.7

     negative rho (up, down):  3.671E-01 0.000E+00
 
     Adding external electric field

     Computed dipole along edir(3) : 
        Dipole                0.0063 Ry au,          0.0160 Debye
        Dipole field          0.0000 Ry au
 
        Potential amp.       -0.0013 Ry
        Total length         46.3321 bohr
 

     total cpu time spent up to now is      508.1 secs

     total energy              =   -2045.10021993 Ry
     Harris-Foulkes estimate   =   -2045.16122482 Ry
     estimated scf accuracy    <       0.68066469 Ry

     iteration #  7     ecut=    36.75 Ry     beta=0.10
     Davidson diagonalization with overlap
     ethr =  3.91E-04,  avg # of iterations =  1.9

     negative rho (up, down):  3.632E-01 0.000E+00
 
     Adding external electric field

     Computed dipole along edir(3) : 
        Dipole               -0.0097 Ry au,         -0.0248 Debye
        Dipole field         -0.0000 Ry au
 
        Potential amp.        0.0019 Ry
        Total length         46.3321 bohr
 

     total cpu time spent up to now is      566.1 secs

     total energy              =   -2045.12024993 Ry
     Harris-Foulkes estimate   =   -2045.12900354 Ry
     estimated scf accuracy    <       0.07387270 Ry

     iteration #  8     ecut=    36.75 Ry     beta=0.10
     Davidson diagonalization with overlap
     ethr =  4.25E-05,  avg # of iterations =  8.4

     negative rho (up, down):  3.557E-01 0.000E+00
 
     Adding external electric field

     Computed dipole along edir(3) : 
        Dipole                0.0020 Ry au,          0.0050 Debye
        Dipole field          0.0000 Ry au
 
        Potential amp.       -0.0004 Ry
        Total length         46.3321 bohr
 

     total cpu time spent up to now is      650.4 secs

     total energy              =   -2045.11600751 Ry
     Harris-Foulkes estimate   =   -2045.12356320 Ry
     estimated scf accuracy    <       0.04987249 Ry

     iteration #  9     ecut=    36.75 Ry     beta=0.10
     Davidson diagonalization with overlap
     ethr =  2.87E-05,  avg # of iterations =  1.1

     negative rho (up, down):  3.503E-01 0.000E+00
 
     Adding external electric field

     Computed dipole along edir(3) : 
        Dipole               -0.0041 Ry au,         -0.0104 Debye
        Dipole field         -0.0000 Ry au
 
        Potential amp.        0.0008 Ry
        Total length         46.3321 bohr
 

     total cpu time spent up to now is      717.4 secs

     total energy              =   -2045.11245306 Ry
     Harris-Foulkes estimate   =   -2045.11839072 Ry
     estimated scf accuracy    <       0.02624727 Ry

     iteration # 10     ecut=    36.75 Ry     beta=0.10
     Davidson diagonalization with overlap
     ethr =  1.51E-05,  avg # of iterations =  4.4

     negative rho (up, down):  3.459E-01 0.000E+00
 
     Adding external electric field

     Computed dipole along edir(3) : 
        Dipole                0.0245 Ry au,          0.0622 Debye
        Dipole field          0.0001 Ry au
 
        Potential amp.       -0.0049 Ry
        Total length         46.3321 bohr
 

     total cpu time spent up to now is      791.7 secs

     total energy              =   -2045.11372523 Ry
     Harris-Foulkes estimate   =   -2045.11649470 Ry
     estimated scf accuracy    <       0.03220624 Ry

     iteration # 11     ecut=    36.75 Ry     beta=0.10
     Davidson diagonalization with overlap
     ethr =  1.51E-05,  avg # of iterations =  1.1

     negative rho (up, down):  3.458E-01 0.000E+00
 
     Adding external electric field

     Computed dipole along edir(3) : 
        Dipole                0.0258 Ry au,          0.0657 Debye
        Dipole field          0.0001 Ry au
 
        Potential amp.       -0.0052 Ry
        Total length         46.3321 bohr
 

     total cpu time spent up to now is      859.6 secs

     total energy              =   -2045.11436575 Ry
     Harris-Foulkes estimate   =   -2045.11495198 Ry
     estimated scf accuracy    <       0.00227731 Ry

     iteration # 12     ecut=    36.75 Ry     beta=0.10
     Davidson diagonalization with overlap
     c_bands:  1 eigenvalues not converged
     ethr =  1.31E-06,  avg # of iterations =  7.0

     negative rho (up, down):  3.453E-01 0.000E+00
 
     Adding external electric field

     Computed dipole along edir(3) : 
        Dipole                0.0265 Ry au,          0.0674 Debye
        Dipole field          0.0001 Ry au
 
        Potential amp.       -0.0053 Ry
        Total length         46.3321 bohr
 

     total cpu time spent up to now is      945.3 secs

     total energy              =   -2045.11459115 Ry
     Harris-Foulkes estimate   =   -2045.11468240 Ry
     estimated scf accuracy    <       0.00067313 Ry

     iteration # 13     ecut=    36.75 Ry     beta=0.10
     Davidson diagonalization with overlap
     ethr =  3.87E-07,  avg # of iterations =  1.3

     negative rho (up, down):  3.450E-01 0.000E+00
 
     Adding external electric field

     Computed dipole along edir(3) : 
        Dipole                0.0262 Ry au,          0.0667 Debye
        Dipole field          0.0001 Ry au
 
        Potential amp.       -0.0052 Ry
        Total length         46.3321 bohr
 

     total cpu time spent up to now is     1013.5 secs

     total energy              =   -2045.11461794 Ry
     Harris-Foulkes estimate   =   -2045.11464345 Ry
     estimated scf accuracy    <       0.00024066 Ry

     iteration # 14     ecut=    36.75 Ry     beta=0.10
     Davidson diagonalization with overlap
     ethr =  1.38E-07,  avg # of iterations =  2.0

     negative rho (up, down):  3.449E-01 0.000E+00
 
     Adding external electric field

     Computed dipole along edir(3) : 
        Dipole                0.0251 Ry au,          0.0637 Debye
        Dipole field          0.0001 Ry au
 
        Potential amp.       -0.0050 Ry
        Total length         46.3321 bohr
 

     total cpu time spent up to now is     1086.8 secs

     total energy              =   -2045.11458558 Ry
     Harris-Foulkes estimate   =   -2045.11467929 Ry
     estimated scf accuracy    <       0.00078279 Ry

     iteration # 15     ecut=    36.75 Ry     beta=0.10
     Davidson diagonalization with overlap
     ethr =  1.38E-07,  avg # of iterations =  2.0

     negative rho (up, down):  3.449E-01 0.000E+00
 
     Adding external electric field

     Computed dipole along edir(3) : 
[...]
   -20.4809  -8.5188  -8.2207  -7.7789  -6.9932  -6.4685  -6.2725  -5.1325
    -4.6459  -4.6300  -2.3661  -2.1665  -2.1529  -1.6998  -1.4527  -1.1564
    -1.0457  -0.9813  -0.7056  -0.5005  -0.4044  -0.3100  -0.0089   0.1552
     0.3493   0.6538   0.7407   0.7766   0.8792   0.9991   1.3071   1.4340
     1.7808   1.8676   2.0547   2.5919   2.7120   3.0631   3.3978   3.9079
     4.1676   4.1715   4.3435   4.8541   4.8927   5.0378   5.0382   5.2150
     5.3113   5.4936   5.7171   5.9686   6.3710   6.4020   6.4936   6.5591
     6.5785   6.5818   6.6310   6.6674   6.7317

          k = 0.0529-0.0611 0.0000 ( 21919 PWs)   bands (ev):

   -84.3475 -84.1952 -84.1888 -43.6771 -43.6771 -43.6085 -43.5458 -43.5448
   -43.5448 -43.5423 -43.5423 -43.4534 -20.8805 -20.8417 -20.8211 -20.7935
   -20.7930 -20.7758 -20.7598 -20.7442 -20.7312 -20.7101 -20.6995 -20.6912
   -20.6818 -20.6751 -20.6671 -20.6584 -20.6443 -20.6355 -20.6308 -20.6237
   -20.6174 -20.6044 -20.5896 -20.5847 -20.5767 -20.5729 -20.5634 -20.5572
   -20.5540 -20.5466 -20.5406 -20.5363 -20.5326 -20.5296 -20.5239 -20.5175
   -20.5140 -20.5136 -20.5019 -20.4980 -20.4935 -20.4892 -20.4852 -20.4570
   -20.4545  -8.9324  -8.1014  -7.4060  -7.0983  -6.4071  -5.8030  -5.4942
    -4.7167  -4.0131  -3.1552  -2.4625  -2.0142  -1.5628  -1.3808  -1.3320
    -1.1285  -0.9337  -0.6814  -0.5317  -0.4216  -0.1894   0.1654   0.2631
     0.4400   0.5176   0.6207   0.7618   0.8594   1.0773   1.2458   1.4129
     1.8393   2.0529   2.2281   2.4417   2.6106   2.9417   3.2378   3.4804
     3.7444   4.0499   4.2431   4.3442   4.6009   4.8436   5.0778   5.2567
     5.6526   5.7458   5.8838   5.9655   6.1334   6.2721   6.4983   6.5994
     6.7211   6.7604   6.8492   7.0008   7.1390

          k = 0.0529-0.0305 0.0000 ( 21976 PWs)   bands (ev):

   -84.3475 -84.1952 -84.1888 -43.6771 -43.6770 -43.6085 -43.5458 -43.5448
   -43.5448 -43.5423 -43.5423 -43.4534 -20.8954 -20.8537 -20.8341 -20.8325
   -20.7849 -20.7624 -20.7466 -20.7409 -20.7304 -20.7222 -20.7055 -20.7006
   -20.6951 -20.6784 -20.6769 -20.6581 -20.6518 -20.6467 -20.6344 -20.6338
   -20.6152 -20.6115 -20.5962 -20.5855 -20.5678 -20.5676 -20.5640 -20.5515
   -20.5462 -20.5422 -20.5352 -20.5326 -20.5260 -20.5212 -20.5191 -20.5106
   -20.5094 -20.5041 -20.5009 -20.4959 -20.4900 -20.4847 -20.4793 -20.4383
   -20.4334  -9.3310  -8.0031  -7.4290  -6.4819  -6.1271  -6.0354  -5.1335
    -4.7900  -3.5487  -3.3891  -2.7705  -2.1258  -1.7369  -1.7017  -1.2896
    -1.2196  -0.9616  -0.7408  -0.6711  -0.4915  -0.2243   0.1584   0.3249
     0.4632   0.5106   0.7233   0.7595   0.9609   1.0389   1.0879   1.3246
     1.5201   1.7995   2.0122   2.4002   2.5418   3.0639   3.4406   3.5007
     3.6768   4.0086   4.3324   4.3554   4.5923   4.6310   4.7971   5.1444
     5.2989   5.5001   5.6300   5.8481   6.1207   6.2012   6.5939   6.6377
     6.7552   6.9831   7.0790   7.6067   7.6801

          k = 0.0529 0.0000 0.0000 ( 22021 PWs)   bands (ev):

   -84.3475 -84.1952 -84.1888 -43.6771 -43.6770 -43.6085 -43.5458 -43.5448
   -43.5448 -43.5423 -43.5423 -43.4534 -20.8844 -20.8824 -20.8435 -20.8367
   -20.7815 -20.7644 -20.7447 -20.7349 -20.7259 -20.7172 -20.7107 -20.7083
   -20.7010 -20.6920 -20.6759 -20.6641 -20.6584 -20.6454 -20.6390 -20.6354
   -20.6250 -20.6140 -20.5884 -20.5855 -20.5717 -20.5668 -20.5621 -20.5518
   -20.5445 -20.5394 -20.5316 -20.5286 -20.5200 -20.5177 -20.5146 -20.5082
   -20.5043 -20.5017 -20.4964 -20.4927 -20.4887 -20.4754 -20.4704 -20.4365
   -20.4321  -9.4707  -8.0583  -6.9871  -6.8804  -6.0662  -5.5149  -5.4197
    -4.3710  -4.0771  -2.8257  -2.6092  -2.2820  -1.8863  -1.7750  -1.5338
    -1.3062  -1.0551  -0.7661  -0.5546  -0.4727  -0.2019  -0.1474   0.1303
     0.3698   0.5288   0.5832   0.7123   0.7570   0.9402   1.2488   1.3982
     1.4834   1.9276   2.0435   2.3914   2.6715   2.8875   3.1668   3.6198
     3.7872   4.0091   4.1586   4.4233   4.4595   4.9693   5.1037   5.2711
     5.4001   5.6414   5.6924   5.7417   6.0241   6.2620   6.5254   6.6391
     6.7051   7.2892   7.3385   7.5287   7.5651

          k =-0.0793-0.0458 0.0000 ( 21900 PWs)   bands (ev):

   -84.3475 -84.1952 -84.1888 -43.6771 -43.6770 -43.6085 -43.5458 -43.5449
   -43.5448 -43.5423 -43.5423 -43.4534 -20.8936 -20.8247 -20.8104 -20.7948
   -20.7940 -20.7674 -20.7666 -20.7590 -20.7392 -20.7213 -20.6946 -20.6889
   -20.6824 -20.6784 -20.6656 -20.6534 -20.6363 -20.6289 -20.6223 -20.6155
   -20.6108 -20.6005 -20.5919 -20.5873 -20.5736 -20.5663 -20.5641 -20.5600
   -20.5545 -20.5525 -20.5466 -20.5430 -20.5361 -20.5299 -20.5276 -20.5273
   -20.5223 -20.5138 -20.5098 -20.5017 -20.4918 -20.4913 -20.4862 -20.4452
   -20.4410  -8.8022  -8.4242  -7.2791  -6.9614  -6.1957  -6.1143  -5.3569
    -4.8180  -3.6536  -3.4070  -3.0301  -2.1390  -1.5620  -1.3415  -1.1013
    -1.0859  -1.0509  -0.5702  -0.4902  -0.2196  -0.0990   0.2365   0.4738
     0.5714   0.6395   0.6889   0.8725   0.9460   1.1459   1.2775   1.5110
     1.7030   1.7162   2.1728   2.5152   2.5481   2.8321   2.8771   3.1571
     3.6084   3.7344   4.1554   4.2107   4.3388   4.9123   5.0925   5.5176
     5.6810   5.7447   5.9186   6.1315   6.1497   6.1984   6.4998   6.7493
     6.8458   6.8843   6.9763   7.1502   7.2395

          k =-0.0793-0.0153 0.0000 ( 21919 PWs)   bands (ev):

   -84.3475 -84.1952 -84.1888 -43.6771 -43.6771 -43.6085 -43.5458 -43.5448
   -43.5448 -43.5423 -43.5423 -43.4534 -20.8805 -20.8417 -20.8211 -20.7935
   -20.7930 -20.7758 -20.7598 -20.7442 -20.7312 -20.7101 -20.6995 -20.6912
   -20.6818 -20.6751 -20.6671 -20.6584 -20.6443 -20.6355 -20.6308 -20.6237
   -20.6174 -20.6044 -20.5896 -20.5847 -20.5767 -20.5729 -20.5634 -20.5572
   -20.5540 -20.5466 -20.5406 -20.5363 -20.5326 -20.5296 -20.5239 -20.5175
   -20.5140 -20.5136 -20.5019 -20.4980 -20.4935 -20.4892 -20.4852 -20.4570
   -20.4545  -8.9324  -8.1015  -7.4060  -7.0983  -6.4071  -5.8030  -5.4942
    -4.7167  -4.0131  -3.1552  -2.4625  -2.0142  -1.5628  -1.3808  -1.3320
    -1.1285  -0.9337  -0.6814  -0.5317  -0.4215  -0.1895   0.1654   0.2631
     0.4399   0.5176   0.6207   0.7618   0.8594   1.0773   1.2458   1.4129
     1.8393   2.0529   2.2281   2.4417   2.6107   2.9417   3.2378   3.4803
     3.7445   4.0500   4.2432   4.3442   4.6009   4.8436   5.0778   5.2567
     5.6526   5.7458   5.8838   5.9655   6.1334   6.2721   6.4983   6.5994
     6.7211   6.7604   6.8493   7.0008   7.1390

          k =-0.0793 0.0153 0.0000 ( 21919 PWs)   bands (ev):

   -84.3475 -84.1952 -84.1888 -43.6771 -43.6771 -43.6085 -43.5458 -43.5448
   -43.5448 -43.5423 -43.5423 -43.4534 -20.8805 -20.8417 -20.8211 -20.7935
   -20.7930 -20.7758 -20.7598 -20.7442 -20.7312 -20.7101 -20.6995 -20.6912
   -20.6818 -20.6751 -20.6671 -20.6584 -20.6443 -20.6355 -20.6308 -20.6237
   -20.6174 -20.6044 -20.5896 -20.5847 -20.5767 -20.5729 -20.5634 -20.5572
   -20.5540 -20.5466 -20.5406 -20.5363 -20.5326 -20.5296 -20.5239 -20.5175
   -20.5140 -20.5136 -20.5019 -20.4980 -20.4935 -20.4892 -20.4852 -20.4570
   -20.4545  -8.9324  -8.1014  -7.4060  -7.0983  -6.4071  -5.8030  -5.4942
    -4.7166  -4.0131  -3.1552  -2.4625  -2.0142  -1.5628  -1.3808  -1.3319
    -1.1285  -0.9337  -0.6814  -0.5317  -0.4215  -0.1895   0.1654   0.2631
     0.4399   0.5176   0.6207   0.7618   0.8594   1.0773   1.2458   1.4129
     1.8393   2.0529   2.2281   2.4417   2.6106   2.9417   3.2378   3.4803
     3.7445   4.0500   4.2431   4.3442   4.6009   4.8436   5.0778   5.2567
     5.6526   5.7458   5.8838   5.9655   6.1334   6.2721   6.4983   6.5994
     6.7211   6.7604   6.8493   7.0008   7.1389

          k =-0.0793-0.1374 0.0000 ( 21900 PWs)   bands (ev):

   -84.3475 -84.1952 -84.1888 -43.6771 -43.6770 -43.6085 -43.5458 -43.5449
   -43.5448 -43.5423 -43.5423 -43.4534 -20.8936 -20.8247 -20.8104 -20.7948
   -20.7940 -20.7674 -20.7666 -20.7590 -20.7392 -20.7213 -20.6946 -20.6889
   -20.6824 -20.6784 -20.6656 -20.6534 -20.6363 -20.6289 -20.6223 -20.6155
   -20.6108 -20.6005 -20.5919 -20.5873 -20.5736 -20.5663 -20.5641 -20.5600
   -20.5545 -20.5525 -20.5466 -20.5430 -20.5361 -20.5299 -20.5275 -20.5273
   -20.5223 -20.5138 -20.5098 -20.5017 -20.4918 -20.4913 -20.4862 -20.4452
   -20.4410  -8.8022  -8.4241  -7.2791  -6.9614  -6.1957  -6.1143  -5.3569
    -4.8180  -3.6536  -3.4070  -3.0301  -2.1390  -1.5620  -1.3415  -1.1013
    -1.0859  -1.0509  -0.5702  -0.4902  -0.2196  -0.0990   0.2364   0.4738
     0.5714   0.6395   0.6889   0.8725   0.9460   1.1459   1.2775   1.5110
     1.7029   1.7162   2.1727   2.5152   2.5482   2.8321   2.8771   3.1571
     3.6084   3.7344   4.1553   4.2108   4.3388   4.9123   5.0926   5.5176
     5.6810   5.7448   5.9186   6.1316   6.1497   6.1984   6.4998   6.7493
     6.8458   6.8843   6.9763   7.1502   7.2396

     the Fermi energy is     1.2790 ev

!    total energy              =   -2045.14438206 Ry
     Harris-Foulkes estimate   =   -2045.14438269 Ry
     estimated scf accuracy    <       0.00000073 Ry

     The total energy is the sum of the following terms:

     one-electron contribution =  -12927.73267782 Ry
     hartree contribution      =    6508.46144301 Ry
     xc contribution           =    -516.82145107 Ry
     ewald contribution        =    4891.00977925 Ry
     electric field correction =       0.00001653 Ry
     smearing contrib. (-TS)   =      -0.06149196 Ry

     convergence has been achieved in  19 iterations
 
 BEEF-vdW xc energy contributions
           1 :   -453.924892055921     
           2 :    416.761665574309     
           3 :   -353.173425487266     
           4 :    280.044849206753     
           5 :   -213.817489246914     
           6 :    164.905739605607     
           7 :   -135.324545008392     
           8 :    120.088883682521     
           9 :   -111.228738026075     
          10 :    102.162465300127     
          11 :   -90.3174035338848     
          12 :    77.0699258903998     
          13 :   -65.6193495107671     
          14 :    58.3794542123818     
          15 :   -55.4469959991338     
          16 :    54.8069377842118     
          17 :   -53.8270280858278     
          18 :    50.9110096475679     
          19 :   -46.2748633887236     
          20 :    41.4903948151409     
          21 :   -38.2505146576902     
          22 :    37.2286320328511     
          23 :   -37.7388269145199     
          24 :    38.3088396739111     
          25 :   -37.6921776023119     
          26 :    35.6206240948841     
          27 :   -32.8480116170867     
          28 :    30.5367065760844     
          29 :   -29.4569493804025     
          30 :    29.5352758405332     
          31 :   -40.3747463824229     
          32 :   -29.7402350896715     

     Forces acting on atoms (Ry/au):


     negative rho (up, down):  3.455E-01 0.000E+00
     atom    1 type  1   force =    -0.00000048    0.02426828   -0.00963036
     atom    2 type  1   force =     0.02101570   -0.01213648   -0.00961497
     atom    3 type  1   force =    -0.02101645   -0.01213903   -0.00961547
     atom    4 type  2   force =     0.00000124    0.00000106    0.07009800
     atom    5 type  1   force =     0.00000348   -0.02248309   -0.01360781
     atom    6 type  1   force =    -0.01946784    0.01124290   -0.01359966
     atom    7 type  1   force =     0.01946858    0.01124356   -0.01360325
     atom    8 type  2   force =    -0.00000153    0.00000563   -0.00041480
     atom    9 type  1   force =    -0.00000411   -0.00008438    0.00000603
     atom   10 type  1   force =    -0.00007442    0.00004460   -0.00000282
     atom   11 type  1   force =     0.00007513    0.00004647   -0.00000677
     atom   12 type  2   force =     0.00000070   -0.00000951   -0.00000813

     Total force =     0.095026     Total SCF correction =     0.004021


     entering subroutine stress ...


     negative rho (up, down):  3.455E-01 0.000E+00
          total   stress  (Ry/bohr**3)                   (kbar)     P=   -9.63
  -0.00007450  -0.00000000  -0.00000000        -10.96     -0.00     -0.00
  -0.00000000  -0.00007449   0.00000000         -0.00    -10.96      0.00
  -0.00000000   0.00000000  -0.00004732         -0.00      0.00     -6.96

 !ASE

     Writing output data file calc.save
 
     init_run     :     22.57s CPU     33.76s WALL (       1 calls)
     electrons    :   1153.53s CPU   1832.18s WALL (       1 calls)
     forces       :      3.78s CPU      4.60s WALL (       1 calls)
     stress       :      8.91s CPU     10.48s WALL (       1 calls)

     Called by init_run:
     wfcinit      :     19.61s CPU     29.82s WALL (       1 calls)
     potinit      :      1.51s CPU      2.30s WALL (       1 calls)

     Called by electrons:
     c_bands      :    905.67s CPU   1447.17s WALL (      19 calls)
     sum_band     :    167.05s CPU    266.10s WALL (      19 calls)
     v_of_rho     :     27.99s CPU     42.26s WALL (      20 calls)
     newd         :      9.68s CPU     10.21s WALL (      20 calls)
     mix_rho      :      1.16s CPU      1.77s WALL (      19 calls)
     vdW_energy   :      1.76s CPU      1.78s WALL (      56 calls)
     vdW_ffts     :     48.28s CPU     75.43s WALL (     114 calls)
     vdW_v        :      8.37s CPU     12.49s WALL (      56 calls)

     Called by c_bands:
     init_us_2    :      0.59s CPU      0.61s WALL (     820 calls)
     cegterg      :    893.39s CPU   1431.13s WALL (     380 calls)

     Called by *egterg:
     h_psi        :    706.62s CPU   1209.26s WALL (    1620 calls)
     s_psi        :      8.99s CPU      9.11s WALL (    1620 calls)
     g_psi        :      0.42s CPU      0.45s WALL (    1220 calls)
     cdiaghg      :    100.95s CPU    106.23s WALL (    1600 calls)

     Called by h_psi:
     add_vuspsi   :      9.16s CPU      9.27s WALL (    1620 calls)

     General routines
     calbec       :     30.58s CPU     41.39s WALL (    2040 calls)
     fft          :     72.92s CPU    113.97s WALL (    3423 calls)
     ffts         :      0.29s CPU      0.46s WALL (      39 calls)
     fftw         :    814.46s CPU   1403.29s WALL (  254994 calls)
     interpolate  :      1.12s CPU      1.74s WALL (      39 calls)
     davcio       :      0.00s CPU      0.02s WALL (      20 calls)
 
     Parallel routines
     fft_scatter  :    864.05s CPU   1491.71s WALL (  258456 calls)
 
     PWSCF        : 19m50.11s CPU    31m23.12s WALL

 
   This run was terminated on:  16:50:28   1Jan2019            

=------------------------------------------------------------------------------=
   JOB DONE.
=------------------------------------------------------------------------------=
Job  /afs/slac/g/suncat/bin/suncat-tsmpirun -x LD_LIBRARY_PATH -wdir /scratch/qe649027_9655Z pw.x -in pw.inp

TID   HOST_NAME   COMMAND_LINE            STATUS            TERMINATION_TIME
===== ========== ================  =======================  ===================
00000 suncat0043 pw.x -in pw.inp   Done                     01/01/2019 16:50:28
00001 suncat0043 pw.x -in pw.inp   Done                     01/01/2019 16:50:28
00002 suncat0043 pw.x -in pw.inp   Done                     01/01/2019 16:50:28
00003 suncat0043 pw.x -in pw.inp   Done                     01/01/2019 16:50:28
00004 suncat0043 pw.x -in pw.inp   Done                     01/01/2019 16:50:28
00005 suncat0043 pw.x -in pw.inp   Done                     01/01/2019 16:50:28
00006 suncat0043 pw.x -in pw.inp   Done                     01/01/2019 16:50:28
00007 suncat0043 pw.x -in pw.inp   Done                     01/01/2019 16:50:28
00008 suncat0041 pw.x -in pw.inp   Done                     01/01/2019 16:50:28
00009 suncat0041 pw.x -in pw.inp   Done                     01/01/2019 16:50:28
00010 suncat0041 pw.x -in pw.inp   Done                     01/01/2019 16:50:28
00011 suncat0041 pw.x -in pw.inp   Done                     01/01/2019 16:50:28
00012 suncat0041 pw.x -in pw.inp   Done                     01/01/2019 16:50:28
00013 suncat0041 pw.x -in pw.inp   Done                     01/01/2019 16:50:28
00014 suncat0041 pw.x -in pw.inp   Done                     01/01/2019 16:50:28
00015 suncat0041 pw.x -in pw.inp   Done                     01/01/2019 16:50:28
00016 suncat0039 pw.x -in pw.inp   Done                     01/01/2019 16:50:28
00017 suncat0039 pw.x -in pw.inp   Done                     01/01/2019 16:50:28
00018 suncat0039 pw.x -in pw.inp   Done                     01/01/2019 16:50:28
00019 suncat0039 pw.x -in pw.inp   Done                     01/01/2019 16:50:28
00020 suncat0039 pw.x -in pw.inp   Done                     01/01/2019 16:50:28
00021 suncat0039 pw.x -in pw.inp   Done                     01/01/2019 16:50:28
00022 suncat0039 pw.x -in pw.inp   Done                     01/01/2019 16:50:28
00023 suncat0039 pw.x -in pw.inp   Done                     01/01/2019 16:50:28
00024 suncat0025 pw.x -in pw.inp   Done                     01/01/2019 16:50:28
00025 suncat0025 pw.x -in pw.inp   Done                     01/01/2019 16:50:28
00026 suncat0025 pw.x -in pw.inp   Done                     01/01/2019 16:50:28
00027 suncat0025 pw.x -in pw.inp   Done                     01/01/2019 16:50:28
00028 suncat0025 pw.x -in pw.inp   Done                     01/01/2019 16:50:28
00029 suncat0025 pw.x -in pw.inp   Done                     01/01/2019 16:50:28
00030 suncat0025 pw.x -in pw.inp   Done                     01/01/2019 16:50:28
00031 suncat0025 pw.x -in pw.inp   Done                     01/01/2019 16:50:28
00032 suncat0013 pw.x -in pw.inp   Done                     01/01/2019 16:50:28
00033 suncat0013 pw.x -in pw.inp   Done                     01/01/2019 16:50:28
00034 suncat0013 pw.x -in pw.inp   Done                     01/01/2019 16:50:28
00035 suncat0013 pw.x -in pw.inp   Done                     01/01/2019 16:50:28
00036 suncat0013 pw.x -in pw.inp   Done                     01/01/2019 16:50:28
00037 suncat0013 pw.x -in pw.inp   Done                     01/01/2019 16:50:28
00038 suncat0013 pw.x -in pw.inp   Done                     01/01/2019 16:50:28
00039 suncat0013 pw.x -in pw.inp   Done                     01/01/2019 16:50:28
00040 suncat0008 pw.x -in pw.inp   Done                     01/01/2019 16:50:28
00041 suncat0008 pw.x -in pw.inp   Done                     01/01/2019 16:50:28
00042 suncat0008 pw.x -in pw.inp   Done                     01/01/2019 16:50:28
00043 suncat0008 pw.x -in pw.inp   Done                     01/01/2019 16:50:28
00044 suncat0008 pw.x -in pw.inp   Done                     01/01/2019 16:50:28
00045 suncat0008 pw.x -in pw.inp   Done                     01/01/2019 16:50:28
00046 suncat0008 pw.x -in pw.inp   Done                     01/01/2019 16:50:28
00047 suncat0008 pw.x -in pw.inp   Done                     01/01/2019 16:50:28
00048 suncat0117 pw.x -in pw.inp   Done                     01/01/2019 16:50:28
00049 suncat0117 pw.x -in pw.inp   Done                     01/01/2019 16:50:28
00050 suncat0117 pw.x -in pw.inp   Done                     01/01/2019 16:50:28
00051 suncat0117 pw.x -in pw.inp   Done                     01/01/2019 16:50:28
00052 suncat0117 pw.x -in pw.inp   Done                     01/01/2019 16:50:28
00053 suncat0117 pw.x -in pw.inp   Done                     01/01/2019 16:50:28
00054 suncat0117 pw.x -in pw.inp   Done                     01/01/2019 16:50:28
00055 suncat0117 pw.x -in pw.inp   Done                     01/01/2019 16:50:28
00056 suncat0250 pw.x -in pw.inp   Done                     01/01/2019 16:50:28
00057 suncat0250 pw.x -in pw.inp   Done                     01/01/2019 16:50:28
00058 suncat0250 pw.x -in pw.inp   Done                     01/01/2019 16:50:28
00059 suncat0250 pw.x -in pw.inp   Done                     01/01/2019 16:50:28
00060 suncat0250 pw.x -in pw.inp   Done                     01/01/2019 16:50:28
00061 suncat0250 pw.x -in pw.inp   Done                     01/01/2019 16:50:28
00062 suncat0250 pw.x -in pw.inp   Done                     01/01/2019 16:50:28
00063 suncat0250 pw.x -in pw.inp   Done                     01/01/2019 16:50:28
