  python dir          : /u/if/mamunm/src/espresso
  espresso dir        : /nfs/slac/g/suncatfs/sw/espv18/espresso-dynpy-beef/bin
  pseudo dir          : /afs/slac.stanford.edu/u/if/mamunm/psp/gbrv1.5pbe
  ase-espresso py git : GITVERSION



     Program PWSCF v.5.1rc2 (svn rev. 11289) starts on 30Dec2018 at 16:33:35 

     This program is part of the open-source Quantum ESPRESSO suite
     for quantum simulation of materials; please cite
         "P. Giannozzi et al., J. Phys.:Condens. Matter 21 395502 (2009);
          URL http://www.quantum-espresso.org", 
     in publications or presentations arising from this work. More details at
     http://www.quantum-espresso.org/quote

     Parallel version (MPI), running on    64 processors
     R & G space division:  proc/nbgrp/npool/nimage =      64
     Reading input from pw.inp
     Message from routine read_cards :
     DEPRECATED: no units specified in CELL_PARAMETERS card

     Current dimensions of program PWSCF are:
     Max number of different atomic species (ntypx) = 10
     Max number of k-points (npk) =  40000
     Max angular momentum in pseudopotentials (lmaxx) =  3
     Presently stress not available with electric field


     **************************************************************************
     Initializing libbeef V0.1.1 with the BEEF-vdW functional.
     Citation: Wellendorff et al., PRB 85, 235149 (2012).
     **************************************************************************


     IMPORTANT: XC functional enforced from input :
     Exchange-correlation      = BEEF-VDW ( 1  4 27 13 2)
     Any further DFT definition will be discarded
     Please, verify this is what you really want


     Subspace diagonalization in iterative solution of the eigenvalue problem:
     a serial algorithm will be used

 
     Parallelization info
     --------------------
     sticks:   dense  smooth     PW     G-vecs:    dense   smooth      PW
     Min          45      18      5                 8593     2164     349
     Max          46      19      6                 8620     2197     368
     Sum        2905    1159    349               550605   139265   22947
 


     bravais-lattice index     =            0
     lattice parameter (alat)  =       1.8897  a.u.
     unit-cell volume          =    4626.2805 (a.u.)^3
     number of atoms/cell      =           12
     number of atomic types    =            2
     number of electrons       =       159.00
     number of Kohn-Sham states=          109
     kinetic-energy cutoff     =      36.7493  Ry
     charge density cutoff     =     367.4932  Ry
     convergence threshold     =      1.0E-06
     mixing beta               =       0.1000
     number of iterations used =           10  plain     mixing
     Exchange-correlation      = BEEF-VDW ( 1  4 27 13 2)
     nstep                     =           50


     celldm(1)=   1.889726  celldm(2)=   0.000000  celldm(3)=   0.000000
     celldm(4)=   0.000000  celldm(5)=   0.000000  celldm(6)=   0.000000

     crystal axes: (cart. coord. in units of alat)
               a(1) = (   5.669298   0.000000   0.000000 )  
               a(2) = (  -2.834649   4.909756   0.000000 )  
               a(3) = (   0.000000   0.000000  24.628963 )  

     reciprocal axes: (cart. coord. in units 2 pi/alat)
               b(1) = (  0.176389  0.101838  0.000000 )  
               b(2) = (  0.000000  0.203676  0.000000 )  
               b(3) = (  0.000000  0.000000  0.040603 )  


     PseudoPot. # 1 for Mo read from file:
     /afs/slac.stanford.edu/u/if/mamunm/psp/gbrv1.5pbe/Mo.UPF
     MD5 check sum: 30c4dcd161f5d35cd49bb5239c51a633
     Pseudo is Ultrasoft + core correction, Zval = 14.0
     Generated by new atomic code, or converted to UPF format
     Using radial grid of  889 points,  6 beta functions with: 
                l(1) =   0
                l(2) =   0
                l(3) =   1
                l(4) =   1
                l(5) =   2
                l(6) =   2
     Q(r) pseudized with  6 coefficients,  rinner =    1.000   1.000   1.000
                                                       1.000   1.000

     PseudoPot. # 2 for Au read from file:
     /afs/slac.stanford.edu/u/if/mamunm/psp/gbrv1.5pbe/Au.UPF
     MD5 check sum: 9d7f43293ad2c663164586bc4b293ffc
     Pseudo is Ultrasoft + core correction, Zval = 11.0
     Generated by new atomic code, or converted to UPF format
     Using radial grid of  985 points,  7 beta functions with: 
                l(1) =   0
                l(2) =   0
                l(3) =   1
                l(4) =   1
                l(5) =   2
                l(6) =   2
                l(7) =   3
     Q(r) pseudized with  6 coefficients,  rinner =    1.900   1.900   1.900
                                                       1.900   1.900   1.900
                                                       1.900

     vdW kernel table read from file vdW_kernel_table
     MD5 check sum: 095c7af220d748ca6e76c0b4c6cfb241

     atomic species   valence    mass     pseudopotential
        Mo1           14.00    95.95000     Mo( 1.00)
        Au1           11.00   196.96657     Au( 1.00)

     No symmetry found



   Cartesian axes

     site n.     atom                  positions (alat units)
         1           Mo1 tau(   1) = (   0.0000000   0.0000000  10.0000000  )
         2           Mo1 tau(   2) = (  -1.4173246   2.4548781  10.0000000  )
         3           Mo1 tau(   3) = (   1.4173246   2.4548781  10.0000000  )
         4           Au1 tau(   4) = (   2.8346491   0.0000000  10.0000000  )
         5           Mo1 tau(   5) = (   2.8346491   1.6365854  12.3144813  )
         6           Mo1 tau(   6) = (   1.4173246   4.0914636  12.3144813  )
         7           Mo1 tau(   7) = (  -1.4173246   4.0914636  12.3144813  )
         8           Au1 tau(   8) = (   0.0000000   1.6365854  12.3144813  )
         9           Mo1 tau(   9) = (  -0.0000000   3.2731709  14.6289626  )
        10           Mo1 tau(  10) = (   1.4173246   0.8182927  14.6289626  )
        11           Mo1 tau(  11) = (   4.2519737   0.8182927  14.6289626  )
        12           Au1 tau(  12) = (   2.8346491   3.2731709  14.6289626  )

     number of k points=    20  Fermi-Dirac smearing, width (Ry)=  0.0110
                       cart. coord. in units 2pi/alat
        k(    1) = (   0.0000000   0.0000000   0.0000000), wk =   0.0555556
        k(    2) = (   0.0000000   0.0339460   0.0000000), wk =   0.1111111
        k(    3) = (   0.0000000   0.0678920   0.0000000), wk =   0.1111111
        k(    4) = (   0.0000000  -0.1018380   0.0000000), wk =   0.0555556
        k(    5) = (   0.0293981   0.0169730   0.0000000), wk =   0.1111111
        k(    6) = (   0.0293981   0.0509190   0.0000000), wk =   0.1111111
        k(    7) = (   0.0293981   0.0848650   0.0000000), wk =   0.1111111
        k(    8) = (   0.0293981  -0.0848650   0.0000000), wk =   0.1111111
        k(    9) = (   0.0293981  -0.0509190   0.0000000), wk =   0.1111111
        k(   10) = (   0.0293981  -0.0169730   0.0000000), wk =   0.1111111
        k(   11) = (   0.0587962   0.0339460   0.0000000), wk =   0.1111111
        k(   12) = (   0.0587962   0.0678920   0.0000000), wk =   0.1111111
        k(   13) = (   0.0587962   0.1018380   0.0000000), wk =   0.1111111
        k(   14) = (   0.0587962  -0.0678920   0.0000000), wk =   0.1111111
        k(   15) = (   0.0587962  -0.0339460   0.0000000), wk =   0.1111111
        k(   16) = (   0.0587962   0.0000000   0.0000000), wk =   0.1111111
        k(   17) = (  -0.0881943  -0.0509190   0.0000000), wk =   0.0555556
        k(   18) = (  -0.0881943  -0.0169730   0.0000000), wk =   0.1111111
        k(   19) = (  -0.0881943   0.0169730   0.0000000), wk =   0.1111111
        k(   20) = (  -0.0881943  -0.1527571   0.0000000), wk =   0.0555556

     Dense  grid:   550605 G-vectors     FFT dimensions: (  72,  72, 288)

     Smooth grid:   139265 G-vectors     FFT dimensions: (  45,  45, 180)

     Largest allocated arrays     est. size (Mb)     dimensions
        Kohn-Sham Wavefunctions         0.49 Mb     (     295,  109)
        NL pseudopotentials             1.07 Mb     (     295,  237)
        Each V/rho on FFT grid          0.40 Mb     (   25920)
        Each G-vector array             0.07 Mb     (    8593)
        G-vector shells                 0.03 Mb     (    4180)
     Largest temporary arrays     est. size (Mb)     dimensions
        Auxiliary wavefunctions         1.96 Mb     (     295,  436)
        Each subspace H/S matrix        2.90 Mb     (     436,  436)
        Each <psi_i|beta_j> matrix      0.39 Mb     (     237,  109)
        Arrays for rho mixing           3.96 Mb     (   25920,   10)

     Check: negative/imaginary core charge=   -0.000001    0.000000

     Initial potential from superposition of free atoms
     Check: negative starting charge=   -0.004582

     starting charge  158.99006, renormalised to  159.00000

     negative rho (up, down):  4.582E-03 0.000E+00


     ************************************************************************
     *
     * You are using vdW-DF for exchange-correlation in this calculation.
     * Please cite the following three references that made this development
     * possible:
     *
     *   M. Dion, H. Rydberg, E. Schroder, D. C. Langreth, and
     *   B. I. Lundqvist, Phys. Rev. Lett. 92, 246401 (2004).
     *
     *   T. Thonhauser, V. R. Cooper, S. Li, A. Puzder, P. Hyldgaard, and
     *   D. C. Langreth, Phys. Rev. B 76, 125112 (2007).
     *
     *   G. Roman-Perez and J. M. Soler, Phys. Rev. Lett. 103, 096102 (2009).
     *
     *
     * If you are using vdW-DF2, please also cite:
     *
     *   K. Lee, E. D. Murray, L. Kong, B. I. Lundqvist, and
     *   D. C. Langreth, Phys. Rev. B 82, 081101(R) (2010).
     *
     *
     * If you are calculating the stress with vdW-DF, please also cite:
     *
     *   R. Sabatini, E. Kucukbenli, B. Kolb, T. Thonhauser, and
     *   S. de Gironcoli, J. Phys.: Condens. Matter 24, 424209 (2012).
     *
     ************************************************************************

     Carrying out vdW-DF run using the following parameters:

     Nqs =      20    Nr_points =    1024   r_max =   100.000
     q_mesh =
               0.00001000     0.04494208     0.09755937     0.15916263
               0.23128650     0.31572767     0.41458969     0.53033537
               0.66584808     0.82450364     1.01025438     1.22772762
               1.48234092     1.78043706     2.12944203     2.53805004
               3.01644009     3.57652955     4.23227104     5.00000000

     Gradients computed in reciprocal space

     ************************************************************************


 
     Adding external electric field

     Computed dipole along edir(3) : 
        Dipole               -0.0000 Ry au,         -0.0000 Debye
        Dipole field         -0.0000 Ry au
 
        Potential amp.        0.0000 Ry
        Total length         45.3784 bohr
 
     Starting wfc are  144 randomized atomic wfcs

     total cpu time spent up to now is       27.7 secs

     per-process dynamical memory:    40.4 Mb

     Self-consistent Calculation

     iteration #  1     ecut=    36.75 Ry     beta=0.10
     Davidson diagonalization with overlap
     ethr =  1.00E-02,  avg # of iterations =  2.0

     negative rho (up, down):  4.512E-03 0.000E+00
 
     Adding external electric field

     Computed dipole along edir(3) : 
        Dipole               -0.0003 Ry au,         -0.0007 Debye
        Dipole field         -0.0000 Ry au
 
        Potential amp.        0.0001 Ry
        Total length         45.3784 bohr
 

     total cpu time spent up to now is       77.4 secs

     total energy              =   -1609.05620317 Ry
     Harris-Foulkes estimate   =   -1610.35886326 Ry
     estimated scf accuracy    <       7.32287080 Ry

     iteration #  2     ecut=    36.75 Ry     beta=0.10
     Davidson diagonalization with overlap
     ethr =  4.61E-03,  avg # of iterations =  1.0

     negative rho (up, down):  4.522E-03 0.000E+00
 
     Adding external electric field

     Computed dipole along edir(3) : 
        Dipole                0.0000 Ry au,          0.0000 Debye
        Dipole field          0.0000 Ry au
 
        Potential amp.       -0.0000 Ry
        Total length         45.3784 bohr
 

     total cpu time spent up to now is      124.2 secs

     total energy              =   -1609.40521070 Ry
     Harris-Foulkes estimate   =   -1609.65770608 Ry
     estimated scf accuracy    <       1.64069905 Ry

     iteration #  3     ecut=    36.75 Ry     beta=0.10
     Davidson diagonalization with overlap
     ethr =  1.03E-03,  avg # of iterations =  1.0

     negative rho (up, down):  4.545E-03 0.000E+00
 
     Adding external electric field

     Computed dipole along edir(3) : 
        Dipole               -0.0020 Ry au,         -0.0052 Debye
        Dipole field         -0.0000 Ry au
 
        Potential amp.        0.0005 Ry
        Total length         45.3784 bohr
 

     total cpu time spent up to now is      170.7 secs

     total energy              =   -1609.46214276 Ry
     Harris-Foulkes estimate   =   -1609.55798266 Ry
     estimated scf accuracy    <       0.72655188 Ry

     iteration #  4     ecut=    36.75 Ry     beta=0.10
     Davidson diagonalization with overlap
     ethr =  4.57E-04,  avg # of iterations =  2.1

     negative rho (up, down):  4.577E-03 0.000E+00
 
     Adding external electric field

     Computed dipole along edir(3) : 
        Dipole                0.0342 Ry au,          0.0869 Debye
        Dipole field          0.0001 Ry au
 
        Potential amp.       -0.0084 Ry
        Total length         45.3784 bohr
 

     total cpu time spent up to now is      218.4 secs

     total energy              =   -1609.47333026 Ry
     Harris-Foulkes estimate   =   -1609.50044443 Ry
     estimated scf accuracy    <       0.13965808 Ry

     iteration #  5     ecut=    36.75 Ry     beta=0.10
     Davidson diagonalization with overlap
     ethr =  8.78E-05,  avg # of iterations =  9.6

     negative rho (up, down):  4.575E-03 0.000E+00
 
     Adding external electric field

     Computed dipole along edir(3) : 
        Dipole               -0.0325 Ry au,         -0.0826 Debye
        Dipole field         -0.0001 Ry au
 
        Potential amp.        0.0080 Ry
        Total length         45.3784 bohr
 

     total cpu time spent up to now is      284.7 secs

     total energy              =   -1609.47876214 Ry
     Harris-Foulkes estimate   =   -1609.48481276 Ry
     estimated scf accuracy    <       0.18514263 Ry

     iteration #  6     ecut=    36.75 Ry     beta=0.10
     Davidson diagonalization with overlap
     ethr =  8.78E-05,  avg # of iterations =  1.0

     negative rho (up, down):  4.570E-03 0.000E+00
 
     Adding external electric field

     Computed dipole along edir(3) : 
        Dipole               -0.0007 Ry au,         -0.0017 Debye
        Dipole field         -0.0000 Ry au
 
        Potential amp.        0.0002 Ry
        Total length         45.3784 bohr
 

     total cpu time spent up to now is      333.8 secs

     total energy              =   -1609.46961963 Ry
     Harris-Foulkes estimate   =   -1609.48419905 Ry
     estimated scf accuracy    <       0.16278080 Ry

     iteration #  7     ecut=    36.75 Ry     beta=0.10
     Davidson diagonalization with overlap
     ethr =  8.78E-05,  avg # of iterations =  1.0

     negative rho (up, down):  4.575E-03 0.000E+00
 
     Adding external electric field

     Computed dipole along edir(3) : 
        Dipole               -0.0003 Ry au,         -0.0007 Debye
        Dipole field         -0.0000 Ry au
 
        Potential amp.        0.0001 Ry
        Total length         45.3784 bohr
 

     total cpu time spent up to now is      384.5 secs

     total energy              =   -1609.47666343 Ry
     Harris-Foulkes estimate   =   -1609.47689837 Ry
     estimated scf accuracy    <       0.01429918 Ry

     iteration #  8     ecut=    36.75 Ry     beta=0.10
     Davidson diagonalization with overlap
     ethr =  8.99E-06,  avg # of iterations =  5.0

     negative rho (up, down):  4.558E-03 0.000E+00
 
     Adding external electric field

     Computed dipole along edir(3) : 
        Dipole               -0.0001 Ry au,         -0.0002 Debye
        Dipole field         -0.0000 Ry au
 
        Potential amp.        0.0000 Ry
        Total length         45.3784 bohr
 

     total cpu time spent up to now is      446.8 secs

     total energy              =   -1609.47478200 Ry
     Harris-Foulkes estimate   =   -1609.47790404 Ry
     estimated scf accuracy    <       0.00640860 Ry

     iteration #  9     ecut=    36.75 Ry     beta=0.10
     Davidson diagonalization with overlap
     ethr =  4.03E-06,  avg # of iterations =  5.3

     negative rho (up, down):  4.554E-03 0.000E+00
 
     Adding external electric field

     Computed dipole along edir(3) : 
        Dipole                0.0007 Ry au,          0.0018 Debye
        Dipole field          0.0000 Ry au
 
        Potential amp.       -0.0002 Ry
        Total length         45.3784 bohr
 

     total cpu time spent up to now is      510.4 secs

     total energy              =   -1609.47650034 Ry
     Harris-Foulkes estimate   =   -1609.47705661 Ry
     estimated scf accuracy    <       0.00606675 Ry

     iteration # 10     ecut=    36.75 Ry     beta=0.10
     Davidson diagonalization with overlap
     ethr =  3.82E-06,  avg # of iterations =  2.0

     negative rho (up, down):  4.547E-03 0.000E+00
 
     Adding external electric field

     Computed dipole along edir(3) : 
        Dipole                0.0000 Ry au,          0.0001 Debye
        Dipole field          0.0000 Ry au
 
        Potential amp.       -0.0000 Ry
        Total length         45.3784 bohr
 

     total cpu time spent up to now is      560.0 secs

     total energy              =   -1609.47649814 Ry
     Harris-Foulkes estimate   =   -1609.47679873 Ry
     estimated scf accuracy    <       0.00162747 Ry

     iteration # 11     ecut=    36.75 Ry     beta=0.10
     Davidson diagonalization with overlap
     ethr =  1.02E-06,  avg # of iterations =  1.9

     negative rho (up, down):  4.540E-03 0.000E+00
 
     Adding external electric field

     Computed dipole along edir(3) : 
        Dipole               -0.0001 Ry au,         -0.0003 Debye
        Dipole field         -0.0000 Ry au
 
        Potential amp.        0.0000 Ry
        Total length         45.3784 bohr
 

     total cpu time spent up to now is      608.8 secs

     total energy              =   -1609.47655012 Ry
     Harris-Foulkes estimate   =   -1609.47660559 Ry
     estimated scf accuracy    <       0.00036578 Ry

     iteration # 12     ecut=    36.75 Ry     beta=0.10
     Davidson diagonalization with overlap
     ethr =  2.30E-07,  avg # of iterations =  2.0

     negative rho (up, down):  4.530E-03 0.000E+00
 
     Adding external electric field

     Computed dipole along edir(3) : 
        Dipole               -0.0001 Ry au,         -0.0001 Debye
        Dipole field         -0.0000 Ry au
 
        Potential amp.        0.0000 Ry
        Total length         45.3784 bohr
 

     total cpu time spent up to now is      660.9 secs

     total energy              =   -1609.47657173 Ry
     Harris-Foulkes estimate   =   -1609.47657544 Ry
     estimated scf accuracy    <       0.00011641 Ry

     iteration # 13     ecut=    36.75 Ry     beta=0.10
     Davidson diagonalization with overlap
     ethr =  7.32E-08,  avg # of iterations =  2.0

     negative rho (up, down):  4.521E-03 0.000E+00
 
     Adding external electric field

     Computed dipole along edir(3) : 
        Dipole               -0.0000 Ry au,         -0.0000 Debye
        Dipole field         -0.0000 Ry au
 
        Potential amp.        0.0000 Ry
        Total length         45.3784 bohr
 

     total cpu time spent up to now is      713.8 secs

     total energy              =   -1609.47656998 Ry
     Harris-Foulkes estimate   =   -1609.47657715 Ry
     estimated scf accuracy    <       0.00004785 Ry

     iteration # 14     ecut=    36.75 Ry     beta=0.10
     Davidson diagonalization with overlap
     ethr =  3.01E-08,  avg # of iterations =  2.0

     negative rho (up, down):  4.518E-03 0.000E+00
 
     Adding external electric field

     Computed dipole along edir(3) : 
        Dipole                0.0000 Ry au,          0.0000 Debye
        Dipole field          0.0000 Ry au
 
        Potential amp.       -0.0000 Ry
        Total length         45.3784 bohr
 

     total cpu time spent up to now is      771.5 secs

     total energy              =   -1609.47657792 Ry
     Harris-Foulkes estimate   =   -1609.47657683 Ry
     estimated scf accuracy    <       0.00000403 Ry

     iteration # 15     ecut=    36.75 Ry     beta=0.10
     Davidson diagonalization with overlap
     ethr =  2.54E-09,  avg # of iterations =  2.2

     negative rho (up, down):  4.515E-03 0.000E+00
 
     Adding external electric field

     Computed dipole along edir(3) : 
        Dipole                0.0000 Ry au,          0.0000 Debye
        Dipole field          0.0000 Ry au
 
        Potential amp.       -0.0000 Ry
        Total length         45.3784 bohr
 

     total cpu time spent up to now is      824.3 secs

     total energy              =   -1609.47657931 Ry
     Harris-Foulkes estimate   =   -1609.47657823 Ry
     estimated scf accuracy    <       0.00000236 Ry

     iteration # 16     ecut=    36.75 Ry     beta=0.10
     Davidson diagonalization with overlap
     ethr =  1.48E-09,  avg # of iterations =  2.0

     negative rho (up, down):  4.519E-03 0.000E+00

     negative rho (up, down):  4.519E-03 0.000E+00

     negative rho (up, down):  4.519E-03 0.000E+00

     negative rho (up, down):  4.519E-03 0.000E+00

     negative rho (up, down):  4.519E-03 0.000E+00

     negative rho (up, down):  4.519E-03 0.000E+00

     negative rho (up, down):  4.519E-03 0.000E+00

     negative rho (up, down):  4.519E-03 0.000E+00

     negative rho (up, down):  4.519E-03 0.000E+00

     negative rho (up, down):  4.519E-03 0.000E+00

     negative rho (up, down):  4.519E-03 0.000E+00

     negative rho (up, down):  4.519E-03 0.000E+00

     negative rho (up, down):  4.519E-03 0.000E+00

     negative rho (up, down):  4.519E-03 0.000E+00

     negative rho (up, down):  4.519E-03 0.000E+00

     negative rho (up, down):  4.519E-03 0.000E+00

     negative rho (up, down):  4.519E-03 0.000E+00

     negative rho (up, down):  4.519E-03 0.000E+00

     negative rho (up, down):  4.519E-03 0.000E+00

     negative rho (up, down):  4.519E-03 0.000E+00

     negative rho (up, down):  4.519E-03 0.000E+00

     negative rho (up, down):  4.519E-03 0.000E+00

     negative rho (up, down):  4.519E-03 0.000E+00

     negative rho (up, down):  4.519E-03 0.000E+00

     negative rho (up, down):  4.519E-03 0.000E+00

     negative rho (up, down):  4.519E-03 0.000E+00

     negative rho (up, down):  4.519E-03 0.000E+00

     negative rho (up, down):  4.519E-03 0.000E+00

     negative rho (up, down):  4.519E-03 0.000E+00

     negative rho (up, down):  4.519E-03 0.000E+00

     negative rho (up, down):  4.519E-03 0.000E+00

     negative rho (up, down):  4.519E-03 0.000E+00

     negative rho (up, down):  4.519E-03 0.000E+00

     negative rho (up, down):  4.519E-03 0.000E+00

     negative rho (up, down):  4.519E-03 0.000E+00
 
     Adding external electric field

     Computed dipole along edir(3) : 
        Dipole                0.0001 Ry au,          0.0001 Debye
        Dipole field          0.0000 Ry au
 
        Potential amp.       -0.0000 Ry
        Total length         45.3784 bohr
 

     total cpu time spent up to now is      925.8 secs

     End of self-consistent calculation

          k = 0.0000 0.0000 0.0000 ( 17471 PWs)   bands (ev):

   -59.3044 -59.1956 -59.1821 -59.1821 -59.1725 -59.0912 -59.0911 -59.0847
   -59.0846 -33.7994 -33.6189 -33.5757 -33.5604 -33.5604 -33.5233 -33.4986
   -33.4986 -33.3613 -33.3612 -33.2815 -33.1915 -33.1915 -33.1793 -33.1793
   -33.0996 -32.9706 -32.9705 -32.9637 -32.9533 -32.8875 -32.8714 -32.8714
   -32.7367 -32.7366 -32.7305 -32.7304  -5.4893  -4.3151  -4.3151  -4.2562
    -4.2241  -4.0455  -4.0455  -3.7731  -3.7294  -3.7294  -3.6538  -3.6538
    -3.5934  -2.9191  -2.9191  -2.8034  -2.8034  -2.6666  -2.4262  -1.8708
    -0.9425  -0.6032  -0.4993  -0.1484  -0.1484   0.0208   0.0208   0.3518
     0.3519   0.7132   0.7132   0.7979   0.9591   0.9592   1.0474   1.0474
     1.2784   1.4271   1.6547   1.6547   2.0763   2.3458   2.3458   2.5194
     2.5908   3.0095   3.5890   3.5890   3.6121   3.6121   3.6519   3.6519
     3.8620   3.8620   4.1825   4.1825   4.2096   4.2194   4.2195   4.3366
     4.3366   4.7800   4.7800   4.7839   5.6084   5.6515   5.8235   5.9448
     5.9584   6.0264   6.0264   6.0397   6.1947

          k = 0.0000 0.0339 0.0000 ( 17416 PWs)   bands (ev):

   -59.2972 -59.1954 -59.1835 -59.1821 -59.1674 -59.0972 -59.0911 -59.0900
   -59.0846 -33.7587 -33.5952 -33.5578 -33.5344 -33.5343 -33.5083 -33.4872
   -33.4779 -33.3517 -33.3327 -33.2809 -33.2066 -33.2055 -33.1767 -33.1759
   -33.1005 -33.0032 -32.9820 -32.9648 -32.9467 -32.9120 -32.9098 -32.8768
   -32.7840 -32.7820 -32.7438 -32.7402  -5.2686  -4.2290  -4.1863  -4.0679
    -4.0421  -3.9552  -3.9522  -3.7306  -3.6386  -3.6279  -3.5753  -3.5128
    -3.4538  -2.9557  -2.9332  -2.7630  -2.7399  -2.5009  -2.4237  -1.7129
    -0.8178  -0.6190  -0.4211  -0.3285  -0.1372  -0.1044   0.0922   0.1616
     0.4167   0.4292   0.6629   0.7594   0.7666   0.9682   1.0571   1.1031
     1.1889   1.1889   1.6623   1.7470   1.9232   1.9406   2.0786   2.1798
     2.4772   2.7305   2.7719   2.8930   3.2162   3.3386   3.4547   3.6227
     3.6363   3.8745   3.8775   4.0560   4.0988   4.1787   4.2181   4.3460
     4.6279   4.6693   4.7027   4.7921   5.0014   5.0434   5.4922   5.7169
     6.0280   6.1427   6.4127   6.4552   6.8127

          k = 0.0000 0.0679 0.0000 ( 17388 PWs)   bands (ev):

   -59.2781 -59.2125 -59.1822 -59.1698 -59.1537 -59.1131 -59.1039 -59.0911
   -59.0844 -33.6748 -33.5704 -33.5199 -33.5001 -33.4670 -33.4511 -33.4295
   -33.4053 -33.3010 -33.2760 -33.2681 -33.2464 -33.2133 -33.1988 -33.1583
   -33.0994 -33.0689 -33.0550 -33.0000 -32.9892 -32.9556 -32.9428 -32.9237
   -32.8816 -32.8729 -32.7571 -32.7559  -4.7207  -4.0124  -3.9306  -3.8414
    -3.7851  -3.7217  -3.6841  -3.5140  -3.3922  -3.3581  -3.2751  -3.1929
    -3.0330  -2.9906  -2.9336  -2.7194  -2.6349  -2.4107  -2.0853  -1.4694
    -1.0695  -0.7292  -0.6032  -0.3388  -0.2947  -0.2640  -0.0089   0.1136
     0.1888   0.2473   0.4214   0.5543   0.6872   0.7998   0.8485   0.8984
     1.1706   1.2494   1.3453   1.3654   1.5734   1.7394   1.7719   1.8380
     1.9440   2.0425   2.1053   2.5999   2.6480   2.7954   3.0117   3.1062
     3.4185   3.4594   3.6283   3.6603   3.7262   3.7291   3.7891   3.8944
     4.1178   4.2845   4.4551   4.6809   5.2928   5.3789   5.4121   5.9278
     6.0411   6.6764   6.7594   7.1062   7.2191

          k = 0.0000-0.1018 0.0000 ( 17388 PWs)   bands (ev):

   -59.2615 -59.2292 -59.1822 -59.1561 -59.1428 -59.1263 -59.1155 -59.0911
   -59.0843 -33.6413 -33.5575 -33.5267 -33.4219 -33.4181 -33.4065 -33.3792
   -33.3730 -33.3223 -33.2899 -33.2181 -33.2165 -33.1704 -33.1657 -33.1492
   -33.1218 -33.1213 -33.0917 -33.0766 -33.0646 -33.0584 -32.9604 -32.9500
   -32.8997 -32.8823 -32.7630 -32.7625  -4.3560  -3.9109  -3.8195  -3.7857
    -3.6822  -3.5306  -3.4372  -3.4189  -3.3060  -3.2834  -3.0326  -2.9329
    -2.9079  -2.8579  -2.7540  -2.6317  -2.5819  -2.2472  -1.9715  -1.5206
    -1.4484  -1.1953  -0.5571  -0.5015  -0.4938  -0.1963  -0.0711   0.0865
     0.0909   0.1425   0.4614   0.5448   0.5768   0.5816   0.8211   0.9189
     1.0064   1.0783   1.1871   1.2023   1.4704   1.5548   1.5967   1.7988
     1.9491   1.9532   2.1376   2.1430   2.4091   2.6360   2.7272   3.0269
     3.0736   3.2146   3.2311   3.4213   3.4233   3.4934   3.5822   3.6795
     3.9200   4.4366   4.6555   4.6610   5.1379   5.3863   5.4173   5.9983
     6.5505   6.9572   7.1749   7.2263   7.4851

          k = 0.0294 0.0170 0.0000 ( 17416 PWs)   bands (ev):

   -59.2972 -59.1954 -59.1835 -59.1821 -59.1674 -59.0972 -59.0912 -59.0900
   -59.0846 -33.7587 -33.5952 -33.5578 -33.5344 -33.5343 -33.5083 -33.4872
   -33.4779 -33.3517 -33.3327 -33.2809 -33.2066 -33.2055 -33.1767 -33.1759
   -33.1005 -33.0032 -32.9820 -32.9648 -32.9467 -32.9120 -32.9098 -32.8769
   -32.7840 -32.7820 -32.7438 -32.7402  -5.2686  -4.2290  -4.1863  -4.0679
    -4.0421  -3.9552  -3.9522  -3.7306  -3.6386  -3.6279  -3.5753  -3.5128
    -3.4538  -2.9557  -2.9332  -2.7630  -2.7399  -2.5009  -2.4237  -1.7129
    -0.8179  -0.6190  -0.4211  -0.3285  -0.1372  -0.1044   0.0922   0.1616
     0.4167   0.4292   0.6629   0.7594   0.7666   0.9682   1.0571   1.1031
     1.1889   1.1889   1.6623   1.7470   1.9232   1.9406   2.0786   2.1798
     2.4772   2.7305   2.7719   2.8930   3.2162   3.3386   3.4547   3.6227
     3.6363   3.8745   3.8775   4.0560   4.0988   4.1787   4.2181   4.3460
     4.6279   4.6693   4.7027   4.7921   5.0014   5.0434   5.4922   5.7169
     6.0280   6.1427   6.4127   6.4552   6.8127

          k = 0.0294 0.0509 0.0000 ( 17441 PWs)   bands (ev):

   -59.2839 -59.2056 -59.1840 -59.1742 -59.1574 -59.1060 -59.1029 -59.0886
   -59.0861 -33.6905 -33.5608 -33.5535 -33.5021 -33.4833 -33.4656 -33.4633
   -33.4155 -33.3355 -33.2879 -33.2715 -33.2357 -33.2081 -33.2076 -33.1479
   -33.1041 -33.0531 -33.0278 -32.9832 -32.9540 -32.9508 -32.9465 -32.8926
   -32.8608 -32.8432 -32.7623 -32.7619  -4.8715  -4.0468  -3.9917  -3.8860
    -3.8277  -3.7634  -3.7205  -3.6384  -3.5005  -3.4592  -3.3752  -3.2351
    -3.2139  -2.9997  -2.9169  -2.7529  -2.6420  -2.4289  -2.2010  -1.4497
    -0.7918  -0.7362  -0.4854  -0.3642  -0.3604  -0.2957   0.0801   0.1234
     0.1460   0.2823   0.4615   0.5715   0.6865   0.8787   0.8976   1.0106
     1.1552   1.2790   1.5167   1.6080   1.6448   1.7136   1.7567   1.9721
     2.0297   2.0491   2.2970   2.6787   2.8024   2.9363   3.0907   3.1584
     3.5184   3.5478   3.6534   3.6624   3.7706   3.8789   4.1584   4.3138
     4.4051   4.5659   4.6076   4.6733   4.9217   4.9517   5.2145   5.4830
     6.3128   6.5062   6.5465   6.8803   7.0440

          k = 0.0294 0.0849 0.0000 ( 17380 PWs)   bands (ev):

   -59.2627 -59.2256 -59.1858 -59.1568 -59.1427 -59.1223 -59.1171 -59.0897
   -59.0862 -33.6152 -33.5465 -33.5148 -33.4843 -33.4395 -33.3923 -33.3703
   -33.3495 -33.3425 -33.2801 -33.2519 -33.2389 -33.2056 -33.1741 -33.1417
   -33.1364 -33.1009 -33.0885 -33.0579 -33.0219 -32.9957 -32.9563 -32.9487
   -32.9019 -32.8874 -32.7843 -32.7817  -4.3173  -3.8432  -3.7936  -3.7116
    -3.6892  -3.5893  -3.4649  -3.3511  -3.3423  -3.2602  -3.1196  -3.0818
    -2.9079  -2.8685  -2.7932  -2.7663  -2.5445  -2.3193  -1.8363  -1.5133
    -1.1626  -1.0097  -0.7251  -0.4874  -0.4253  -0.1962  -0.0731  -0.0523
     0.0432   0.1626   0.2187   0.3678   0.4486   0.6674   0.7989   0.9210
     0.9949   1.0390   1.1818   1.2690   1.3477   1.6009   1.7434   1.7987
     1.9645   2.0742   2.1306   2.1790   2.5074   2.6431   2.7657   3.0662
     3.1959   3.2907   3.4330   3.4726   3.5373   3.6425   3.7493   3.8735
     4.0681   4.2280   4.3964   4.7642   4.8289   4.9857   5.1328   5.5841
     6.2897   6.6585   7.1529   7.4503   7.7626

          k = 0.0294-0.0849 0.0000 ( 17380 PWs)   bands (ev):

   -59.2627 -59.2256 -59.1858 -59.1568 -59.1427 -59.1223 -59.1172 -59.0896
   -59.0862 -33.6152 -33.5465 -33.5148 -33.4843 -33.4395 -33.3923 -33.3703
   -33.3495 -33.3425 -33.2800 -33.2518 -33.2389 -33.2056 -33.1742 -33.1417
   -33.1365 -33.1009 -33.0885 -33.0579 -33.0219 -32.9956 -32.9563 -32.9487
   -32.9019 -32.8874 -32.7843 -32.7817  -4.3173  -3.8432  -3.7936  -3.7116
    -3.6892  -3.5893  -3.4649  -3.3511  -3.3423  -3.2602  -3.1196  -3.0818
    -2.9079  -2.8684  -2.7932  -2.7663  -2.5445  -2.3193  -1.8363  -1.5133
    -1.1626  -1.0097  -0.7251  -0.4874  -0.4253  -0.1962  -0.0731  -0.0524
     0.0432   0.1627   0.2187   0.3678   0.4486   0.6674   0.7989   0.9209
     0.9948   1.0389   1.1818   1.2690   1.3477   1.6009   1.7434   1.7987
     1.9645   2.0742   2.1306   2.1790   2.5073   2.6431   2.7657   3.0661
     3.1959   3.2908   3.4330   3.4726   3.5373   3.6425   3.7493   3.8736
     4.0681   4.2280   4.3964   4.7642   4.8289   4.9857   5.1328   5.5841
     6.2897   6.6585   7.1529   7.4503   7.7615

          k = 0.0294-0.0509 0.0000 ( 17441 PWs)   bands (ev):

   -59.2839 -59.2056 -59.1840 -59.1742 -59.1574 -59.1060 -59.1029 -59.0885
   -59.0860 -33.6905 -33.5608 -33.5535 -33.5021 -33.4833 -33.4656 -33.4633
   -33.4156 -33.3354 -33.2878 -33.2715 -33.2357 -33.2081 -33.2076 -33.1479
   -33.1041 -33.0532 -33.0279 -32.9832 -32.9540 -32.9508 -32.9465 -32.8926
   -32.8608 -32.8432 -32.7623 -32.7618  -4.8715  -4.0468  -3.9917  -3.8860
    -3.8277  -3.7634  -3.7205  -3.6384  -3.5005  -3.4592  -3.3752  -3.2351
    -3.2139  -2.9997  -2.9169  -2.7529  -2.6420  -2.4289  -2.2010  -1.4497
    -0.7918  -0.7362  -0.4854  -0.3642  -0.3604  -0.2956   0.0801   0.1234
     0.1460   0.2823   0.4616   0.5715   0.6865   0.8787   0.8976   1.0106
     1.1551   1.2790   1.5167   1.6080   1.6448   1.7136   1.7567   1.9720
     2.0297   2.0491   2.2970   2.6788   2.8023   2.9363   3.0907   3.1584
     3.5185   3.5478   3.6534   3.6624   3.7706   3.8789   4.1585   4.3139
     4.4051   4.5659   4.6076   4.6733   4.9217   4.9517   5.2145   5.4829
     6.3128   6.5062   6.5465   6.8803   7.0440

          k = 0.0294-0.0170 0.0000 ( 17416 PWs)   bands (ev):

   -59.2972 -59.1954 -59.1835 -59.1821 -59.1674 -59.0972 -59.0911 -59.0901
   -59.0845 -33.7587 -33.5952 -33.5578 -33.5344 -33.5343 -33.5082 -33.4872
   -33.4780 -33.3516 -33.3328 -33.2809 -33.2066 -33.2056 -33.1767 -33.1759
   -33.1005 -33.0032 -32.9820 -32.9648 -32.9467 -32.9120 -32.9097 -32.8769
   -32.7840 -32.7820 -32.7438 -32.7401  -5.2686  -4.2290  -4.1863  -4.0679
    -4.0421  -3.9551  -3.9522  -3.7306  -3.6386  -3.6279  -3.5753  -3.5128
    -3.4537  -2.9557  -2.9332  -2.7630  -2.7399  -2.5009  -2.4237  -1.7129
    -0.8178  -0.6190  -0.4211  -0.3285  -0.1372  -0.1044   0.0922   0.1616
     0.4167   0.4292   0.6629   0.7594   0.7666   0.9682   1.0571   1.1031
     1.1888   1.1889   1.6623   1.7470   1.9232   1.9406   2.0785   2.1798
     2.4772   2.7305   2.7719   2.8930   3.2162   3.3386   3.4547   3.6227
     3.6363   3.8745   3.8775   4.0560   4.0988   4.1786   4.2181   4.3460
     4.6279   4.6694   4.7027   4.7921   5.0014   5.0434   5.4922   5.7168
     6.0281   6.1427   6.4127   6.4552   6.8127

          k = 0.0588 0.0339 0.0000 ( 17388 PWs)   bands (ev):

   -59.2781 -59.2124 -59.1822 -59.1698 -59.1537 -59.1131 -59.1039 -59.0911
   -59.0844 -33.6748 -33.5704 -33.5199 -33.5001 -33.4670 -33.4511 -33.4295
   -33.4053 -33.3010 -33.2760 -33.2681 -33.2464 -33.2132 -33.1988 -33.1583
   -33.0994 -33.0689 -33.0550 -33.0000 -32.9892 -32.9556 -32.9428 -32.9237
   -32.8816 -32.8729 -32.7572 -32.7559  -4.7207  -4.0124  -3.9306  -3.8414
    -3.7851  -3.7217  -3.6841  -3.5140  -3.3922  -3.3581  -3.2751  -3.1929
    -3.0330  -2.9906  -2.9336  -2.7194  -2.6349  -2.4107  -2.0853  -1.4694
    -1.0695  -0.7292  -0.6032  -0.3388  -0.2947  -0.2640  -0.0089   0.1136
     0.1888   0.2473   0.4214   0.5543   0.6872   0.7998   0.8486   0.8984
     1.1706   1.2494   1.3453   1.3654   1.5734   1.7394   1.7719   1.8380
     1.9440   2.0425   2.1053   2.5999   2.6480   2.7954   3.0117   3.1062
     3.4185   3.4594   3.6283   3.6603   3.7262   3.7291   3.7891   3.8944
     4.1178   4.2845   4.4551   4.6809   5.2928   5.3788   5.4121   5.9278
     6.0411   6.6764   6.7594   7.1062   7.2191

          k = 0.0588 0.0679 0.0000 ( 17380 PWs)   bands (ev):

   -59.2627 -59.2256 -59.1858 -59.1568 -59.1427 -59.1223 -59.1171 -59.0897
   -59.0862 -33.6152 -33.5465 -33.5148 -33.4843 -33.4395 -33.3923 -33.3703
   -33.3495 -33.3425 -33.2801 -33.2519 -33.2389 -33.2056 -33.1741 -33.1417
   -33.1365 -33.1009 -33.0885 -33.0579 -33.0219 -32.9957 -32.9563 -32.9487
   -32.9019 -32.8874 -32.7843 -32.7817  -4.3173  -3.8432  -3.7936  -3.7116
    -3.6892  -3.5893  -3.4649  -3.3511  -3.3423  -3.2602  -3.1196  -3.0818
    -2.9079  -2.8685  -2.7932  -2.7663  -2.5445  -2.3193  -1.8363  -1.5133
    -1.1626  -1.0097  -0.7251  -0.4874  -0.4253  -0.1962  -0.0731  -0.0523
     0.0432   0.1626   0.2187   0.3678   0.4486   0.6674   0.7989   0.9210
     0.9949   1.0390   1.1818   1.2690   1.3477   1.6009   1.7434   1.7987
     1.9645   2.0742   2.1306   2.1790   2.5074   2.6431   2.7657   3.0662
     3.1959   3.2907   3.4330   3.4726   3.5373   3.6425   3.7492   3.8735
     4.0681   4.2280   4.3964   4.7642   4.8289   4.9857   5.1328   5.5841
     6.2897   6.6585   7.1529   7.4503   7.7617

          k = 0.0588 0.1018 0.0000 ( 17364 PWs)   bands (ev):

   -59.2431 -59.2430 -59.1892 -59.1436 -59.1316 -59.1315 -59.1301 -59.0885
   -59.0885 -33.5396 -33.5396 -33.5010 -33.4587 -33.4586 -33.4428 -33.2967
   -33.2967 -33.2821 -33.2800 -33.2719 -33.2719 -33.2483 -33.2482 -33.1256
   -33.1177 -33.1077 -33.1077 -33.0187 -33.0108 -33.0077 -33.0077 -32.9326
   -32.9326 -32.8980 -32.8095 -32.8095  -3.9720  -3.7207  -3.7207  -3.6044
    -3.6044  -3.5468  -3.3747  -3.3747  -3.1792  -3.1735  -3.0499  -3.0499
    -2.9921  -2.9920  -2.8027  -2.6885  -2.4028  -2.4028  -1.5427  -1.5427
    -1.1131  -0.8224  -0.8224  -0.7799  -0.5377  -0.3970  -0.3969   0.0260
     0.0260   0.2513   0.2987   0.3696   0.3697   0.5874   0.6267   0.6267
     0.8597   0.8597   0.8658   1.1453   1.1453   1.3309   1.7778   1.9583
     1.9583   2.1586   2.2429   2.2429   2.5894   3.0396   3.0396   3.1649
     3.1774   3.1774   3.3713   3.3713   3.5163   3.6387   3.7382   3.7382
     4.0096   4.0096   4.0937   4.3923   4.3923   4.7230   5.1491   5.7418
     5.7418   7.2208   7.2208   7.5135   7.9557

          k = 0.0588-0.0679 0.0000 ( 17380 PWs)   bands (ev):

   -59.2627 -59.2256 -59.1858 -59.1568 -59.1427 -59.1224 -59.1172 -59.0896
   -59.0862 -33.6152 -33.5465 -33.5148 -33.4843 -33.4395 -33.3922 -33.3703
   -33.3494 -33.3425 -33.2801 -33.2519 -33.2389 -33.2056 -33.1742 -33.1417
   -33.1365 -33.1010 -33.0885 -33.0579 -33.0219 -32.9956 -32.9562 -32.9487
   -32.9019 -32.8874 -32.7843 -32.7817  -4.3173  -3.8432  -3.7936  -3.7116
    -3.6892  -3.5893  -3.4649  -3.3511  -3.3423  -3.2602  -3.1196  -3.0818
    -2.9079  -2.8684  -2.7932  -2.7663  -2.5445  -2.3193  -1.8363  -1.5132
    -1.1626  -1.0097  -0.7251  -0.4873  -0.4253  -0.1962  -0.0731  -0.0524
     0.0432   0.1627   0.2187   0.3678   0.4486   0.6674   0.7989   0.9209
     0.9948   1.0389   1.1818   1.2690   1.3477   1.6009   1.7434   1.7987
     1.9645   2.0741   2.1305   2.1790   2.5074   2.6432   2.7657   3.0661
     3.1959   3.2908   3.4330   3.4726   3.5373   3.6425   3.7493   3.8736
     4.0681   4.2280   4.3964   4.7642   4.8289   4.9857   5.1328   5.5841
     6.2897   6.6585   7.1529   7.4503   7.7628

          k = 0.0588-0.0339 0.0000 ( 17388 PWs)   bands (ev):

   -59.2781 -59.2124 -59.1822 -59.1698 -59.1537 -59.1132 -59.1039 -59.0911
   -59.0843 -33.6748 -33.5704 -33.5199 -33.5001 -33.4670 -33.4511 -33.4295
   -33.4053 -33.3010 -33.2760 -33.2681 -33.2464 -33.2133 -33.1988 -33.1583
   -33.0994 -33.0689 -33.0550 -33.0001 -32.9892 -32.9556 -32.9428 -32.9237
   -32.8816 -32.8729 -32.7571 -32.7559  -4.7207  -4.0124  -3.9306  -3.8414
    -3.7851  -3.7217  -3.6841  -3.5140  -3.3922  -3.3581  -3.2751  -3.1929
    -3.0330  -2.9906  -2.9336  -2.7194  -2.6349  -2.4107  -2.0853  -1.4694
    -1.0695  -0.7292  -0.6031  -0.3388  -0.2947  -0.2640  -0.0089   0.1137
     0.1888   0.2473   0.4214   0.5543   0.6872   0.7998   0.8486   0.8984
     1.1706   1.2494   1.3453   1.3654   1.5734   1.7393   1.7719   1.8380
     1.9440   2.0425   2.1053   2.5999   2.6480   2.7954   3.0117   3.1062
     3.4185   3.4594   3.6283   3.6603   3.7262   3.7291   3.7891   3.8944
     4.1178   4.2845   4.4551   4.6809   5.2927   5.3789   5.4121   5.9277
     6.0411   6.6764   6.7594   7.1062   7.2191

          k = 0.0588 0.0000 0.0000 ( 17441 PWs)   bands (ev):

   -59.2839 -59.2056 -59.1840 -59.1742 -59.1574 -59.1060 -59.1029 -59.0885
   -59.0860 -33.6905 -33.5608 -33.5535 -33.5021 -33.4833 -33.4656 -33.4633
   -33.4156 -33.3354 -33.2878 -33.2715 -33.2357 -33.2081 -33.2076 -33.1479
   -33.1041 -33.0532 -33.0279 -32.9832 -32.9540 -32.9508 -32.9465 -32.8926
   -32.8608 -32.8432 -32.7623 -32.7618  -4.8715  -4.0468  -3.9917  -3.8860
    -3.8277  -3.7634  -3.7205  -3.6384  -3.5005  -3.4592  -3.3752  -3.2351
    -3.2139  -2.9997  -2.9169  -2.7529  -2.6420  -2.4289  -2.2010  -1.4497
    -0.7918  -0.7362  -0.4854  -0.3642  -0.3604  -0.2956   0.0801   0.1234
     0.1460   0.2823   0.4616   0.5715   0.6865   0.8787   0.8976   1.0106
     1.1551   1.2790   1.5167   1.6080   1.6448   1.7136   1.7567   1.9720
     2.0297   2.0491   2.2970   2.6788   2.8024   2.9363   3.0907   3.1584
     3.5185   3.5478   3.6534   3.6624   3.7706   3.8789   4.1585   4.3139
     4.4051   4.5659   4.6076   4.6733   4.9217   4.9517   5.2145   5.4829
     6.3128   6.5062   6.5465   6.8804   7.0440

          k =-0.0882-0.0509 0.0000 ( 17388 PWs)   bands (ev):

   -59.2615 -59.2292 -59.1822 -59.1561 -59.1428 -59.1263 -59.1155 -59.0911
   -59.0843 -33.6414 -33.5575 -33.5267 -33.4219 -33.4181 -33.4065 -33.3792
   -33.3730 -33.3223 -33.2899 -33.2181 -33.2165 -33.1704 -33.1657 -33.1492
   -33.1218 -33.1213 -33.0917 -33.0765 -33.0646 -33.0584 -32.9604 -32.9500
   -32.8997 -32.8823 -32.7630 -32.7625  -4.3560  -3.9109  -3.8195  -3.7857
    -3.6822  -3.5306  -3.4372  -3.4189  -3.3060  -3.2834  -3.0326  -2.9329
    -2.9079  -2.8579  -2.7540  -2.6317  -2.5819  -2.2472  -1.9715  -1.5206
    -1.4484  -1.1953  -0.5571  -0.5015  -0.4938  -0.1963  -0.0711   0.0865
     0.0909   0.1425   0.4614   0.5448   0.5768   0.5816   0.8211   0.9189
     1.0064   1.0783   1.1872   1.2023   1.4704   1.5548   1.5967   1.7988
     1.9491   1.9532   2.1376   2.1430   2.4091   2.6360   2.7272   3.0269
     3.0736   3.2146   3.2311   3.4213   3.4233   3.4934   3.5822   3.6795
     3.9200   4.4366   4.6555   4.6610   5.1379   5.3863   5.4173   5.9983
     6.5505   6.9572   7.1749   7.2263   7.4852

          k =-0.0882-0.0170 0.0000 ( 17380 PWs)   bands (ev):

   -59.2627 -59.2256 -59.1858 -59.1568 -59.1427 -59.1223 -59.1172 -59.0896
   -59.0862 -33.6152 -33.5465 -33.5148 -33.4843 -33.4395 -33.3923 -33.3703
   -33.3495 -33.3425 -33.2800 -33.2518 -33.2389 -33.2056 -33.1742 -33.1417
   -33.1365 -33.1009 -33.0885 -33.0579 -33.0219 -32.9956 -32.9563 -32.9487
   -32.9019 -32.8874 -32.7843 -32.7817  -4.3173  -3.8432  -3.7936  -3.7116
    -3.6892  -3.5893  -3.4649  -3.3511  -3.3423  -3.2602  -3.1196  -3.0818
    -2.9079  -2.8684  -2.7932  -2.7663  -2.5445  -2.3193  -1.8363  -1.5133
    -1.1626  -1.0097  -0.7251  -0.4874  -0.4253  -0.1962  -0.0731  -0.0524
     0.0432   0.1626   0.2187   0.3678   0.4486   0.6674   0.7989   0.9209
     0.9948   1.0389   1.1818   1.2690   1.3477   1.6009   1.7434   1.7987
     1.9645   2.0742   2.1306   2.1790   2.5073   2.6431   2.7657   3.0661
     3.1959   3.2908   3.4330   3.4726   3.5373   3.6425   3.7493   3.8736
     4.0681   4.2280   4.3964   4.7642   4.8289   4.9857   5.1328   5.5841
     6.2897   6.6585   7.1529   7.4503   7.7627

          k =-0.0882 0.0170 0.0000 ( 17380 PWs)   bands (ev):

   -59.2627 -59.2256 -59.1858 -59.1568 -59.1427 -59.1224 -59.1172 -59.0896
   -59.0862 -33.6152 -33.5465 -33.5148 -33.4843 -33.4395 -33.3922 -33.3703
   -33.3494 -33.3425 -33.2801 -33.2519 -33.2389 -33.2056 -33.1742 -33.1417
   -33.1364 -33.1010 -33.0885 -33.0579 -33.0219 -32.9956 -32.9562 -32.9487
   -32.9019 -32.8874 -32.7843 -32.7817  -4.3173  -3.8432  -3.7936  -3.7116
    -3.6892  -3.5893  -3.4649  -3.3511  -3.3423  -3.2602  -3.1196  -3.0818
    -2.9079  -2.8684  -2.7932  -2.7663  -2.5445  -2.3193  -1.8363  -1.5132
    -1.1626  -1.0097  -0.7251  -0.4873  -0.4253  -0.1962  -0.0731  -0.0524
     0.0432   0.1627   0.2187   0.3678   0.4486   0.6674   0.7989   0.9209
     0.9948   1.0389   1.1818   1.2690   1.3477   1.6009   1.7434   1.7987
     1.9645   2.0741   2.1305   2.1790   2.5074   2.6432   2.7657   3.0661
     3.1959   3.2908   3.4330   3.4726   3.5373   3.6425   3.7493   3.8736
     4.0681   4.2280   4.3964   4.7642   4.8289   4.9857   5.1328   5.5841
     6.2897   6.6585   7.1529   7.4503   7.7627

          k =-0.0882-0.1528 0.0000 ( 17388 PWs)   bands (ev):

   -59.2615 -59.2292 -59.1822 -59.1561 -59.1428 -59.1264 -59.1156 -59.0911
   -59.0843 -33.6414 -33.5574 -33.5267 -33.4219 -33.4181 -33.4065 -33.3792
   -33.3730 -33.3223 -33.2899 -33.2182 -33.2164 -33.1705 -33.1657 -33.1492
   -33.1219 -33.1213 -33.0918 -33.0767 -33.0646 -33.0584 -32.9604 -32.9500
   -32.8997 -32.8823 -32.7629 -32.7624  -4.3560  -3.9109  -3.8195  -3.7857
    -3.6822  -3.5306  -3.4372  -3.4189  -3.3060  -3.2834  -3.0326  -2.9329
    -2.9079  -2.8579  -2.7540  -2.6317  -2.5819  -2.2472  -1.9715  -1.5205
    -1.4484  -1.1953  -0.5571  -0.5015  -0.4938  -0.1963  -0.0710   0.0865
     0.0909   0.1425   0.4614   0.5449   0.5768   0.5816   0.8211   0.9190
     1.0064   1.0783   1.1871   1.2022   1.4704   1.5549   1.5967   1.7988
     1.9490   1.9532   2.1375   2.1429   2.4091   2.6360   2.7273   3.0269
     3.0736   3.2146   3.2311   3.4213   3.4233   3.4934   3.5822   3.6795
     3.9200   4.4366   4.6556   4.6610   5.1379   5.3862   5.4173   5.9983
     6.5504   6.9572   7.1749   7.2263   7.4852

     the Fermi energy is     1.9248 ev

!    total energy              =   -1609.47658032 Ry
     Harris-Foulkes estimate   =   -1609.47657957 Ry
     estimated scf accuracy    <       0.00000068 Ry

     The total energy is the sum of the following terms:

     one-electron contribution =  -13294.67401481 Ry
     hartree contribution      =    6665.10226942 Ry
     xc contribution           =    -371.72284460 Ry
     ewald contribution        =    5391.90756066 Ry
     electric field correction =       0.00000000 Ry
     smearing contrib. (-TS)   =      -0.08955099 Ry

     convergence has been achieved in  16 iterations
 
 BEEF-vdW xc energy contributions
           1 :   -325.898369227892     
           2 :    300.683488565473     
           3 :   -256.446743851858     
           4 :    203.206594028236     
           5 :   -151.443540164453     
           6 :    109.036615244974     
           7 :   -79.5847294361672     
           8 :    62.4202739968050     
           9 :   -54.0013773825002     
          10 :    49.8878679325550     
          11 :   -46.4892889317522     
          12 :    41.9997146891244     
          13 :   -36.3905097404139     
          14 :    30.6952043034422     
          15 :   -26.0622290349363     
          16 :    23.0243688526060     
          17 :   -21.2689690491140     
          18 :    19.9042958620013     
          19 :   -18.0036715016320     
          20 :    15.1004084872964     
          21 :   -11.3925558609599     
          22 :    7.58501100825595     
          23 :   -4.49755592865654     
          24 :    2.65732679249703     
          25 :   -2.07483147372722     
          26 :    2.28068617444757     
          27 :   -2.57389299130500     
          28 :    2.33837880814008     
          29 :   -1.28034250701899     
          30 :  -0.508900771128197     
          31 :   -31.1398499918744     
          32 :   -23.4088948226811     

     Forces acting on atoms (Ry/au):


     negative rho (up, down):  4.519E-03 0.000E+00
     atom    1 type  1   force =     0.00000036   -0.01583445    0.03081160
     atom    2 type  1   force =    -0.01371725    0.00792091    0.03081449
     atom    3 type  1   force =     0.01371462    0.00791874    0.03081290
     atom    4 type  2   force =    -0.00000147   -0.00000109   -0.02384705
     atom    5 type  1   force =    -0.00000035    0.00000309    0.00000423
     atom    6 type  1   force =     0.00000343   -0.00000038    0.00000603
     atom    7 type  1   force =    -0.00000317   -0.00000000    0.00000516
     atom    8 type  2   force =     0.00000248   -0.00001129   -0.00000328
     atom    9 type  1   force =    -0.00000047    0.01583949   -0.03081628
     atom   10 type  1   force =     0.01371706   -0.00791867   -0.03081570
     atom   11 type  1   force =    -0.01371514   -0.00791734   -0.03081461
     atom   12 type  2   force =    -0.00000011    0.00000100    0.02384252

     Total force =     0.091319     Total SCF correction =     0.003140


     entering subroutine stress ...


     negative rho (up, down):  4.519E-03 0.000E+00
          total   stress  (Ry/bohr**3)                   (kbar)     P=  -23.35
  -0.00017211   0.00000000   0.00000000        -25.32      0.00      0.00
   0.00000000  -0.00017211  -0.00000000          0.00    -25.32     -0.00
   0.00000000  -0.00000000  -0.00013196          0.00     -0.00    -19.41

 !ASE

     Writing output data file calc.save
 
     init_run     :     15.42s CPU     27.02s WALL (       1 calls)
     electrons    :    544.61s CPU    898.42s WALL (       1 calls)
     forces       :      2.57s CPU      3.24s WALL (       1 calls)
     stress       :      6.09s CPU      7.32s WALL (       1 calls)

     Called by init_run:
     wfcinit      :     13.38s CPU     23.96s WALL (       1 calls)
     potinit      :      0.93s CPU      1.73s WALL (       1 calls)

     Called by electrons:
     c_bands      :    412.72s CPU    680.40s WALL (      16 calls)
     sum_band     :     81.11s CPU    141.43s WALL (      16 calls)
     v_of_rho     :     15.69s CPU     24.40s WALL (      17 calls)
     newd         :      4.69s CPU      4.95s WALL (      17 calls)
     mix_rho      :      0.67s CPU      1.04s WALL (      16 calls)
     vdW_energy   :      1.46s CPU      1.47s WALL (      53 calls)
     vdW_ffts     :     31.11s CPU     49.88s WALL (     108 calls)
     vdW_v        :      5.45s CPU      8.36s WALL (      53 calls)

     Called by c_bands:
     init_us_2    :      0.38s CPU      0.40s WALL (     700 calls)
     cegterg      :    407.76s CPU    674.15s WALL (     320 calls)

     Called by *egterg:
     h_psi        :    325.86s CPU    581.89s WALL (    1185 calls)
     s_psi        :      4.81s CPU      4.84s WALL (    1185 calls)
     g_psi        :      0.22s CPU      0.22s WALL (     845 calls)
     cdiaghg      :     49.41s CPU     53.17s WALL (    1165 calls)

     Called by h_psi:
     add_vuspsi   :      5.07s CPU      5.11s WALL (    1185 calls)

     General routines
     calbec       :     16.53s CPU     22.83s WALL (    1545 calls)
     fft          :     46.32s CPU     74.72s WALL (    3225 calls)
     ffts         :      0.16s CPU      0.30s WALL (      33 calls)
     fftw         :    373.95s CPU    682.65s WALL (  188202 calls)
     interpolate  :      0.65s CPU      1.03s WALL (      33 calls)
     davcio       :      0.00s CPU      0.02s WALL (      20 calls)
 
     Parallel routines
     fft_scatter  :    403.33s CPU    738.91s WALL (  191460 calls)
 
     PWSCF        :  9m29.79s CPU    15m37.83s WALL

 
   This run was terminated on:  16:49:13  30Dec2018            

=------------------------------------------------------------------------------=
   JOB DONE.
=------------------------------------------------------------------------------=
Job  /afs/slac/g/suncat/bin/suncat-tsmpirun -x LD_LIBRARY_PATH -wdir /scratch/qe648590_NA6pi pw.x -in pw.inp

TID   HOST_NAME   COMMAND_LINE            STATUS            TERMINATION_TIME
===== ========== ================  =======================  ===================
00000 suncat0058 pw.x -in pw.inp   Done                     12/30/2018 16:49:13
00001 suncat0058 pw.x -in pw.inp   Done                     12/30/2018 16:49:13
00002 suncat0058 pw.x -in pw.inp   Done                     12/30/2018 16:49:13
00003 suncat0058 pw.x -in pw.inp   Done                     12/30/2018 16:49:13
00004 suncat0058 pw.x -in pw.inp   Done                     12/30/2018 16:49:13
00005 suncat0058 pw.x -in pw.inp   Done                     12/30/2018 16:49:13
00006 suncat0058 pw.x -in pw.inp   Done                     12/30/2018 16:49:13
00007 suncat0058 pw.x -in pw.inp   Done                     12/30/2018 16:49:13
00008 suncat0054 pw.x -in pw.inp   Done                     12/30/2018 16:49:13
00009 suncat0054 pw.x -in pw.inp   Done                     12/30/2018 16:49:13
00010 suncat0054 pw.x -in pw.inp   Done                     12/30/2018 16:49:13
00011 suncat0054 pw.x -in pw.inp   Done                     12/30/2018 16:49:13
00012 suncat0054 pw.x -in pw.inp   Done                     12/30/2018 16:49:13
00013 suncat0054 pw.x -in pw.inp   Done                     12/30/2018 16:49:13
00014 suncat0054 pw.x -in pw.inp   Done                     12/30/2018 16:49:13
00015 suncat0054 pw.x -in pw.inp   Done                     12/30/2018 16:49:13
00016 suncat0180 pw.x -in pw.inp   Done                     12/30/2018 16:49:13
00017 suncat0180 pw.x -in pw.inp   Done                     12/30/2018 16:49:13
00018 suncat0180 pw.x -in pw.inp   Done                     12/30/2018 16:49:13
00019 suncat0180 pw.x -in pw.inp   Done                     12/30/2018 16:49:13
00020 suncat0180 pw.x -in pw.inp   Done                     12/30/2018 16:49:13
00021 suncat0180 pw.x -in pw.inp   Done                     12/30/2018 16:49:13
00022 suncat0180 pw.x -in pw.inp   Done                     12/30/2018 16:49:13
00023 suncat0180 pw.x -in pw.inp   Done                     12/30/2018 16:49:13
00024 suncat0167 pw.x -in pw.inp   Done                     12/30/2018 16:49:13
00025 suncat0167 pw.x -in pw.inp   Done                     12/30/2018 16:49:13
00026 suncat0167 pw.x -in pw.inp   Done                     12/30/2018 16:49:13
00027 suncat0167 pw.x -in pw.inp   Done                     12/30/2018 16:49:13
00028 suncat0167 pw.x -in pw.inp   Done                     12/30/2018 16:49:13
00029 suncat0167 pw.x -in pw.inp   Done                     12/30/2018 16:49:13
00030 suncat0167 pw.x -in pw.inp   Done                     12/30/2018 16:49:13
00031 suncat0167 pw.x -in pw.inp   Done                     12/30/2018 16:49:13
00032 suncat0166 pw.x -in pw.inp   Done                     12/30/2018 16:49:13
00033 suncat0166 pw.x -in pw.inp   Done                     12/30/2018 16:49:13
00034 suncat0166 pw.x -in pw.inp   Done                     12/30/2018 16:49:13
00035 suncat0166 pw.x -in pw.inp   Done                     12/30/2018 16:49:13
00036 suncat0166 pw.x -in pw.inp   Done                     12/30/2018 16:49:13
00037 suncat0166 pw.x -in pw.inp   Done                     12/30/2018 16:49:13
00038 suncat0166 pw.x -in pw.inp   Done                     12/30/2018 16:49:13
00039 suncat0166 pw.x -in pw.inp   Done                     12/30/2018 16:49:13
00040 suncat0149 pw.x -in pw.inp   Done                     12/30/2018 16:49:13
00041 suncat0149 pw.x -in pw.inp   Done                     12/30/2018 16:49:13
00042 suncat0149 pw.x -in pw.inp   Done                     12/30/2018 16:49:13
00043 suncat0149 pw.x -in pw.inp   Done                     12/30/2018 16:49:13
00044 suncat0149 pw.x -in pw.inp   Done                     12/30/2018 16:49:13
00045 suncat0149 pw.x -in pw.inp   Done                     12/30/2018 16:49:13
00046 suncat0149 pw.x -in pw.inp   Done                     12/30/2018 16:49:13
00047 suncat0149 pw.x -in pw.inp   Done                     12/30/2018 16:49:13
00048 suncat0148 pw.x -in pw.inp   Done                     12/30/2018 16:49:13
00049 suncat0148 pw.x -in pw.inp   Done                     12/30/2018 16:49:13
00050 suncat0148 pw.x -in pw.inp   Done                     12/30/2018 16:49:13
00051 suncat0148 pw.x -in pw.inp   Done                     12/30/2018 16:49:13
00052 suncat0148 pw.x -in pw.inp   Done                     12/30/2018 16:49:13
00053 suncat0148 pw.x -in pw.inp   Done                     12/30/2018 16:49:13
00054 suncat0148 pw.x -in pw.inp   Done                     12/30/2018 16:49:13
00055 suncat0148 pw.x -in pw.inp   Done                     12/30/2018 16:49:13
00056 suncat0142 pw.x -in pw.inp   Done                     12/30/2018 16:49:13
00057 suncat0142 pw.x -in pw.inp   Done                     12/30/2018 16:49:13
00058 suncat0142 pw.x -in pw.inp   Done                     12/30/2018 16:49:13
00059 suncat0142 pw.x -in pw.inp   Done                     12/30/2018 16:49:13
00060 suncat0142 pw.x -in pw.inp   Done                     12/30/2018 16:49:13
00061 suncat0142 pw.x -in pw.inp   Done                     12/30/2018 16:49:13
00062 suncat0142 pw.x -in pw.inp   Done                     12/30/2018 16:49:13
00063 suncat0142 pw.x -in pw.inp   Done                     12/30/2018 16:49:13

     Program PWSCF v.5.1rc2 (svn rev. 11289) starts on 30Dec2018 at 16:49:20 

     This program is part of the open-source Quantum ESPRESSO suite
     for quantum simulation of materials; please cite
         "P. Giannozzi et al., J. Phys.:Condens. Matter 21 395502 (2009);
          URL http://www.quantum-espresso.org", 
     in publications or presentations arising from this work. More details at
     http://www.quantum-espresso.org/quote

     Parallel version (MPI), running on    64 processors
     R & G space division:  proc/nbgrp/npool/nimage =      64
     Reading input from pw.inp
     Message from routine read_cards :
     DEPRECATED: no units specified in CELL_PARAMETERS card

     Current dimensions of program PWSCF are:
     Max number of different atomic species (ntypx) = 10
     Max number of k-points (npk) =  40000
     Max angular momentum in pseudopotentials (lmaxx) =  3
     Presently stress not available with electric field


     **************************************************************************
     Initializing libbeef V0.1.1 with the BEEF-vdW functional.
     Citation: Wellendorff et al., PRB 85, 235149 (2012).
     **************************************************************************


     IMPORTANT: XC functional enforced from input :
     Exchange-correlation      = BEEF-VDW ( 1  4 27 13 2)
     Any further DFT definition will be discarded
     Please, verify this is what you really want


     Subspace diagonalization in iterative solution of the eigenvalue problem:
     a serial algorithm will be used

 
     Parallelization info
     --------------------
     sticks:   dense  smooth     PW     G-vecs:    dense   smooth      PW
     Min          45      18      5                 8593     2164     349
     Max          46      19      6                 8620     2197     368
     Sum        2905    1159    349               550605   139265   22947
 


     bravais-lattice index     =            0
     lattice parameter (alat)  =       1.8897  a.u.
     unit-cell volume          =    4626.2805 (a.u.)^3
     number of atoms/cell      =           12
     number of atomic types    =            2
     number of electrons       =       159.00
     number of Kohn-Sham states=          109
     kinetic-energy cutoff     =      36.7493  Ry
     charge density cutoff     =     367.4932  Ry
     convergence threshold     =      1.0E-06
     mixing beta               =       0.1000
     number of iterations used =           10  plain     mixing
     Exchange-correlation      = BEEF-VDW ( 1  4 27 13 2)
     nstep                     =           50


     celldm(1)=   1.889726  celldm(2)=   0.000000  celldm(3)=   0.000000
     celldm(4)=   0.000000  celldm(5)=   0.000000  celldm(6)=   0.000000

     crystal axes: (cart. coord. in units of alat)
               a(1) = (   5.669298   0.000000   0.000000 )  
               a(2) = (  -2.834649   4.909756   0.000000 )  
               a(3) = (   0.000000   0.000000  24.628963 )  

     reciprocal axes: (cart. coord. in units 2 pi/alat)
               b(1) = (  0.176389  0.101838  0.000000 )  
               b(2) = (  0.000000  0.203676  0.000000 )  
               b(3) = (  0.000000  0.000000  0.040603 )  


     PseudoPot. # 1 for Mo read from file:
     /afs/slac.stanford.edu/u/if/mamunm/psp/gbrv1.5pbe/Mo.UPF
     MD5 check sum: 30c4dcd161f5d35cd49bb5239c51a633
     Pseudo is Ultrasoft + core correction, Zval = 14.0
     Generated by new atomic code, or converted to UPF format
     Using radial grid of  889 points,  6 beta functions with: 
                l(1) =   0
                l(2) =   0
                l(3) =   1
                l(4) =   1
                l(5) =   2
                l(6) =   2
     Q(r) pseudized with  6 coefficients,  rinner =    1.000   1.000   1.000
                                                       1.000   1.000

     PseudoPot. # 2 for Au read from file:
     /afs/slac.stanford.edu/u/if/mamunm/psp/gbrv1.5pbe/Au.UPF
     MD5 check sum: 9d7f43293ad2c663164586bc4b293ffc
     Pseudo is Ultrasoft + core correction, Zval = 11.0
     Generated by new atomic code, or converted to UPF format
     Using radial grid of  985 points,  7 beta functions with: 
                l(1) =   0
                l(2) =   0
                l(3) =   1
                l(4) =   1
                l(5) =   2
                l(6) =   2
                l(7) =   3
     Q(r) pseudized with  6 coefficients,  rinner =    1.900   1.900   1.900
                                                       1.900   1.900   1.900
                                                       1.900

     vdW kernel table read from file vdW_kernel_table
     MD5 check sum: 095c7af220d748ca6e76c0b4c6cfb241

     atomic species   valence    mass     pseudopotential
        Mo1           14.00    95.95000     Mo( 1.00)
        Au1           11.00   196.96657     Au( 1.00)

     No symmetry found



   Cartesian axes

     site n.     atom                  positions (alat units)
         1           Mo1 tau(   1) = (   0.0000000   0.0000000  10.0000000  )
         2           Mo1 tau(   2) = (  -1.4173246   2.4548781  10.0000000  )
         3           Mo1 tau(   3) = (   1.4173246   2.4548781  10.0000000  )
         4           Au1 tau(   4) = (   2.8346491   0.0000000  10.0000000  )
         5           Mo1 tau(   5) = (   2.8346491   1.6365854  12.3144813  )
         6           Mo1 tau(   6) = (   1.4173246   4.0914636  12.3144813  )
         7           Mo1 tau(   7) = (  -1.4173246   4.0914636  12.3144813  )
         8           Au1 tau(   8) = (   0.0000000   1.6365854  12.3144813  )
         9           Mo1 tau(   9) = (  -0.0000012   3.3138958  14.5497308  )
        10           Mo1 tau(  10) = (   1.4525925   0.7979330  14.5497323  )
        11           Mo1 tau(  11) = (   4.2167106   0.7979364  14.5497351  )
        12           Au1 tau(  12) = (   2.8346488   3.2731734  14.6902642  )

     number of k points=    20  Fermi-Dirac smearing, width (Ry)=  0.0110
                       cart. coord. in units 2pi/alat
        k(    1) = (   0.0000000   0.0000000   0.0000000), wk =   0.0555556
        k(    2) = (   0.0000000   0.0339460   0.0000000), wk =   0.1111111
        k(    3) = (   0.0000000   0.0678920   0.0000000), wk =   0.1111111
        k(    4) = (   0.0000000  -0.1018380   0.0000000), wk =   0.0555556
        k(    5) = (   0.0293981   0.0169730   0.0000000), wk =   0.1111111
        k(    6) = (   0.0293981   0.0509190   0.0000000), wk =   0.1111111
        k(    7) = (   0.0293981   0.0848650   0.0000000), wk =   0.1111111
        k(    8) = (   0.0293981  -0.0848650   0.0000000), wk =   0.1111111
        k(    9) = (   0.0293981  -0.0509190   0.0000000), wk =   0.1111111
        k(   10) = (   0.0293981  -0.0169730   0.0000000), wk =   0.1111111
        k(   11) = (   0.0587962   0.0339460   0.0000000), wk =   0.1111111
        k(   12) = (   0.0587962   0.0678920   0.0000000), wk =   0.1111111
        k(   13) = (   0.0587962   0.1018380   0.0000000), wk =   0.1111111
        k(   14) = (   0.0587962  -0.0678920   0.0000000), wk =   0.1111111
        k(   15) = (   0.0587962  -0.0339460   0.0000000), wk =   0.1111111
        k(   16) = (   0.0587962   0.0000000   0.0000000), wk =   0.1111111
        k(   17) = (  -0.0881943  -0.0509190   0.0000000), wk =   0.0555556
        k(   18) = (  -0.0881943  -0.0169730   0.0000000), wk =   0.1111111
        k(   19) = (  -0.0881943   0.0169730   0.0000000), wk =   0.1111111
        k(   20) = (  -0.0881943  -0.1527571   0.0000000), wk =   0.0555556

     Dense  grid:   550605 G-vectors     FFT dimensions: (  72,  72, 288)

     Smooth grid:   139265 G-vectors     FFT dimensions: (  45,  45, 180)

     Largest allocated arrays     est. size (Mb)     dimensions
        Kohn-Sham Wavefunctions         0.49 Mb     (     295,  109)
        NL pseudopotentials             1.07 Mb     (     295,  237)
        Each V/rho on FFT grid          0.40 Mb     (   25920)
        Each G-vector array             0.07 Mb     (    8593)
        G-vector shells                 0.03 Mb     (    4180)
     Largest temporary arrays     est. size (Mb)     dimensions
        Auxiliary wavefunctions         1.96 Mb     (     295,  436)
        Each subspace H/S matrix        2.90 Mb     (     436,  436)
        Each <psi_i|beta_j> matrix      0.39 Mb     (     237,  109)
        Arrays for rho mixing           3.96 Mb     (   25920,   10)

     Check: negative/imaginary core charge=   -0.000001    0.000000

     Initial potential from superposition of free atoms
     Check: negative starting charge=   -0.004467

     starting charge  158.99006, renormalised to  159.00000

     negative rho (up, down):  4.468E-03 0.000E+00


     ************************************************************************
     *
     * You are using vdW-DF for exchange-correlation in this calculation.
     * Please cite the following three references that made this development
     * possible:
     *
     *   M. Dion, H. Rydberg, E. Schroder, D. C. Langreth, and
     *   B. I. Lundqvist, Phys. Rev. Lett. 92, 246401 (2004).
     *
     *   T. Thonhauser, V. R. Cooper, S. Li, A. Puzder, P. Hyldgaard, and
     *   D. C. Langreth, Phys. Rev. B 76, 125112 (2007).
     *
     *   G. Roman-Perez and J. M. Soler, Phys. Rev. Lett. 103, 096102 (2009).
     *
     *
     * If you are using vdW-DF2, please also cite:
     *
     *   K. Lee, E. D. Murray, L. Kong, B. I. Lundqvist, and
     *   D. C. Langreth, Phys. Rev. B 82, 081101(R) (2010).
     *
     *
     * If you are calculating the stress with vdW-DF, please also cite:
     *
     *   R. Sabatini, E. Kucukbenli, B. Kolb, T. Thonhauser, and
     *   S. de Gironcoli, J. Phys.: Condens. Matter 24, 424209 (2012).
     *
     ************************************************************************

     Carrying out vdW-DF run using the following parameters:

     Nqs =      20    Nr_points =    1024   r_max =   100.000
     q_mesh =
               0.00001000     0.04494208     0.09755937     0.15916263
               0.23128650     0.31572767     0.41458969     0.53033537
               0.66584808     0.82450364     1.01025438     1.22772762
               1.48234092     1.78043706     2.12944203     2.53805004
               3.01644009     3.57652955     4.23227104     5.00000000

     Gradients computed in reciprocal space

     ************************************************************************


 
     Adding external electric field

     Computed dipole along edir(3) : 
        Dipole               -0.0001 Ry au,         -0.0004 Debye
        Dipole field         -0.0000 Ry au
 
        Potential amp.        0.0000 Ry
        Total length         45.3784 bohr
 
     Starting wfc are  144 randomized atomic wfcs

     total cpu time spent up to now is       27.8 secs

     per-process dynamical memory:    40.4 Mb

     Self-consistent Calculation

     iteration #  1     ecut=    36.75 Ry     beta=0.10
     Davidson diagonalization with overlap
     ethr =  1.00E-02,  avg # of iterations =  2.0

     negative rho (up, down):  4.392E-03 0.000E+00
 
     Adding external electric field

     Computed dipole along edir(3) : 
        Dipole               -0.2006 Ry au,         -0.5099 Debye
        Dipole field         -0.0005 Ry au
 
        Potential amp.        0.0495 Ry
        Total length         45.3784 bohr
 

     total cpu time spent up to now is       81.8 secs

     total energy              =   -1609.00853967 Ry
     Harris-Foulkes estimate   =   -1610.41454001 Ry
     estimated scf accuracy    <       7.87895965 Ry

     iteration #  2     ecut=    36.75 Ry     beta=0.10
     Davidson diagonalization with overlap
     ethr =  4.96E-03,  avg # of iterations =  1.0

     negative rho (up, down):  4.401E-03 0.000E+00
 
     Adding external electric field

     Computed dipole along edir(3) : 
        Dipole                0.8846 Ry au,          2.2484 Debye
        Dipole field          0.0024 Ry au
 
        Potential amp.       -0.2181 Ry
        Total length         45.3784 bohr
 

     total cpu time spent up to now is      130.8 secs

     total energy              =   -1609.12280498 Ry
     Harris-Foulkes estimate   =   -1609.71828744 Ry
     estimated scf accuracy    <       5.31324713 Ry

     iteration #  3     ecut=    36.75 Ry     beta=0.10
     Davidson diagonalization with overlap
     ethr =  3.34E-03,  avg # of iterations =  1.7

     negative rho (up, down):  4.416E-03 0.000E+00
 
     Adding external electric field

     Computed dipole along edir(3) : 
        Dipole               -0.0400 Ry au,         -0.1016 Debye
        Dipole field         -0.0001 Ry au
 
        Potential amp.        0.0099 Ry
        Total length         45.3784 bohr
 

     total cpu time spent up to now is      179.7 secs

     total energy              =   -1608.88964436 Ry
     Harris-Foulkes estimate   =   -1610.27990225 Ry
     estimated scf accuracy    <      47.80836027 Ry

     iteration #  4     ecut=    36.75 Ry     beta=0.10
     Davidson diagonalization with overlap
     ethr =  3.34E-03,  avg # of iterations =  1.0

     negative rho (up, down):  4.434E-03 0.000E+00
 
     Adding external electric field

     Computed dipole along edir(3) : 
        Dipole                0.0180 Ry au,          0.0458 Debye
        Dipole field          0.0000 Ry au
 
        Potential amp.       -0.0044 Ry
        Total length         45.3784 bohr
 

     total cpu time spent up to now is      226.2 secs

     total energy              =   -1609.49428732 Ry
     Harris-Foulkes estimate   =   -1609.56718174 Ry
     estimated scf accuracy    <       0.72928775 Ry

     iteration #  5     ecut=    36.75 Ry     beta=0.10
     Davidson diagonalization with overlap
     ethr =  4.59E-04,  avg # of iterations =  3.7

     negative rho (up, down):  4.461E-03 0.000E+00
 
     Adding external electric field

     Computed dipole along edir(3) : 
        Dipole               -0.0403 Ry au,         -0.1023 Debye
        Dipole field         -0.0001 Ry au
 
        Potential amp.        0.0099 Ry
        Total length         45.3784 bohr
 

     total cpu time spent up to now is      275.9 secs

     total energy              =   -1609.49566429 Ry
     Harris-Foulkes estimate   =   -1609.52345667 Ry
     estimated scf accuracy    <       0.15276680 Ry

     iteration #  6     ecut=    36.75 Ry     beta=0.10
     Davidson diagonalization with overlap
     ethr =  9.61E-05,  avg # of iterations =  8.1

     negative rho (up, down):  4.456E-03 0.000E+00
 
     Adding external electric field

     Computed dipole along edir(3) : 
        Dipole                0.0598 Ry au,          0.1520 Debye
        Dipole field          0.0002 Ry au
 
        Potential amp.       -0.0147 Ry
        Total length         45.3784 bohr
 

     total cpu time spent up to now is      337.1 secs

     total energy              =   -1609.48923924 Ry
     Harris-Foulkes estimate   =   -1609.50538381 Ry
     estimated scf accuracy    <       0.15418023 Ry

     iteration #  7     ecut=    36.75 Ry     beta=0.10
     Davidson diagonalization with overlap
     ethr =  9.61E-05,  avg # of iterations =  1.6

     negative rho (up, down):  4.459E-03 0.000E+00
 
     Adding external electric field

     Computed dipole along edir(3) : 
        Dipole               -0.0268 Ry au,         -0.0681 Debye
        Dipole field         -0.0001 Ry au
 
        Potential amp.        0.0066 Ry
        Total length         45.3784 bohr
 

     total cpu time spent up to now is      385.0 secs

     total energy              =   -1609.49205261 Ry
     Harris-Foulkes estimate   =   -1609.50218475 Ry
     estimated scf accuracy    <       0.42361589 Ry

     iteration #  8     ecut=    36.75 Ry     beta=0.10
     Davidson diagonalization with overlap
     ethr =  9.61E-05,  avg # of iterations =  1.4

     negative rho (up, down):  4.450E-03 0.000E+00
 
     Adding external electric field

     Computed dipole along edir(3) : 
        Dipole               -0.0152 Ry au,         -0.0385 Debye
        Dipole field         -0.0000 Ry au
 
        Potential amp.        0.0037 Ry
        Total length         45.3784 bohr
 

     total cpu time spent up to now is      433.5 secs

     total energy              =   -1609.49846579 Ry
     Harris-Foulkes estimate   =   -1609.49901478 Ry
     estimated scf accuracy    <       0.01747177 Ry

     iteration #  9     ecut=    36.75 Ry     beta=0.10
     Davidson diagonalization with overlap
     ethr =  1.10E-05,  avg # of iterations =  5.0

     negative rho (up, down):  4.443E-03 0.000E+00
 
     Adding external electric field

     Computed dipole along edir(3) : 
        Dipole                0.0006 Ry au,          0.0015 Debye
        Dipole field          0.0000 Ry au
 
        Potential amp.       -0.0001 Ry
        Total length         45.3784 bohr
 

     total cpu time spent up to now is      486.3 secs

     total energy              =   -1609.49853694 Ry
     Harris-Foulkes estimate   =   -1609.49880895 Ry
     estimated scf accuracy    <       0.00611466 Ry

     iteration # 10     ecut=    36.75 Ry     beta=0.10
     Davidson diagonalization with overlap
     ethr =  3.85E-06,  avg # of iterations =  6.2

     negative rho (up, down):  4.438E-03 0.000E+00
 
     Adding external electric field

     Computed dipole along edir(3) : 
        Dipole               -0.0045 Ry au,         -0.0116 Debye
        Dipole field         -0.0000 Ry au
 
        Potential amp.        0.0011 Ry
        Total length         45.3784 bohr
 

     total cpu time spent up to now is      543.2 secs

     total energy              =   -1609.49880364 Ry
     Harris-Foulkes estimate   =   -1609.49921671 Ry
     estimated scf accuracy    <       0.00229595 Ry

     iteration # 11     ecut=    36.75 Ry     beta=0.10
     Davidson diagonalization with overlap
     ethr =  1.44E-06,  avg # of iterations =  2.0

     negative rho (up, down):  4.430E-03 0.000E+00
 
     Adding external electric field

     Computed dipole along edir(3) : 
        Dipole               -0.0084 Ry au,         -0.0214 Debye
        Dipole field         -0.0000 Ry au
 
        Potential amp.        0.0021 Ry
        Total length         45.3784 bohr
 

     total cpu time spent up to now is      592.1 secs

     total energy              =   -1609.49884271 Ry
     Harris-Foulkes estimate   =   -1609.49893386 Ry
     estimated scf accuracy    <       0.00054811 Ry

     iteration # 12     ecut=    36.75 Ry     beta=0.10
     Davidson diagonalization with overlap
     ethr =  3.45E-07,  avg # of iterations =  2.0

     negative rho (up, down):  4.420E-03 0.000E+00
 
     Adding external electric field

     Computed dipole along edir(3) : 
        Dipole               -0.0071 Ry au,         -0.0182 Debye
        Dipole field         -0.0000 Ry au
 
        Potential amp.        0.0018 Ry
        Total length         45.3784 bohr
 

     total cpu time spent up to now is      641.6 secs

     total energy              =   -1609.49890014 Ry
     Harris-Foulkes estimate   =   -1609.49889805 Ry
     estimated scf accuracy    <       0.00008601 Ry

     iteration # 13     ecut=    36.75 Ry     beta=0.10
     Davidson diagonalization with overlap
     ethr =  5.41E-08,  avg # of iterations =  2.4

     negative rho (up, down):  4.414E-03 0.000E+00
 
     Adding external electric field

     Computed dipole along edir(3) : 
        Dipole               -0.0070 Ry au,         -0.0179 Debye
        Dipole field         -0.0000 Ry au
 
        Potential amp.        0.0017 Ry
        Total length         45.3784 bohr
 

     total cpu time spent up to now is      690.3 secs

     total energy              =   -1609.49890436 Ry
     Harris-Foulkes estimate   =   -1609.49890541 Ry
     estimated scf accuracy    <       0.00002402 Ry

     iteration # 14     ecut=    36.75 Ry     beta=0.10
     Davidson diagonalization with overlap
     ethr =  1.51E-08,  avg # of iterations =  2.0

     negative rho (up, down):  4.410E-03 0.000E+00
 
     Adding external electric field

     Computed dipole along edir(3) : 
        Dipole               -0.0082 Ry au,         -0.0209 Debye
        Dipole field         -0.0000 Ry au
 
        Potential amp.        0.0020 Ry
        Total length         45.3784 bohr
 

     total cpu time spent up to now is      744.2 secs

     total energy              =   -1609.49890938 Ry
     Harris-Foulkes estimate   =   -1609.49890849 Ry
     estimated scf accuracy    <       0.00003265 Ry

     iteration # 15     ecut=    36.75 Ry     beta=0.10
     Davidson diagonalization with overlap
     ethr =  1.51E-08,  avg # of iterations =  1.1

     negative rho (up, down):  4.408E-03 0.000E+00
 
     Adding external electric field

     Computed dipole along edir(3) : 
        Dipole               -0.0080 Ry au,         -0.0203 Debye
        Dipole field         -0.0000 Ry au
 
        Potential amp.        0.0020 Ry
        Total length         45.3784 bohr
 

     total cpu time spent up to now is      794.3 secs

     total energy              =   -1609.49891035 Ry
     Harris-Foulkes estimate   =   -1609.49891018 Ry
     estimated scf accuracy    <       0.00000381 Ry

     iteration # 16     ecut=    36.75 Ry     beta=0.10
     Davidson diagonalization with overlap
     ethr =  2.40E-09,  avg # of iterations =  2.0

     negative rho (up, down):  4.406E-03 0.000E+00
 
     Adding external electric field

     Computed dipole along edir(3) : 
        Dipole               -0.0080 Ry au,         -0.0203 Debye
        Dipole field         -0.0000 Ry au
 
        Potential amp.        0.0020 Ry
        Total length         45.3784 bohr
 

     total cpu time spent up to now is      848.6 secs

     total energy              =   -1609.49891147 Ry
     Harris-Foulkes estimate   =   -1609.49891093 Ry
     estimated scf accuracy    <       0.00000139 Ry

     iteration # 17     ecut=    36.75 Ry     beta=0.10
     Davidson diagonalization with overlap
     ethr =  8.74E-10,  avg # of iterations =  2.0

     negative rho (up, down):  4.413E-03 0.000E+00

     negative rho (up, down):  4.413E-03 0.000E+00

     negative rho (up, down):  4.413E-03 0.000E+00

     negative rho (up, down):  4.413E-03 0.000E+00

     negative rho (up, down):  4.413E-03 0.000E+00

     negative rho (up, down):  4.413E-03 0.000E+00

     negative rho (up, down):  4.413E-03 0.000E+00

     negative rho (up, down):  4.413E-03 0.000E+00

     negative rho (up, down):  4.413E-03 0.000E+00

     negative rho (up, down):  4.413E-03 0.000E+00

     negative rho (up, down):  4.413E-03 0.000E+00

     negative rho (up, down):  4.413E-03 0.000E+00

     negative rho (up, down):  4.413E-03 0.000E+00

     negative rho (up, down):  4.413E-03 0.000E+00

     negative rho (up, down):  4.413E-03 0.000E+00

     negative rho (up, down):  4.413E-03 0.000E+00

     negative rho (up, down):  4.413E-03 0.000E+00

     negative rho (up, down):  4.413E-03 0.000E+00

[...]
     6.3038   6.7054   7.1506   7.4626   7.7497

          k = 0.0588 0.1018 0.0000 ( 17364 PWs)   bands (ev):

   -59.2917 -59.2852 -59.2381 -59.2053 -59.2013 -59.1725 -59.1262 -59.0384
   -59.0189 -33.7429 -33.6684 -33.5804 -33.5680 -33.5178 -33.5067 -33.4782
   -33.3661 -33.3585 -33.3442 -33.3287 -33.3174 -33.3060 -33.3010 -33.1524
   -33.1515 -33.1383 -33.0880 -33.0533 -32.9945 -32.9352 -32.8905 -32.8896
   -32.8852 -32.8546 -32.8065 -32.7145  -3.9942  -3.7789  -3.7402  -3.6894
    -3.6836  -3.5939  -3.3897  -3.3604  -3.2137  -3.1013  -3.0723  -3.0232
    -2.9694  -2.7798  -2.6975  -2.6765  -2.3822  -2.3628  -1.8075  -1.6965
    -1.2147  -1.1104  -0.9930  -0.8494  -0.6492  -0.5962  -0.4623  -0.1449
    -0.0963   0.1648   0.1877   0.2177   0.3184   0.3788   0.5683   0.5748
     0.7497   0.7931   0.9275   1.0303   1.1242   1.4390   1.6924   1.7978
     1.8574   2.0666   2.0826   2.3244   2.3754   3.0237   3.0610   3.0674
     3.1057   3.2956   3.3305   3.4769   3.7002   3.7224   3.8410   3.8800
     3.9899   4.0816   4.0911   4.4646   4.5619   4.7263   5.3531   5.6548
     5.8099   7.1347   7.2268   7.6164   7.9591

          k = 0.0588-0.0679 0.0000 ( 17380 PWs)   bands (ev):

   -59.3092 -59.2713 -59.2340 -59.2137 -59.1957 -59.1696 -59.1294 -59.0362
   -59.0184 -33.7765 -33.6764 -33.6045 -33.5800 -33.5381 -33.5112 -33.4487
   -33.4266 -33.4002 -33.3461 -33.3284 -33.2873 -33.2741 -33.2371 -33.2184
   -33.1563 -33.0920 -33.0820 -33.0528 -32.9841 -32.9061 -32.9012 -32.8839
   -32.8723 -32.8496 -32.8049 -32.6863  -4.3565  -3.8823  -3.8348  -3.7658
    -3.7237  -3.6459  -3.5095  -3.3711  -3.3127  -3.1796  -3.1089  -3.0247
    -2.9143  -2.8454  -2.7312  -2.6301  -2.4956  -2.3009  -2.0752  -1.6270
    -1.2779  -1.2170  -0.8673  -0.6443  -0.5935  -0.3330  -0.2872  -0.1766
    -0.0319   0.0354   0.1215   0.3075   0.3608   0.5889   0.6677   0.8298
     0.8963   0.9634   1.1070   1.1813   1.4290   1.5254   1.6165   1.7226
     1.8762   1.9802   2.0393   2.1347   2.4948   2.6308   2.7507   3.0916
     3.2018   3.3365   3.4619   3.5424   3.6053   3.7426   3.7934   3.9123
     4.1478   4.2956   4.4916   4.7724   4.8868   5.0838   5.1866   5.5933
     6.3038   6.7054   7.1506   7.4626   7.7497

          k = 0.0588-0.0339 0.0000 ( 17388 PWs)   bands (ev):

   -59.3252 -59.2612 -59.2322 -59.2191 -59.1878 -59.1670 -59.1353 -59.0315
   -59.0179 -33.8254 -33.6836 -33.6210 -33.5872 -33.5594 -33.5547 -33.5149
   -33.4940 -33.3718 -33.3374 -33.3344 -33.3124 -33.2714 -33.2066 -33.2003
   -33.1092 -33.0884 -33.0558 -33.0119 -32.9603 -32.9099 -32.8808 -32.8789
   -32.8585 -32.8350 -32.7747 -32.6611  -4.7585  -4.0667  -3.9532  -3.8960
    -3.8161  -3.7861  -3.7206  -3.5273  -3.3829  -3.3411  -3.2282  -3.1421
    -3.0495  -2.9018  -2.8989  -2.5885  -2.5755  -2.3735  -2.3195  -1.5649
    -1.1982  -0.9865  -0.7173  -0.5297  -0.3869  -0.3810  -0.1049  -0.1045
     0.0077   0.1942   0.2534   0.4734   0.6462   0.6562   0.7616   0.8764
     0.9804   1.2003   1.2187   1.3216   1.5347   1.6281   1.7201   1.8189
     1.8213   2.0326   2.0375   2.6396   2.6415   2.7996   2.9082   3.1815
     3.4423   3.4516   3.6733   3.6829   3.7511   3.7751   3.7859   4.0015
     4.2059   4.3267   4.5599   4.8002   5.2526   5.3717   5.4634   5.9882
     6.1448   6.6841   6.7528   7.1232   7.2156

          k = 0.0588 0.0000 0.0000 ( 17441 PWs)   bands (ev):

   -59.3312 -59.2569 -59.2357 -59.2184 -59.1817 -59.1682 -59.1381 -59.0288
   -59.0181 -33.8438 -33.6661 -33.6346 -33.6001 -33.5941 -33.5631 -33.5362
   -33.5122 -33.4009 -33.3489 -33.3365 -33.2925 -33.2685 -33.2175 -33.1623
   -33.1082 -33.0870 -33.0191 -32.9900 -32.9421 -32.9002 -32.8901 -32.8761
   -32.8532 -32.8381 -32.7388 -32.6657  -4.9080  -4.0984  -4.0213  -3.9606
    -3.9004  -3.8211  -3.7188  -3.6682  -3.5293  -3.3840  -3.3041  -3.2065
    -3.1764  -2.9392  -2.8866  -2.6244  -2.5942  -2.4365  -2.3620  -1.5636
    -0.9989  -0.8385  -0.7070  -0.5054  -0.4457  -0.4015  -0.1974  -0.0204
     0.0199   0.2431   0.3628   0.4915   0.6252   0.7296   0.7763   0.9076
     1.0992   1.2227   1.3840   1.4703   1.5294   1.6603   1.7703   1.8841
     1.9524   2.0479   2.2692   2.6975   2.7961   2.9066   3.0830   3.1615
     3.4902   3.6097   3.6535   3.7603   3.8091   3.9674   4.1013   4.3884
     4.4283   4.5955   4.6608   4.7634   4.9084   5.0812   5.2710   5.4827
     6.3889   6.5148   6.6262   6.9124   7.0527

          k =-0.0882-0.0509 0.0000 ( 17388 PWs)   bands (ev):

   -59.3078 -59.2760 -59.2219 -59.2192 -59.2016 -59.1669 -59.1294 -59.0370
   -59.0178 -33.7827 -33.6946 -33.6206 -33.5653 -33.5317 -33.4633 -33.4481
   -33.4465 -33.3846 -33.3540 -33.3165 -33.2661 -33.2647 -33.2485 -33.2012
   -33.1746 -33.1634 -33.0692 -33.0617 -32.9781 -32.9151 -32.8927 -32.8772
   -32.8658 -32.8407 -32.8314 -32.6673  -4.4097  -3.9094  -3.8539  -3.8238
    -3.7221  -3.6171  -3.4602  -3.3532  -3.3032  -3.2694  -3.0157  -2.9330
    -2.8594  -2.8251  -2.6458  -2.6058  -2.5387  -2.2287  -2.1345  -1.7502
    -1.4559  -1.4230  -0.7528  -0.6584  -0.5801  -0.2969  -0.1489  -0.1468
    -0.0690   0.0244   0.3158   0.4293   0.4387   0.5353   0.6951   0.8826
     0.9335   0.9552   1.1317   1.2494   1.3934   1.4372   1.5034   1.7352
     1.8165   1.9510   2.0344   2.0865   2.4411   2.6090   2.7113   3.0500
     3.1131   3.2017   3.2494   3.4599   3.5130   3.5289   3.6436   3.8100
     4.0702   4.5041   4.7653   4.8358   4.9915   5.3748   5.5008   6.0632
     6.4956   7.0503   7.1190   7.2531   7.4819

          k =-0.0882-0.0170 0.0000 ( 17380 PWs)   bands (ev):

   -59.3092 -59.2713 -59.2340 -59.2137 -59.1958 -59.1695 -59.1294 -59.0363
   -59.0184 -33.7765 -33.6764 -33.6045 -33.5800 -33.5381 -33.5112 -33.4486
   -33.4266 -33.4001 -33.3461 -33.3284 -33.2873 -33.2742 -33.2372 -33.2184
   -33.1563 -33.0920 -33.0820 -33.0528 -32.9841 -32.9061 -32.9011 -32.8839
   -32.8723 -32.8496 -32.8049 -32.6863  -4.3565  -3.8823  -3.8348  -3.7658
    -3.7237  -3.6459  -3.5095  -3.3711  -3.3127  -3.1796  -3.1089  -3.0247
    -2.9143  -2.8454  -2.7312  -2.6301  -2.4956  -2.3009  -2.0752  -1.6270
    -1.2779  -1.2170  -0.8673  -0.6443  -0.5935  -0.3330  -0.2871  -0.1766
    -0.0319   0.0355   0.1215   0.3075   0.3608   0.5889   0.6677   0.8298
     0.8963   0.9634   1.1070   1.1813   1.4290   1.5255   1.6165   1.7226
     1.8762   1.9801   2.0392   2.1347   2.4948   2.6308   2.7507   3.0916
     3.2018   3.3365   3.4619   3.5424   3.6053   3.7426   3.7934   3.9123
     4.1478   4.2956   4.4916   4.7724   4.8869   5.0838   5.1866   5.5933
     6.3038   6.7054   7.1506   7.4626   7.7497

          k =-0.0882 0.0170 0.0000 ( 17380 PWs)   bands (ev):

   -59.3092 -59.2713 -59.2340 -59.2137 -59.1957 -59.1695 -59.1294 -59.0362
   -59.0184 -33.7765 -33.6764 -33.6045 -33.5800 -33.5381 -33.5112 -33.4487
   -33.4266 -33.4001 -33.3461 -33.3284 -33.2873 -33.2741 -33.2371 -33.2184
   -33.1563 -33.0920 -33.0820 -33.0528 -32.9841 -32.9061 -32.9012 -32.8839
   -32.8723 -32.8496 -32.8049 -32.6863  -4.3565  -3.8823  -3.8348  -3.7658
    -3.7237  -3.6459  -3.5095  -3.3711  -3.3127  -3.1796  -3.1089  -3.0247
    -2.9143  -2.8454  -2.7312  -2.6301  -2.4956  -2.3009  -2.0752  -1.6270
    -1.2779  -1.2170  -0.8673  -0.6443  -0.5935  -0.3330  -0.2872  -0.1766
    -0.0319   0.0355   0.1215   0.3075   0.3608   0.5889   0.6677   0.8298
     0.8963   0.9634   1.1070   1.1813   1.4290   1.5254   1.6165   1.7226
     1.8762   1.9802   2.0393   2.1347   2.4948   2.6308   2.7507   3.0916
     3.2018   3.3365   3.4619   3.5424   3.6053   3.7426   3.7934   3.9123
     4.1478   4.2956   4.4916   4.7724   4.8869   5.0838   5.1866   5.5933
     6.3038   6.7054   7.1506   7.4626   7.7497

          k =-0.0882-0.1528 0.0000 ( 17388 PWs)   bands (ev):

   -59.3078 -59.2760 -59.2219 -59.2192 -59.2015 -59.1669 -59.1294 -59.0369
   -59.0179 -33.7827 -33.6946 -33.6206 -33.5653 -33.5317 -33.4633 -33.4481
   -33.4465 -33.3846 -33.3541 -33.3165 -33.2660 -33.2646 -33.2486 -33.2012
   -33.1745 -33.1633 -33.0691 -33.0617 -32.9781 -32.9151 -32.8927 -32.8772
   -32.8658 -32.8407 -32.8314 -32.6673  -4.4097  -3.9094  -3.8539  -3.8238
    -3.7221  -3.6171  -3.4602  -3.3532  -3.3032  -3.2694  -3.0157  -2.9330
    -2.8594  -2.8251  -2.6458  -2.6058  -2.5387  -2.2287  -2.1344  -1.7502
    -1.4559  -1.4230  -0.7528  -0.6584  -0.5801  -0.2969  -0.1489  -0.1467
    -0.0690   0.0244   0.3158   0.4293   0.4387   0.5353   0.6951   0.8826
     0.9335   0.9552   1.1317   1.2494   1.3934   1.4372   1.5034   1.7352
     1.8165   1.9510   2.0345   2.0865   2.4411   2.6090   2.7113   3.0500
     3.1131   3.2016   3.2494   3.4599   3.5129   3.5289   3.6436   3.8100
     4.0702   4.5041   4.7653   4.8358   4.9915   5.3748   5.5008   6.0632
     6.4956   7.0503   7.1190   7.2530   7.4819

     the Fermi energy is     1.8514 ev

!    total energy              =   -1609.50549529 Ry
     Harris-Foulkes estimate   =   -1609.50549441 Ry
     estimated scf accuracy    <       0.00000075 Ry

     The total energy is the sum of the following terms:

     one-electron contribution =  -13418.90016245 Ry
     hartree contribution      =    6727.12316320 Ry
     xc contribution           =    -371.96771237 Ry
     ewald contribution        =    5454.32611057 Ry
     electric field correction =       0.00000345 Ry
     smearing contrib. (-TS)   =      -0.08689769 Ry

     convergence has been achieved in  17 iterations
 
 BEEF-vdW xc energy contributions
           1 :   -326.322740244666     
           2 :    301.145586679174     
           3 :   -256.958258528221     
           4 :    203.736581050616     
           5 :   -151.922479092691     
           6 :    109.383033337576     
           7 :   -79.7416211552505     
           8 :    62.3840859981231     
           9 :   -53.8312428576873     
          10 :    49.6908582207585     
          11 :   -46.3835814007639     
          12 :    42.0671919987686     
          13 :   -36.6375368596400     
          14 :    31.0442955313849     
          15 :   -26.3856951888217     
          16 :    23.2074237815897     
          17 :   -21.2692638901024     
          18 :    19.7752675836404     
          19 :   -17.8690233978172     
          20 :    15.0930016626167     
          21 :   -11.5880628024370     
          22 :    7.96414383735555     
          23 :   -4.95608008133098     
          24 :    3.05802394069951     
          25 :   -2.31527326541868     
          26 :    2.34379583467307     
          27 :   -2.53647820045558     
          28 :    2.33197907164208     
          29 :   -1.42305049364592     
          30 :  -0.173325473974216     
          31 :   -31.1650995623573     
          32 :   -23.4401648524389     

     Forces acting on atoms (Ry/au):


     negative rho (up, down):  4.378E-03 0.000E+00
     atom    1 type  1   force =     0.00000022   -0.01608544    0.02541651
     atom    2 type  1   force =    -0.01393077    0.00804295    0.02541792
     atom    3 type  1   force =     0.01393003    0.00804285    0.02541255
     atom    4 type  2   force =     0.00000110   -0.00000050   -0.02331122
     atom    5 type  1   force =     0.00000093    0.00818732   -0.01295752
     atom    6 type  1   force =     0.00709090   -0.00409286   -0.01295693
     atom    7 type  1   force =    -0.00709050   -0.00409394   -0.01295685
     atom    8 type  2   force =    -0.00000620   -0.00000160   -0.01504738
     atom    9 type  1   force =     0.00000201   -0.00027224    0.00035696
     atom   10 type  1   force =    -0.00023550    0.00013686    0.00035768
     atom   11 type  1   force =     0.00023861    0.00013591    0.00035872
     atom   12 type  2   force =    -0.00000083    0.00000070   -0.00009043

     Total force =     0.064725     Total SCF correction =     0.002273


     entering subroutine stress ...


     negative rho (up, down):  4.378E-03 0.000E+00
          total   stress  (Ry/bohr**3)                   (kbar)     P=  -13.61
  -0.00011562  -0.00000000  -0.00000000        -17.01     -0.00     -0.00
  -0.00000000  -0.00011562  -0.00000000         -0.00    -17.01     -0.00
  -0.00000000  -0.00000000  -0.00004639         -0.00     -0.00     -6.82

 !ASE

     Writing output data file calc.save
 
     init_run     :     18.11s CPU     26.42s WALL (       1 calls)
     electrons    :    632.16s CPU    945.01s WALL (       1 calls)
     forces       :      2.60s CPU      3.32s WALL (       1 calls)
     stress       :      6.00s CPU      7.00s WALL (       1 calls)

     Called by init_run:
     wfcinit      :     15.99s CPU     23.65s WALL (       1 calls)
     potinit      :      1.05s CPU      1.44s WALL (       1 calls)

     Called by electrons:
     c_bands      :    483.80s CPU    717.35s WALL (      17 calls)
     sum_band     :     94.98s CPU    147.41s WALL (      17 calls)
     v_of_rho     :     17.45s CPU     25.69s WALL (      18 calls)
     newd         :      5.04s CPU      5.35s WALL (      18 calls)
     mix_rho      :      0.75s CPU      1.16s WALL (      17 calls)
     vdW_energy   :      1.38s CPU      1.39s WALL (      54 calls)
     vdW_ffts     :     32.83s CPU     51.87s WALL (     110 calls)
     vdW_v        :      5.83s CPU      8.48s WALL (      54 calls)

     Called by c_bands:
     init_us_2    :      0.38s CPU      0.39s WALL (     740 calls)
     cegterg      :    478.02s CPU    710.34s WALL (     340 calls)

     Called by *egterg:
     h_psi        :    392.28s CPU    614.37s WALL (    1221 calls)
     s_psi        :      4.98s CPU      5.02s WALL (    1221 calls)
     g_psi        :      0.23s CPU      0.23s WALL (     861 calls)
     cdiaghg      :     50.59s CPU     53.44s WALL (    1201 calls)

     Called by h_psi:
     add_vuspsi   :      5.27s CPU      5.29s WALL (    1221 calls)

     General routines
     calbec       :     17.88s CPU     23.65s WALL (    1601 calls)
     fft          :     48.86s CPU     77.50s WALL (    3291 calls)
     ffts         :      0.17s CPU      0.26s WALL (      35 calls)
     fftw         :    452.02s CPU    719.57s WALL (  198614 calls)
     interpolate  :      0.66s CPU      1.04s WALL (      35 calls)
     davcio       :      0.00s CPU      0.01s WALL (      20 calls)
 
     Parallel routines
     fft_scatter  :    482.88s CPU    777.88s WALL (  201940 calls)
 
     PWSCF        : 10m59.78s CPU    16m23.40s WALL

 
   This run was terminated on:  18:10:46  30Dec2018            

=------------------------------------------------------------------------------=
   JOB DONE.
=------------------------------------------------------------------------------=
Job  /afs/slac/g/suncat/bin/suncat-tsmpirun -x LD_LIBRARY_PATH -wdir /scratch/qe648590_NA6pi pw.x -in pw.inp

TID   HOST_NAME   COMMAND_LINE            STATUS            TERMINATION_TIME
===== ========== ================  =======================  ===================
00000 suncat0058 pw.x -in pw.inp   Done                     12/30/2018 18:10:46
00001 suncat0058 pw.x -in pw.inp   Done                     12/30/2018 18:10:46
00002 suncat0058 pw.x -in pw.inp   Done                     12/30/2018 18:10:46
00003 suncat0058 pw.x -in pw.inp   Done                     12/30/2018 18:10:46
00004 suncat0058 pw.x -in pw.inp   Done                     12/30/2018 18:10:46
00005 suncat0058 pw.x -in pw.inp   Done                     12/30/2018 18:10:46
00006 suncat0058 pw.x -in pw.inp   Done                     12/30/2018 18:10:46
00007 suncat0058 pw.x -in pw.inp   Done                     12/30/2018 18:10:46
00008 suncat0054 pw.x -in pw.inp   Done                     12/30/2018 18:10:46
00009 suncat0054 pw.x -in pw.inp   Done                     12/30/2018 18:10:46
00010 suncat0054 pw.x -in pw.inp   Done                     12/30/2018 18:10:46
00011 suncat0054 pw.x -in pw.inp   Done                     12/30/2018 18:10:46
00012 suncat0054 pw.x -in pw.inp   Done                     12/30/2018 18:10:46
00013 suncat0054 pw.x -in pw.inp   Done                     12/30/2018 18:10:46
00014 suncat0054 pw.x -in pw.inp   Done                     12/30/2018 18:10:46
00015 suncat0054 pw.x -in pw.inp   Done                     12/30/2018 18:10:46
00016 suncat0180 pw.x -in pw.inp   Done                     12/30/2018 18:10:46
00017 suncat0180 pw.x -in pw.inp   Done                     12/30/2018 18:10:46
00018 suncat0180 pw.x -in pw.inp   Done                     12/30/2018 18:10:46
00019 suncat0180 pw.x -in pw.inp   Done                     12/30/2018 18:10:46
00020 suncat0180 pw.x -in pw.inp   Done                     12/30/2018 18:10:46
00021 suncat0180 pw.x -in pw.inp   Done                     12/30/2018 18:10:46
00022 suncat0180 pw.x -in pw.inp   Done                     12/30/2018 18:10:46
00023 suncat0180 pw.x -in pw.inp   Done                     12/30/2018 18:10:46
00024 suncat0167 pw.x -in pw.inp   Done                     12/30/2018 18:10:46
00025 suncat0167 pw.x -in pw.inp   Done                     12/30/2018 18:10:46
00026 suncat0167 pw.x -in pw.inp   Done                     12/30/2018 18:10:46
00027 suncat0167 pw.x -in pw.inp   Done                     12/30/2018 18:10:46
00028 suncat0167 pw.x -in pw.inp   Done                     12/30/2018 18:10:46
00029 suncat0167 pw.x -in pw.inp   Done                     12/30/2018 18:10:46
00030 suncat0167 pw.x -in pw.inp   Done                     12/30/2018 18:10:46
00031 suncat0167 pw.x -in pw.inp   Done                     12/30/2018 18:10:46
00032 suncat0166 pw.x -in pw.inp   Done                     12/30/2018 18:10:46
00033 suncat0166 pw.x -in pw.inp   Done                     12/30/2018 18:10:46
00034 suncat0166 pw.x -in pw.inp   Done                     12/30/2018 18:10:46
00035 suncat0166 pw.x -in pw.inp   Done                     12/30/2018 18:10:46
00036 suncat0166 pw.x -in pw.inp   Done                     12/30/2018 18:10:46
00037 suncat0166 pw.x -in pw.inp   Done                     12/30/2018 18:10:46
00038 suncat0166 pw.x -in pw.inp   Done                     12/30/2018 18:10:46
00039 suncat0166 pw.x -in pw.inp   Done                     12/30/2018 18:10:46
00040 suncat0149 pw.x -in pw.inp   Done                     12/30/2018 18:10:46
00041 suncat0149 pw.x -in pw.inp   Done                     12/30/2018 18:10:46
00042 suncat0149 pw.x -in pw.inp   Done                     12/30/2018 18:10:46
00043 suncat0149 pw.x -in pw.inp   Done                     12/30/2018 18:10:46
00044 suncat0149 pw.x -in pw.inp   Done                     12/30/2018 18:10:46
00045 suncat0149 pw.x -in pw.inp   Done                     12/30/2018 18:10:46
00046 suncat0149 pw.x -in pw.inp   Done                     12/30/2018 18:10:46
00047 suncat0149 pw.x -in pw.inp   Done                     12/30/2018 18:10:46
00048 suncat0148 pw.x -in pw.inp   Done                     12/30/2018 18:10:46
00049 suncat0148 pw.x -in pw.inp   Done                     12/30/2018 18:10:46
00050 suncat0148 pw.x -in pw.inp   Done                     12/30/2018 18:10:46
00051 suncat0148 pw.x -in pw.inp   Done                     12/30/2018 18:10:46
00052 suncat0148 pw.x -in pw.inp   Done                     12/30/2018 18:10:46
00053 suncat0148 pw.x -in pw.inp   Done                     12/30/2018 18:10:46
00054 suncat0148 pw.x -in pw.inp   Done                     12/30/2018 18:10:46
00055 suncat0148 pw.x -in pw.inp   Done                     12/30/2018 18:10:46
00056 suncat0142 pw.x -in pw.inp   Done                     12/30/2018 18:10:46
00057 suncat0142 pw.x -in pw.inp   Done                     12/30/2018 18:10:46
00058 suncat0142 pw.x -in pw.inp   Done                     12/30/2018 18:10:46
00059 suncat0142 pw.x -in pw.inp   Done                     12/30/2018 18:10:46
00060 suncat0142 pw.x -in pw.inp   Done                     12/30/2018 18:10:46
00061 suncat0142 pw.x -in pw.inp   Done                     12/30/2018 18:10:46
00062 suncat0142 pw.x -in pw.inp   Done                     12/30/2018 18:10:46
00063 suncat0142 pw.x -in pw.inp   Done                     12/30/2018 18:10:46
