  python dir          : /home/mamunm/src/espresso
  espresso dir        : /home/vossj/suncat/esdld/espresso-dynpy-beef/bin
  pseudo dir          : /home/mamunm/src/pseudo/gbrv1.5pbe
  ase-espresso py git : GITVERSION



     Program PWSCF v.5.1rc2 (svn rev. ) starts on 23Feb2018 at 17:13:17 

     This program is part of the open-source Quantum ESPRESSO suite
     for quantum simulation of materials; please cite
         "P. Giannozzi et al., J. Phys.:Condens. Matter 21 395502 (2009);
          URL http://www.quantum-espresso.org", 
     in publications or presentations arising from this work. More details at
     http://www.quantum-espresso.org/quote

     Parallel version (MPI), running on    16 processors
     R & G space division:  proc/nbgrp/npool/nimage =      16
     Reading input from pw.inp
     Message from routine read_cards :
     DEPRECATED: no units specified in CELL_PARAMETERS card

     Current dimensions of program PWSCF are:
     Max number of different atomic species (ntypx) = 10
     Max number of k-points (npk) =  40000
     Max angular momentum in pseudopotentials (lmaxx) =  3
     Presently stress not available with electric field


     **************************************************************************
     Initializing libbeef V0.1.1 with the BEEF-vdW functional.
     Citation: Wellendorff et al., PRB 85, 235149 (2012).
     **************************************************************************


     IMPORTANT: XC functional enforced from input :
     Exchange-correlation      = BEEF-VDW ( 1  4 27 13 2)
     Any further DFT definition will be discarded
     Please, verify this is what you really want


     Subspace diagonalization in iterative solution of the eigenvalue problem:
     a serial algorithm will be used

 
     Parallelization info
     --------------------
     sticks:   dense  smooth     PW     G-vecs:    dense   smooth      PW
     Min         171      69     19                32527     8199    1291
     Max         172      70     20                32550     8240    1314
     Sum        2749    1111    313               520687   131549   20845
 


     bravais-lattice index     =            0
     lattice parameter (alat)  =       1.8897  a.u.
     unit-cell volume          =    4378.1764 (a.u.)^3
     number of atoms/cell      =           12
     number of atomic types    =            2
     number of electrons       =       171.00
     number of Kohn-Sham states=           95
     kinetic-energy cutoff     =      36.7493  Ry
     charge density cutoff     =     367.4932  Ry
     convergence threshold     =      1.0E-05
     mixing beta               =       0.3000
     number of iterations used =           10  plain     mixing
     Exchange-correlation      = BEEF-VDW ( 1  4 27 13 2)
     nstep                     =           50


     celldm(1)=   1.889726  celldm(2)=   0.000000  celldm(3)=   0.000000
     celldm(4)=   0.000000  celldm(5)=   0.000000  celldm(6)=   0.000000

     crystal axes: (cart. coord. in units of alat)
               a(1) = (   5.528134   0.000000   0.000000 )  
               a(2) = (   2.764067   4.787504   0.000000 )  
               a(3) = (   0.000000   0.000000  24.513702 )  

     reciprocal axes: (cart. coord. in units 2 pi/alat)
               b(1) = (  0.180893 -0.104439  0.000000 )  
               b(2) = (  0.000000  0.208877  0.000000 )  
               b(3) = (  0.000000  0.000000  0.040794 )  


     PseudoPot. # 1 for Cr read from file:
     /home/mamunm/src/pseudo/gbrv1.5pbe/Cr.UPF
     MD5 check sum: 0d52af634a40206e4dee301ad30da4bf
     Pseudo is Ultrasoft + core correction, Zval = 14.0
     Generated by new atomic code, or converted to UPF format
     Using radial grid of  857 points,  6 beta functions with: 
                l(1) =   0
                l(2) =   0
                l(3) =   1
                l(4) =   1
                l(5) =   2
                l(6) =   2
     Q(r) pseudized with  8 coefficients,  rinner =    0.950   0.950   0.950
                                                       0.950   0.950

     PseudoPot. # 2 for Bi read from file:
     /home/mamunm/src/pseudo/gbrv1.5pbe/Bi.UPF
     MD5 check sum: 81103212dc04adf40945787f699eab19
     Pseudo is Ultrasoft + core correction, Zval = 15.0
     Generated by new atomic code, or converted to UPF format
     Using radial grid of  899 points,  6 beta functions with: 
                l(1) =   0
                l(2) =   0
                l(3) =   1
                l(4) =   1
                l(5) =   2
                l(6) =   2
     Q(r) pseudized with  6 coefficients,  rinner =    1.000   1.000   1.000
                                                       1.000   1.000

     vdW kernel table read from file vdW_kernel_table
     MD5 check sum: 095c7af220d748ca6e76c0b4c6cfb241

     atomic species   valence    mass     pseudopotential
        Cr1           14.00    51.99610     Cr( 1.00)
        Bi1           15.00   208.98040     Bi( 1.00)

     No symmetry found



   Cartesian axes

     site n.     atom                  positions (alat units)
         1           Cr1 tau(   1) = (   0.0000000   0.0000000  10.0000000  )
         2           Bi1 tau(   2) = (   1.3820335   2.3937522  10.0000000  )
         3           Cr1 tau(   3) = (   2.7640670   0.0000000  10.0000000  )
         4           Cr1 tau(   4) = (   4.1461005   2.3937522  10.0000000  )
         5           Cr1 tau(   5) = (   5.5281339   3.1916696  12.2568512  )
         6           Bi1 tau(   6) = (   4.1461005   0.7979174  12.2568512  )
         7           Cr1 tau(   7) = (   2.7640670   3.1916696  12.2568512  )
         8           Cr1 tau(   8) = (   1.3820335   0.7979174  12.2568512  )
         9           Cr1 tau(   9) = (   2.7640670   1.5958348  14.5137025  )
        10           Bi1 tau(  10) = (   4.1461005   3.9895870  14.5137025  )
        11           Cr1 tau(  11) = (   5.5281339   1.5958348  14.5137025  )
        12           Cr1 tau(  12) = (   6.9101674   3.9895870  14.5137025  )

     number of k points=    20  Fermi-Dirac smearing, width (Ry)=  0.0110
                       cart. coord. in units 2pi/alat
        k(    1) = (   0.0000000   0.0000000   0.0000000), wk =   0.0555556
        k(    2) = (   0.0000000   0.0348128   0.0000000), wk =   0.1111111
        k(    3) = (   0.0000000   0.0696257   0.0000000), wk =   0.1111111
        k(    4) = (   0.0000000  -0.1044385   0.0000000), wk =   0.0555556
        k(    5) = (   0.0301488  -0.0174064   0.0000000), wk =   0.1111111
        k(    6) = (   0.0301488   0.0174064   0.0000000), wk =   0.1111111
        k(    7) = (   0.0301488   0.0522193   0.0000000), wk =   0.1111111
        k(    8) = (   0.0301488  -0.1218450   0.0000000), wk =   0.1111111
        k(    9) = (   0.0301488  -0.0870321   0.0000000), wk =   0.1111111
        k(   10) = (   0.0301488  -0.0522193   0.0000000), wk =   0.1111111
        k(   11) = (   0.0602976  -0.0348128   0.0000000), wk =   0.1111111
        k(   12) = (   0.0602976  -0.0000000   0.0000000), wk =   0.1111111
        k(   13) = (   0.0602976   0.0348128   0.0000000), wk =   0.1111111
        k(   14) = (   0.0602976  -0.1392514   0.0000000), wk =   0.1111111
        k(   15) = (   0.0602976  -0.1044385   0.0000000), wk =   0.1111111
        k(   16) = (   0.0602976  -0.0696257   0.0000000), wk =   0.1111111
        k(   17) = (  -0.0904464   0.0522193   0.0000000), wk =   0.0555556
        k(   18) = (  -0.0904464   0.0870321   0.0000000), wk =   0.1111111
        k(   19) = (  -0.0904464   0.1218450   0.0000000), wk =   0.1111111
        k(   20) = (  -0.0904464  -0.0522193   0.0000000), wk =   0.0555556

     Dense  grid:   520687 G-vectors     FFT dimensions: (  64,  64, 288)

     Smooth grid:   131549 G-vectors     FFT dimensions: (  45,  45, 180)

     Largest allocated arrays     est. size (Mb)     dimensions
        Kohn-Sham Wavefunctions         1.51 Mb     (    1041,   95)
        NL pseudopotentials             3.43 Mb     (    1041,  216)
        Each V/rho on FFT grid          1.12 Mb     (   73728)
        Each G-vector array             0.25 Mb     (   32550)
        G-vector shells                 0.09 Mb     (   12185)
     Largest temporary arrays     est. size (Mb)     dimensions
        Auxiliary wavefunctions         6.04 Mb     (    1041,  380)
        Each subspace H/S matrix        2.20 Mb     (     380,  380)
        Each <psi_i|beta_j> matrix      0.31 Mb     (     216,   95)
        Arrays for rho mixing          11.25 Mb     (   73728,   10)

     Check: negative/imaginary core charge=   -0.000003    0.000000

     Initial potential from superposition of free atoms
     Check: negative starting charge=   -0.135031

     starting charge  158.99974, renormalised to  171.00000

     negative rho (up, down):  1.452E-01 0.000E+00


     ************************************************************************
     *
     * You are using vdW-DF for exchange-correlation in this calculation.
     * Please cite the following three references that made this development
     * possible:
     *
     *   M. Dion, H. Rydberg, E. Schroder, D. C. Langreth, and
     *   B. I. Lundqvist, Phys. Rev. Lett. 92, 246401 (2004).
     *
     *   T. Thonhauser, V. R. Cooper, S. Li, A. Puzder, P. Hyldgaard, and
     *   D. C. Langreth, Phys. Rev. B 76, 125112 (2007).
     *
     *   G. Roman-Perez and J. M. Soler, Phys. Rev. Lett. 103, 096102 (2009).
     *
     *
     * If you are using vdW-DF2, please also cite:
     *
     *   K. Lee, E. D. Murray, L. Kong, B. I. Lundqvist, and
     *   D. C. Langreth, Phys. Rev. B 82, 081101(R) (2010).
     *
     *
     * If you are calculating the stress with vdW-DF, please also cite:
     *
     *   R. Sabatini, E. Kucukbenli, B. Kolb, T. Thonhauser, and
     *   S. de Gironcoli, J. Phys.: Condens. Matter 24, 424209 (2012).
     *
     ************************************************************************

     Carrying out vdW-DF run using the following parameters:

     Nqs =      20    Nr_points =    1024   r_max =   100.000
     q_mesh =
               0.00001000     0.04494208     0.09755937     0.15916263
               0.23128650     0.31572767     0.41458969     0.53033537
               0.66584808     0.82450364     1.01025438     1.22772762
               1.48234092     1.78043706     2.12944203     2.53805004
               3.01644009     3.57652955     4.23227104     5.00000000

     Gradients computed in reciprocal space

     ************************************************************************


 
     Adding external electric field

     Computed dipole along edir(3) : 
        Dipole                0.0000 Ry au,          0.0000 Debye
        Dipole field          0.0000 Ry au
 
        Potential amp.       -0.0000 Ry
        Total length         45.1661 bohr
 
     Starting wfc are  117 randomized atomic wfcs

     total cpu time spent up to now is        6.8 secs

     Self-consistent Calculation

     iteration #  1     ecut=    36.75 Ry     beta=0.30
     Davidson diagonalization with overlap
     ethr =  1.00E-02,  avg # of iterations =  6.0

     negative rho (up, down):  1.478E-01 0.000E+00
 
     Adding external electric field

     Computed dipole along edir(3) : 
        Dipole               -0.0217 Ry au,         -0.0551 Debye
        Dipole field         -0.0001 Ry au
 
        Potential amp.        0.0056 Ry
        Total length         45.1661 bohr
 

     total cpu time spent up to now is       28.9 secs

     total energy              =   -2139.96588977 Ry
     Harris-Foulkes estimate   =   -2153.56314664 Ry
     estimated scf accuracy    <      30.08991917 Ry

     iteration #  2     ecut=    36.75 Ry     beta=0.30
     Davidson diagonalization with overlap
     ethr =  1.00E-02,  avg # of iterations =  5.7

     negative rho (up, down):  1.445E-01 0.000E+00
 
     Adding external electric field

     Computed dipole along edir(3) : 
        Dipole               -0.0020 Ry au,         -0.0050 Debye
        Dipole field         -0.0000 Ry au
 
        Potential amp.        0.0005 Ry
        Total length         45.1661 bohr
 

     total cpu time spent up to now is       48.7 secs

     total energy              =   -2137.94152299 Ry
     Harris-Foulkes estimate   =   -2152.42574531 Ry
     estimated scf accuracy    <      78.87804975 Ry

     iteration #  3     ecut=    36.75 Ry     beta=0.30
     Davidson diagonalization with overlap
     ethr =  1.00E-02,  avg # of iterations =  7.0

     negative rho (up, down):  1.380E-01 0.000E+00
 
     Adding external electric field

     Computed dipole along edir(3) : 
        Dipole               -0.0849 Ry au,         -0.2159 Debye
        Dipole field         -0.0002 Ry au
 
        Potential amp.        0.0220 Ry
        Total length         45.1661 bohr
 

     total cpu time spent up to now is       69.0 secs

     total energy              =   -2143.41903880 Ry
     Harris-Foulkes estimate   =   -2155.91427647 Ry
     estimated scf accuracy    <     120.66591598 Ry

     iteration #  4     ecut=    36.75 Ry     beta=0.30
     Davidson diagonalization with overlap
     ethr =  1.00E-02,  avg # of iterations =  4.5

     negative rho (up, down):  1.391E-01 0.000E+00
 
     Adding external electric field

     Computed dipole along edir(3) : 
        Dipole                0.9876 Ry au,          2.5101 Debye
        Dipole field          0.0028 Ry au
 
        Potential amp.       -0.2561 Ry
        Total length         45.1661 bohr
 

     total cpu time spent up to now is       84.5 secs

     total energy              =   -2146.54363385 Ry
     Harris-Foulkes estimate   =   -2147.43725889 Ry
     estimated scf accuracy    <      13.13975365 Ry

     iteration #  5     ecut=    36.75 Ry     beta=0.30
     Davidson diagonalization with overlap
     ethr =  7.68E-03,  avg # of iterations =  6.8

     negative rho (up, down):  1.402E-01 0.000E+00
 
     Adding external electric field

     Computed dipole along edir(3) : 
        Dipole               -0.1436 Ry au,         -0.3650 Debye
        Dipole field         -0.0004 Ry au
 
        Potential amp.        0.0372 Ry
        Total length         45.1661 bohr
 

     total cpu time spent up to now is      101.5 secs

     total energy              =   -2145.64345590 Ry
     Harris-Foulkes estimate   =   -2149.22899419 Ry
     estimated scf accuracy    <     172.39256473 Ry

     iteration #  6     ecut=    36.75 Ry     beta=0.30
     Davidson diagonalization with overlap
     ethr =  7.68E-03,  avg # of iterations =  1.9

     negative rho (up, down):  1.409E-01 0.000E+00
 
     Adding external electric field

     Computed dipole along edir(3) : 
        Dipole               -0.2251 Ry au,         -0.5721 Debye
        Dipole field         -0.0006 Ry au
 
        Potential amp.        0.0584 Ry
        Total length         45.1661 bohr
 

     total cpu time spent up to now is      113.6 secs

     total energy              =   -2146.67638179 Ry
     Harris-Foulkes estimate   =   -2147.24610981 Ry
     estimated scf accuracy    <       6.71741792 Ry

     iteration #  7     ecut=    36.75 Ry     beta=0.30
     Davidson diagonalization with overlap
     ethr =  3.93E-03,  avg # of iterations =  6.6

     negative rho (up, down):  1.416E-01 0.000E+00
 
     Adding external electric field

     Computed dipole along edir(3) : 
        Dipole               -0.1412 Ry au,         -0.3588 Debye
        Dipole field         -0.0004 Ry au
 
        Potential amp.        0.0366 Ry
        Total length         45.1661 bohr
 

     total cpu time spent up to now is      130.2 secs

     total energy              =   -2147.27952204 Ry
     Harris-Foulkes estimate   =   -2147.48586902 Ry
     estimated scf accuracy    <       9.73223802 Ry

     iteration #  8     ecut=    36.75 Ry     beta=0.30
     Davidson diagonalization with overlap
     ethr =  3.93E-03,  avg # of iterations =  1.2

     negative rho (up, down):  1.423E-01 0.000E+00
 
     Adding external electric field

     Computed dipole along edir(3) : 
        Dipole               -0.0637 Ry au,         -0.1619 Debye
        Dipole field         -0.0002 Ry au
 
        Potential amp.        0.0165 Ry
        Total length         45.1661 bohr
 

     total cpu time spent up to now is      141.8 secs

     total energy              =   -2147.20197205 Ry
     Harris-Foulkes estimate   =   -2147.40012289 Ry
     estimated scf accuracy    <       6.41971332 Ry

     iteration #  9     ecut=    36.75 Ry     beta=0.30
     Davidson diagonalization with overlap
     ethr =  3.75E-03,  avg # of iterations =  1.0

     negative rho (up, down):  1.429E-01 0.000E+00
 
     Adding external electric field

     Computed dipole along edir(3) : 
        Dipole               -0.0335 Ry au,         -0.0852 Debye
        Dipole field         -0.0001 Ry au
 
        Potential amp.        0.0087 Ry
        Total length         45.1661 bohr
 

     total cpu time spent up to now is      153.5 secs

     total energy              =   -2147.23684815 Ry
     Harris-Foulkes estimate   =   -2147.29235634 Ry
     estimated scf accuracy    <       2.16495995 Ry

     iteration # 10     ecut=    36.75 Ry     beta=0.30
     Davidson diagonalization with overlap
     ethr =  1.27E-03,  avg # of iterations =  2.8

     negative rho (up, down):  1.437E-01 0.000E+00
 
     Adding external electric field

     Computed dipole along edir(3) : 
        Dipole                0.0132 Ry au,          0.0336 Debye
        Dipole field          0.0000 Ry au
 
        Potential amp.       -0.0034 Ry
        Total length         45.1661 bohr
 

     total cpu time spent up to now is      165.9 secs

     total energy              =   -2147.22680685 Ry
     Harris-Foulkes estimate   =   -2147.27459469 Ry
     estimated scf accuracy    <       1.12900885 Ry

     iteration # 11     ecut=    36.75 Ry     beta=0.30
     Davidson diagonalization with overlap
     ethr =  6.60E-04,  avg # of iterations =  8.2

     negative rho (up, down):  1.445E-01 0.000E+00
 
     Adding external electric field

     Computed dipole along edir(3) : 
        Dipole                0.0650 Ry au,          0.1652 Debye
        Dipole field          0.0002 Ry au
 
        Potential amp.       -0.0168 Ry
        Total length         45.1661 bohr
 

     total cpu time spent up to now is      183.4 secs

     total energy              =   -2147.28749113 Ry
     Harris-Foulkes estimate   =   -2147.31609172 Ry
     estimated scf accuracy    <       1.16439956 Ry

     iteration # 12     ecut=    36.75 Ry     beta=0.30
     Davidson diagonalization with overlap
     ethr =  6.60E-04,  avg # of iterations =  1.8

     negative rho (up, down):  1.445E-01 0.000E+00
 
     Adding external electric field

     Computed dipole along edir(3) : 
        Dipole                0.0362 Ry au,          0.0921 Debye
        Dipole field          0.0001 Ry au
 
        Potential amp.       -0.0094 Ry
        Total length         45.1661 bohr
 

     total cpu time spent up to now is      195.4 secs

     total energy              =   -2147.28691936 Ry
     Harris-Foulkes estimate   =   -2147.32452272 Ry
     estimated scf accuracy    <       1.74366071 Ry

     iteration # 13     ecut=    36.75 Ry     beta=0.30
     Davidson diagonalization with overlap
     ethr =  6.60E-04,  avg # of iterations =  1.2

     negative rho (up, down):  1.446E-01 0.000E+00
 
     Adding external electric field

     Computed dipole along edir(3) : 
        Dipole                0.0254 Ry au,          0.0645 Debye
        Dipole field          0.0001 Ry au
 
        Potential amp.       -0.0066 Ry
        Total length         45.1661 bohr
 

     total cpu time spent up to now is      207.0 secs

     total energy              =   -2147.28234033 Ry
     Harris-Foulkes estimate   =   -2147.30197909 Ry
     estimated scf accuracy    <       0.75843270 Ry

     iteration # 14     ecut=    36.75 Ry     beta=0.30
     Davidson diagonalization with overlap
     ethr =  4.44E-04,  avg # of iterations =  1.0

     negative rho (up, down):  1.451E-01 0.000E+00
 
     Adding external electric field

     Computed dipole along edir(3) : 
        Dipole                0.0113 Ry au,          0.0288 Debye
        Dipole field          0.0000 Ry au
 
        Potential amp.       -0.0029 Ry
        Total length         45.1661 bohr
 

     total cpu time spent up to now is      218.5 secs

     total energy              =   -2147.27722683 Ry
     Harris-Foulkes estimate   =   -2147.29061171 Ry
     estimated scf accuracy    <       0.33566744 Ry

     iteration # 15     ecut=    36.75 Ry     beta=0.30
     Davidson diagonalization with overlap
     ethr =  1.96E-04,  avg # of iterations =  5.8

     negative rho (up, down):  1.452E-01 0.000E+00
 
     Adding external electric field

     Computed dipole along edir(3) : 
        Dipole                0.0068 Ry au,          0.0173 Debye
        Dipole field          0.0000 Ry au
 
        Potential amp.       -0.0018 Ry
        Total length         45.1661 bohr
 

     total cpu time spent up to now is      232.9 secs

     total energy              =   -2147.28614000 Ry
     Harris-Foulkes estimate   =   -2147.28812145 Ry
     estimated scf accuracy    <       0.08293402 Ry

     iteration # 16     ecut=    36.75 Ry     beta=0.30
     Davidson diagonalization with overlap
     ethr =  4.85E-05,  avg # of iterations =  9.8

     negative rho (up, down):  1.456E-01 0.000E+00
 
     Adding external electric field

     Computed dipole along edir(3) : 
        Dipole               -0.0050 Ry au,         -0.0126 Debye
        Dipole field         -0.0000 Ry au
 
        Potential amp.        0.0013 Ry
        Total length         45.1661 bohr
 

     total cpu time spent up to now is      252.6 secs

     total energy              =   -2147.29106365 Ry
     Harris-Foulkes estimate   =   -2147.29391417 Ry
     estimated scf accuracy    <       0.14083844 Ry

     iteration # 17     ecut=    36.75 Ry     beta=0.30
     Davidson diagonalization with overlap
     ethr =  4.85E-05,  avg # of iterations =  1.2

     negative rho (up, down):  1.458E-01 0.000E+00
 
     Adding external electric field

     Computed dipole along edir(3) : 
        Dipole               -0.0068 Ry au,         -0.0172 Debye
        Dipole field         -0.0000 Ry au
 
        Potential amp.        0.0018 Ry
        Total length         45.1661 bohr
 

     total cpu time spent up to now is      264.2 secs

     total energy              =   -2147.28929238 Ry
     Harris-Foulkes estimate   =   -2147.29183953 Ry
     estimated scf accuracy    <       0.07076292 Ry

     iteration # 18     ecut=    36.75 Ry     beta=0.30
     Davidson diagonalization with overlap
     ethr =  4.14E-05,  avg # of iterations =  1.4

     negative rho (up, down):  1.462E-01 0.000E+00
 
     Adding external electric field

     Computed dipole along edir(3) : 
        Dipole                0.0040 Ry au,          0.0101 Debye
        Dipole field          0.0000 Ry au
 
        Potential amp.       -0.0010 Ry
        Total length         45.1661 bohr
 

     total cpu time spent up to now is      276.0 secs

     total energy              =   -2147.28885142 Ry
     Harris-Foulkes estimate   =   -2147.29068437 Ry
     estimated scf accuracy    <       0.03414695 Ry

     iteration # 19     ecut=    36.75 Ry     beta=0.30
     Davidson diagonalization with overlap
     ethr =  2.00E-05,  avg # of iterations =  8.9

     negative rho (up, down):  1.468E-01 0.000E+00
 
     Adding external electric field

     Computed dipole along edir(3) : 
        Dipole                0.0030 Ry au,          0.0075 Debye
        Dipole field          0.0000 Ry au
 
        Potential amp.       -0.0008 Ry
        Total length         45.1661 bohr
 

     total cpu time spent up to now is      292.7 secs

     total energy              =   -2147.29050421 Ry
     Harris-Foulkes estimate   =   -2147.29055428 Ry
     estimated scf accuracy    <       0.00306823 Ry

     iteration # 20     ecut=    36.75 Ry     beta=0.30
     Davidson diagonalization with overlap
     ethr =  1.79E-06,  avg # of iterations =  8.3

     negative rho (up, down):  1.469E-01 0.000E+00
 
     Adding external electric field

     Computed dipole along edir(3) : 
        Dipole                0.0001 Ry au,          0.0003 Debye
        Dipole field          0.0000 Ry au
 
        Potential amp.       -0.0000 Ry
        Total length         45.1661 bohr
 

     total cpu time spent up to now is      314.0 secs

     total energy              =   -2147.29102726 Ry
     Harris-Foulkes estimate   =   -2147.29122291 Ry
     estimated scf accuracy    <       0.01169810 Ry

     iteration # 21     ecut=    36.75 Ry     beta=0.30
     Davidson diagonalization with overlap
     ethr =  1.79E-06,  avg # of iterations =  1.0

     negative rho (up, down):  1.470E-01 0.000E+00
 
     Adding external electric field

     Computed dipole along edir(3) : 
        Dipole                0.0001 Ry au,          0.0003 Debye
        Dipole field          0.0000 Ry au
 
        Potential amp.       -0.0000 Ry
        Total length         45.1661 bohr
 

     total cpu time spent up to now is      325.4 secs

     total energy              =   -2147.29083971 Ry
     Harris-Foulkes estimate   =   -2147.29106749 Ry
     estimated scf accuracy    <       0.00794246 Ry

     iteration # 22     ecut=    36.75 Ry     beta=0.30
     Davidson diagonalization with overlap
     ethr =  1.79E-06,  avg # of iterations =  1.4

     negative rho (up, down):  1.472E-01 0.000E+00
 
     Adding external electric field

     Computed dipole along edir(3) : 
        Dipole                0.0022 Ry au,          0.0057 Debye
        Dipole field          0.0000 Ry au
 
        Potential amp.       -0.0006 Ry
        Total length         45.1661 bohr
 

     total cpu time spent up to now is      337.3 secs

     total energy              =   -2147.29082652 Ry
     Harris-Foulkes estimate   =   -2147.29091268 Ry
     estimated scf accuracy    <       0.00215108 Ry

     iteration # 23     ecut=    36.75 Ry     beta=0.30
     Davidson diagonalization with overlap
     ethr =  1.26E-06,  avg # of iterations =  6.0

     negative rho (up, down):  1.475E-01 0.000E+00
 
     Adding external electric field

     Computed dipole along edir(3) : 
        Dipole               -0.0003 Ry au,         -0.0009 Debye
        Dipole field         -0.0000 Ry au
 
        Potential amp.        0.0001 Ry
        Total length         45.1661 bohr
 

     total cpu time spent up to now is      351.9 secs

     total energy              =   -2147.29087696 Ry
     Harris-Foulkes estimate   =   -2147.29090812 Ry
     estimated scf accuracy    <       0.00082853 Ry

     iteration # 24     ecut=    36.75 Ry     beta=0.30
     Davidson diagonalization with overlap
     ethr =  4.85E-07,  avg # of iterations =  7.4

     negative rho (up, down):  1.474E-01 0.000E+00
 
     Adding external electric field

     Computed dipole along edir(3) : 
        Dipole                0.0002 Ry au,          0.0005 Debye
        Dipole field          0.0000 Ry au
 
        Potential amp.       -0.0000 Ry
        Total length         45.1661 bohr
 

     total cpu time spent up to now is      370.3 secs

     total energy              =   -2147.29094398 Ry
     Harris-Foulkes estimate   =   -2147.29097395 Ry
     estimated scf accuracy    <       0.00082811 Ry

     iteration # 25     ecut=    36.75 Ry     beta=0.30
     Davidson diagonalization with overlap
     ethr =  4.84E-07,  avg # of iterations =  1.0

     negative rho (up, down):  1.474E-01 0.000E+00
 
     Adding external electric field

     Computed dipole along edir(3) : 
        Dipole                0.0003 Ry au,          0.0007 Debye
        Dipole field          0.0000 Ry au
 
        Potential amp.       -0.0001 Ry
        Total length         45.1661 bohr
 

     total cpu time spent up to now is      381.8 secs

     total energy              =   -2147.29093437 Ry
     Harris-Foulkes estimate   =   -2147.29095210 Ry
     estimated scf accuracy    <       0.00028222 Ry

     iteration # 26     ecut=    36.75 Ry     beta=0.30
     Davidson diagonalization with overlap
     ethr =  1.65E-07,  avg # of iterations =  6.5

     negative rho (up, down):  1.474E-01 0.000E+00
 
     Adding external electric field

     Computed dipole along edir(3) : 
        Dipole                0.0002 Ry au,          0.0006 Debye
        Dipole field          0.0000 Ry au
 
        Potential amp.       -0.0001 Ry
        Total length         45.1661 bohr
 

     total cpu time spent up to now is      398.0 secs

     total energy              =   -2147.29095493 Ry
     Harris-Foulkes estimate   =   -2147.29095746 Ry
     estimated scf accuracy    <       0.00015536 Ry

     iteration # 27     ecut=    36.75 Ry     beta=0.30
     Davidson diagonalization with overlap
     ethr =  9.09E-08,  avg # of iterations =  1.8

     negative rho (up, down):  1.475E-01 0.000E+00
 
     Adding external electric field

     Computed dipole along edir(3) : 
        Dipole                0.0003 Ry au,          0.0009 Debye
        Dipole field          0.0000 Ry au
 
        Potential amp.       -0.0001 Ry
        Total length         45.1661 bohr
 

     total cpu time spent up to now is      409.9 secs

     total energy              =   -2147.29094894 Ry
     Harris-Foulkes estimate   =   -2147.29095748 Ry
     estimated scf accuracy    <       0.00013079 Ry

     iteration # 28     ecut=    36.75 Ry     beta=0.30
     Davidson diagonalization with overlap
     ethr =  7.65E-08,  avg # of iterations =  1.0

     negative rho (up, down):  1.474E-01 0.000E+00
 
     Adding external electric field

     Computed dipole along edir(3) : 
        Dipole               -0.0000 Ry au,         -0.0001 Debye
        Dipole field         -0.0000 Ry au
 
        Potential amp.        0.0000 Ry
        Total length         45.1661 bohr
 

     total cpu time spent up to now is      421.5 secs

     total energy              =   -2147.29095308 Ry
     Harris-Foulkes estimate   =   -2147.29095269 Ry
     estimated scf accuracy    <       0.00001728 Ry

     iteration # 29     ecut=    36.75 Ry     beta=0.30
     Davidson diagonalization with overlap
     ethr =  1.01E-08,  avg # of iterations =  7.1

     negative rho (up, down):  1.474E-01 0.000E+00
 
     Adding external electric field

     Computed dipole along edir(3) : 
        Dipole                0.0000 Ry au,          0.0000 Debye
        Dipole field          0.0000 Ry au
 
        Potential amp.       -0.0000 Ry
        Total length         45.1661 bohr
 

     total cpu time spent up to now is      440.1 secs

     total energy              =   -2147.29095457 Ry
     Harris-Foulkes estimate   =   -2147.29095543 Ry
     estimated scf accuracy    <       0.00003170 Ry

     iteration # 30     ecut=    36.75 Ry     beta=0.30
     Davidson diagonalization with overlap
     ethr =  1.01E-08,  avg # of iterations =  1.0

     negative rho (up, down):  1.474E-01 0.000E+00
 
     Adding external electric field

     Computed dipole along edir(3) : 
        Dipole                0.0003 Ry au,          0.0007 Debye
        Dipole field          0.0000 Ry au
 
        Potential amp.       -0.0001 Ry
        Total length         45.1661 bohr
 

     total cpu time spent up to now is      451.8 secs

     total energy              =   -2147.29095423 Ry
     Harris-Foulkes estimate   =   -2147.29095488 Ry
     estimated scf accuracy    <       0.00001115 Ry

     iteration # 31     ecut=    36.75 Ry     beta=0.30
     Davidson diagonalization with overlap
     ethr =  6.52E-09,  avg # of iterations =  7.2

     negative rho (up, down):  1.474E-01 0.000E+00
 
     Adding external electric field

     Computed dipole along edir(3) : 
        Dipole                0.0000 Ry au,          0.0001 Debye
        Dipole field          0.0000 Ry au
 
        Potential amp.       -0.0000 Ry
        Total length         45.1661 bohr
 

     total cpu time spent up to now is      468.5 secs

     total energy              =   -2147.29095431 Ry
     Harris-Foulkes estimate   =   -2147.29095540 Ry
     estimated scf accuracy    <       0.00002850 Ry

     iteration # 32     ecut=    36.75 Ry     beta=0.30
     Davidson diagonalization with overlap
     ethr =  6.52E-09,  avg # of iterations =  1.0

     negative rho (up, down):  1.474E-01 0.000E+00

     negative rho (up, down):  1.474E-01 0.000E+00

     negative rho (up, down):  1.474E-01 0.000E+00

     negative rho (up, down):  1.474E-01 0.000E+00

     negative rho (up, down):  1.474E-01 0.000E+00

     negative rho (up, down):  1.474E-01 0.000E+00

     negative rho (up, down):  1.474E-01 0.000E+00

     negative rho (up, down):  1.474E-01 0.000E+00

     negative rho (up, down):  1.474E-01 0.000E+00

     negative rho (up, down):  1.474E-01 0.000E+00

     negative rho (up, down):  1.474E-01 0.000E+00

     negative rho (up, down):  1.474E-01 0.000E+00

     negative rho (up, down):  1.474E-01 0.000E+00

     negative rho (up, down):  1.474E-01 0.000E+00

     negative rho (up, down):  1.474E-01 0.000E+00

     negative rho (up, down):  1.474E-01 0.000E+00

     negative rho (up, down):  1.474E-01 0.000E+00

     negative rho (up, down):  1.474E-01 0.000E+00

     negative rho (up, down):  1.474E-01 0.000E+00

     negative rho (up, down):  1.474E-01 0.000E+00

     negative rho (up, down):  1.474E-01 0.000E+00

     negative rho (up, down):  1.474E-01 0.000E+00

     negative rho (up, down):  1.474E-01 0.000E+00

     negative rho (up, down):  1.474E-01 0.000E+00

     negative rho (up, down):  1.474E-01 0.000E+00

     negative rho (up, down):  1.474E-01 0.000E+00

     negative rho (up, down):  1.474E-01 0.000E+00

     negative rho (up, down):  1.474E-01 0.000E+00

     negative rho (up, down):  1.474E-01 0.000E+00

     negative rho (up, down):  1.474E-01 0.000E+00

     negative rho (up, down):  1.474E-01 0.000E+00

     negative rho (up, down):  1.474E-01 0.000E+00

     negative rho (up, down):  1.474E-01 0.000E+00

     negative rho (up, down):  1.474E-01 0.000E+00

     negative rho (up, down):  1.474E-01 0.000E+00
 
     Adding external electric field

     Computed dipole along edir(3) : 
        Dipole               -0.0032 Ry au,         -0.0082 Debye
        Dipole field         -0.0000 Ry au
 
        Potential amp.        0.0008 Ry
        Total length         45.1661 bohr
 

     total cpu time spent up to now is      494.5 secs

     End of self-consistent calculation

          k = 0.0000 0.0000 0.0000 ( 16439 PWs)   bands (ev):

   -70.1993 -70.1637 -70.1633 -70.0574 -70.0555 -70.0236 -70.0234 -70.0231
   -70.0230 -41.6482 -41.6089 -41.6087 -41.5518 -41.5275 -41.5273 -41.4658
   -41.4650 -41.4649 -41.4533 -41.4520 -41.4219 -41.4218 -41.3763 -41.3617
   -41.3615 -41.3613 -41.3612 -41.3385 -41.3298 -41.3239 -41.3238 -41.3080
   -41.1724 -41.1723 -41.1704 -41.1703 -21.9713 -21.9713 -21.9649 -21.9450
   -21.9449 -21.6020 -21.5960 -21.5916 -21.5916 -21.5895 -21.5895 -21.5654
   -21.5654 -21.5615 -21.5615 -11.2872 -10.1020  -9.7147  -2.9668  -2.5470
    -2.4582  -2.4582  -2.0359  -2.0359  -1.7996  -1.0895  -0.7087  -0.7086
    -0.5555  -0.5020  -0.5020  -0.4067  -0.4067  -0.0836  -0.0063   0.1581
     0.1582   0.4076   0.4237   0.4237   0.7613   0.7614   0.8221   0.8222
     1.1309   1.2317   1.4743   1.8468   1.8470   1.9847   1.9847   2.0155
     2.0784   2.1002   2.1003   2.2557   2.2559   2.3702   2.3731

          k = 0.0000 0.0348 0.0000 ( 16421 PWs)   bands (ev):

   -70.1971 -70.1657 -70.1634 -70.0554 -70.0537 -70.0254 -70.0249 -70.0236
   -70.0230 -41.6349 -41.6058 -41.5991 -41.5491 -41.5279 -41.5223 -41.4748
   -41.4628 -41.4550 -41.4407 -41.4404 -41.4252 -41.4193 -41.3884 -41.3689
   -41.3656 -41.3577 -41.3560 -41.3459 -41.3364 -41.3252 -41.3224 -41.3068
   -41.1881 -41.1863 -41.1746 -41.1728 -21.9700 -21.9677 -21.9628 -21.9444
   -21.9440 -21.6001 -21.5951 -21.5895 -21.5881 -21.5876 -21.5856 -21.5656
   -21.5655 -21.5611 -21.5608 -11.1639 -10.0375  -9.7243  -3.4342  -3.0893
    -2.9147  -2.2866  -2.0219  -1.8530  -1.6971  -1.2000  -1.0443  -0.9392
    -0.5356  -0.4607  -0.4321  -0.4103  -0.1237  -0.1156   0.0129   0.1750
     0.2457   0.4479   0.6105   0.6235   0.7625   0.7794   0.8402   0.9751
     1.1566   1.2205   1.4840   1.6448   1.7773   1.8697   1.9453   2.0202
     2.0630   2.0658   2.1530   2.2000   2.2298   2.2725   2.3608

          k = 0.0000 0.0696 0.0000 ( 16454 PWs)   bands (ev):

   -70.1916 -70.1712 -70.1634 -70.0501 -70.0488 -70.0306 -70.0299 -70.0236
   -70.0230 -41.6206 -41.5763 -41.5730 -41.5428 -41.5303 -41.5118 -41.4984
   -41.4586 -41.4473 -41.4315 -41.4315 -41.4107 -41.4081 -41.3948 -41.3757
   -41.3676 -41.3660 -41.3552 -41.3502 -41.3466 -41.3275 -41.3210 -41.3035
   -41.2305 -41.2245 -41.1789 -41.1776 -21.9685 -21.9607 -21.9578 -21.9429
   -21.9418 -21.5972 -21.5946 -21.5850 -21.5828 -21.5815 -21.5781 -21.5652
   -21.5650 -21.5612 -21.5594 -10.8537  -9.9341  -9.7699  -4.1978  -3.4707
    -3.3845  -2.8460  -2.0306  -2.0168  -1.5563  -1.3691  -1.2773  -1.1076
    -0.6477  -0.2247  -0.1856  -0.0514  -0.0378   0.0782   0.1580   0.2478
     0.4059   0.6342   0.6693   0.7032   0.8381   0.9348   1.0595   1.0806
     1.2096   1.2222   1.2337   1.3596   1.5418   1.7584   1.7897   1.8644
     1.9021   2.0263   2.0267   2.1009   2.1825   2.2145   2.2717

          k = 0.0000-0.1044 0.0000 ( 16456 PWs)   bands (ev):

   -70.1872 -70.1757 -70.1634 -70.0458 -70.0451 -70.0347 -70.0338 -70.0236
   -70.0230 -41.6192 -41.5462 -41.5370 -41.5345 -41.5343 -41.5242 -41.5063
   -41.4857 -41.4517 -41.4453 -41.4099 -41.4014 -41.3856 -41.3827 -41.3809
   -41.3766 -41.3683 -41.3609 -41.3503 -41.3498 -41.3207 -41.3076 -41.3041
   -41.2688 -41.2513 -41.1810 -41.1799 -21.9680 -21.9576 -21.9551 -21.9419
   -21.9406 -21.5954 -21.5951 -21.5825 -21.5801 -21.5786 -21.5744 -21.5647
   -21.5637 -21.5621 -21.5586 -10.6252  -9.9899  -9.7533  -4.4808  -3.6227
    -3.5582  -3.2468  -2.1381  -1.8340  -1.6620  -1.4932  -1.4682  -0.9776
    -0.5986  -0.1313   0.0173   0.0614   0.0691   0.2486   0.2884   0.3365
     0.4760   0.5351   0.6435   0.7308   0.8564   0.8955   0.9482   1.1140
     1.1933   1.2704   1.2714   1.2748   1.6667   1.6849   1.7114   1.8358
     1.8582   1.9044   1.9447   2.0221   2.0221   2.1080   2.1391

          k = 0.0301-0.0174 0.0000 ( 16421 PWs)   bands (ev):

   -70.1972 -70.1654 -70.1637 -70.0554 -70.0537 -70.0255 -70.0250 -70.0235
   -70.0230 -41.6350 -41.6059 -41.5990 -41.5491 -41.5278 -41.5224 -41.4748
   -41.4627 -41.4551 -41.4407 -41.4404 -41.4251 -41.4194 -41.3882 -41.3691
   -41.3657 -41.3577 -41.3560 -41.3459 -41.3364 -41.3251 -41.3224 -41.3068
   -41.1881 -41.1863 -41.1745 -41.1728 -21.9700 -21.9677 -21.9628 -21.9444
   -21.9440 -21.6001 -21.5951 -21.5895 -21.5881 -21.5876 -21.5856 -21.5656
   -21.5655 -21.5611 -21.5608 -11.1639 -10.0375  -9.7243  -3.4342  -3.0893
    -2.9147  -2.2866  -2.0219  -1.8530  -1.6972  -1.2000  -1.0444  -0.9392
    -0.5356  -0.4607  -0.4320  -0.4104  -0.1237  -0.1156   0.0129   0.1751
     0.2458   0.4479   0.6105   0.6235   0.7625   0.7794   0.8402   0.9751
     1.1566   1.2205   1.4840   1.6449   1.7773   1.8696   1.9453   2.0202
     2.0630   2.0658   2.1530   2.2000   2.2298   2.2724   2.3610

          k = 0.0301 0.0174 0.0000 ( 16421 PWs)   bands (ev):

   -70.1971 -70.1657 -70.1634 -70.0554 -70.0537 -70.0256 -70.0250 -70.0234
   -70.0230 -41.6349 -41.6058 -41.5991 -41.5491 -41.5278 -41.5223 -41.4748
   -41.4627 -41.4552 -41.4407 -41.4404 -41.4252 -41.4194 -41.3883 -41.3689
   -41.3658 -41.3577 -41.3559 -41.3459 -41.3364 -41.3252 -41.3223 -41.3068
   -41.1882 -41.1863 -41.1745 -41.1728 -21.9700 -21.9677 -21.9628 -21.9444
   -21.9440 -21.6001 -21.5951 -21.5896 -21.5881 -21.5876 -21.5856 -21.5656
   -21.5655 -21.5611 -21.5608 -11.1639 -10.0375  -9.7243  -3.4342  -3.0893
    -2.9147  -2.2866  -2.0219  -1.8530  -1.6971  -1.2000  -1.0444  -0.9392
    -0.5356  -0.4607  -0.4321  -0.4103  -0.1237  -0.1156   0.0130   0.1751
     0.2457   0.4479   0.6105   0.6235   0.7625   0.7794   0.8401   0.9751
     1.1566   1.2205   1.4840   1.6448   1.7773   1.8697   1.9453   2.0202
     2.0631   2.0658   2.1531   2.1999   2.2297   2.2725   2.3608

          k = 0.0301 0.0522 0.0000 ( 16466 PWs)   bands (ev):

   -70.1933 -70.1697 -70.1634 -70.0517 -70.0502 -70.0289 -70.0287 -70.0234
   -70.0231 -41.6145 -41.6031 -41.5741 -41.5445 -41.5283 -41.5155 -41.4919
   -41.4547 -41.4461 -41.4352 -41.4272 -41.4191 -41.4069 -41.4048 -41.3792
   -41.3632 -41.3597 -41.3535 -41.3509 -41.3483 -41.3259 -41.3225 -41.3043
   -41.2141 -41.2141 -41.1788 -41.1780 -21.9668 -21.9647 -21.9588 -21.9432
   -21.9425 -21.5973 -21.5938 -21.5865 -21.5854 -21.5828 -21.5800 -21.5654
   -21.5653 -21.5605 -21.5603 -10.9447  -9.9414  -9.7650  -3.8611  -3.7261
    -3.1529  -2.5792  -2.2089  -1.7330  -1.5816  -1.5565  -1.1536  -1.0573
    -0.6409  -0.2944  -0.1969  -0.1730  -0.1011  -0.0269   0.0801   0.2436
     0.3963   0.6709   0.6996   0.7144   0.7479   0.8587   0.9845   1.1400
     1.1746   1.1784   1.3640   1.4223   1.4985   1.8131   1.8242   1.9027
     1.9164   2.0409   2.1152   2.1461   2.2091   2.2446   2.3039

          k = 0.0301-0.1218 0.0000 ( 16501 PWs)   bands (ev):

   -70.1872 -70.1756 -70.1635 -70.0459 -70.0450 -70.0345 -70.0341 -70.0234
   -70.0231 -41.6069 -41.5743 -41.5377 -41.5312 -41.5307 -41.5250 -41.5083
   -41.4678 -41.4460 -41.4351 -41.4217 -41.4106 -41.3932 -41.3850 -41.3841
   -41.3768 -41.3671 -41.3595 -41.3525 -41.3396 -41.3236 -41.3146 -41.2994
   -41.2574 -41.2491 -41.1841 -41.1833 -21.9652 -21.9595 -21.9558 -21.9418
   -21.9410 -21.5943 -21.5930 -21.5824 -21.5815 -21.5790 -21.5758 -21.5650
   -21.5638 -21.5613 -21.5595 -10.6420  -9.9215  -9.8050  -4.3150  -3.8962
    -3.6180  -2.9565  -2.3671  -1.8842  -1.6416  -1.4945  -1.3623  -0.9741
    -0.6278  -0.1092  -0.0190   0.0517   0.0663   0.1823   0.2119   0.3223
     0.4849   0.5628   0.6328   0.8303   0.8630   0.8943   0.9670   1.1427
     1.1868   1.1940   1.2830   1.3498   1.6085   1.6521   1.7197   1.8175
     1.8640   1.9597   1.9945   2.0633   2.1306   2.1567   2.1781

          k = 0.0301-0.0870 0.0000 ( 16501 PWs)   bands (ev):

   -70.1873 -70.1755 -70.1635 -70.0459 -70.0450 -70.0345 -70.0340 -70.0234
   -70.0231 -41.6069 -41.5744 -41.5377 -41.5311 -41.5305 -41.5249 -41.5084
   -41.4678 -41.4460 -41.4351 -41.4217 -41.4106 -41.3932 -41.3849 -41.3841
   -41.3768 -41.3671 -41.3595 -41.3524 -41.3396 -41.3237 -41.3146 -41.2993
   -41.2574 -41.2491 -41.1841 -41.1833 -21.9652 -21.9595 -21.9558 -21.9418
   -21.9410 -21.5943 -21.5930 -21.5824 -21.5815 -21.5790 -21.5758 -21.5650
   -21.5638 -21.5613 -21.5595 -10.6420  -9.9215  -9.8050  -4.3150  -3.8962
    -3.6179  -2.9565  -2.3671  -1.8842  -1.6416  -1.4945  -1.3623  -0.9741
    -0.6278  -0.1092  -0.0191   0.0517   0.0663   0.1823   0.2119   0.3223
     0.4849   0.5627   0.6328   0.8303   0.8631   0.8943   0.9670   1.1427
     1.1868   1.1940   1.2831   1.3499   1.6085   1.6521   1.7197   1.8175
     1.8640   1.9597   1.9945   2.0633   2.1306   2.1566   2.1781

          k = 0.0301-0.0522 0.0000 ( 16466 PWs)   bands (ev):

   -70.1933 -70.1694 -70.1636 -70.0517 -70.0502 -70.0289 -70.0286 -70.0234
   -70.0232 -41.6146 -41.6032 -41.5739 -41.5445 -41.5282 -41.5156 -41.4918
   -41.4548 -41.4461 -41.4351 -41.4272 -41.4191 -41.4069 -41.4048 -41.3793
   -41.3632 -41.3597 -41.3535 -41.3509 -41.3483 -41.3259 -41.3226 -41.3043
   -41.2141 -41.2141 -41.1788 -41.1781 -21.9668 -21.9647 -21.9588 -21.9432
   -21.9426 -21.5973 -21.5938 -21.5865 -21.5854 -21.5828 -21.5800 -21.5654
   -21.5653 -21.5605 -21.5603 -10.9447  -9.9414  -9.7650  -3.8612  -3.7261
    -3.1528  -2.5792  -2.2089  -1.7330  -1.5816  -1.5566  -1.1536  -1.0573
    -0.6409  -0.2944  -0.1969  -0.1730  -0.1011  -0.0269   0.0801   0.2435
     0.3963   0.6709   0.6996   0.7144   0.7480   0.8587   0.9846   1.1400
     1.1747   1.1784   1.3640   1.4224   1.4985   1.8131   1.8242   1.9027
     1.9164   2.0409   2.1151   2.1461   2.2091   2.2446   2.3040

          k = 0.0603-0.0348 0.0000 ( 16454 PWs)   bands (ev):

   -70.1917 -70.1709 -70.1637 -70.0501 -70.0488 -70.0307 -70.0299 -70.0235
   -70.0230 -41.6208 -41.5763 -41.5728 -41.5428 -41.5301 -41.5120 -41.4984
   -41.4585 -41.4470 -41.4315 -41.4314 -41.4109 -41.4081 -41.3947 -41.3758
   -41.3677 -41.3660 -41.3553 -41.3502 -41.3466 -41.3275 -41.3211 -41.3035
   -41.2305 -41.2245 -41.1788 -41.1776 -21.9685 -21.9607 -21.9578 -21.9429
   -21.9418 -21.5972 -21.5946 -21.5850 -21.5828 -21.5815 -21.5781 -21.5652
   -21.5650 -21.5612 -21.5594 -10.8537  -9.9341  -9.7699  -4.1978  -3.4707
    -3.3844  -2.8460  -2.0306  -2.0168  -1.5563  -1.3691  -1.2773  -1.1076
    -0.6477  -0.2248  -0.1857  -0.0515  -0.0377   0.0782   0.1580   0.2479
     0.4059   0.6342   0.6693   0.7032   0.8381   0.9347   1.0595   1.0806
     1.2097   1.2222   1.2337   1.3596   1.5418   1.7584   1.7898   1.8644
     1.9020   2.0262   2.0267   2.1010   2.1826   2.2145   2.2719

          k = 0.0603-0.0000 0.0000 ( 16466 PWs)   bands (ev):

   -70.1933 -70.1694 -70.1636 -70.0517 -70.0502 -70.0290 -70.0287 -70.0233
   -70.0231 -41.6146 -41.6032 -41.5739 -41.5445 -41.5282 -41.5156 -41.4918
   -41.4547 -41.4461 -41.4350 -41.4272 -41.4191 -41.4068 -41.4049 -41.3793
   -41.3632 -41.3597 -41.3535 -41.3509 -41.3484 -41.3258 -41.3225 -41.3043
   -41.2143 -41.2140 -41.1787 -41.1780 -21.9668 -21.9647 -21.9588 -21.9432
   -21.9426 -21.5973 -21.5938 -21.5865 -21.5854 -21.5828 -21.5800 -21.5654
   -21.5653 -21.5605 -21.5603 -10.9447  -9.9414  -9.7650  -3.8611  -3.7261
    -3.1529  -2.5792  -2.2089  -1.7330  -1.5816  -1.5566  -1.1536  -1.0573
    -0.6409  -0.2944  -0.1970  -0.1730  -0.1011  -0.0269   0.0801   0.2435
     0.3963   0.6709   0.6996   0.7144   0.7480   0.8587   0.9845   1.1400
     1.1747   1.1784   1.3640   1.4224   1.4985   1.8131   1.8242   1.9026
     1.9164   2.0408   2.1151   2.1461   2.2091   2.2446   2.3039

          k = 0.0603 0.0348 0.0000 ( 16454 PWs)   bands (ev):

   -70.1916 -70.1712 -70.1634 -70.0501 -70.0488 -70.0307 -70.0300 -70.0234
   -70.0230 -41.6206 -41.5763 -41.5730 -41.5428 -41.5302 -41.5118 -41.4984
   -41.4585 -41.4472 -41.4316 -41.4314 -41.4108 -41.4081 -41.3948 -41.3757
   -41.3677 -41.3660 -41.3553 -41.3501 -41.3466 -41.3275 -41.3210 -41.3035
   -41.2306 -41.2246 -41.1788 -41.1775 -21.9685 -21.9607 -21.9578 -21.9429
   -21.9418 -21.5972 -21.5946 -21.5850 -21.5828 -21.5815 -21.5781 -21.5652
   -21.5650 -21.5612 -21.5594 -10.8537  -9.9341  -9.7699  -4.1978  -3.4707
    -3.3844  -2.8460  -2.0306  -2.0168  -1.5563  -1.3691  -1.2773  -1.1076
    -0.6477  -0.2247  -0.1856  -0.0514  -0.0378   0.0782   0.1580   0.2479
     0.4059   0.6342   0.6692   0.7032   0.8381   0.9347   1.0594   1.0806
     1.2097   1.2221   1.2337   1.3595   1.5418   1.7583   1.7898   1.8644
     1.9021   2.0263   2.0266   2.1008   2.1826   2.2145   2.2717

          k = 0.0603-0.1393 0.0000 ( 16501 PWs)   bands (ev):

   -70.1872 -70.1756 -70.1635 -70.0458 -70.0450 -70.0346 -70.0341 -70.0234
   -70.0231 -41.6070 -41.5742 -41.5377 -41.5312 -41.5307 -41.5250 -41.5084
   -41.4677 -41.4459 -41.4350 -41.4218 -41.4106 -41.3933 -41.3849 -41.3841
   -41.3768 -41.3671 -41.3596 -41.3524 -41.3397 -41.3236 -41.3146 -41.2993
   -41.2575 -41.2492 -41.1841 -41.1833 -21.9652 -21.9595 -21.9558 -21.9418
   -21.9410 -21.5943 -21.5930 -21.5824 -21.5815 -21.5790 -21.5758 -21.5650
   -21.5638 -21.5613 -21.5596 -10.6420  -9.9215  -9.8050  -4.3150  -3.8962
    -3.6180  -2.9564  -2.3671  -1.8842  -1.6416  -1.4945  -1.3623  -0.9741
    -0.6278  -0.1092  -0.0190   0.0517   0.0663   0.1823   0.2119   0.3224
     0.4850   0.5627   0.6328   0.8303   0.8630   0.8943   0.9670   1.1426
     1.1867   1.1939   1.2830   1.3498   1.6085   1.6521   1.7197   1.8175
     1.8639   1.9597   1.9945   2.0632   2.1306   2.1567   2.1781

          k = 0.0603-0.1044 0.0000 ( 16488 PWs)   bands (ev):

   -70.1815 -70.1812 -70.1636 -70.0408 -70.0402 -70.0393 -70.0392 -70.0233
   -70.0232 -41.5868 -41.5634 -41.5634 -41.5326 -41.5324 -41.5076 -41.4915
   -41.4915 -41.4312 -41.4311 -41.4068 -41.4050 -41.4050 -41.4049 -41.4038
   -41.3700 -41.3626 -41.3625 -41.3384 -41.3383 -41.3302 -41.2911 -41.2909
   -41.2742 -41.2742 -41.1885 -41.1884 -21.9600 -21.9600 -21.9570 -21.9410
   -21.9410 -21.5917 -21.5915 -21.5807 -21.5788 -21.5787 -21.5776 -21.5650
   -21.5618 -21.5616 -21.5608 -10.5115  -9.8808  -9.8807  -4.1463  -4.1463
    -3.9509  -2.7967  -2.4096  -2.4096  -1.5241  -1.4261  -1.4260  -0.7622
    -0.7621  -0.0976   0.0837   0.0838   0.2220   0.2680   0.3673   0.3674
     0.4800   0.4800   0.5402   0.6413   0.6413   1.0441   1.0764   1.0765
     1.0848   1.3217   1.4961   1.4962   1.5396   1.7331   1.7331   1.8014
     1.9084   1.9085   1.9272   1.9920   1.9920   2.1268   2.1268

          k = 0.0603-0.0696 0.0000 ( 16501 PWs)   bands (ev):

   -70.1874 -70.1753 -70.1637 -70.0459 -70.0450 -70.0345 -70.0340 -70.0234
   -70.0232 -41.6072 -41.5742 -41.5378 -41.5310 -41.5306 -41.5249 -41.5085
   -41.4676 -41.4460 -41.4350 -41.4217 -41.4107 -41.3933 -41.3849 -41.3841
   -41.3768 -41.3671 -41.3596 -41.3524 -41.3397 -41.3237 -41.3146 -41.2993
   -41.2574 -41.2492 -41.1841 -41.1833 -21.9652 -21.9595 -21.9558 -21.9418
   -21.9410 -21.5943 -21.5930 -21.5824 -21.5815 -21.5790 -21.5758 -21.5650
   -21.5638 -21.5613 -21.5595 -10.6420  -9.9215  -9.8050  -4.3150  -3.8962
    -3.6179  -2.9565  -2.3671  -1.8842  -1.6416  -1.4945  -1.3623  -0.9741
    -0.6278  -0.1093  -0.0191   0.0517   0.0663   0.1823   0.2119   0.3224
     0.4850   0.5627   0.6328   0.8303   0.8631   0.8943   0.9670   1.1427
     1.1868   1.1939   1.2830   1.3498   1.6086   1.6520   1.7197   1.8175
     1.8639   1.9596   1.9945   2.0633   2.1306   2.1568   2.1781

          k =-0.0904 0.0522 0.0000 ( 16456 PWs)   bands (ev):

   -70.1874 -70.1752 -70.1637 -70.0457 -70.0451 -70.0348 -70.0339 -70.0235
   -70.0230 -41.6194 -41.5457 -41.5372 -41.5347 -41.5340 -41.5244 -41.5065
   -41.4852 -41.4517 -41.4452 -41.4100 -41.4016 -41.3856 -41.3827 -41.3809
   -41.3767 -41.3684 -41.3608 -41.3504 -41.3497 -41.3208 -41.3077 -41.3040
   -41.2689 -41.2514 -41.1809 -41.1798 -21.9680 -21.9576 -21.9551 -21.9419
   -21.9406 -21.5954 -21.5951 -21.5825 -21.5801 -21.5786 -21.5744 -21.5647
   -21.5637 -21.5621 -21.5586 -10.6252  -9.9899  -9.7533  -4.4808  -3.6227
    -3.5582  -3.2467  -2.1381  -1.8340  -1.6620  -1.4933  -1.4683  -0.9777
    -0.5985  -0.1315   0.0173   0.0613   0.0691   0.2488   0.2884   0.3367
     0.4762   0.5350   0.6435   0.7308   0.8564   0.8956   0.9481   1.1140
     1.1933   1.2704   1.2713   1.2748   1.6669   1.6849   1.7113   1.8360
     1.8581   1.9043   1.9447   2.0220   2.0224   2.1081   2.1391

          k =-0.0904 0.0870 0.0000 ( 16501 PWs)   bands (ev):

   -70.1874 -70.1752 -70.1637 -70.0459 -70.0450 -70.0346 -70.0341 -70.0234
   -70.0231 -41.6072 -41.5742 -41.5378 -41.5310 -41.5305 -41.5249 -41.5085
   -41.4676 -41.4460 -41.4350 -41.4217 -41.4106 -41.3933 -41.3850 -41.3842
   -41.3768 -41.3671 -41.3595 -41.3524 -41.3396 -41.3237 -41.3146 -41.2993
   -41.2574 -41.2492 -41.1841 -41.1833 -21.9652 -21.9595 -21.9558 -21.9418
   -21.9410 -21.5943 -21.5930 -21.5824 -21.5815 -21.5790 -21.5758 -21.5650
   -21.5638 -21.5613 -21.5595 -10.6420  -9.9215  -9.8050  -4.3150  -3.8962
    -3.6180  -2.9564  -2.3671  -1.8842  -1.6416  -1.4945  -1.3623  -0.9741
    -0.6278  -0.1093  -0.0191   0.0517   0.0663   0.1823   0.2120   0.3224
     0.4849   0.5627   0.6328   0.8303   0.8630   0.8943   0.9670   1.1427
     1.1868   1.1939   1.2830   1.3498   1.6085   1.6520   1.7197   1.8175
     1.8639   1.9596   1.9945   2.0633   2.1306   2.1567   2.1781

          k =-0.0904 0.1218 0.0000 ( 16501 PWs)   bands (ev):

   -70.1873 -70.1755 -70.1635 -70.0458 -70.0450 -70.0347 -70.0341 -70.0233
   -70.0231 -41.6070 -41.5744 -41.5377 -41.5311 -41.5305 -41.5249 -41.5084
   -41.4677 -41.4459 -41.4350 -41.4218 -41.4107 -41.3933 -41.3849 -41.3841
   -41.3768 -41.3671 -41.3596 -41.3524 -41.3397 -41.3236 -41.3146 -41.2993
   -41.2575 -41.2492 -41.1841 -41.1833 -21.9652 -21.9595 -21.9558 -21.9418
   -21.9410 -21.5943 -21.5930 -21.5824 -21.5815 -21.5790 -21.5758 -21.5650
   -21.5638 -21.5613 -21.5595 -10.6420  -9.9215  -9.8050  -4.3150  -3.8962
    -3.6179  -2.9564  -2.3671  -1.8842  -1.6415  -1.4945  -1.3623  -0.9741
    -0.6278  -0.1092  -0.0191   0.0517   0.0663   0.1823   0.2119   0.3223
     0.4849   0.5627   0.6328   0.8303   0.8630   0.8943   0.9670   1.1426
     1.1867   1.1939   1.2830   1.3498   1.6085   1.6520   1.7197   1.8175
     1.8639   1.9597   1.9945   2.0633   2.1306   2.1567   2.1781

          k =-0.0904-0.0522 0.0000 ( 16456 PWs)   bands (ev):

   -70.1872 -70.1757 -70.1634 -70.0457 -70.0451 -70.0350 -70.0340 -70.0234
   -70.0230 -41.6192 -41.5461 -41.5370 -41.5345 -41.5342 -41.5242 -41.5064
   -41.4856 -41.4516 -41.4452 -41.4102 -41.4016 -41.3855 -41.3826 -41.3808
   -41.3768 -41.3683 -41.3608 -41.3505 -41.3497 -41.3207 -41.3076 -41.3041
   -41.2690 -41.2515 -41.1809 -41.1798 -21.9680 -21.9576 -21.9551 -21.9419
   -21.9406 -21.5954 -21.5951 -21.5825 -21.5801 -21.5786 -21.5744 -21.5647
   -21.5637 -21.5621 -21.5586 -10.6252  -9.9899  -9.7533  -4.4808  -3.6227
    -3.5582  -3.2467  -2.1381  -1.8340  -1.6620  -1.4932  -1.4682  -0.9776
    -0.5985  -0.1313   0.0173   0.0614   0.0691   0.2486   0.2884   0.3366
     0.4760   0.5350   0.6435   0.7308   0.8564   0.8956   0.9482   1.1139
     1.1932   1.2703   1.2713   1.2747   1.6667   1.6849   1.7114   1.8359
     1.8582   1.9044   1.9446   2.0221   2.0222   2.1079   2.1392

     the Fermi energy is     1.6635 ev

!    total energy              =   -2147.29095169 Ry
     Harris-Foulkes estimate   =   -2147.29095472 Ry
     estimated scf accuracy    <       0.00000347 Ry

     The total energy is the sum of the following terms:

     one-electron contribution =  -16864.44206352 Ry
     hartree contribution      =    8441.14328664 Ry
     xc contribution           =    -409.61208290 Ry
     ewald contribution        =    6685.73814149 Ry
     electric field correction =       0.00000003 Ry
     smearing contrib. (-TS)   =      -0.11823343 Ry

     convergence has been achieved in  32 iterations
 
 BEEF-vdW xc energy contributions
           1 :   -359.894365542899     
           2 :    329.384492229473     
           3 :   -277.323446365632     
           4 :    217.604277576639     
           5 :   -163.377460419342     
           6 :    122.549898493949     
           7 :   -96.3088465226240     
           8 :    80.7641445434267     
           9 :   -70.2904129482057     
          10 :    60.5964817031576     
          11 :   -50.1420315703891     
          12 :    39.6984168371843     
          13 :   -30.8655949349940     
          14 :    24.6699772666653     
          15 :   -20.9994311206003     
          16 :    18.9310938077865     
          17 :   -17.4710576554392     
          18 :    16.1078208296982     
          19 :   -14.8680125169383     
          20 :    13.9745938314555     
          21 :   -13.4677886166042     
          22 :    13.1011042567021     
          23 :   -12.5567246549555     
          24 :    11.7499763712024     
          25 :   -10.9365143184064     
          26 :    10.5161867472409     
          27 :   -10.6897732370353     
          28 :    11.2487485818572     
          29 :   -11.6766111848396     
          30 :    11.4965485502582     
          31 :   -32.0907943565047     
          32 :   -23.3695308377941     

     Forces acting on atoms (Ry/au):


     negative rho (up, down):  1.474E-01 0.000E+00
     atom    1 type  1   force =     0.02979210   -0.01719884    0.03170821
     atom    2 type  2   force =    -0.00005041   -0.00004575   -0.08046053
     atom    3 type  1   force =    -0.02973085   -0.01718512    0.03173726
     atom    4 type  1   force =     0.00002036    0.03434735    0.03174657
     atom    5 type  1   force =     0.00002428   -0.00000870    0.00010437
     atom    6 type  2   force =    -0.00019305    0.00007199   -0.00049980
     atom    7 type  1   force =     0.00001623   -0.00000527    0.00008822
     atom    8 type  1   force =     0.00001282    0.00000316    0.00010530
     atom    9 type  1   force =    -0.02974773    0.01717701   -0.03151250
     atom   10 type  2   force =     0.00008838    0.00003014    0.08002693
     atom   11 type  1   force =     0.02975963    0.01717627   -0.03150588
     atom   12 type  1   force =     0.00000824   -0.03436226   -0.03153814

     Total force =     0.113693     Total SCF correction =     0.004712


     entering subroutine stress ...


     negative rho (up, down):  1.474E-01 0.000E+00
          total   stress  (Ry/bohr**3)                   (kbar)     P=  -23.43
  -0.00021527  -0.00000005   0.00000003        -31.67     -0.01      0.00
  -0.00000005  -0.00021556  -0.00000007         -0.01    -31.71     -0.01
   0.00000003  -0.00000007  -0.00004699          0.00     -0.01     -6.91


     BFGS Geometry Optimization

     number of scf cycles    =   1
     number of bfgs steps    =   0

     energy   new            =   -2147.2909516877 Ry

     new trust radius        =       0.0800269801 bohr
     new conv_thr            =       0.0000099958 Ry


ATOMIC_POSITIONS (crystal)
Cr1      0.000000000   0.000000000   0.407935114    0   0   0
Bi1      0.000000000   0.500000000   0.407935114    0   0   0
Cr1      0.500000000   0.000000000   0.407935114    0   0   0
Cr1      0.500000000   0.500000000   0.407935114    0   0   0
Cr1      0.666666667   0.666666667   0.500000000    0   0   0
Bi1      0.666666667   0.166666667   0.500000000    0   0   0
Cr1      0.166666667   0.666666667   0.500000000    0   0   0
Cr1      0.166666667   0.166666667   0.500000000    0   0   0
Cr1      0.329536437   0.335231960   0.591384626
Bi1      0.333340128   0.833336665   0.593792427
Cr1      0.835232783   0.335231878   0.591384769
Cr1      0.835233204   0.829535170   0.591384073



     Writing output data file calc.save
     Check: negative starting charge=   -0.135031
     NEW-OLD atomic charge density approx. for the potential

     Check: negative/imaginary core charge=   -0.000003    0.000000
     Check: negative starting charge=   -0.137041

     negative rho (up, down):  1.486E-01 0.000E+00
 
     Adding external electric field

     Computed dipole along edir(3) : 
        Dipole               -0.0178 Ry au,         -0.0451 Debye
        Dipole field         -0.0001 Ry au
 
        Potential amp.        0.0046 Ry
        Total length         45.1661 bohr
 

     total cpu time spent up to now is      511.7 secs

     Self-consistent Calculation

     iteration #  1     ecut=    36.75 Ry     beta=0.30
     Davidson diagonalization with overlap
     c_bands:  1 eigenvalues not converged
     c_bands:  1 eigenvalues not converged
     c_bands:  1 eigenvalues not converged
     c_bands:  1 eigenvalues not converged
     ethr =  1.00E-06,  avg # of iterations = 15.1

     negative rho (up, down):  1.487E-01 0.000E+00
 
     Adding external electric field

     Computed dipole along edir(3) : 
        Dipole                0.4865 Ry au,          1.2365 Debye
        Dipole field          0.0014 Ry au
 
        Potential amp.       -0.1261 Ry
        Total length         45.1661 bohr
 

     total cpu time spent up to now is      544.2 secs

     total energy              =   -2147.27859425 Ry
     Harris-Foulkes estimate   =   -2147.30498599 Ry
     estimated scf accuracy    <       0.05515029 Ry

     iteration #  2     ecut=    36.75 Ry     beta=0.30
     Davidson diagonalization with overlap
     ethr =  3.23E-05,  avg # of iterations =  6.2

     negative rho (up, down):  1.502E-01 0.000E+00
 
     Adding external electric field

     Computed dipole along edir(3) : 
        Dipole               -0.0044 Ry au,         -0.0112 Debye
        Dipole field         -0.0000 Ry au
 
        Potential amp.        0.0011 Ry
        Total length         45.1661 bohr
 

     total cpu time spent up to now is      565.9 secs

     total energy              =   -2146.82714697 Ry
     Harris-Foulkes estimate   =   -2147.74198661 Ry
     estimated scf accuracy    <      58.83489778 Ry

     iteration #  3     ecut=    36.75 Ry     beta=0.30
     Davidson diagonalization with overlap
     ethr =  3.23E-05,  avg # of iterations =  7.0

     negative rho (up, down):  1.495E-01 0.000E+00
 
     Adding external electric field

     Computed dipole along edir(3) : 
        Dipole                0.0323 Ry au,          0.0821 Debye
        Dipole field          0.0001 Ry au
 
        Potential amp.       -0.0084 Ry
        Total length         45.1661 bohr
 

     total cpu time spent up to now is      588.4 secs

     total energy              =   -2147.27965622 Ry
     Harris-Foulkes estimate   =   -2147.32664183 Ry
     estimated scf accuracy    <       1.22616974 Ry

     iteration #  4     ecut=    36.75 Ry     beta=0.30
     Davidson diagonalization with overlap
     ethr =  3.23E-05,  avg # of iterations =  7.0

     negative rho (up, down):  1.492E-01 0.000E+00
 
     Adding external electric field

     Computed dipole along edir(3) : 
        Dipole                0.0025 Ry au,          0.0064 Debye
        Dipole field          0.0000 Ry au
 
        Potential amp.       -0.0007 Ry
        Total length         45.1661 bohr
 

     total cpu time spent up to now is      607.5 secs

     total energy              =   -2147.30321795 Ry
     Harris-Foulkes estimate   =   -2147.30387875 Ry
     estimated scf accuracy    <       0.00475551 Ry

     iteration #  5     ecut=    36.75 Ry     beta=0.30
     Davidson diagonalization with overlap
     ethr =  2.78E-06,  avg # of iterations =  8.8

     negative rho (up, down):  1.490E-01 0.000E+00
 
     Adding external electric field

     Computed dipole along edir(3) : 
        Dipole                0.0018 Ry au,          0.0046 Debye
        Dipole field          0.0000 Ry au
 
        Potential amp.       -0.0005 Ry
        Total length         45.1661 bohr
 

     total cpu time spent up to now is      627.8 secs

     total energy              =   -2147.30279151 Ry
     Harris-Foulkes estimate   =   -2147.30431498 Ry
     estimated scf accuracy    <       0.02340903 Ry

     iteration #  6     ecut=    36.75 Ry     beta=0.30
     Davidson diagonalization with overlap
     ethr =  2.78E-06,  avg # of iterations =  6.5

     negative rho (up, down):  1.489E-01 0.000E+00
 
     Adding external electric field

     Computed dipole along edir(3) : 
        Dipole                0.0089 Ry au,          0.0227 Debye
        Dipole field          0.0000 Ry au
 
        Potential amp.       -0.0023 Ry
        Total length         45.1661 bohr
 

     total cpu time spent up to now is      644.2 secs

     total energy              =   -2147.30358152 Ry
     Harris-Foulkes estimate   =   -2147.30375770 Ry
     estimated scf accuracy    <       0.00281151 Ry

     iteration #  7     ecut=    36.75 Ry     beta=0.30
     Davidson diagonalization with overlap
     ethr =  1.64E-06,  avg # of iterations =  2.3

     negative rho (up, down):  1.489E-01 0.000E+00
 
     Adding external electric field

     Computed dipole along edir(3) : 
        Dipole                0.0104 Ry au,          0.0264 Debye
        Dipole field          0.0000 Ry au
 
        Potential amp.       -0.0027 Ry
        Total length         45.1661 bohr
 

     total cpu time spent up to now is      656.4 secs

     total energy              =   -2147.30359570 Ry
     Harris-Foulkes estimate   =   -2147.30373529 Ry
     estimated scf accuracy    <       0.00209719 Ry

     iteration #  8     ecut=    36.75 Ry     beta=0.30
     Davidson diagonalization with overlap
     ethr =  1.23E-06,  avg # of iterations =  1.0

     negative rho (up, down):  1.488E-01 0.000E+00
 
     Adding external electric field

     Computed dipole along edir(3) : 
        Dipole                0.0124 Ry au,          0.0315 Debye
        Dipole field          0.0000 Ry au
 
        Potential amp.       -0.0032 Ry
        Total length         45.1661 bohr
 

     total cpu time spent up to now is      667.9 secs

     total energy              =   -2147.30367275 Ry
     Harris-Foulkes estimate   =   -2147.30367928 Ry
     estimated scf accuracy    <       0.00016681 Ry

     iteration #  9     ecut=    36.75 Ry     beta=0.30
     Davidson diagonalization with overlap
     ethr =  9.75E-08,  avg # of iterations =  6.5

     negative rho (up, down):  1.488E-01 0.000E+00
 
     Adding external electric field

     Computed dipole along edir(3) : 
        Dipole                0.0121 Ry au,          0.0308 Debye
        Dipole field          0.0000 Ry au
 
        Potential amp.       -0.0031 Ry
        Total length         45.1661 bohr
 

     total cpu time spent up to now is      688.8 secs

     total energy              =   -2147.30370687 Ry
     Harris-Foulkes estimate   =   -2147.30376121 Ry
     estimated scf accuracy    <       0.00184309 Ry

     iteration # 10     ecut=    36.75 Ry     beta=0.30
     Davidson diagonalization with overlap
     ethr =  9.75E-08,  avg # of iterations =  7.1

     negative rho (up, down):  1.488E-01 0.000E+00
 
     Adding external electric field

     Computed dipole along edir(3) : 
        Dipole                0.0088 Ry au,          0.0224 Debye
        Dipole field          0.0000 Ry au
 
        Potential amp.       -0.0023 Ry
        Total length         45.1661 bohr
 

     total cpu time spent up to now is      704.6 secs

     total energy              =   -2147.30369984 Ry
     Harris-Foulkes estimate   =   -2147.30373237 Ry
     estimated scf accuracy    <       0.00080593 Ry

     iteration # 11     ecut=    36.75 Ry     beta=0.30
     Davidson diagonalization with overlap
     ethr =  9.75E-08,  avg # of iterations =  5.5

     negative rho (up, down):  1.488E-01 0.000E+00
 
     Adding external electric field

     Computed dipole along edir(3) : 
        Dipole                0.0081 Ry au,          0.0206 Debye
        Dipole field          0.0000 Ry au
 
        Potential amp.       -0.0021 Ry
        Total length         45.1661 bohr
 

     total cpu time spent up to now is      720.6 secs

     total energy              =   -2147.30371228 Ry
     Harris-Foulkes estimate   =   -2147.30371975 Ry
     estimated scf accuracy    <       0.00024232 Ry

     iteration # 12     ecut=    36.75 Ry     beta=0.30
     Davidson diagonalization with overlap
     ethr =  9.75E-08,  avg # of iterations =  1.1

     negative rho (up, down):  1.488E-01 0.000E+00
 
     Adding external electric field

     Computed dipole along edir(3) : 
        Dipole                0.0063 Ry au,          0.0159 Debye
        Dipole field          0.0000 Ry au
 
        Potential amp.       -0.0016 Ry
        Total length         45.1661 bohr
 

     total cpu time spent up to now is      732.1 secs

     total energy              =   -2147.30370719 Ry
     Harris-Foulkes estimate   =   -2147.30371530 Ry
     estimated scf accuracy    <       0.00011953 Ry

     iteration # 13     ecut=    36.75 Ry     beta=0.30
     Davidson diagonalization with overlap
     ethr =  6.99E-08,  avg # of iterations =  4.2

     negative rho (up, down):  1.488E-01 0.000E+00
 
     Adding external electric field

     Computed dipole along edir(3) : 
        Dipole                0.0058 Ry au,          0.0147 Debye
        Dipole field          0.0000 Ry au
 
        Potential amp.       -0.0015 Ry
        Total length         45.1661 bohr
 

     total cpu time spent up to now is      745.7 secs

     total energy              =   -2147.30371281 Ry
     Harris-Foulkes estimate   =   -2147.30371381 Ry
     estimated scf accuracy    <       0.00002059 Ry

     iteration # 14     ecut=    36.75 Ry     beta=0.30
     Davidson diagonalization with overlap
     ethr =  1.20E-08,  avg # of iterations =  7.5

     negative rho (up, down):  1.488E-01 0.000E+00
 
     Adding external electric field

     Computed dipole along edir(3) : 
        Dipole                0.0065 Ry au,          0.0164 Debye
        Dipole field          0.0000 Ry au
 
        Potential amp.       -0.0017 Ry
        Total length         45.1661 bohr
 

     total cpu time spent up to now is      765.3 secs

     total energy              =   -2147.30371236 Ry
     Harris-Foulkes estimate   =   -2147.30371684 Ry
     estimated scf accuracy    <       0.00009193 Ry

     iteration # 15     ecut=    36.75 Ry     beta=0.30
     Davidson diagonalization with overlap
     ethr =  1.20E-08,  avg # of iterations =  2.1

     negative rho (up, down):  1.488E-01 0.000E+00
 
     Adding external electric field

     Computed dipole along edir(3) : 
        Dipole                0.0069 Ry au,          0.0175 Debye
        Dipole field          0.0000 Ry au
 
        Potential amp.       -0.0018 Ry
        Total length         45.1661 bohr
 

     total cpu time spent up to now is      777.7 secs

     total energy              =   -2147.30371370 Ry
     Harris-Foulkes estimate   =   -2147.30371400 Ry
     estimated scf accuracy    <       0.00001539 Ry

     iteration # 16     ecut=    36.75 Ry     beta=0.30
     Davidson diagonalization with overlap
     ethr =  9.00E-09,  avg # of iterations =  6.9

     negative rho (up, down):  1.488E-01 0.000E+00
 
     Adding external electric field

     Computed dipole along edir(3) : 
        Dipole                0.0069 Ry au,          0.0174 Debye
        Dipole field          0.0000 Ry au
 
        Potential amp.       -0.0018 Ry
        Total length         45.1661 bohr
 

     total cpu time spent up to now is      793.7 secs

     total energy              =   -2147.30371438 Ry
     Harris-Foulkes estimate   =   -2147.30371484 Ry
     estimated scf accuracy    <       0.00001322 Ry

     iteration # 17     ecut=    36.75 Ry     beta=0.30
     Davidson diagonalization with overlap
     ethr =  7.73E-09,  avg # of iterations =  1.7

     negative rho (up, down):  1.488E-01 0.000E+00

     negative rho (up, down):  1.488E-01 0.000E+00

     negative rho (up, down):  1.488E-01 0.000E+00

     negative rho (up, down):  1.488E-01 0.000E+00

     negative rho (up, down):  1.488E-01 0.000E+00

     negative rho (up, down):  1.488E-01 0.000E+00

     negative rho (up, down):  1.488E-01 0.000E+00

     negative rho (up, down):  1.488E-01 0.000E+00

     negative rho (up, down):  1.488E-01 0.000E+00

     negative rho (up, down):  1.488E-01 0.000E+00

     negative rho (up, down):  1.488E-01 0.000E+00

     negative rho (up, down):  1.488E-01 0.000E+00

     negative rho (up, down):  1.488E-01 0.000E+00

     negative rho (up, down):  1.488E-01 0.000E+00

     negative rho (up, down):  1.488E-01 0.000E+00

     negative rho (up, down):  1.488E-01 0.000E+00

     negative rho (up, down):  1.488E-01 0.000E+00

     negative rho (up, down):  1.488E-01 0.000E+00

     negative rho (up, down):  1.488E-01 0.000E+00

     negative rho (up, down):  1.488E-01 0.000E+00

     negative rho (up, down):  1.488E-01 0.000E+00

     negative rho (up, down):  1.488E-01 0.000E+00

     negative rho (up, down):  1.488E-01 0.000E+00

     negative rho (up, down):  1.488E-01 0.000E+00

     negative rho (up, down):  1.488E-01 0.000E+00

     negative rho (up, down):  1.488E-01 0.000E+00

     negative rho (up, down):  1.488E-01 0.000E+00

     negative rho (up, down):  1.488E-01 0.000E+00

     negative rho (up, down):  1.488E-01 0.000E+00

     negative rho (up, down):  1.488E-01 0.000E+00

     negative rho (up, down):  1.488E-01 0.000E+00

     negative rho (up, down):  1.488E-01 0.000E+00

     negative rho (up, down):  1.488E-01 0.000E+00

     negative rho (up, down):  1.488E-01 0.000E+00

     negative rho (up, down):  1.488E-01 0.000E+00
 
     Adding external electric field

     Computed dipole along edir(3) : 
        Dipole               -0.0096 Ry au,         -0.0243 Debye
        Dipole field         -0.0000 Ry au
 
        Potential amp.        0.0025 Ry
        Total length         45.1661 bohr
 

     total cpu time spent up to now is      820.0 secs

     End of self-consistent calculation

          k = 0.0000 0.0000 0.0000 ( 16439 PWs)   bands (ev):

   -70.1977 -70.1622 -70.1615 -70.0545 -70.0504 -70.0211 -70.0206 -70.0176
   -70.0173 -41.6454 -41.6068 -41.6064 -41.5525 -41.5286 -41.5283 -41.4634
   -41.4625 -41.4624 -41.4473 -41.4459 -41.4183 -41.4180 -41.3727 -41.3586
   -41.3582 -41.3565 -41.3564 -41.3368 -41.3261 -41.3180 -41.3178 -41.3018
   -41.1673 -41.1670 -41.1647 -41.1646 -21.9669 -21.9669 -21.9595 -21.9402
   -21.9402 -21.5985 -21.5922 -21.5854 -21.5854 -21.5829 -21.5829 -21.5601
   -21.5601 -21.5565 -21.5565 -11.2677 -10.0875  -9.7092  -2.9649  -2.5300
    -2.4456  -2.4455  -1.9950  -1.9950  -1.7953  -1.0706  -0.7127  -0.7126
    -0.5557  -0.4952  -0.4951  -0.4103  -0.4103  -0.0917  -0.0153   0.1467
     0.1467   0.3847   0.3847   0.4147   0.7742   0.7743   0.8214   0.8215
     1.1227   1.2409   1.4853   1.8492   1.8495   1.9883   1.9884   2.0167
     2.1029   2.1030   2.1065   2.2599   2.2602   2.3601   2.3783

          k = 0.0000 0.0348 0.0000 ( 16421 PWs)   bands (ev):

   -70.1955 -70.1641 -70.1616 -70.0525 -70.0485 -70.0227 -70.0209 -70.0194
   -70.0174 -41.6321 -41.6036 -41.5969 -41.5499 -41.5290 -41.5234 -41.4723
   -41.4601 -41.4528 -41.4349 -41.4345 -41.4214 -41.4155 -41.3855 -41.3656
   -41.3615 -41.3530 -41.3513 -41.3437 -41.3328 -41.3192 -41.3167 -41.3006
   -41.1828 -41.1806 -41.1694 -41.1671 -21.9656 -21.9633 -21.9575 -21.9396
   -21.9392 -21.5967 -21.5911 -21.5835 -21.5819 -21.5811 -21.5791 -21.5602
   -21.5602 -21.5561 -21.5558 -11.1455 -10.0222  -9.7167  -3.4189  -3.0813
    -2.8957  -2.2770  -2.0056  -1.8217  -1.6737  -1.2044  -1.0471  -0.9380
    -0.5446  -0.4581  -0.4367  -0.4141  -0.1358  -0.1138   0.0160   0.1721
     0.2295   0.4456   0.5879   0.6154   0.7735   0.7736   0.8522   0.9743
     1.1506   1.2307   1.4965   1.6526   1.7768   1.8725   1.9483   2.0256
     2.0685   2.0786   2.1579   2.2023   2.2338   2.2737   2.3639

          k = 0.0000 0.0696 0.0000 ( 16454 PWs)   bands (ev):

   -70.1900 -70.1696 -70.1617 -70.0474 -70.0435 -70.0277 -70.0245 -70.0209
   -70.0174 -41.6181 -41.5739 -41.5708 -41.5436 -41.5313 -41.5133 -41.4959
   -41.4557 -41.4439 -41.4295 -41.4280 -41.4068 -41.4023 -41.3897 -41.3728
   -41.3630 -41.3627 -41.3519 -41.3449 -41.3424 -41.3211 -41.3157 -41.2971
   -41.2251 -41.2193 -41.1738 -41.1718 -21.9640 -21.9565 -21.9526 -21.9381
   -21.9371 -21.5937 -21.5900 -21.5789 -21.5769 -21.5752 -21.5716 -21.5599
   -21.5596 -21.5562 -21.5545 -10.8394  -9.9161  -9.7565  -4.1851  -3.4654
    -3.3649  -2.8431  -2.0127  -1.9957  -1.5446  -1.3711  -1.2847  -1.1173
    -0.6529  -0.2254  -0.1790  -0.0524  -0.0416   0.0789   0.1499   0.2480
     0.4014   0.6338   0.6536   0.7119   0.8403   0.9297   1.0639   1.0839
     1.2095   1.2250   1.2287   1.3656   1.5599   1.7598   1.7987   1.8725
     1.9043   2.0323   2.0355   2.1068   2.1890   2.2201   2.2818

          k = 0.0000-0.1044 0.0000 ( 16456 PWs)   bands (ev):

   -70.1855 -70.1741 -70.1617 -70.0434 -70.0396 -70.0316 -70.0285 -70.0209
   -70.0174 -41.6168 -41.5440 -41.5381 -41.5354 -41.5318 -41.5219 -41.5079
   -41.4829 -41.4488 -41.4414 -41.4086 -41.3975 -41.3806 -41.3800 -41.3766
   -41.3711 -41.3645 -41.3568 -41.3448 -41.3443 -41.3155 -41.3000 -41.2995
   -41.2626 -41.2469 -41.1759 -41.1740 -21.9634 -21.9534 -21.9500 -21.9370
   -21.9359 -21.5924 -21.5899 -21.5764 -21.5744 -21.5722 -21.5680 -21.5594
   -21.5585 -21.5570 -21.5538 -10.6171  -9.9656  -9.7373  -4.4715  -3.6229
    -3.5387  -3.2375  -2.1199  -1.8299  -1.6586  -1.4953  -1.4550  -0.9909
    -0.6095  -0.1322   0.0264   0.0598   0.0809   0.2419   0.2849   0.3371
     0.4739   0.5136   0.6552   0.7327   0.8377   0.8943   0.9666   1.1118
     1.1938   1.2616   1.2778   1.2790   1.6785   1.6880   1.7237   1.8514
     1.8573   1.9206   1.9500   2.0351   2.0355   2.1126   2.1450

          k = 0.0301-0.0174 0.0000 ( 16421 PWs)   bands (ev):

   -70.1955 -70.1642 -70.1616 -70.0525 -70.0485 -70.0227 -70.0209 -70.0195
   -70.0173 -41.6321 -41.6035 -41.5970 -41.5499 -41.5290 -41.5234 -41.4723
   -41.4601 -41.4528 -41.4349 -41.4345 -41.4215 -41.4155 -41.3855 -41.3655
   -41.3616 -41.3530 -41.3513 -41.3437 -41.3328 -41.3192 -41.3167 -41.3006
   -41.1829 -41.1807 -41.1694 -41.1671 -21.9656 -21.9633 -21.9575 -21.9396
   -21.9392 -21.5967 -21.5911 -21.5835 -21.5819 -21.5811 -21.5791 -21.5603
   -21.5602 -21.5561 -21.5558 -11.1455 -10.0222  -9.7167  -3.4189  -3.0813
    -2.8957  -2.2771  -2.0056  -1.8217  -1.6737  -1.2044  -1.0471  -0.9380
    -0.5446  -0.4581  -0.4368  -0.4141  -0.1358  -0.1138   0.0160   0.1721
     0.2295   0.4456   0.5878   0.6155   0.7735   0.7736   0.8521   0.9743
     1.1506   1.2307   1.4965   1.6525   1.7768   1.8726   1.9483   2.0255
     2.0686   2.0786   2.1579   2.2023   2.2338   2.2738   2.3638

          k = 0.0301 0.0174 0.0000 ( 16421 PWs)   bands (ev):

   -70.1956 -70.1636 -70.1622 -70.0525 -70.0485 -70.0230 -70.0206 -70.0192
   -70.0176 -41.6323 -41.6038 -41.5967 -41.5499 -41.5287 -41.5237 -41.4723
   -41.4601 -41.4528 -41.4349 -41.4344 -41.4212 -41.4157 -41.3852 -41.3658
   -41.3616 -41.3529 -41.3514 -41.3437 -41.3328 -41.3191 -41.3168 -41.3006
   -41.1832 -41.1806 -41.1691 -41.1671 -21.9656 -21.9633 -21.9575 -21.9396
   -21.9392 -21.5967 -21.5911 -21.5835 -21.5819 -21.5811 -21.5791 -21.5603
   -21.5602 -21.5561 -21.5558 -11.1455 -10.0222  -9.7167  -3.4189  -3.0813
    -2.8957  -2.2770  -2.0056  -1.8216  -1.6738  -1.2045  -1.0472  -0.9379
    -0.5446  -0.4582  -0.4366  -0.4142  -0.1359  -0.1138   0.0160   0.1722
     0.2295   0.4456   0.5878   0.6155   0.7735   0.7736   0.8522   0.9743
     1.1506   1.2307   1.4965   1.6528   1.7768   1.8723   1.9483   2.0256
     2.0684   2.0786   2.1580   2.2023   2.2339   2.2736   2.3641

          k = 0.0301 0.0522 0.0000 ( 16466 PWs)   bands (ev):

   -70.1917 -70.1676 -70.1620 -70.0488 -70.0450 -70.0265 -70.0229 -70.0207
   -70.0175 -41.6120 -41.6011 -41.5715 -41.5453 -41.5292 -41.5170 -41.4893
   -41.4523 -41.4431 -41.4317 -41.4221 -41.4151 -41.4026 -41.4003 -41.3760
   -41.3599 -41.3556 -41.3497 -41.3462 -41.3440 -41.3197 -41.3172 -41.2980
   -41.2097 -41.2079 -41.1736 -41.1722 -21.9625 -21.9601 -21.9537 -21.9384
   -21.9378 -21.5940 -21.5895 -21.5807 -21.5786 -21.5766 -21.5736 -21.5601
   -21.5600 -21.5555 -21.5554 -10.9289  -9.9249  -9.7528  -3.8402  -3.7206
    -3.1427  -2.5709  -2.1876  -1.7144  -1.5862  -1.5383  -1.1681  -1.0642
    -0.6435  -0.2932  -0.1947  -0.1740  -0.1089  -0.0274   0.0794   0.2437
     0.3869   0.6600   0.6900   0.7175   0.7559   0.8574   0.9915   1.1430
     1.1720   1.1825   1.3604   1.4288   1.5152   1.8140   1.8320   1.9055
     1.9279   2.0430   2.1236   2.1513   2.2170   2.2488   2.3073

          k = 0.0301-0.1218 0.0000 ( 16501 PWs)   bands (ev):

   -70.1857 -70.1738 -70.1618 -70.0434 -70.0396 -70.0317 -70.0285 -70.0208
   -70.0175 -41.6046 -41.5722 -41.5388 -41.5321 -41.5281 -41.5223 -41.5100
   -41.4651 -41.4431 -41.4316 -41.4193 -41.4066 -41.3898 -41.3812 -41.3781
   -41.3735 -41.3636 -41.3541 -41.3469 -41.3350 -41.3185 -41.3085 -41.2926
   -41.2521 -41.2444 -41.1790 -41.1774 -21.9607 -21.9551 -21.9508 -21.9369
   -21.9363 -21.5913 -21.5882 -21.5766 -21.5749 -21.5728 -21.5694 -21.5598
   -21.5585 -21.5562 -21.5546 -10.6327  -9.9014  -9.7859  -4.3045  -3.8867
    -3.6080  -2.9450  -2.3575  -1.8878  -1.6311  -1.4853  -1.3591  -0.9874
    -0.6367  -0.1098  -0.0192   0.0590   0.0750   0.1785   0.2098   0.3243
[...]
   -41.0213 -41.0166 -40.8653 -40.8567 -21.8319 -21.8287 -21.8088 -21.7992
   -21.7988 -21.4841 -21.4529 -21.4516 -21.4510 -21.4403 -21.4358 -21.4193
   -21.4186 -21.4122 -21.4104 -10.7095  -9.7112  -9.3647  -3.6736  -3.5060
    -2.9496  -2.3849  -1.9029  -1.6083  -1.5133  -1.4071  -1.2101  -1.0575
    -0.6508  -0.4994  -0.3251  -0.2473  -0.1389  -0.1032  -0.0346   0.0912
     0.2363   0.4411   0.6199   0.6733   0.8074   0.8875   1.0097   1.1197
     1.2157   1.2466   1.4637   1.5876   1.8344   1.8856   2.0232   2.0440
     2.1337   2.1602   2.2941   2.3673   2.4774   2.5095   2.5920

          k = 0.0301-0.1218 0.0000 ( 16501 PWs)   bands (ev):

   -70.0826 -70.0374 -70.0218 -70.0042 -69.8933 -69.8822 -69.8711 -69.8523
   -69.8509 -41.8239 -41.5868 -41.5768 -41.5319 -41.4823 -41.4500 -41.4066
   -41.3820 -41.3443 -41.3209 -41.3121 -41.3047 -41.2689 -41.2535 -41.2359
   -41.2277 -41.2121 -41.1990 -41.1653 -41.1317 -41.1208 -41.1161 -41.0860
   -41.0253 -41.0206 -40.8720 -40.8594 -21.8295 -21.8248 -21.8061 -21.7976
   -21.7970 -21.4836 -21.4531 -21.4515 -21.4502 -21.4365 -21.4320 -21.4191
   -21.4177 -21.4116 -21.4089 -10.4563  -9.7270  -9.3175  -4.1420  -3.6870
    -3.3708  -2.6099  -2.0732  -1.7721  -1.5836  -1.3154  -1.2572  -1.1573
    -0.6627  -0.4379  -0.1515  -0.1231   0.0227   0.1488   0.2191   0.2655
     0.3874   0.4460   0.5780   0.6613   0.8300   0.9363   0.9928   1.0548
     1.2055   1.3428   1.4115   1.4560   1.6704   1.7573   1.8588   1.9799
     2.0923   2.1386   2.1950   2.2940   2.3244   2.4447   2.4869

          k = 0.0301-0.0870 0.0000 ( 16501 PWs)   bands (ev):

   -70.0826 -70.0374 -70.0218 -70.0042 -69.8933 -69.8822 -69.8711 -69.8523
   -69.8509 -41.8239 -41.5867 -41.5768 -41.5319 -41.4822 -41.4500 -41.4066
   -41.3820 -41.3443 -41.3210 -41.3121 -41.3047 -41.2689 -41.2535 -41.2359
   -41.2277 -41.2122 -41.1990 -41.1653 -41.1317 -41.1209 -41.1161 -41.0860
   -41.0253 -41.0206 -40.8720 -40.8594 -21.8295 -21.8248 -21.8061 -21.7976
   -21.7970 -21.4836 -21.4531 -21.4515 -21.4502 -21.4365 -21.4320 -21.4191
   -21.4177 -21.4116 -21.4089 -10.4563  -9.7270  -9.3175  -4.1420  -3.6870
    -3.3707  -2.6099  -2.0732  -1.7721  -1.5836  -1.3154  -1.2573  -1.1573
    -0.6627  -0.4379  -0.1515  -0.1231   0.0228   0.1488   0.2190   0.2655
     0.3874   0.4461   0.5780   0.6613   0.8299   0.9363   0.9927   1.0548
     1.2055   1.3428   1.4114   1.4560   1.6704   1.7573   1.8588   1.9799
     2.0923   2.1386   2.1950   2.2940   2.3244   2.4447   2.4869

          k = 0.0301-0.0522 0.0000 ( 16466 PWs)   bands (ev):

   -70.0860 -70.0323 -70.0218 -70.0066 -69.8988 -69.8767 -69.8711 -69.8518
   -69.8508 -41.8303 -41.5865 -41.5791 -41.5427 -41.4873 -41.4711 -41.4414
   -41.3546 -41.3409 -41.3291 -41.2992 -41.2892 -41.2763 -41.2584 -41.2381
   -41.2137 -41.2063 -41.2021 -41.1903 -41.1246 -41.1212 -41.1174 -41.0519
   -41.0213 -41.0166 -40.8653 -40.8567 -21.8319 -21.8287 -21.8088 -21.7992
   -21.7988 -21.4841 -21.4529 -21.4516 -21.4510 -21.4403 -21.4358 -21.4193
   -21.4186 -21.4122 -21.4104 -10.7095  -9.7112  -9.3647  -3.6736  -3.5060
    -2.9496  -2.3849  -1.9029  -1.6083  -1.5133  -1.4071  -1.2101  -1.0575
    -0.6509  -0.4993  -0.3253  -0.2473  -0.1388  -0.1033  -0.0345   0.0914
     0.2363   0.4411   0.6199   0.6733   0.8074   0.8876   1.0096   1.1197
     1.2156   1.2466   1.4637   1.5876   1.8344   1.8856   2.0231   2.0439
     2.1337   2.1602   2.2940   2.3673   2.4774   2.5096   2.5921

          k = 0.0603-0.0348 0.0000 ( 16454 PWs)   bands (ev):

   -70.0849 -70.0341 -70.0218 -70.0057 -69.8973 -69.8782 -69.8711 -69.8520
   -69.8508 -41.8282 -41.5875 -41.5773 -41.5400 -41.4897 -41.4568 -41.4340
   -41.3616 -41.3422 -41.3244 -41.3072 -41.2987 -41.2714 -41.2545 -41.2311
   -41.2205 -41.2133 -41.1961 -41.1862 -41.1277 -41.1208 -41.1162 -41.0637
   -41.0223 -41.0166 -40.8685 -40.8566 -21.8323 -21.8264 -21.8078 -21.7984
   -21.7983 -21.4839 -21.4532 -21.4519 -21.4510 -21.4387 -21.4341 -21.4192
   -21.4183 -21.4121 -21.4097 -10.6313  -9.7117  -9.3489  -4.0096  -3.2680
    -3.1280  -2.6413  -1.7979  -1.6342  -1.5799  -1.3982  -1.1771  -1.1381
    -0.6713  -0.4775  -0.2768  -0.1933  -0.1017  -0.0063   0.0199   0.2117
     0.2615   0.4379   0.6025   0.6319   0.8828   0.8954   1.0331   1.0716
     1.2325   1.2909   1.3833   1.5462   1.7935   1.8744   1.9325   2.0267
     2.0787   2.1832   2.2352   2.3650   2.3743   2.5143   2.5677

          k = 0.0603-0.0000 0.0000 ( 16466 PWs)   bands (ev):

   -70.0860 -70.0324 -70.0218 -70.0066 -69.8988 -69.8767 -69.8711 -69.8518
   -69.8509 -41.8304 -41.5866 -41.5789 -41.5427 -41.4873 -41.4712 -41.4414
   -41.3546 -41.3409 -41.3290 -41.2992 -41.2892 -41.2763 -41.2584 -41.2381
   -41.2137 -41.2062 -41.2021 -41.1903 -41.1246 -41.1212 -41.1174 -41.0519
   -41.0213 -41.0166 -40.8653 -40.8567 -21.8319 -21.8287 -21.8088 -21.7992
   -21.7988 -21.4841 -21.4529 -21.4516 -21.4510 -21.4403 -21.4358 -21.4193
   -21.4186 -21.4122 -21.4104 -10.7095  -9.7112  -9.3647  -3.6736  -3.5060
    -2.9496  -2.3849  -1.9029  -1.6083  -1.5133  -1.4071  -1.2101  -1.0575
    -0.6508  -0.4994  -0.3251  -0.2473  -0.1389  -0.1032  -0.0346   0.0913
     0.2363   0.4411   0.6199   0.6733   0.8074   0.8876   1.0096   1.1197
     1.2157   1.2466   1.4637   1.5876   1.8344   1.8857   2.0231   2.0439
     2.1337   2.1602   2.2940   2.3673   2.4774   2.5095   2.5920

          k = 0.0603 0.0348 0.0000 ( 16454 PWs)   bands (ev):

   -70.0849 -70.0341 -70.0218 -70.0057 -69.8973 -69.8782 -69.8711 -69.8520
   -69.8509 -41.8282 -41.5877 -41.5771 -41.5401 -41.4898 -41.4568 -41.4340
   -41.3616 -41.3422 -41.3244 -41.3072 -41.2987 -41.2714 -41.2545 -41.2311
   -41.2205 -41.2133 -41.1960 -41.1862 -41.1277 -41.1208 -41.1162 -41.0637
   -41.0223 -41.0166 -40.8685 -40.8566 -21.8323 -21.8264 -21.8078 -21.7984
   -21.7983 -21.4839 -21.4532 -21.4519 -21.4510 -21.4387 -21.4341 -21.4192
   -21.4183 -21.4122 -21.4097 -10.6313  -9.7117  -9.3489  -4.0096  -3.2680
    -3.1280  -2.6413  -1.7979  -1.6341  -1.5799  -1.3981  -1.1770  -1.1382
    -0.6713  -0.4776  -0.2768  -0.1931  -0.1017  -0.0062   0.0197   0.2116
     0.2616   0.4378   0.6026   0.6319   0.8827   0.8954   1.0331   1.0717
     1.2325   1.2910   1.3833   1.5462   1.7934   1.8744   1.9326   2.0267
     2.0787   2.1833   2.2352   2.3650   2.3743   2.5143   2.5677

          k = 0.0603-0.1393 0.0000 ( 16501 PWs)   bands (ev):

   -70.0826 -70.0374 -70.0218 -70.0042 -69.8933 -69.8822 -69.8711 -69.8523
   -69.8510 -41.8239 -41.5869 -41.5767 -41.5319 -41.4823 -41.4500 -41.4066
   -41.3820 -41.3443 -41.3209 -41.3121 -41.3047 -41.2689 -41.2535 -41.2359
   -41.2277 -41.2121 -41.1990 -41.1653 -41.1317 -41.1208 -41.1161 -41.0860
   -41.0253 -41.0206 -40.8720 -40.8594 -21.8295 -21.8248 -21.8061 -21.7976
   -21.7970 -21.4836 -21.4531 -21.4515 -21.4502 -21.4365 -21.4320 -21.4191
   -21.4177 -21.4116 -21.4089 -10.4563  -9.7270  -9.3175  -4.1420  -3.6870
    -3.3708  -2.6099  -2.0732  -1.7720  -1.5836  -1.3154  -1.2572  -1.1574
    -0.6627  -0.4379  -0.1514  -0.1232   0.0227   0.1488   0.2190   0.2655
     0.3874   0.4461   0.5780   0.6612   0.8300   0.9364   0.9928   1.0548
     1.2056   1.3428   1.4114   1.4560   1.6704   1.7573   1.8588   1.9799
     2.0923   2.1386   2.1950   2.2940   2.3244   2.4447   2.4868

          k = 0.0603-0.1044 0.0000 ( 16488 PWs)   bands (ev):

   -70.0814 -70.0391 -70.0219 -70.0036 -69.8884 -69.8872 -69.8711 -69.8524
   -69.8510 -41.8217 -41.5850 -41.5780 -41.5271 -41.4696 -41.4511 -41.4158
   -41.3661 -41.3552 -41.3195 -41.3085 -41.2994 -41.2708 -41.2588 -41.2570
   -41.2155 -41.2082 -41.2068 -41.1415 -41.1327 -41.1297 -41.1158 -41.0991
   -41.0280 -41.0229 -40.8725 -40.8620 -21.8259 -21.8257 -21.8053 -21.7973
   -21.7967 -21.4835 -21.4530 -21.4520 -21.4484 -21.4335 -21.4333 -21.4190
   -21.4176 -21.4111 -21.4085 -10.3548  -9.7448  -9.3031  -4.1092  -3.8727
    -3.5981  -2.3529  -2.2779  -2.2045  -1.5518  -1.2326  -1.2116  -1.1493
    -0.6631  -0.4521  -0.1290  -0.0149  -0.0020   0.2340   0.3945   0.4343
     0.4382   0.4841   0.4937   0.6872   0.7724   0.7806   0.9944   0.9947
     1.1559   1.4405   1.5122   1.5747   1.6215   1.7082   1.8656   1.8672
     2.0019   2.1669   2.1771   2.2091   2.3080   2.4930   2.5127

          k = 0.0603-0.0696 0.0000 ( 16501 PWs)   bands (ev):

   -70.0826 -70.0374 -70.0218 -70.0042 -69.8933 -69.8822 -69.8711 -69.8523
   -69.8509 -41.8239 -41.5867 -41.5769 -41.5319 -41.4822 -41.4500 -41.4066
   -41.3820 -41.3443 -41.3210 -41.3121 -41.3047 -41.2689 -41.2535 -41.2359
   -41.2277 -41.2121 -41.1990 -41.1653 -41.1317 -41.1208 -41.1160 -41.0860
   -41.0253 -41.0206 -40.8720 -40.8594 -21.8295 -21.8248 -21.8061 -21.7976
   -21.7970 -21.4836 -21.4531 -21.4515 -21.4502 -21.4365 -21.4320 -21.4191
   -21.4177 -21.4116 -21.4089 -10.4563  -9.7270  -9.3175  -4.1420  -3.6870
    -3.3707  -2.6099  -2.0732  -1.7721  -1.5836  -1.3154  -1.2573  -1.1573
    -0.6627  -0.4379  -0.1516  -0.1231   0.0227   0.1489   0.2191   0.2656
     0.3874   0.4461   0.5780   0.6613   0.8299   0.9363   0.9927   1.0548
     1.2055   1.3428   1.4114   1.4560   1.6704   1.7572   1.8588   1.9799
     2.0923   2.1386   2.1950   2.2940   2.3244   2.4447   2.4869

          k =-0.0904 0.0522 0.0000 ( 16456 PWs)   bands (ev):

   -70.0826 -70.0375 -70.0218 -70.0042 -69.8933 -69.8822 -69.8711 -69.8524
   -69.8508 -41.8239 -41.5882 -41.5751 -41.5341 -41.4886 -41.4346 -41.4014
   -41.3841 -41.3527 -41.3234 -41.3179 -41.3130 -41.2598 -41.2369 -41.2345
   -41.2267 -41.2261 -41.1943 -41.1605 -41.1425 -41.1201 -41.1149 -41.0884
   -41.0246 -41.0186 -40.8737 -40.8576 -21.8314 -21.8236 -21.8059 -21.7970
   -21.7969 -21.4836 -21.4535 -21.4514 -21.4512 -21.4363 -21.4309 -21.4190
   -21.4175 -21.4118 -21.4086 -10.4475  -9.7420  -9.3118  -4.3031  -3.4614
    -3.2944  -2.8906  -1.7458  -1.7133  -1.6457  -1.3189  -1.2676  -1.2648
    -0.6434  -0.4272  -0.1383  -0.1158   0.0277   0.1592   0.2099   0.2466
     0.3632   0.4825   0.5795   0.6684   0.8466   0.9449   0.9683   1.0397
     1.1441   1.2947   1.4161   1.5088   1.6529   1.7929   1.8825   1.9314
     2.0557   2.1718   2.1873   2.2263   2.2657   2.3796   2.4975

          k =-0.0904 0.0870 0.0000 ( 16501 PWs)   bands (ev):

   -70.0826 -70.0374 -70.0218 -70.0042 -69.8933 -69.8822 -69.8711 -69.8523
   -69.8509 -41.8239 -41.5868 -41.5768 -41.5319 -41.4822 -41.4500 -41.4066
   -41.3820 -41.3443 -41.3209 -41.3121 -41.3047 -41.2689 -41.2535 -41.2359
   -41.2277 -41.2121 -41.1990 -41.1653 -41.1317 -41.1208 -41.1161 -41.0860
   -41.0253 -41.0206 -40.8720 -40.8594 -21.8295 -21.8248 -21.8061 -21.7976
   -21.7970 -21.4836 -21.4531 -21.4515 -21.4502 -21.4365 -21.4320 -21.4191
   -21.4177 -21.4116 -21.4089 -10.4563  -9.7270  -9.3175  -4.1420  -3.6870
    -3.3708  -2.6099  -2.0732  -1.7721  -1.5836  -1.3154  -1.2572  -1.1573
    -0.6627  -0.4379  -0.1515  -0.1231   0.0227   0.1488   0.2191   0.2655
     0.3874   0.4460   0.5780   0.6613   0.8300   0.9362   0.9928   1.0548
     1.2055   1.3428   1.4115   1.4560   1.6704   1.7573   1.8588   1.9799
     2.0923   2.1386   2.1950   2.2940   2.3244   2.4447   2.4869

          k =-0.0904 0.1218 0.0000 ( 16501 PWs)   bands (ev):

   -70.0826 -70.0374 -70.0218 -70.0042 -69.8933 -69.8822 -69.8711 -69.8523
   -69.8510 -41.8239 -41.5869 -41.5767 -41.5319 -41.4823 -41.4500 -41.4066
   -41.3820 -41.3443 -41.3209 -41.3121 -41.3047 -41.2689 -41.2535 -41.2359
   -41.2277 -41.2122 -41.1990 -41.1653 -41.1317 -41.1209 -41.1161 -41.0860
   -41.0253 -41.0206 -40.8720 -40.8594 -21.8295 -21.8248 -21.8061 -21.7976
   -21.7970 -21.4836 -21.4531 -21.4515 -21.4502 -21.4365 -21.4320 -21.4191
   -21.4177 -21.4116 -21.4089 -10.4563  -9.7270  -9.3175  -4.1420  -3.6870
    -3.3708  -2.6099  -2.0732  -1.7720  -1.5836  -1.3154  -1.2572  -1.1573
    -0.6627  -0.4379  -0.1514  -0.1232   0.0227   0.1488   0.2190   0.2655
     0.3874   0.4461   0.5780   0.6612   0.8300   0.9364   0.9928   1.0548
     1.2056   1.3428   1.4114   1.4560   1.6704   1.7572   1.8588   1.9799
     2.0923   2.1386   2.1950   2.2940   2.3244   2.4447   2.4868

          k =-0.0904-0.0522 0.0000 ( 16456 PWs)   bands (ev):

   -70.0826 -70.0375 -70.0218 -70.0042 -69.8933 -69.8822 -69.8711 -69.8523
   -69.8509 -41.8240 -41.5884 -41.5749 -41.5341 -41.4886 -41.4346 -41.4014
   -41.3841 -41.3527 -41.3234 -41.3178 -41.3130 -41.2598 -41.2369 -41.2345
   -41.2267 -41.2261 -41.1942 -41.1604 -41.1425 -41.1201 -41.1149 -41.0884
   -41.0246 -41.0186 -40.8737 -40.8576 -21.8314 -21.8236 -21.8059 -21.7970
   -21.7969 -21.4836 -21.4535 -21.4514 -21.4512 -21.4363 -21.4309 -21.4190
   -21.4175 -21.4118 -21.4086 -10.4475  -9.7420  -9.3118  -4.3031  -3.4615
    -3.2944  -2.8906  -1.7458  -1.7133  -1.6456  -1.3189  -1.2675  -1.2648
    -0.6434  -0.4273  -0.1384  -0.1155   0.0277   0.1593   0.2098   0.2465
     0.3632   0.4824   0.5796   0.6683   0.8467   0.9452   0.9682   1.0397
     1.1442   1.2947   1.4161   1.5088   1.6529   1.7929   1.8826   1.9315
     2.0557   2.1717   2.1873   2.2263   2.2657   2.3796   2.4975

     the Fermi energy is     1.8145 ev

!    total energy              =   -2147.41993081 Ry
     Harris-Foulkes estimate   =   -2147.41993125 Ry
     estimated scf accuracy    <       0.00000006 Ry

     The total energy is the sum of the following terms:

     one-electron contribution =  -16965.71160429 Ry
     hartree contribution      =    8492.52918726 Ry
     xc contribution           =    -409.81935445 Ry
     ewald contribution        =    6735.68419837 Ry
     electric field correction =       0.00004502 Ry
     smearing contrib. (-TS)   =      -0.10240273 Ry

     convergence has been achieved in  19 iterations
 
 BEEF-vdW xc energy contributions
           1 :   -360.119840514266     
           2 :    329.657770394987     
           3 :   -277.610646536880     
           4 :    217.768786902844     
           5 :   -163.251080924998     
           6 :    122.052954739878     
           7 :   -95.5281463660157     
           8 :    79.9274604705824     
           9 :   -69.6479415709790     
          10 :    60.2789923784355     
          11 :   -50.0807326172119     
          12 :    39.6577151151033     
          13 :   -30.5785573835361     
          14 :    24.0063062848808     
          15 :   -20.0654335572002     
          16 :    18.0278026958133     
          17 :   -16.9188233863495     
          18 :    16.0398531983888     
          19 :   -15.1326871967836     
          20 :    14.2244974391627     
          21 :   -13.3858749079309     
          22 :    12.6125211277699     
          23 :   -11.8781094447333     
          24 :    11.2406109512461     
          25 :   -10.8545949468596     
          26 :    10.8476272394912     
          27 :   -11.1636014638345     
          28 :    11.5224281777789     
          29 :   -11.5614245616630     
          30 :    11.0724841850663     
          31 :   -32.1038437121825     
          32 :   -23.3776241692286     

     Forces acting on atoms (Ry/au):


     negative rho (up, down):  1.485E-01 0.000E+00
     atom    1 type  1   force =     0.02888934   -0.01667563    0.02676409
     atom    2 type  2   force =     0.00000321    0.00002298   -0.08632532
     atom    3 type  1   force =    -0.02890522   -0.01667799    0.02676444
     atom    4 type  1   force =    -0.00000568    0.03337377    0.02676336
     atom    5 type  1   force =    -0.02446571    0.01412447    0.00298248
     atom    6 type  2   force =     0.00005291   -0.00003564    0.00069098
     atom    7 type  1   force =     0.02445214    0.01412669    0.00298123
     atom    8 type  1   force =    -0.00000925   -0.02823516    0.00298539
     atom    9 type  1   force =    -0.00116335    0.00064954   -0.00063766
     atom   10 type  2   force =     0.00001566   -0.00000451   -0.00168793
     atom   11 type  1   force =     0.00116526    0.00068279   -0.00064035
     atom   12 type  1   force =    -0.00002932   -0.00135130   -0.00064071

     Total force =     0.003083     Total SCF correction =     0.000418
     SCF correction compared to forces is large: reduce conv_thr to get better values


     entering subroutine stress ...


     negative rho (up, down):  1.485E-01 0.000E+00
          total   stress  (Ry/bohr**3)                   (kbar)     P=  -13.56
  -0.00013292  -0.00000001  -0.00000000        -19.55     -0.00     -0.00
  -0.00000001  -0.00013292   0.00000000         -0.00    -19.55      0.00
  -0.00000000   0.00000000  -0.00001077         -0.00      0.00     -1.58


     bfgs converged in  12 scf cycles and  10 bfgs steps
     (criteria: energy <  1.0E+00, force <  1.9E-03)

     End of BFGS Geometry Optimization

     Final energy   =   -2147.4199308118 Ry
Begin final coordinates

ATOMIC_POSITIONS (crystal)
Cr1      0.000000000   0.000000000   0.407935114    0   0   0
Bi1      0.000000000   0.500000000   0.407935114    0   0   0
Cr1      0.500000000   0.000000000   0.407935114    0   0   0
Cr1      0.500000000   0.500000000   0.407935114    0   0   0
Cr1      0.666666667   0.666666667   0.500000000    0   0   0
Bi1      0.666666667   0.166666667   0.500000000    0   0   0
Cr1      0.166666667   0.666666667   0.500000000    0   0   0
Cr1      0.166666667   0.166666667   0.500000000    0   0   0
Cr1      0.268808452   0.365613157   0.582487240
Bi1      0.333347701   0.833331581   0.612345408
Cr1      0.865616836   0.365593491   0.582485220
Cr1      0.865634525   0.768791583   0.582485370
End final coordinates



     Writing output data file calc.save
 
     init_run     :      4.76s CPU      6.54s WALL (       1 calls)
     electrons    :   3588.06s CPU   4826.64s WALL (      12 calls)
     update_pot   :     12.63s CPU     14.41s WALL (      11 calls)
     forces       :     38.72s CPU     41.29s WALL (      12 calls)
     stress       :    123.21s CPU    130.25s WALL (      12 calls)

     Called by init_run:
     wfcinit      :      2.93s CPU      4.41s WALL (       1 calls)
     potinit      :      0.58s CPU      0.74s WALL (       1 calls)

     Called by electrons:
     c_bands      :   2743.98s CPU   3694.05s WALL (     286 calls)
     sum_band     :    447.72s CPU    615.91s WALL (     286 calls)
     v_of_rho     :    101.35s CPU    136.89s WALL (     297 calls)
     newd         :    173.94s CPU    211.73s WALL (     297 calls)
     mix_rho      :      3.50s CPU      4.97s WALL (     286 calls)
     vdW_energy   :     53.81s CPU     68.99s WALL (     729 calls)
     vdW_ffts     :     67.62s CPU     97.51s WALL (    1482 calls)
     vdW_v        :     30.01s CPU     36.43s WALL (     729 calls)

     Called by c_bands:
     init_us_2    :     17.01s CPU     19.88s WALL (   11940 calls)
     cegterg      :   2627.37s CPU   3571.68s WALL (    5720 calls)

     Called by *egterg:
     h_psi        :   1328.63s CPU   2118.21s WALL (   34077 calls)
     s_psi        :    100.67s CPU    106.06s WALL (   34077 calls)
     g_psi        :     11.61s CPU     11.92s WALL (   28337 calls)
     cdiaghg      :    775.16s CPU    791.34s WALL (   33817 calls)

     Called by h_psi:
     add_vuspsi   :     99.89s CPU    106.01s WALL (   34077 calls)

     General routines
     calbec       :    147.53s CPU    150.81s WALL (   40277 calls)
     fft          :    112.74s CPU    159.07s WALL (   44853 calls)
     ffts         :      0.36s CPU      0.56s WALL (     583 calls)
     fftw         :   1146.18s CPU   2079.68s WALL ( 3288848 calls)
     interpolate  :      1.76s CPU      3.28s WALL (     583 calls)
     davcio       :      0.00s CPU      0.05s WALL (      20 calls)
 
     Parallel routines
     fft_scatter  :    615.52s CPU   1182.07s WALL ( 3334284 calls)
 
     PWSCF        :     1h 2m CPU        1h23m WALL

 
   This run was terminated on:  18:37:12  23Feb2018            

=------------------------------------------------------------------------------=
   JOB DONE.
=------------------------------------------------------------------------------=
