  python dir          : /u/if/mamunm/src/espresso
  espresso dir        : /nfs/slac/g/suncatfs/sw/espv18/espresso-dynpy-beef/bin
  pseudo dir          : /u/if/mamunm/psp/gbrv1.5pbe
  ase-espresso py git : GITVERSION



     Program PWSCF v.5.1rc2 (svn rev. 11289) starts on 30Apr2018 at 15:28:43 

     This program is part of the open-source Quantum ESPRESSO suite
     for quantum simulation of materials; please cite
         "P. Giannozzi et al., J. Phys.:Condens. Matter 21 395502 (2009);
          URL http://www.quantum-espresso.org", 
     in publications or presentations arising from this work. More details at
     http://www.quantum-espresso.org/quote

     Parallel version (MPI), running on    32 processors
     K-points division:     npool     =       4
     R & G space division:  proc/nbgrp/npool/nimage =       8
     Reading input from pw.inp
     Message from routine read_cards :
     DEPRECATED: no units specified in CELL_PARAMETERS card

     Current dimensions of program PWSCF are:
     Max number of different atomic species (ntypx) = 10
     Max number of k-points (npk) =  40000
     Max angular momentum in pseudopotentials (lmaxx) =  3
     Presently stress not available with electric field


     **************************************************************************
     Initializing libbeef V0.1.1 with the BEEF-vdW functional.
     Citation: Wellendorff et al., PRB 85, 235149 (2012).
     **************************************************************************


     IMPORTANT: XC functional enforced from input :
     Exchange-correlation      = BEEF-VDW ( 1  4 27 13 2)
     Any further DFT definition will be discarded
     Please, verify this is what you really want


     Subspace diagonalization in iterative solution of the eigenvalue problem:
     a serial algorithm will be used

     Found symmetry operation: I + ( -0.5000  0.0000  0.0000)
     This is a supercell, fractional translations are disabled
 
     Parallelization info
     --------------------
     sticks:   dense  smooth     PW     G-vecs:    dense   smooth      PW
     Min         579     230     64               114907    29014    4366
     Max         580     231     66               114920    29056    4372
     Sum        4639    1843    517               919335   232275   34949
 


     bravais-lattice index     =            0
     lattice parameter (alat)  =       1.8897  a.u.
     unit-cell volume          =    7725.1200 (a.u.)^3
     number of atoms/cell      =           12
     number of atomic types    =            1
     number of electrons       =       132.00
     number of Kohn-Sham states=           76
     kinetic-energy cutoff     =      36.7493  Ry
     charge density cutoff     =     367.4932  Ry
     convergence threshold     =      1.0E-05
     mixing beta               =       0.3000
     number of iterations used =           10  plain     mixing
     Exchange-correlation      = BEEF-VDW ( 1  4 27 13 2)
     nstep                     =           50


     celldm(1)=   1.889726  celldm(2)=   0.000000  celldm(3)=   0.000000
     celldm(4)=   0.000000  celldm(5)=   0.000000  celldm(6)=   0.000000

     crystal axes: (cart. coord. in units of alat)
               a(1) = (   7.152277   0.000000   0.000000 )  
               a(2) = (   3.576139   6.194054   0.000000 )  
               a(3) = (   0.000000   0.000000  25.839810 )  

     reciprocal axes: (cart. coord. in units 2 pi/alat)
               b(1) = (  0.139816 -0.080723  0.000000 )  
               b(2) = (  0.000000  0.161445  0.000000 )  
               b(3) = (  0.000000  0.000000  0.038700 )  


     PseudoPot. # 1 for Y  read from file:
     /u/if/mamunm/psp/gbrv1.5pbe/Y.UPF
     MD5 check sum: d034151ed7554c50b6e82763ed42c788
     Pseudo is Ultrasoft + core correction, Zval = 11.0
     Generated by new atomic code, or converted to UPF format
     Using radial grid of  885 points,  6 beta functions with: 
                l(1) =   0
                l(2) =   0
                l(3) =   1
                l(4) =   1
                l(5) =   2
                l(6) =   2
     Q(r) pseudized with  8 coefficients,  rinner =    1.200   1.200   1.200
                                                       1.200   1.200

     vdW kernel table read from file vdW_kernel_table
     MD5 check sum: 095c7af220d748ca6e76c0b4c6cfb241

     atomic species   valence    mass     pseudopotential
        Y1            11.00    88.90584     Y ( 1.00)

     No symmetry found



   Cartesian axes

     site n.     atom                  positions (alat units)
         1           Y1  tau(   1) = (   1.7880693   1.0323423  10.0000000  )
         2           Y1  tau(   2) = (   5.3642080   1.0323423  10.0000000  )
         3           Y1  tau(   3) = (   3.5761386   4.1293692  10.0000000  )
         4           Y1  tau(   4) = (   7.1522773   4.1293692  10.0000000  )
         5           Y1  tau(   5) = (   7.1522773   2.0646846  12.9199050  )
         6           Y1  tau(   6) = (   3.5761386   2.0646846  12.9199050  )
         7           Y1  tau(   7) = (   8.9403466   5.1617115  12.9199050  )
         8           Y1  tau(   8) = (   5.3642080   5.1617115  12.9199050  )
         9           Y1  tau(   9) = (   0.0000000   0.0000000  15.8398100  )
        10           Y1  tau(  10) = (   3.5761386   0.0000000  15.8398100  )
        11           Y1  tau(  11) = (   1.7880693   3.0970269  15.8398100  )
        12           Y1  tau(  12) = (   5.3642080   3.0970269  15.8398100  )

     number of k points=    20  Fermi-Dirac smearing, width (Ry)=  0.0110
                       cart. coord. in units 2pi/alat
        k(    1) = (   0.0000000   0.0000000   0.0000000), wk =   0.0555556
        k(    2) = (   0.0000000   0.0269075   0.0000000), wk =   0.1111111
        k(    3) = (   0.0000000   0.0538151   0.0000000), wk =   0.1111111
        k(    4) = (   0.0000000  -0.0807226   0.0000000), wk =   0.0555556
        k(    5) = (   0.0233026  -0.0134538   0.0000000), wk =   0.1111111
        k(    6) = (   0.0233026   0.0134538   0.0000000), wk =   0.1111111
        k(    7) = (   0.0233026   0.0403613   0.0000000), wk =   0.1111111
        k(    8) = (   0.0233026  -0.0941763   0.0000000), wk =   0.1111111
        k(    9) = (   0.0233026  -0.0672688   0.0000000), wk =   0.1111111
        k(   10) = (   0.0233026  -0.0403613   0.0000000), wk =   0.1111111
        k(   11) = (   0.0466052  -0.0269075   0.0000000), wk =   0.1111111
        k(   12) = (   0.0466052   0.0000000   0.0000000), wk =   0.1111111
        k(   13) = (   0.0466052   0.0269075   0.0000000), wk =   0.1111111
        k(   14) = (   0.0466052  -0.1076301   0.0000000), wk =   0.1111111
        k(   15) = (   0.0466052  -0.0807226   0.0000000), wk =   0.1111111
        k(   16) = (   0.0466052  -0.0538151   0.0000000), wk =   0.1111111
        k(   17) = (  -0.0699078   0.0403613   0.0000000), wk =   0.0555556
        k(   18) = (  -0.0699078   0.0672688   0.0000000), wk =   0.1111111
        k(   19) = (  -0.0699078   0.0941763   0.0000000), wk =   0.1111111
        k(   20) = (  -0.0699078  -0.0403613   0.0000000), wk =   0.0555556

     Dense  grid:   919335 G-vectors     FFT dimensions: (  90,  90, 300)

     Smooth grid:   232275 G-vectors     FFT dimensions: (  54,  54, 192)

     Largest allocated arrays     est. size (Mb)     dimensions
        Kohn-Sham Wavefunctions         4.27 Mb     (    3683,   76)
        NL pseudopotentials            12.14 Mb     (    3683,  216)
        Each V/rho on FFT grid          4.70 Mb     (  307800)
        Each G-vector array             0.88 Mb     (  114920)
        G-vector shells                 0.22 Mb     (   29028)
     Largest temporary arrays     est. size (Mb)     dimensions
        Auxiliary wavefunctions        17.08 Mb     (    3683,  304)
        Each subspace H/S matrix        1.41 Mb     (     304,  304)
        Each <psi_i|beta_j> matrix      0.25 Mb     (     216,   76)
        Arrays for rho mixing          46.97 Mb     (  307800,   10)

     Initial potential from superposition of free atoms
     Check: negative starting charge=   -0.000607

     starting charge  131.94637, renormalised to  132.00000

     negative rho (up, down):  6.072E-04 0.000E+00


     ************************************************************************
     *
     * You are using vdW-DF for exchange-correlation in this calculation.
     * Please cite the following three references that made this development
     * possible:
     *
     *   M. Dion, H. Rydberg, E. Schroder, D. C. Langreth, and
     *   B. I. Lundqvist, Phys. Rev. Lett. 92, 246401 (2004).
     *
     *   T. Thonhauser, V. R. Cooper, S. Li, A. Puzder, P. Hyldgaard, and
     *   D. C. Langreth, Phys. Rev. B 76, 125112 (2007).
     *
     *   G. Roman-Perez and J. M. Soler, Phys. Rev. Lett. 103, 096102 (2009).
     *
     *
     * If you are using vdW-DF2, please also cite:
     *
     *   K. Lee, E. D. Murray, L. Kong, B. I. Lundqvist, and
     *   D. C. Langreth, Phys. Rev. B 82, 081101(R) (2010).
     *
     *
     * If you are calculating the stress with vdW-DF, please also cite:
     *
     *   R. Sabatini, E. Kucukbenli, B. Kolb, T. Thonhauser, and
     *   S. de Gironcoli, J. Phys.: Condens. Matter 24, 424209 (2012).
     *
     ************************************************************************

     Carrying out vdW-DF run using the following parameters:

     Nqs =      20    Nr_points =    1024   r_max =   100.000
     q_mesh =
               0.00001000     0.04494208     0.09755937     0.15916263
               0.23128650     0.31572767     0.41458969     0.53033537
               0.66584808     0.82450364     1.01025438     1.22772762
               1.48234092     1.78043706     2.12944203     2.53805004
               3.01644009     3.57652955     4.23227104     5.00000000

     Gradients computed in reciprocal space

     ************************************************************************


 
     Adding external electric field

     Computed dipole along edir(3) : 
        Dipole               -0.0000 Ry au,         -0.0000 Debye
        Dipole field         -0.0000 Ry au
 
        Potential amp.        0.0000 Ry
        Total length         47.6094 bohr
 
     Starting wfc are  156 randomized atomic wfcs

     total cpu time spent up to now is       18.6 secs

     per-process dynamical memory:   112.1 Mb

     Self-consistent Calculation

     iteration #  1     ecut=    36.75 Ry     beta=0.30
     Davidson diagonalization with overlap
     ethr =  1.00E-02,  avg # of iterations =  2.0

     negative rho (up, down):  3.395E-04 0.000E+00
 
     Adding external electric field

     Computed dipole along edir(3) : 
        Dipole               -0.0002 Ry au,         -0.0006 Debye
        Dipole field         -0.0000 Ry au
 
        Potential amp.        0.0000 Ry
        Total length         47.6094 bohr
 

     total cpu time spent up to now is       43.7 secs

     total energy              =   -1122.13877427 Ry
     Harris-Foulkes estimate   =   -1124.67673448 Ry
     estimated scf accuracy    <       5.37868306 Ry

     iteration #  2     ecut=    36.75 Ry     beta=0.30
     Davidson diagonalization with overlap
     ethr =  4.07E-03,  avg # of iterations =  6.0

     negative rho (up, down):  1.447E-04 0.000E+00
 
     Adding external electric field

     Computed dipole along edir(3) : 
        Dipole                0.0019 Ry au,          0.0048 Debye
        Dipole field          0.0000 Ry au
 
        Potential amp.       -0.0003 Ry
        Total length         47.6094 bohr
 

     total cpu time spent up to now is       75.5 secs

     total energy              =   -1121.97209947 Ry
     Harris-Foulkes estimate   =   -1128.06335607 Ry
     estimated scf accuracy    <      42.83675147 Ry

     iteration #  3     ecut=    36.75 Ry     beta=0.30
     Davidson diagonalization with overlap
     ethr =  4.07E-03,  avg # of iterations =  5.2

     negative rho (up, down):  2.124E-04 0.000E+00
 
     Adding external electric field

     Computed dipole along edir(3) : 
        Dipole                0.0076 Ry au,          0.0192 Debye
        Dipole field          0.0000 Ry au
 
        Potential amp.       -0.0012 Ry
        Total length         47.6094 bohr
 

     total cpu time spent up to now is      105.5 secs

     total energy              =   -1124.26863538 Ry
     Harris-Foulkes estimate   =   -1124.22796226 Ry
     estimated scf accuracy    <       0.75133751 Ry

     iteration #  4     ecut=    36.75 Ry     beta=0.30
     Davidson diagonalization with overlap
     ethr =  5.69E-04,  avg # of iterations =  8.5

     negative rho (up, down):  2.049E-04 0.000E+00
 
     Adding external electric field

     Computed dipole along edir(3) : 
        Dipole                0.1895 Ry au,          0.4816 Debye
        Dipole field          0.0003 Ry au
 
        Potential amp.       -0.0293 Ry
        Total length         47.6094 bohr
 

     total cpu time spent up to now is      135.0 secs

     total energy              =   -1124.25982969 Ry
     Harris-Foulkes estimate   =   -1124.31412791 Ry
     estimated scf accuracy    <       0.69271200 Ry

     iteration #  5     ecut=    36.75 Ry     beta=0.30
     Davidson diagonalization with overlap
     ethr =  5.25E-04,  avg # of iterations =  4.2

     negative rho (up, down):  1.606E-04 0.000E+00
 
     Adding external electric field

     Computed dipole along edir(3) : 
        Dipole               -0.0428 Ry au,         -0.1087 Debye
        Dipole field         -0.0001 Ry au
 
        Potential amp.        0.0066 Ry
        Total length         47.6094 bohr
 

     total cpu time spent up to now is      162.7 secs

     total energy              =   -1124.19552468 Ry
     Harris-Foulkes estimate   =   -1124.28892244 Ry
     estimated scf accuracy    <       1.70699032 Ry

     iteration #  6     ecut=    36.75 Ry     beta=0.30
     Davidson diagonalization with overlap
     ethr =  5.25E-04,  avg # of iterations =  6.3

     negative rho (up, down):  1.891E-05 0.000E+00
 
     Adding external electric field

     Computed dipole along edir(3) : 
        Dipole               -0.0199 Ry au,         -0.0505 Debye
        Dipole field         -0.0000 Ry au
 
        Potential amp.        0.0031 Ry
        Total length         47.6094 bohr
 

     total cpu time spent up to now is      192.9 secs

     total energy              =   -1124.22552885 Ry
     Harris-Foulkes estimate   =   -1124.27244327 Ry
     estimated scf accuracy    <       0.59209491 Ry

     iteration #  7     ecut=    36.75 Ry     beta=0.30
     Davidson diagonalization with overlap
     ethr =  4.49E-04,  avg # of iterations =  4.5

     negative rho (up, down):  1.728E-05 0.000E+00
 
     Adding external electric field

     Computed dipole along edir(3) : 
        Dipole                0.0090 Ry au,          0.0228 Debye
        Dipole field          0.0000 Ry au
 
        Potential amp.       -0.0014 Ry
        Total length         47.6094 bohr
 

     total cpu time spent up to now is      221.5 secs

     total energy              =   -1124.24070857 Ry
     Harris-Foulkes estimate   =   -1124.27320647 Ry
     estimated scf accuracy    <       0.65720906 Ry

     iteration #  8     ecut=    36.75 Ry     beta=0.30
     Davidson diagonalization with overlap
     ethr =  4.49E-04,  avg # of iterations =  1.0

     negative rho (up, down):  2.031E-05 0.000E+00
 
     Adding external electric field

     Computed dipole along edir(3) : 
        Dipole                0.0166 Ry au,          0.0422 Debye
        Dipole field          0.0000 Ry au
 
        Potential amp.       -0.0026 Ry
        Total length         47.6094 bohr
 

     total cpu time spent up to now is      246.4 secs

     total energy              =   -1124.19760167 Ry
     Harris-Foulkes estimate   =   -1124.24901885 Ry
     estimated scf accuracy    <       0.32082470 Ry

     iteration #  9     ecut=    36.75 Ry     beta=0.30
     Davidson diagonalization with overlap
     ethr =  2.43E-04,  avg # of iterations =  6.5

     negative rho (up, down):  2.055E-05 0.000E+00
 
     Adding external electric field

     Computed dipole along edir(3) : 
        Dipole               -0.0022 Ry au,         -0.0057 Debye
        Dipole field         -0.0000 Ry au
 
        Potential amp.        0.0003 Ry
        Total length         47.6094 bohr
 

     total cpu time spent up to now is      276.8 secs

     total energy              =   -1124.23221591 Ry
     Harris-Foulkes estimate   =   -1124.23801663 Ry
     estimated scf accuracy    <       0.07408895 Ry

     iteration # 10     ecut=    36.75 Ry     beta=0.30
     Davidson diagonalization with overlap
     ethr =  5.61E-05,  avg # of iterations =  6.2

     negative rho (up, down):  1.092E-05 0.000E+00
 
     Adding external electric field

     Computed dipole along edir(3) : 
        Dipole                0.0084 Ry au,          0.0212 Debye
        Dipole field          0.0000 Ry au
 
        Potential amp.       -0.0013 Ry
        Total length         47.6094 bohr
 

     total cpu time spent up to now is      306.6 secs

     total energy              =   -1124.23422415 Ry
     Harris-Foulkes estimate   =   -1124.23600797 Ry
     estimated scf accuracy    <       0.01527965 Ry

     iteration # 11     ecut=    36.75 Ry     beta=0.30
     Davidson diagonalization with overlap
     ethr =  1.16E-05,  avg # of iterations =  8.0

     negative rho (up, down):  1.171E-05 0.000E+00
 
     Adding external electric field

     Computed dipole along edir(3) : 
        Dipole               -0.0033 Ry au,         -0.0084 Debye
        Dipole field         -0.0000 Ry au
 
        Potential amp.        0.0005 Ry
        Total length         47.6094 bohr
 

     total cpu time spent up to now is      338.3 secs

     total energy              =   -1124.23605673 Ry
     Harris-Foulkes estimate   =   -1124.23612566 Ry
     estimated scf accuracy    <       0.00090651 Ry

     iteration # 12     ecut=    36.75 Ry     beta=0.30
     Davidson diagonalization with overlap
     ethr =  6.87E-07,  avg # of iterations =  9.7

     negative rho (up, down):  1.486E-05 0.000E+00
 
     Adding external electric field

     Computed dipole along edir(3) : 
        Dipole                0.0017 Ry au,          0.0042 Debye
        Dipole field          0.0000 Ry au
 
        Potential amp.       -0.0003 Ry
        Total length         47.6094 bohr
 

     total cpu time spent up to now is      374.2 secs

     total energy              =   -1124.23648383 Ry
     Harris-Foulkes estimate   =   -1124.23652543 Ry
     estimated scf accuracy    <       0.00022793 Ry

     iteration # 13     ecut=    36.75 Ry     beta=0.30
     Davidson diagonalization with overlap
     ethr =  1.73E-07,  avg # of iterations =  8.0

     negative rho (up, down):  1.717E-05 0.000E+00
 
     Adding external electric field

     Computed dipole along edir(3) : 
        Dipole                0.0001 Ry au,          0.0004 Debye
        Dipole field          0.0000 Ry au
 
        Potential amp.       -0.0000 Ry
        Total length         47.6094 bohr
 

     total cpu time spent up to now is      406.7 secs

     total energy              =   -1124.22379688 Ry
     Harris-Foulkes estimate   =   -1124.23654013 Ry
     estimated scf accuracy    <       0.00051932 Ry

     iteration # 14     ecut=    36.75 Ry     beta=0.30
     Davidson diagonalization with overlap
     ethr =  1.73E-07,  avg # of iterations =  8.4

     negative rho (up, down):  1.585E-05 0.000E+00
 
     Adding external electric field

     Computed dipole along edir(3) : 
        Dipole                0.0003 Ry au,          0.0007 Debye
        Dipole field          0.0000 Ry au
 
        Potential amp.       -0.0000 Ry
        Total length         47.6094 bohr
 

     total cpu time spent up to now is      439.3 secs

     total energy              =   -1124.22385524 Ry
     Harris-Foulkes estimate   =   -1124.22387732 Ry
     estimated scf accuracy    <       0.00028069 Ry

     iteration # 15     ecut=    36.75 Ry     beta=0.30
     Davidson diagonalization with overlap
     ethr =  1.73E-07,  avg # of iterations =  1.9

     negative rho (up, down):  1.487E-05 0.000E+00
 
     Adding external electric field

     Computed dipole along edir(3) : 
        Dipole                0.0003 Ry au,          0.0008 Debye
        Dipole field          0.0000 Ry au
 
        Potential amp.       -0.0000 Ry
        Total length         47.6094 bohr
 

     total cpu time spent up to now is      464.5 secs

     total energy              =   -1124.22385986 Ry
     Harris-Foulkes estimate   =   -1124.22386377 Ry
     estimated scf accuracy    <       0.00004728 Ry

     iteration # 16     ecut=    36.75 Ry     beta=0.30
     Davidson diagonalization with overlap
     ethr =  3.58E-08,  avg # of iterations =  6.8

     negative rho (up, down):  1.379E-05 0.000E+00

     negative rho (up, down):  1.379E-05 0.000E+00

     negative rho (up, down):  1.379E-05 0.000E+00

     negative rho (up, down):  1.379E-05 0.000E+00

     negative rho (up, down):  1.379E-05 0.000E+00

     negative rho (up, down):  1.379E-05 0.000E+00

     negative rho (up, down):  1.379E-05 0.000E+00

     negative rho (up, down):  1.379E-05 0.000E+00

     negative rho (up, down):  1.379E-05 0.000E+00

     negative rho (up, down):  1.379E-05 0.000E+00

     negative rho (up, down):  1.379E-05 0.000E+00

     negative rho (up, down):  1.379E-05 0.000E+00

     negative rho (up, down):  1.379E-05 0.000E+00

     negative rho (up, down):  1.379E-05 0.000E+00

     negative rho (up, down):  1.379E-05 0.000E+00

     negative rho (up, down):  1.379E-05 0.000E+00

     negative rho (up, down):  1.379E-05 0.000E+00

     negative rho (up, down):  1.379E-05 0.000E+00

     negative rho (up, down):  1.379E-05 0.000E+00

     negative rho (up, down):  1.379E-05 0.000E+00

     negative rho (up, down):  1.379E-05 0.000E+00

     negative rho (up, down):  1.379E-05 0.000E+00

     negative rho (up, down):  1.379E-05 0.000E+00

     negative rho (up, down):  1.379E-05 0.000E+00

     negative rho (up, down):  1.379E-05 0.000E+00

     negative rho (up, down):  1.379E-05 0.000E+00

     negative rho (up, down):  1.379E-05 0.000E+00

     negative rho (up, down):  1.379E-05 0.000E+00

     negative rho (up, down):  1.379E-05 0.000E+00

     negative rho (up, down):  1.379E-05 0.000E+00

     negative rho (up, down):  1.379E-05 0.000E+00

     negative rho (up, down):  1.379E-05 0.000E+00

     negative rho (up, down):  1.379E-05 0.000E+00

     negative rho (up, down):  1.379E-05 0.000E+00

     negative rho (up, down):  1.379E-05 0.000E+00
 
     Adding external electric field

     Computed dipole along edir(3) : 
        Dipole               -0.0058 Ry au,         -0.0147 Debye
        Dipole field         -0.0000 Ry au
 
        Potential amp.        0.0009 Ry
        Total length         47.6094 bohr
 

     total cpu time spent up to now is      578.0 secs

     End of self-consistent calculation

          k = 0.0000 0.0000 0.0000 ( 28997 PWs)   bands (ev):

   -42.3391 -42.3382 -42.2963 -42.2962 -42.2960 -42.2959 -42.2958 -42.2953
   -41.7823 -41.7402 -41.7398 -41.7396 -22.4506 -22.4504 -22.4503 -22.4354
   -22.4352 -22.4351 -22.3976 -22.3436 -22.3154 -22.3153 -22.3149 -22.2823
   -22.2821 -22.2817 -22.1209 -22.1207 -22.1206 -22.1175 -22.1173 -22.1172
   -22.0206 -22.0205 -22.0194 -22.0194 -21.8990 -21.8989 -21.8987 -21.6911
   -21.6638 -21.6633 -21.6631 -21.6011 -21.6010 -21.6008 -21.5036 -21.5036
    -3.2887  -2.4045  -1.3442  -0.6141  -0.6140  -0.6140  -0.4863  -0.4862
    -0.4862  -0.2210  -0.2210  -0.2209   0.3237   0.3237   0.3237   0.7312
     0.7313   0.7314   1.1519   1.2485   1.6005   1.6407   1.6408   1.6408
     1.7601   1.7601   1.7602   2.3546

          k = 0.0000 0.0269 0.0000 ( 29019 PWs)   bands (ev):

   -42.3362 -42.3354 -42.2989 -42.2987 -42.2962 -42.2961 -42.2959 -42.2954
   -41.7795 -41.7427 -41.7400 -41.7397 -22.4350 -22.4348 -22.4236 -22.4202
   -22.4200 -22.4084 -22.3907 -22.3405 -22.3162 -22.3126 -22.3122 -22.2890
   -22.2838 -22.2833 -22.1369 -22.1366 -22.1348 -22.1346 -22.1141 -22.1108
   -22.0504 -22.0492 -22.0274 -22.0260 -21.8854 -21.8853 -21.8751 -21.6878
   -21.6645 -21.6628 -21.6625 -21.6169 -21.6167 -21.5945 -21.5321 -21.5102
    -3.1385  -2.2562  -1.1944  -0.8364  -0.5585  -0.5584  -0.5479  -0.4046
    -0.4045  -0.0988  -0.0559  -0.0558   0.3893   0.4078   0.4078   0.7718
     0.7719   0.7720   1.1716   1.2509   1.4654   1.5385   1.5613   1.5614
     1.6839   1.7046   1.7047   2.1559

          k = 0.0000 0.0538 0.0000 ( 29058 PWs)   bands (ev):

   -42.3284 -42.3277 -42.3068 -42.3065 -42.2962 -42.2961 -42.2959 -42.2955
   -41.7717 -41.7505 -41.7400 -41.7397 -22.3971 -22.3968 -22.3833 -22.3830
   -22.3718 -22.3530 -22.3346 -22.3321 -22.3203 -22.3060 -22.3055 -22.3042
   -22.2880 -22.2876 -22.1767 -22.1764 -22.1756 -22.1752 -22.1324 -22.1272
   -22.0960 -22.0931 -22.0459 -22.0441 -21.8518 -21.8515 -21.8074 -21.6807
   -21.6678 -21.6621 -21.6618 -21.6546 -21.6544 -21.6088 -21.5769 -21.5282
    -2.7117  -1.8425  -1.3925  -0.7854  -0.7697  -0.4478  -0.4477  -0.1521
    -0.1521  -0.0092   0.3481   0.3482   0.5666   0.6278   0.6278   0.8559
     0.8561   0.8916   1.1036   1.1948   1.3315   1.3316   1.3398   1.4294
     1.4295   1.4678   1.4733   1.7959

          k = 0.0000-0.0807 0.0000 ( 29048 PWs)   bands (ev):

   -42.3178 -42.3176 -42.3172 -42.3168 -42.2963 -42.2961 -42.2959 -42.2955
   -41.7613 -41.7610 -41.7400 -41.7397 -22.3714 -22.3710 -22.3583 -22.3578
   -22.3473 -22.3470 -22.3215 -22.3211 -22.3003 -22.2998 -22.2926 -22.2922
   -22.2396 -22.2394 -22.2319 -22.2316 -22.2043 -22.2039 -22.2015 -22.2010
   -22.0712 -22.0708 -22.0689 -22.0685 -21.8285 -21.8281 -21.7105 -21.7102
   -21.6815 -21.6812 -21.6735 -21.6732 -21.6602 -21.6599 -21.5528 -21.5524
    -2.0836  -2.0835  -1.2721  -1.2720  -0.3846  -0.3845  -0.2753  -0.2752
     0.0375   0.0376   0.7113   0.7113   0.7673   0.7674   0.8243   0.8244
     0.9259   0.9260   1.0783   1.0783   1.1139   1.1139   1.1778   1.1779
     1.3943   1.3943   1.5200   1.5200

          k = 0.0233-0.0135 0.0000 ( 29019 PWs)   bands (ev):

   -42.3362 -42.3354 -42.2989 -42.2987 -42.2961 -42.2960 -42.2959 -42.2956
   -41.7795 -41.7428 -41.7399 -41.7397 -22.4349 -22.4349 -22.4236 -22.4202
   -22.4201 -22.4084 -22.3907 -22.3405 -22.3162 -22.3125 -22.3123 -22.2890
   -22.2836 -22.2834 -22.1368 -22.1367 -22.1348 -22.1347 -22.1141 -22.1108
   -22.0505 -22.0493 -22.0274 -22.0260 -21.8854 -21.8853 -21.8750 -21.6878
   -21.6645 -21.6627 -21.6626 -21.6169 -21.6168 -21.5945 -21.5321 -21.5102
    -3.1385  -2.2562  -1.1944  -0.8364  -0.5585  -0.5584  -0.5479  -0.4046
    -0.4046  -0.0988  -0.0559  -0.0559   0.3893   0.4078   0.4078   0.7718
     0.7719   0.7719   1.1716   1.2509   1.4654   1.5385   1.5613   1.5613
     1.6839   1.7046   1.7047   2.1559

          k = 0.0233 0.0135 0.0000 ( 29019 PWs)   bands (ev):

   -42.3362 -42.3354 -42.2989 -42.2987 -42.2962 -42.2960 -42.2958 -42.2956
   -41.7795 -41.7427 -41.7401 -41.7396 -22.4350 -22.4348 -22.4236 -22.4202
   -22.4200 -22.4084 -22.3907 -22.3405 -22.3162 -22.3126 -22.3123 -22.2890
   -22.2837 -22.2834 -22.1369 -22.1367 -22.1348 -22.1346 -22.1141 -22.1108
   -22.0505 -22.0493 -22.0274 -22.0260 -21.8855 -21.8852 -21.8751 -21.6878
   -21.6645 -21.6629 -21.6624 -21.6170 -21.6167 -21.5945 -21.5321 -21.5102
    -3.1385  -2.2562  -1.1944  -0.8364  -0.5585  -0.5584  -0.5479  -0.4046
    -0.4046  -0.0988  -0.0559  -0.0558   0.3893   0.4078   0.4078   0.7718
     0.7719   0.7720   1.1716   1.2509   1.4654   1.5385   1.5613   1.5613
     1.6839   1.7046   1.7047   2.1558

          k = 0.0233 0.0404 0.0000 ( 29087 PWs)   bands (ev):

   -42.3309 -42.3301 -42.3015 -42.3014 -42.3013 -42.3010 -42.2935 -42.2933
   -41.7742 -41.7453 -41.7451 -41.7374 -22.4146 -22.4010 -22.3872 -22.3871
   -22.3778 -22.3720 -22.3719 -22.3347 -22.3152 -22.3150 -22.3043 -22.2960
   -22.2959 -22.2816 -22.1881 -22.1870 -22.1222 -22.1222 -22.1202 -22.1202
   -22.1052 -22.1010 -22.0412 -22.0404 -21.8680 -21.8418 -21.8417 -21.6827
   -21.6663 -21.6650 -21.6648 -21.6601 -21.6027 -21.6026 -21.5832 -21.5240
    -2.8492  -1.9737  -0.9830  -0.9829  -0.9120  -0.5144  -0.5143  -0.1886
    -0.1164   0.0953   0.0953   0.2292   0.5251   0.5251   0.5784   0.8336
     0.8336   0.8573   1.1801   1.1869   1.3383   1.3384   1.4717   1.4718
     1.4809   1.5671   1.6141   1.8012

          k = 0.0233-0.0942 0.0000 ( 29098 PWs)   bands (ev):

   -42.3216 -42.3210 -42.3108 -42.3104 -42.3029 -42.3026 -42.2921 -42.2919
   -41.7650 -41.7544 -41.7466 -41.7360 -22.3741 -22.3621 -22.3557 -22.3497
   -22.3346 -22.3335 -22.3253 -22.3153 -22.3102 -22.3025 -22.2955 -22.2923
   -22.2875 -22.2843 -22.2481 -22.2440 -22.1957 -22.1884 -22.1453 -22.1443
   -22.0967 -22.0950 -22.0670 -22.0658 -21.8324 -21.8058 -21.7632 -21.7222
   -21.6758 -21.6693 -21.6683 -21.6648 -21.6584 -21.6250 -21.5779 -21.5491
    -2.3159  -1.6375  -1.4686  -1.0313  -0.8937  -0.4256  -0.3983   0.0290
     0.0992   0.2403   0.4452   0.5847   0.7153   0.7173   0.7746   0.8709
     0.9611   0.9691   1.0202   1.1440   1.1544   1.2204   1.2782   1.3138
     1.3972   1.4041   1.4531   1.5576

          k = 0.0233-0.0673 0.0000 ( 29098 PWs)   bands (ev):

   -42.3216 -42.3210 -42.3108 -42.3104 -42.3029 -42.3026 -42.2921 -42.2919
   -41.7650 -41.7544 -41.7466 -41.7360 -22.3741 -22.3621 -22.3557 -22.3497
   -22.3346 -22.3335 -22.3253 -22.3153 -22.3102 -22.3025 -22.2955 -22.2923
   -22.2875 -22.2843 -22.2481 -22.2440 -22.1957 -22.1884 -22.1453 -22.1443
   -22.0967 -22.0950 -22.0670 -22.0658 -21.8324 -21.8058 -21.7632 -21.7222
   -21.6757 -21.6693 -21.6683 -21.6648 -21.6584 -21.6250 -21.5779 -21.5491
    -2.3159  -1.6375  -1.4686  -1.0313  -0.8937  -0.4256  -0.3983   0.0290
     0.0992   0.2403   0.4452   0.5847   0.7153   0.7173   0.7746   0.8709
     0.9611   0.9691   1.0202   1.1440   1.1544   1.2204   1.2782   1.3138
     1.3972   1.4041   1.4531   1.5576

          k = 0.0233-0.0404 0.0000 ( 29087 PWs)   bands (ev):

   -42.3309 -42.3301 -42.3016 -42.3014 -42.3011 -42.3011 -42.2935 -42.2933
   -41.7742 -41.7455 -41.7449 -41.7374 -22.4146 -22.4010 -22.3872 -22.3871
   -22.3778 -22.3720 -22.3719 -22.3347 -22.3153 -22.3150 -22.3043 -22.2961
   -22.2958 -22.2816 -22.1881 -22.1870 -22.1223 -22.1222 -22.1203 -22.1202
   -22.1052 -22.1010 -22.0412 -22.0404 -21.8680 -21.8419 -21.8417 -21.6827
   -21.6662 -21.6652 -21.6647 -21.6601 -21.6027 -21.6025 -21.5832 -21.5240
    -2.8492  -1.9737  -0.9830  -0.9829  -0.9120  -0.5144  -0.5144  -0.1886
    -0.1164   0.0953   0.0954   0.2292   0.5251   0.5252   0.5784   0.8336
     0.8336   0.8573   1.1801   1.1869   1.3383   1.3384   1.4718   1.4718
     1.4809   1.5671   1.6141   1.8012

          k = 0.0466-0.0269 0.0000 ( 29058 PWs)   bands (ev):

   -42.3284 -42.3277 -42.3068 -42.3065 -42.2961 -42.2960 -42.2960 -42.2956
   -41.7717 -41.7505 -41.7400 -41.7397 -22.3970 -22.3969 -22.3832 -22.3831
   -22.3718 -22.3530 -22.3346 -22.3321 -22.3203 -22.3058 -22.3057 -22.3042
   -22.2879 -22.2877 -22.1766 -22.1765 -22.1755 -22.1754 -22.1324 -22.1272
   -22.0959 -22.0931 -22.0459 -22.0441 -21.8517 -21.8516 -21.8074 -21.6807
   -21.6678 -21.6620 -21.6618 -21.6546 -21.6544 -21.6088 -21.5769 -21.5282
    -2.7117  -1.8425  -1.3925  -0.7854  -0.7697  -0.4478  -0.4477  -0.1521
    -0.1521  -0.0092   0.3481   0.3481   0.5666   0.6278   0.6278   0.8560
     0.8560   0.8916   1.1036   1.1948   1.3315   1.3316   1.3398   1.4295
     1.4295   1.4678   1.4733   1.7959

          k = 0.0466 0.0000 0.0000 ( 29087 PWs)   bands (ev):

   -42.3309 -42.3301 -42.3016 -42.3015 -42.3012 -42.3008 -42.2935 -42.2933
   -41.7742 -41.7454 -41.7450 -41.7374 -22.4146 -22.4010 -22.3872 -22.3871
   -22.3778 -22.3720 -22.3719 -22.3347 -22.3153 -22.3149 -22.3043 -22.2962
   -22.2957 -22.2816 -22.1881 -22.1870 -22.1223 -22.1221 -22.1203 -22.1201
   -22.1053 -22.1011 -22.0412 -22.0404 -21.8680 -21.8418 -21.8417 -21.6827
   -21.6662 -21.6651 -21.6647 -21.6601 -21.6027 -21.6026 -21.5832 -21.5240
    -2.8492  -1.9737  -0.9830  -0.9829  -0.9120  -0.5144  -0.5143  -0.1886
    -0.1164   0.0953   0.0954   0.2292   0.5251   0.5252   0.5784   0.8336
     0.8337   0.8573   1.1801   1.1869   1.3383   1.3384   1.4717   1.4718
     1.4809   1.5671   1.6141   1.8013

          k = 0.0466 0.0269 0.0000 ( 29058 PWs)   bands (ev):

   -42.3284 -42.3277 -42.3068 -42.3065 -42.2962 -42.2960 -42.2958 -42.2957
   -41.7717 -41.7505 -41.7401 -41.7396 -22.3971 -22.3968 -22.3832 -22.3830
   -22.3718 -22.3530 -22.3346 -22.3321 -22.3203 -22.3059 -22.3056 -22.3042
   -22.2879 -22.2877 -22.1766 -22.1764 -22.1756 -22.1753 -22.1324 -22.1272
   -22.0959 -22.0931 -22.0459 -22.0441 -21.8518 -21.8515 -21.8074 -21.6807
   -21.6678 -21.6622 -21.6617 -21.6547 -21.6543 -21.6088 -21.5769 -21.5282
    -2.7117  -1.8425  -1.3925  -0.7854  -0.7697  -0.4478  -0.4477  -0.1521
    -0.1521  -0.0092   0.3481   0.3482   0.5666   0.6278   0.6278   0.8560
     0.8561   0.8916   1.1036   1.1948   1.3315   1.3316   1.3398   1.4295
     1.4295   1.4678   1.4733   1.7959

          k = 0.0466-0.1076 0.0000 ( 29098 PWs)   bands (ev):

   -42.3216 -42.3210 -42.3108 -42.3104 -42.3029 -42.3026 -42.2921 -42.2919
   -41.7650 -41.7544 -41.7466 -41.7359 -22.3741 -22.3621 -22.3557 -22.3497
   -22.3346 -22.3335 -22.3253 -22.3153 -22.3102 -22.3025 -22.2955 -22.2923
   -22.2875 -22.2843 -22.2481 -22.2441 -22.1957 -22.1884 -22.1453 -22.1444
   -22.0967 -22.0950 -22.0669 -22.0658 -21.8324 -21.8058 -21.7632 -21.7222
   -21.6758 -21.6693 -21.6683 -21.6648 -21.6584 -21.6250 -21.5779 -21.5491
    -2.3159  -1.6375  -1.4686  -1.0313  -0.8937  -0.4256  -0.3983   0.0290
     0.0992   0.2403   0.4452   0.5847   0.7153   0.7173   0.7746   0.8709
     0.9611   0.9690   1.0202   1.1440   1.1544   1.2204   1.2782   1.3138
     1.3972   1.4041   1.4531   1.5576

          k = 0.0466-0.0807 0.0000 ( 29103 PWs)   bands (ev):

   -42.3125 -42.3123 -42.3122 -42.3120 -42.3118 -42.3114 -42.2906 -42.2905
   -41.7562 -41.7557 -41.7555 -41.7345 -22.3350 -22.3349 -22.3347 -22.3292
   -22.3166 -22.3164 -22.3162 -22.3140 -22.3139 -22.3115 -22.2849 -22.2849
   -22.2708 -22.2707 -22.2707 -22.2633 -22.2632 -22.2631 -22.1042 -22.1041
   -22.1040 -22.1036 -22.1035 -22.1034 -21.7863 -21.7863 -21.7400 -21.7399
   -21.7397 -21.6701 -21.6697 -21.6695 -21.6574 -21.5855 -21.5854 -21.5852
    -1.7178  -1.7177  -1.7176  -0.9252  -0.9252  -0.9251   0.0830   0.0830
     0.0831   0.4458   0.5139   0.5140   0.8046   0.8046   0.8046   0.9376
     0.9376   1.0419   1.0420   1.0420   1.2107   1.2107   1.2107   1.2887
     1.4044   1.4045   1.4045   1.5327

          k = 0.0466-0.0538 0.0000 ( 29098 PWs)   bands (ev):

   -42.3216 -42.3210 -42.3108 -42.3104 -42.3029 -42.3026 -42.2921 -42.2919
   -41.7650 -41.7544 -41.7466 -41.7360 -22.3741 -22.3621 -22.3557 -22.3497
   -22.3346 -22.3335 -22.3253 -22.3153 -22.3102 -22.3025 -22.2955 -22.2923
   -22.2875 -22.2843 -22.2481 -22.2441 -22.1957 -22.1884 -22.1453 -22.1444
   -22.0967 -22.0950 -22.0669 -22.0658 -21.8325 -21.8058 -21.7632 -21.7222
   -21.6757 -21.6693 -21.6683 -21.6648 -21.6584 -21.6250 -21.5779 -21.5491
    -2.3159  -1.6375  -1.4686  -1.0313  -0.8937  -0.4256  -0.3983   0.0290
     0.0992   0.2403   0.4452   0.5847   0.7153   0.7173   0.7746   0.8709
     0.9611   0.9691   1.0202   1.1440   1.1544   1.2204   1.2782   1.3138
     1.3972   1.4041   1.4531   1.5576

          k =-0.0699 0.0404 0.0000 ( 29048 PWs)   bands (ev):

   -42.3177 -42.3175 -42.3172 -42.3170 -42.2961 -42.2960 -42.2960 -42.2956
   -41.7613 -41.7610 -41.7400 -41.7397 -22.3713 -22.3711 -22.3581 -22.3580
   -22.3472 -22.3471 -22.3214 -22.3212 -22.3001 -22.3000 -22.2925 -22.2923
   -22.2396 -22.2394 -22.2319 -22.2317 -22.2042 -22.2041 -22.2013 -22.2012
   -22.0711 -22.0709 -22.0688 -22.0686 -21.8284 -21.8282 -21.7105 -21.7102
   -21.6815 -21.6813 -21.6735 -21.6732 -21.6602 -21.6600 -21.5527 -21.5525
    -2.0836  -2.0835  -1.2721  -1.2720  -0.3846  -0.3845  -0.2753  -0.2753
     0.0375   0.0376   0.7113   0.7113   0.7673   0.7674   0.8244   0.8244
     0.9259   0.9260   1.0783   1.0783   1.1139   1.1139   1.1778   1.1779
     1.3943   1.3943   1.5200   1.5200

          k =-0.0699 0.0673 0.0000 ( 29098 PWs)   bands (ev):

   -42.3216 -42.3210 -42.3108 -42.3104 -42.3029 -42.3026 -42.2921 -42.2919
   -41.7650 -41.7544 -41.7466 -41.7360 -22.3741 -22.3621 -22.3557 -22.3497
   -22.3346 -22.3335 -22.3253 -22.3153 -22.3102 -22.3025 -22.2955 -22.2923
   -22.2875 -22.2843 -22.2481 -22.2441 -22.1957 -22.1884 -22.1453 -22.1444
   -22.0967 -22.0950 -22.0669 -22.0658 -21.8324 -21.8058 -21.7632 -21.7222
   -21.6757 -21.6693 -21.6683 -21.6648 -21.6584 -21.6250 -21.5779 -21.5491
    -2.3159  -1.6375  -1.4686  -1.0313  -0.8937  -0.4256  -0.3983   0.0290
     0.0992   0.2403   0.4452   0.5847   0.7153   0.7173   0.7746   0.8709
     0.9611   0.9691   1.0202   1.1440   1.1544   1.2204   1.2782   1.3138
     1.3972   1.4041   1.4531   1.5576

          k =-0.0699 0.0942 0.0000 ( 29098 PWs)   bands (ev):

   -42.3216 -42.3210 -42.3108 -42.3104 -42.3029 -42.3026 -42.2921 -42.2919
   -41.7650 -41.7544 -41.7466 -41.7359 -22.3741 -22.3621 -22.3557 -22.3497
   -22.3346 -22.3335 -22.3253 -22.3153 -22.3102 -22.3025 -22.2955 -22.2923
   -22.2875 -22.2843 -22.2481 -22.2441 -22.1957 -22.1884 -22.1453 -22.1444
   -22.0967 -22.0950 -22.0669 -22.0658 -21.8324 -21.8058 -21.7632 -21.7222
   -21.6758 -21.6693 -21.6683 -21.6648 -21.6584 -21.6250 -21.5779 -21.5491
    -2.3159  -1.6375  -1.4686  -1.0313  -0.8937  -0.4256  -0.3983   0.0290
     0.0992   0.2403   0.4452   0.5847   0.7153   0.7173   0.7746   0.8709
     0.9611   0.9690   1.0202   1.1440   1.1544   1.2204   1.2782   1.3138
     1.3972   1.4040   1.4531   1.5576

          k =-0.0699-0.0404 0.0000 ( 29048 PWs)   bands (ev):

   -42.3177 -42.3175 -42.3172 -42.3170 -42.2962 -42.2960 -42.2958 -42.2957
   -41.7614 -41.7609 -41.7401 -41.7396 -22.3714 -22.3711 -22.3582 -22.3579
   -22.3473 -22.3470 -22.3214 -22.3212 -22.3002 -22.2999 -22.2925 -22.2923
   -22.2395 -22.2395 -22.2318 -22.2318 -22.2043 -22.2040 -22.2014 -22.2011
   -22.0711 -22.0709 -22.0688 -22.0685 -21.8286 -21.8281 -21.7106 -21.7101
   -21.6816 -21.6811 -21.6736 -21.6731 -21.6603 -21.6598 -21.5529 -21.5523
    -2.0836  -2.0835  -1.2720  -1.2720  -0.3846  -0.3845  -0.2753  -0.2753
     0.0375   0.0376   0.7113   0.7113   0.7673   0.7674   0.8243   0.8244
     0.9259   0.9260   1.0782   1.0783   1.1139   1.1139   1.1778   1.1779
     1.3943   1.3943   1.5200   1.5200

     the Fermi energy is     1.0054 ev

!    total energy              =   -1124.22386498 Ry
     Harris-Foulkes estimate   =   -1124.22386451 Ry
     estimated scf accuracy    <       0.00000216 Ry

     The total energy is the sum of the following terms:

     one-electron contribution =   -5365.20815050 Ry
     hartree contribution      =    2674.44522548 Ry
     xc contribution           =    -338.76464045 Ry
     ewald contribution        =    1905.43716394 Ry
     electric field correction =       0.00000005 Ry
     smearing contrib. (-TS)   =      -0.13346350 Ry

     convergence has been achieved in  16 iterations
 
 BEEF-vdW xc energy contributions
           1 :   -295.226102203030     
           2 :    265.223770355411     
           3 :   -213.474126188553     
           4 :    152.623092009866     
           5 :   -94.5397690452710     
           6 :    46.7323819046047     
           7 :   -11.7525241644649     
           8 :   -11.0735388396321     
           9 :    23.3869162591899     
          10 :   -26.5499781663499     
          11 :    21.7937064771947     
          12 :   -11.0761918583142     
          13 :   -2.39868651444232     
          14 :    14.6389214104734     
          15 :   -22.1415893000317     
          16 :    23.1942212363514     
          17 :   -18.3702291116685     
          18 :    9.94426732200662     
          19 :  -0.676439289509801     
          20 :   -7.25861209441814     
          21 :    12.6809152230022     
          22 :   -15.2050201160013     
          23 :    14.8654564258421     
          24 :   -11.9559101145122     
          25 :    7.12728012834316     
          26 :   -1.49488259969627     
          27 :   -3.52006300857983     
          28 :    6.65039222709044     
          29 :   -7.29978895246347     
          30 :    5.77571716431385     
          31 :   -28.1849202344717     
          32 :   -19.2822948483001     

     Forces acting on atoms (Ry/au):


     negative rho (up, down):  1.379E-05 0.000E+00
     atom    1 type  1   force =     0.00003666   -0.00002698    0.00448593
     atom    2 type  1   force =    -0.00002967   -0.00003592    0.00446826
     atom    3 type  1   force =    -0.00004787    0.00002433    0.00456167
     atom    4 type  1   force =     0.00004363    0.00005589    0.00451360
     atom    5 type  1   force =     0.00001164    0.00003601   -0.00001712
     atom    6 type  1   force =    -0.00001989    0.00008018   -0.00002275
     atom    7 type  1   force =     0.00004666   -0.00008128   -0.00002787
     atom    8 type  1   force =    -0.00005838   -0.00004723   -0.00001980
     atom    9 type  1   force =    -0.00002654   -0.00008541   -0.00448469
     atom   10 type  1   force =     0.00002566   -0.00001435   -0.00448952
     atom   11 type  1   force =     0.00006239    0.00007213   -0.00448531
     atom   12 type  1   force =    -0.00004428    0.00002265   -0.00448241

     Total force =     0.008972     Total SCF correction =     0.005973
     SCF correction compared to forces is large: reduce conv_thr to get better values


     entering subroutine stress ...


     negative rho (up, down):  1.379E-05 0.000E+00
          total   stress  (Ry/bohr**3)                   (kbar)     P=   -3.81
  -0.00002267  -0.00000001   0.00000001         -3.33     -0.00      0.00
  -0.00000001  -0.00002266  -0.00000001         -0.00     -3.33     -0.00
   0.00000001  -0.00000001  -0.00003237          0.00     -0.00     -4.76


     BFGS Geometry Optimization

     number of scf cycles    =   1
     number of bfgs steps    =   0

     energy   new            =   -1124.2238649798 Ry

     new trust radius        =       0.0044896161 bohr
     new conv_thr            =       0.0000099958 Ry


ATOMIC_POSITIONS (crystal)
Y1       0.166666667   0.166666667   0.386999750    0   0   0
Y1       0.666666667   0.166666667   0.386999750    0   0   0
Y1       0.166666667   0.666666667   0.386999750    0   0   0
Y1       0.666666667   0.666666667   0.386999750    0   0   0
Y1       0.833333333   0.333333333   0.500000000    0   0   0
Y1       0.333333333   0.333333333   0.500000000    0   0   0
Y1       0.833333333   0.833333333   0.500000000    0   0   0
Y1       0.333333333   0.833333333   0.500000000    0   0   0
Y1       0.000001685  -0.000007297   0.612908407
Y1       0.500002511  -0.000001226   0.612908308
Y1       0.000001535   0.500006162   0.612908394
Y1       0.499995756   0.500001935   0.612908454



     Writing output data file calc.save
     Check: negative starting charge=   -0.000607
     NEW-OLD atomic charge density approx. for the potential
     Check: negative starting charge=   -0.000607

     negative rho (up, down):  1.207E-05 0.000E+00
 
     Adding external electric field

     Computed dipole along edir(3) : 
        Dipole               -0.0059 Ry au,         -0.0149 Debye
        Dipole field         -0.0000 Ry au
 
        Potential amp.        0.0009 Ry
        Total length         47.6094 bohr
 

     total cpu time spent up to now is      672.9 secs

     per-process dynamical memory:   114.0 Mb

     Self-consistent Calculation

     iteration #  1     ecut=    36.75 Ry     beta=0.30
     Davidson diagonalization with overlap
     ethr =  1.00E-06,  avg # of iterations =  4.2

     negative rho (up, down):  1.224E-05 0.000E+00
 
     Adding external electric field

     Computed dipole along edir(3) : 
        Dipole                0.1359 Ry au,          0.3454 Debye
        Dipole field          0.0002 Ry au
 
        Potential amp.       -0.0210 Ry
        Total length         47.6094 bohr
 

     total cpu time spent up to now is      708.1 secs

     total energy              =   -1124.22318894 Ry
     Harris-Foulkes estimate   =   -1124.22396601 Ry
     estimated scf accuracy    <       0.00162856 Ry

     iteration #  2     ecut=    36.75 Ry     beta=0.30
     Davidson diagonalization with overlap
     ethr =  1.23E-06,  avg # of iterations =  8.6

     negative rho (up, down):  1.270E-05 0.000E+00
 
     Adding external electric field

     Computed dipole along edir(3) : 
        Dipole               -0.0078 Ry au,         -0.0199 Debye
        Dipole field         -0.0000 Ry au
 
        Potential amp.        0.0012 Ry
        Total length         47.6094 bohr
 

     total cpu time spent up to now is      745.1 secs

     total energy              =   -1124.21343855 Ry
     Harris-Foulkes estimate   =   -1124.23377027 Ry
     estimated scf accuracy    <       0.99664191 Ry

     iteration #  3     ecut=    36.75 Ry     beta=0.30
     Davidson diagonalization with overlap
     ethr =  1.23E-06,  avg # of iterations =  8.2

     negative rho (up, down):  1.314E-05 0.000E+00
 
     Adding external electric field

     Computed dipole along edir(3) : 
        Dipole                0.0026 Ry au,          0.0066 Debye
        Dipole field          0.0000 Ry au
 
        Potential amp.       -0.0004 Ry
        Total length         47.6094 bohr
 

     total cpu time spent up to now is      781.6 secs

     total energy              =   -1124.22350709 Ry
     Harris-Foulkes estimate   =   -1124.22436738 Ry
     estimated scf accuracy    <       0.01562828 Ry

     iteration #  4     ecut=    36.75 Ry     beta=0.30
     Davidson diagonalization with overlap
     ethr =  1.23E-06,  avg # of iterations =  7.0

     negative rho (up, down):  1.337E-05 0.000E+00
 
     Adding external electric field

     Computed dipole along edir(3) : 
        Dipole                0.0002 Ry au,          0.0005 Debye
        Dipole field          0.0000 Ry au
 
        Potential amp.       -0.0000 Ry
        Total length         47.6094 bohr
 

     total cpu time spent up to now is      813.9 secs

     total energy              =   -1124.22394158 Ry
     Harris-Foulkes estimate   =   -1124.22394657 Ry
     estimated scf accuracy    <       0.00005841 Ry

     iteration #  5     ecut=    36.75 Ry     beta=0.30
     Davidson diagonalization with overlap
     ethr =  4.43E-08,  avg # of iterations =  8.3

     negative rho (up, down):  1.353E-05 0.000E+00
 
     Adding external electric field

     Computed dipole along edir(3) : 
        Dipole                0.0004 Ry au,          0.0009 Debye
        Dipole field          0.0000 Ry au
 
        Potential amp.       -0.0001 Ry
        Total length         47.6094 bohr
 

     total cpu time spent up to now is      848.8 secs

     total energy              =   -1124.22395033 Ry
     Harris-Foulkes estimate   =   -1124.22395141 Ry
     estimated scf accuracy    <       0.00001283 Ry

     iteration #  6     ecut=    36.75 Ry     beta=0.30
     Davidson diagonalization with overlap
     ethr =  9.72E-09,  avg # of iterations =  6.5

     negative rho (up, down):  1.382E-05 0.000E+00

     negative rho (up, down):  1.382E-05 0.000E+00

     negative rho (up, down):  1.382E-05 0.000E+00

     negative rho (up, down):  1.382E-05 0.000E+00

     negative rho (up, down):  1.382E-05 0.000E+00

     negative rho (up, down):  1.382E-05 0.000E+00

     negative rho (up, down):  1.382E-05 0.000E+00

     negative rho (up, down):  1.382E-05 0.000E+00

     negative rho (up, down):  1.382E-05 0.000E+00

     negative rho (up, down):  1.382E-05 0.000E+00

     negative rho (up, down):  1.382E-05 0.000E+00

     negative rho (up, down):  1.382E-05 0.000E+00

     negative rho (up, down):  1.382E-05 0.000E+00

     negative rho (up, down):  1.382E-05 0.000E+00

     negative rho (up, down):  1.382E-05 0.000E+00

     negative rho (up, down):  1.382E-05 0.000E+00

     negative rho (up, down):  1.382E-05 0.000E+00

     negative rho (up, down):  1.382E-05 0.000E+00

     negative rho (up, down):  1.382E-05 0.000E+00

     negative rho (up, down):  1.382E-05 0.000E+00

     negative rho (up, down):  1.382E-05 0.000E+00

     negative rho (up, down):  1.382E-05 0.000E+00

     negative rho (up, down):  1.382E-05 0.000E+00

     negative rho (up, down):  1.382E-05 0.000E+00

     negative rho (up, down):  1.382E-05 0.000E+00

     negative rho (up, down):  1.382E-05 0.000E+00

     negative rho (up, down):  1.382E-05 0.000E+00

     negative rho (up, down):  1.382E-05 0.000E+00

     negative rho (up, down):  1.382E-05 0.000E+00

     negative rho (up, down):  1.382E-05 0.000E+00

     negative rho (up, down):  1.382E-05 0.000E+00

     negative rho (up, down):  1.382E-05 0.000E+00

     negative rho (up, down):  1.382E-05 0.000E+00

     negative rho (up, down):  1.382E-05 0.000E+00

     negative rho (up, down):  1.382E-05 0.000E+00
 
     Adding external electric field

     Computed dipole along edir(3) : 
        Dipole                0.0108 Ry au,          0.0275 Debye
        Dipole field          0.0000 Ry au
 
        Potential amp.       -0.0017 Ry
        Total length         47.6094 bohr
 

     total cpu time spent up to now is      962.0 secs

     End of self-consistent calculation

          k = 0.0000 0.0000 0.0000 ( 28997 PWs)   bands (ev):

   -42.3389 -42.3374 -42.2962 -42.2960 -42.2960 -42.2949 -42.2947 -42.2946
   -41.7829 -41.7406 -41.7405 -41.7404 -22.4502 -22.4502 -22.4501 -22.4349
   -22.4348 -22.4348 -22.3974 -22.3431 -22.3151 -22.3150 -22.3149 -22.2816
   -22.2815 -22.2815 -22.1205 -22.1205 -22.1204 -22.1169 -22.1168 -22.1168
   -22.0204 -22.0204 -22.0188 -22.0188 -21.8994 -21.8993 -21.8993 -21.6914
   -21.6640 -21.6639 -21.6638 -21.6017 -21.6016 -21.6016 -21.5043 -21.5043
    -3.2897  -2.4044  -1.3441  -0.6151  -0.6151  -0.6151  -0.4877  -0.4877
    -0.4877  -0.2212  -0.2212  -0.2212   0.3225   0.3225   0.3226   0.7311
     0.7311   0.7311   1.1525   1.2496   1.6021   1.6412   1.6412   1.6412
     1.7599   1.7599   1.7600   2.3550

          k = 0.0000 0.0269 0.0000 ( 29019 PWs)   bands (ev):

   -42.3361 -42.3345 -42.2990 -42.2976 -42.2961 -42.2960 -42.2948 -42.2946
   -41.7801 -41.7434 -41.7406 -41.7404 -22.4347 -22.4346 -22.4233 -22.4198
   -22.4197 -22.4080 -22.3905 -22.3400 -22.3159 -22.3123 -22.3121 -22.2885
   -22.2831 -22.2830 -22.1366 -22.1365 -22.1342 -22.1341 -22.1138 -22.1103
   -22.0503 -22.0486 -22.0272 -22.0254 -21.8859 -21.8858 -21.8755 -21.6881
   -21.6650 -21.6632 -21.6631 -21.6175 -21.6174 -21.5952 -21.5328 -21.5109
    -3.1395  -2.2561  -1.1943  -0.8375  -0.5596  -0.5596  -0.5488  -0.4058
    -0.4058  -0.0992  -0.0563  -0.0562   0.3882   0.4066   0.4066   0.7715
     0.7716   0.7717   1.1722   1.2520   1.4656   1.5397   1.5615   1.5615
     1.6837   1.7045   1.7045   2.1556

          k = 0.0000 0.0538 0.0000 ( 29058 PWs)   bands (ev):

   -42.3283 -42.3268 -42.3068 -42.3055 -42.2961 -42.2960 -42.2949 -42.2946
   -41.7724 -41.7511 -41.7406 -41.7404 -22.3967 -22.3966 -22.3828 -22.3827
   -22.3716 -22.3528 -22.3342 -22.3317 -22.3200 -22.3055 -22.3054 -22.3037
   -22.2874 -22.2873 -22.1764 -22.1763 -22.1749 -22.1748 -22.1321 -22.1267
   -22.0957 -22.0926 -22.0456 -22.0436 -21.8522 -21.8521 -21.8080 -21.6810
   -21.6682 -21.6625 -21.6624 -21.6552 -21.6551 -21.6094 -21.5775 -21.5288
    -2.7127  -1.8424  -1.3935  -0.7853  -0.7701  -0.4490  -0.4490  -0.1532
    -0.1532  -0.0095   0.3476   0.3476   0.5659   0.6266   0.6267   0.8555
     0.8555   0.8911   1.1043   1.1951   1.3314   1.3315   1.3399   1.4293
     1.4293   1.4678   1.4728   1.7953

          k = 0.0000-0.0807 0.0000 ( 29048 PWs)   bands (ev):

   -42.3176 -42.3175 -42.3163 -42.3160 -42.2961 -42.2960 -42.2949 -42.2946
   -41.7619 -41.7617 -41.7406 -41.7404 -22.3710 -22.3709 -22.3577 -22.3576
   -22.3470 -22.3468 -22.3209 -22.3208 -22.2998 -22.2997 -22.2920 -22.2919
   -22.2392 -22.2392 -22.2314 -22.2313 -22.2039 -22.2038 -22.2009 -22.2007
   -22.0708 -22.0707 -22.0682 -22.0681 -21.8289 -21.8287 -21.7110 -21.7109
   -21.6821 -21.6819 -21.6738 -21.6736 -21.6606 -21.6605 -21.5534 -21.5532
    -2.0845  -2.0845  -1.2721  -1.2721  -0.3858  -0.3858  -0.2753  -0.2753
     0.0365   0.0365   0.7101   0.7101   0.7662   0.7663   0.8243   0.8243
     0.9259   0.9259   1.0779   1.0779   1.1134   1.1134   1.1781   1.1781
     1.3937   1.3937   1.5192   1.5192

          k = 0.0233-0.0135 0.0000 ( 29019 PWs)   bands (ev):

   -42.3361 -42.3345 -42.2990 -42.2976 -42.2961 -42.2961 -42.2948 -42.2947
   -41.7801 -41.7434 -41.7405 -41.7404 -22.4347 -22.4346 -22.4233 -22.4197
   -22.4197 -22.4080 -22.3905 -22.3400 -22.3159 -22.3122 -22.3122 -22.2885
   -22.2831 -22.2830 -22.1365 -22.1365 -22.1342 -22.1342 -22.1138 -22.1103
   -22.0503 -22.0486 -22.0272 -22.0254 -21.8859 -21.8858 -21.8755 -21.6881
   -21.6650 -21.6632 -21.6631 -21.6175 -21.6175 -21.5952 -21.5328 -21.5109
    -3.1395  -2.2561  -1.1943  -0.8375  -0.5596  -0.5596  -0.5488  -0.4058
    -0.4058  -0.0992  -0.0563  -0.0562   0.3882   0.4066   0.4066   0.7715
     0.7716   0.7716   1.1722   1.2520   1.4656   1.5397   1.5615   1.5615
     1.6837   1.7045   1.7045   2.1556

          k = 0.0233 0.0135 0.0000 ( 29019 PWs)   bands (ev):

   -42.3361 -42.3345 -42.2990 -42.2976 -42.2961 -42.2960 -42.2948 -42.2947
   -41.7801 -41.7434 -41.7405 -41.7404 -22.4347 -22.4346 -22.4234 -22.4197
   -22.4197 -22.4080 -22.3905 -22.3400 -22.3159 -22.3122 -22.3121 -22.2885
   -22.2831 -22.2830 -22.1366 -22.1365 -22.1342 -22.1342 -22.1138 -22.1103
   -22.0503 -22.0486 -22.0272 -22.0254 -21.8858 -21.8858 -21.8755 -21.6881
   -21.6650 -21.6632 -21.6631 -21.6175 -21.6175 -21.5952 -21.5328 -21.5109
    -3.1395  -2.2561  -1.1943  -0.8375  -0.5596  -0.5596  -0.5488  -0.4058
    -0.4058  -0.0992  -0.0563  -0.0562   0.3882   0.4066   0.4066   0.7715
     0.7716   0.7716   1.1722   1.2520   1.4656   1.5397   1.5615   1.5615
     1.6837   1.7045   1.7045   2.1556

          k = 0.0233 0.0404 0.0000 ( 29087 PWs)   bands (ev):

   -42.3307 -42.3292 -42.3015 -42.3014 -42.3002 -42.3001 -42.2936 -42.2923
   -41.7748 -41.7459 -41.7458 -41.7380 -22.4143 -22.4006 -22.3869 -22.3869
   -22.3776 -22.3716 -22.3716 -22.3343 -22.3149 -22.3148 -22.3041 -22.2955
   -22.2955 -22.2811 -22.1879 -22.1864 -22.1220 -22.1220 -22.1197 -22.1197
   -22.1050 -22.1006 -22.0411 -22.0397 -21.8685 -21.8423 -21.8423 -21.6830
   -21.6669 -21.6654 -21.6653 -21.6606 -21.6033 -21.6033 -21.5839 -21.5247
    -2.8502  -1.9736  -0.9841  -0.9841  -0.9120  -0.5151  -0.5150  -0.1900
    -0.1177   0.0949   0.0949   0.2287   0.5243   0.5243   0.5771   0.8331
     0.8331   0.8569   1.1811   1.1872   1.3385   1.3385   1.4714   1.4714
     1.4812   1.5666   1.6143   1.8008

          k = 0.0233-0.0942 0.0000 ( 29098 PWs)   bands (ev):

   -42.3215 -42.3200 -42.3108 -42.3094 -42.3029 -42.3016 -42.2921 -42.2908
   -41.7657 -41.7550 -41.7473 -41.7366 -22.3739 -22.3617 -22.3554 -22.3494
   -22.3344 -22.3331 -22.3248 -22.3149 -22.3099 -22.3021 -22.2952 -22.2919
   -22.2870 -22.2839 -22.2478 -22.2436 -22.1954 -22.1880 -22.1452 -22.1437
   -22.0965 -22.0944 -22.0668 -22.0652 -21.8330 -21.8063 -21.7638 -21.7228
   -21.6761 -21.6697 -21.6689 -21.6653 -21.6589 -21.6256 -21.5785 -21.5497
    -2.3169  -1.6386  -1.4685  -1.0324  -0.8939  -0.4256  -0.3988   0.0289
     0.0977   0.2389   0.4450   0.5836   0.7149   0.7167   0.7732   0.8700
     0.9615   0.9684   1.0197   1.1437   1.1536   1.2204   1.2775   1.3130
     1.3965   1.4038   1.4533   1.5575

          k = 0.0233-0.0673 0.0000 ( 29098 PWs)   bands (ev):

   -42.3215 -42.3200 -42.3108 -42.3094 -42.3029 -42.3016 -42.2921 -42.2908
   -41.7657 -41.7550 -41.7473 -41.7366 -22.3739 -22.3617 -22.3554 -22.3494
   -22.3344 -22.3331 -22.3248 -22.3149 -22.3099 -22.3021 -22.2952 -22.2919
   -22.2871 -22.2839 -22.2478 -22.2436 -22.1954 -22.1880 -22.1452 -22.1437
   -22.0965 -22.0944 -22.0668 -22.0652 -21.8330 -21.8063 -21.7638 -21.7228
   -21.6761 -21.6697 -21.6689 -21.6653 -21.6589 -21.6256 -21.5785 -21.5497
    -2.3169  -1.6386  -1.4685  -1.0324  -0.8939  -0.4256  -0.3988   0.0289
     0.0977   0.2389   0.4450   0.5836   0.7149   0.7167   0.7732   0.8700
     0.9615   0.9684   1.0197   1.1437   1.1536   1.2204   1.2775   1.3130
     1.3965   1.4038   1.4533   1.5575

          k = 0.0233-0.0404 0.0000 ( 29087 PWs)   bands (ev):

   -42.3307 -42.3292 -42.3015 -42.3014 -42.3002 -42.3001 -42.2936 -42.2923
   -41.7748 -41.7459 -41.7458 -41.7380 -22.4144 -22.4006 -22.3869 -22.3869
   -22.3776 -22.3716 -22.3716 -22.3343 -22.3149 -22.3148 -22.3041 -22.2955
   -22.2954 -22.2811 -22.1879 -22.1864 -22.1220 -22.1220 -22.1197 -22.1197
   -22.1050 -22.1006 -22.0411 -22.0397 -21.8685 -21.8423 -21.8423 -21.6830
   -21.6669 -21.6654 -21.6653 -21.6606 -21.6033 -21.6033 -21.5838 -21.5247
    -2.8502  -1.9736  -0.9841  -0.9841  -0.9120  -0.5151  -0.5150  -0.1900
    -0.1177   0.0949   0.0949   0.2287   0.5243   0.5243   0.5771   0.8331
     0.8331   0.8569   1.1811   1.1872   1.3385   1.3385   1.4714   1.4714
     1.4812   1.5666   1.6143   1.8008

          k = 0.0466-0.0269 0.0000 ( 29058 PWs)   bands (ev):

   -42.3283 -42.3268 -42.3068 -42.3055 -42.2961 -42.2961 -42.2948 -42.2947
   -41.7724 -41.7511 -41.7405 -41.7404 -22.3967 -22.3967 -22.3827 -22.3827
   -22.3716 -22.3528 -22.3342 -22.3317 -22.3200 -22.3055 -22.3054 -22.3037
   -22.2874 -22.2873 -22.1764 -22.1764 -22.1749 -22.1748 -22.1321 -22.1267
   -22.0957 -22.0926 -22.0456 -22.0436 -21.8522 -21.8521 -21.8080 -21.6810
   -21.6682 -21.6625 -21.6624 -21.6552 -21.6551 -21.6094 -21.5775 -21.5289
    -2.7127  -1.8424  -1.3935  -0.7853  -0.7701  -0.4490  -0.4490  -0.1532
    -0.1532  -0.0095   0.3476   0.3476   0.5659   0.6267   0.6267   0.8555
     0.8555   0.8911   1.1043   1.1951   1.3314   1.3315   1.3399   1.4293
     1.4293   1.4678   1.4728   1.7953

          k = 0.0466 0.0000 0.0000 ( 29087 PWs)   bands (ev):

   -42.3307 -42.3292 -42.3015 -42.3014 -42.3002 -42.3000 -42.2936 -42.2923
   -41.7748 -41.7459 -41.7457 -41.7380 -22.4143 -22.4006 -22.3869 -22.3869
   -22.3776 -22.3716 -22.3716 -22.3343 -22.3149 -22.3148 -22.3041 -22.2956
   -22.2954 -22.2811 -22.1879 -22.1864 -22.1220 -22.1219 -22.1197 -22.1196
   -22.1050 -22.1006 -22.0411 -22.0397 -21.8685 -21.8423 -21.8423 -21.6830
   -21.6669 -21.6654 -21.6653 -21.6606 -21.6033 -21.6033 -21.5838 -21.5247
    -2.8502  -1.9736  -0.9841  -0.9841  -0.9120  -0.5151  -0.5150  -0.1900
    -0.1177   0.0949   0.0949   0.2287   0.5242   0.5243   0.5771   0.8331
     0.8331   0.8569   1.1811   1.1872   1.3385   1.3385   1.4714   1.4714
     1.4812   1.5666   1.6143   1.8008

          k = 0.0466 0.0269 0.0000 ( 29058 PWs)   bands (ev):

   -42.3283 -42.3268 -42.3068 -42.3055 -42.2961 -42.2960 -42.2948 -42.2947
   -41.7724 -41.7511 -41.7405 -41.7404 -22.3967 -22.3966 -22.3827 -22.3827
   -22.3716 -22.3528 -22.3342 -22.3317 -22.3200 -22.3055 -22.3054 -22.3037
   -22.2874 -22.2873 -22.1764 -22.1763 -22.1749 -22.1748 -22.1321 -22.1267
   -22.0957 -22.0926 -22.0456 -22.0435 -21.8522 -21.8521 -21.8080 -21.6810
   -21.6682 -21.6625 -21.6624 -21.6552 -21.6551 -21.6095 -21.5775 -21.5288
    -2.7127  -1.8424  -1.3935  -0.7853  -0.7701  -0.4490  -0.4490  -0.1532
    -0.1532  -0.0095   0.3476   0.3476   0.5659   0.6267   0.6267   0.8555
     0.8555   0.8911   1.1043   1.1951   1.3314   1.3315   1.3399   1.4293
     1.4293   1.4678   1.4728   1.7953

          k = 0.0466-0.1076 0.0000 ( 29098 PWs)   bands (ev):

   -42.3215 -42.3200 -42.3108 -42.3094 -42.3029 -42.3016 -42.2921 -42.2908
   -41.7657 -41.7550 -41.7473 -41.7366 -22.3738 -22.3617 -22.3554 -22.3494
   -22.3344 -22.3331 -22.3248 -22.3149 -22.3099 -22.3021 -22.2952 -22.2920
   -22.2871 -22.2839 -22.2478 -22.2436 -22.1954 -22.1880 -22.1452 -22.1437
   -22.0965 -22.0944 -22.0668 -22.0651 -21.8330 -21.8063 -21.7638 -21.7228
   -21.6761 -21.6697 -21.6689 -21.6653 -21.6589 -21.6256 -21.5785 -21.5497
    -2.3169  -1.6386  -1.4685  -1.0324  -0.8939  -0.4256  -0.3988   0.0289
     0.0977   0.2389   0.4450   0.5836   0.7149   0.7167   0.7732   0.8700
     0.9615   0.9684   1.0197   1.1437   1.1536   1.2204   1.2774   1.3130
     1.3965   1.4038   1.4533   1.5575

          k = 0.0466-0.0807 0.0000 ( 29103 PWs)   bands (ev):

   -42.3123 -42.3122 -42.3121 -42.3109 -42.3108 -42.3107 -42.2907 -42.2894
   -41.7566 -41.7565 -41.7563 -41.7352 -22.3346 -22.3346 -22.3346 -22.3289
   -22.3160 -22.3160 -22.3159 -22.3141 -22.3131 -22.3111 -22.2850 -22.2839
   -22.2704 -22.2704 -22.2704 -22.2628 -22.2628 -22.2628 -22.1040 -22.1040
   -22.1040 -22.1028 -22.1028 -22.1027 -21.7869 -21.7868 -21.7405 -21.7405
   -21.7404 -21.6702 -21.6702 -21.6701 -21.6579 -21.5861 -21.5860 -21.5860
    -1.7187  -1.7187  -1.7187  -0.9253  -0.9253  -0.9253   0.0831   0.0831
     0.0831   0.4443   0.5115   0.5131   0.8045   0.8045   0.8046   0.9358
     0.9366   1.0411   1.0411   1.0411   1.2094   1.2094   1.2094   1.2887
     1.4043   1.4044   1.4044   1.5327

          k = 0.0466-0.0538 0.0000 ( 29098 PWs)   bands (ev):

   -42.3215 -42.3200 -42.3108 -42.3094 -42.3029 -42.3016 -42.2921 -42.2908
   -41.7657 -41.7550 -41.7473 -41.7366 -22.3739 -22.3617 -22.3554 -22.3494
   -22.3344 -22.3331 -22.3248 -22.3149 -22.3099 -22.3021 -22.2952 -22.2919
   -22.2870 -22.2839 -22.2478 -22.2436 -22.1954 -22.1880 -22.1452 -22.1437
   -22.0965 -22.0944 -22.0668 -22.0652 -21.8330 -21.8063 -21.7638 -21.7228
   -21.6761 -21.6697 -21.6689 -21.6653 -21.6589 -21.6256 -21.5785 -21.5497
    -2.3169  -1.6386  -1.4685  -1.0324  -0.8939  -0.4256  -0.3988   0.0289
     0.0977   0.2389   0.4450   0.5836   0.7149   0.7167   0.7732   0.8700
     0.9615   0.9684   1.0197   1.1437   1.1536   1.2204   1.2774   1.3130
     1.3965   1.4038   1.4533   1.5575

          k =-0.0699 0.0404 0.0000 ( 29048 PWs)   bands (ev):

   -42.3176 -42.3175 -42.3162 -42.3161 -42.2961 -42.2961 -42.2948 -42.2947
   -41.7618 -41.7617 -41.7406 -41.7404 -22.3710 -22.3709 -22.3577 -22.3576
   -22.3469 -22.3469 -22.3209 -22.3209 -22.2998 -22.2997 -22.2920 -22.2919
   -22.2392 -22.2392 -22.2314 -22.2313 -22.2039 -22.2038 -22.2008 -22.2007
   -22.0708 -22.0707 -22.0682 -22.0681 -21.8289 -21.8288 -21.7110 -21.7109
   -21.6820 -21.6819 -21.6737 -21.6737 -21.6606 -21.6605 -21.5533 -21.5532
    -2.0845  -2.0845  -1.2721  -1.2721  -0.3858  -0.3858  -0.2753  -0.2753
     0.0365   0.0365   0.7101   0.7101   0.7662   0.7662   0.8243   0.8243
     0.9259   0.9259   1.0779   1.0779   1.1134   1.1134   1.1781   1.1781
     1.3937   1.3937   1.5192   1.5192

          k =-0.0699 0.0673 0.0000 ( 29098 PWs)   bands (ev):

   -42.3215 -42.3200 -42.3108 -42.3094 -42.3029 -42.3016 -42.2921 -42.2908
   -41.7657 -41.7550 -41.7473 -41.7366 -22.3739 -22.3617 -22.3554 -22.3494
   -22.3344 -22.3331 -22.3248 -22.3149 -22.3099 -22.3021 -22.2952 -22.2919
   -22.2870 -22.2839 -22.2478 -22.2436 -22.1954 -22.1880 -22.1452 -22.1437
   -22.0965 -22.0944 -22.0668 -22.0652 -21.8330 -21.8063 -21.7638 -21.7228
   -21.6761 -21.6697 -21.6689 -21.6653 -21.6589 -21.6256 -21.5785 -21.5497
    -2.3169  -1.6386  -1.4685  -1.0324  -0.8939  -0.4256  -0.3988   0.0289
     0.0977   0.2389   0.4450   0.5836   0.7149   0.7167   0.7732   0.8700
     0.9615   0.9684   1.0197   1.1437   1.1536   1.2204   1.2775   1.3130
     1.3965   1.4038   1.4533   1.5576

          k =-0.0699 0.0942 0.0000 ( 29098 PWs)   bands (ev):

   -42.3215 -42.3200 -42.3108 -42.3094 -42.3029 -42.3016 -42.2921 -42.2908
   -41.7657 -41.7550 -41.7473 -41.7366 -22.3738 -22.3617 -22.3554 -22.3494
   -22.3344 -22.3331 -22.3248 -22.3149 -22.3099 -22.3021 -22.2952 -22.2920
   -22.2871 -22.2839 -22.2478 -22.2436 -22.1954 -22.1880 -22.1452 -22.1437
   -22.0965 -22.0944 -22.0668 -22.0652 -21.8330 -21.8063 -21.7638 -21.7228
   -21.6761 -21.6697 -21.6689 -21.6653 -21.6589 -21.6256 -21.5785 -21.5497
    -2.3169  -1.6386  -1.4685  -1.0324  -0.8939  -0.4256  -0.3988   0.0289
     0.0977   0.2389   0.4450   0.5836   0.7149   0.7167   0.7732   0.8700
     0.9615   0.9684   1.0197   1.1437   1.1536   1.2204   1.2775   1.3130
     1.3965   1.4038   1.4533   1.5575

          k =-0.0699-0.0404 0.0000 ( 29048 PWs)   bands (ev):

   -42.3176 -42.3175 -42.3162 -42.3161 -42.2961 -42.2960 -42.2948 -42.2947
   -41.7618 -41.7617 -41.7406 -41.7404 -22.3710 -22.3709 -22.3577 -22.3576
   -22.3469 -22.3469 -22.3209 -22.3209 -22.2998 -22.2997 -22.2920 -22.2919
   -22.2392 -22.2392 -22.2314 -22.2314 -22.2039 -22.2038 -22.2008 -22.2007
   -22.0708 -22.0707 -22.0682 -22.0681 -21.8289 -21.8288 -21.7110 -21.7109
   -21.6821 -21.6820 -21.6737 -21.6737 -21.6606 -21.6605 -21.5533 -21.5532
    -2.0845  -2.0845  -1.2721  -1.2720  -0.3858  -0.3858  -0.2753  -0.2753
     0.0365   0.0365   0.7101   0.7101   0.7662   0.7663   0.8243   0.8243
     0.9259   0.9259   1.0779   1.0779   1.1134   1.1134   1.1781   1.1781
     1.3937   1.3937   1.5192   1.5192

     the Fermi energy is     1.0050 ev

!    total energy              =   -1124.22394866 Ry
     Harris-Foulkes estimate   =   -1124.22395068 Ry
     estimated scf accuracy    <       0.00000432 Ry

     The total energy is the sum of the following terms:

     one-electron contribution =   -5367.19578982 Ry
     hartree contribution      =    2675.53032259 Ry
     xc contribution           =    -338.76885773 Ry
     ewald contribution        =    1906.34373821 Ry
     electric field correction =       0.00000019 Ry
     smearing contrib. (-TS)   =      -0.13336211 Ry

     convergence has been achieved in   6 iterations
 
 BEEF-vdW xc energy contributions
           1 :   -295.230035597252     
           2 :    265.228431267422     
           3 :   -213.479590095600     
           4 :    152.628445579778     
           5 :   -94.5435543868869     
           6 :    46.7337545030072     
           7 :   -11.7521455373756     
           8 :   -11.0738812283182     
           9 :    23.3858335104248     
          10 :   -26.5477931539839     
          11 :    21.7922276670140     
          12 :   -11.0770056848257     
          13 :   -2.39584576683274     
          14 :    14.6361673780948     
          15 :   -22.1412138002224     
          16 :    23.1968103299376     
          17 :   -18.3741753371565     
          18 :    9.94710379487265     
          19 :  -0.676848562667772     
          20 :   -7.25984381531919     
          21 :    12.6817295065068     
          22 :   -15.2039254078023     
          23 :    14.8627908154340     
          24 :   -11.9534624200755     
          25 :    7.12666402970729     
          26 :   -1.49612055581679     
          27 :   -3.51843381429262     
          28 :    6.64977625653171     
          29 :   -7.29998747283213     
          30 :    5.77471802496132     
          31 :   -28.1852407016250     
          32 :   -19.2827567990445     

     Forces acting on atoms (Ry/au):


     negative rho (up, down):  1.382E-05 0.000E+00
     atom    1 type  1   force =    -0.00000349    0.00000226    0.00573387
     atom    2 type  1   force =    -0.00000719   -0.00000133    0.00571987
     atom    3 type  1   force =     0.00000092   -0.00000219    0.00572141
     atom    4 type  1   force =    -0.00000821    0.00000439    0.00573122
     atom    5 type  1   force =    -0.00000618   -0.00001003   -0.00016734
     atom    6 type  1   force =     0.00000514   -0.00001322   -0.00017232
     atom    7 type  1   force =    -0.00000826    0.00001524   -0.00016608
     atom    8 type  1   force =     0.00000866    0.00000961   -0.00014295
     atom    9 type  1   force =     0.00001598    0.00001458   -0.00556955
     atom   10 type  1   force =    -0.00000719   -0.00000522   -0.00555763
     atom   11 type  1   force =    -0.00000734   -0.00001754   -0.00556692
     atom   12 type  1   force =     0.00001717    0.00000345   -0.00556356

     Total force =     0.011129     Total SCF correction =     0.007591
     SCF correction compared to forces is large: reduce conv_thr to get better values


     entering subroutine stress ...


     negative rho (up, down):  1.382E-05 0.000E+00
          total   stress  (Ry/bohr**3)                   (kbar)     P=   -3.47
  -0.00002068  -0.00000001   0.00000001         -3.04     -0.00      0.00
  -0.00000001  -0.00002068   0.00000000         -0.00     -3.04      0.00
   0.00000001   0.00000000  -0.00002949          0.00      0.00     -4.34


     number of scf cycles    =   2
     number of bfgs steps    =   1

     energy   old            =   -1124.2238649798 Ry
     energy   new            =   -1124.2239486588 Ry

     CASE: energy  _new < energy  _old


     WARNING: bfgs curvature condition failed, Theta= 0.645
     uphill step: resetting bfgs history

     new trust radius        =       0.0055695966 bohr
     new conv_thr            =       0.0000001000 Ry


ATOMIC_POSITIONS (crystal)
Y1       0.166666667   0.166666667   0.386999750    0   0   0
Y1       0.666666667   0.166666667   0.386999750    0   0   0
Y1       0.166666667   0.666666667   0.386999750    0   0   0
Y1       0.666666667   0.666666667   0.386999750    0   0   0
Y1       0.833333333   0.333333333   0.500000000    0   0   0
Y1       0.333333333   0.333333333   0.500000000    0   0   0
Y1       0.833333333   0.833333333   0.500000000    0   0   0
Y1       0.333333333   0.833333333   0.500000000    0   0   0
Y1       0.000002244  -0.000006052   0.612794347
Y1       0.500002202  -0.000001672   0.612794493
Y1       0.000001741   0.500004664   0.612794389
Y1       0.499996879   0.500002230   0.612794517



     Writing output data file calc.save
     Check: negative starting charge=   -0.000607
     NEW-OLD atomic charge density approx. for the potential
     Check: negative starting charge=   -0.000607

     negative rho (up, down):  1.226E-05 0.000E+00
 
     Adding external electric field

     Computed dipole along edir(3) : 
        Dipole                0.0107 Ry au,          0.0272 Debye
        Dipole field          0.0000 Ry au
 
        Potential amp.       -0.0017 Ry
        Total length         47.6094 bohr
 

     total cpu time spent up to now is     1067.4 secs

     per-process dynamical memory:   101.6 Mb

     Self-consistent Calculation

     iteration #  1     ecut=    36.75 Ry     beta=0.30
     Davidson diagonalization with overlap
     ethr =  1.00E-06,  avg # of iterations =  5.5

     negative rho (up, down):  1.211E-05 0.000E+00
 
     Adding external electric field

     Computed dipole along edir(3) : 
        Dipole               -0.3043 Ry au,         -0.7735 Debye
        Dipole field         -0.0005 Ry au
 
        Potential amp.        0.0471 Ry
        Total length         47.6094 bohr
 

     total cpu time spent up to now is     1103.0 secs

     total energy              =   -1124.22089256 Ry
     Harris-Foulkes estimate   =   -1124.22399824 Ry
     estimated scf accuracy    <       0.00649251 Ry

     iteration #  2     ecut=    36.75 Ry     beta=0.30
     Davidson diagonalization with overlap
     ethr =  4.92E-06,  avg # of iterations =  8.7

     negative rho (up, down):  1.282E-05 0.000E+00
 
     Adding external electric field

     Computed dipole along edir(3) : 
        Dipole                0.0035 Ry au,          0.0089 Debye
        Dipole field          0.0000 Ry au
 
        Potential amp.       -0.0005 Ry
        Total length         47.6094 bohr
 

     total cpu time spent up to now is     1140.8 secs

     total energy              =   -1124.18417958 Ry
     Harris-Foulkes estimate   =   -1124.27232771 Ry
     estimated scf accuracy    <       4.68944739 Ry

     iteration #  3     ecut=    36.75 Ry     beta=0.30
     Davidson diagonalization with overlap
     ethr =  4.92E-06,  avg # of iterations =  8.3

     negative rho (up, down):  1.330E-05 0.000E+00
 
     Adding external electric field

     Computed dipole along edir(3) : 
        Dipole                0.0015 Ry au,          0.0039 Debye
        Dipole field          0.0000 Ry au
 
        Potential amp.       -0.0002 Ry
        Total length         47.6094 bohr
 

     total cpu time spent up to now is     1178.4 secs

     total energy              =   -1124.22331447 Ry
     Harris-Foulkes estimate   =   -1124.23116162 Ry
     estimated scf accuracy    <       0.01665464 Ry

     iteration #  4     ecut=    36.75 Ry     beta=0.30
     Davidson diagonalization with overlap
     ethr =  4.92E-06,  avg # of iterations =  4.8

     negative rho (up, down):  1.359E-05 0.000E+00
 
     Adding external electric field

     Computed dipole along edir(3) : 
        Dipole                0.0010 Ry au,          0.0025 Debye
        Dipole field          0.0000 Ry au
 
        Potential amp.       -0.0002 Ry
        Total length         47.6094 bohr
 

     total cpu time spent up to now is     1208.6 secs

     total energy              =   -1124.23346917 Ry
     Harris-Foulkes estimate   =   -1124.22398309 Ry
     estimated scf accuracy    <       0.00019332 Ry

     iteration #  5     ecut=    36.75 Ry     beta=0.30
     Davidson diagonalization with overlap
     ethr =  1.46E-07,  avg # of iterations =  8.7

     negative rho (up, down):  1.368E-05 0.000E+00
 
     Adding external electric field

     Computed dipole along edir(3) : 
        Dipole                0.0006 Ry au,          0.0016 Debye
        Dipole field          0.0000 Ry au
 
        Potential amp.       -0.0001 Ry
        Total length         47.6094 bohr
 

     total cpu time spent up to now is     1247.4 secs

     total energy              =   -1124.22405596 Ry
     Harris-Foulkes estimate   =   -1124.23355123 Ry
     estimated scf accuracy    <       0.00001743 Ry

     iteration #  6     ecut=    36.75 Ry     beta=0.30
     Davidson diagonalization with overlap
     ethr =  1.32E-08,  avg # of iterations =  5.2

     negative rho (up, down):  1.357E-05 0.000E+00
 
     Adding external electric field

     Computed dipole along edir(3) : 
        Dipole                0.0007 Ry au,          0.0019 Debye
        Dipole field          0.0000 Ry au
 
        Potential amp.       -0.0001 Ry
        Total length         47.6094 bohr
 

     total cpu time spent up to now is     1278.4 secs

     total energy              =   -1124.22405612 Ry
     Harris-Foulkes estimate   =   -1124.22405705 Ry
     estimated scf accuracy    <       0.00001883 Ry

     iteration #  7     ecut=    36.75 Ry     beta=0.30
     Davidson diagonalization with overlap
     ethr =  1.32E-08,  avg # of iterations =  1.0

     negative rho (up, down):  1.360E-05 0.000E+00
 
     Adding external electric field

     Computed dipole along edir(3) : 
        Dipole                0.0005 Ry au,          0.0014 Debye
        Dipole field          0.0000 Ry au
 
        Potential amp.       -0.0001 Ry
        Total length         47.6094 bohr
 

     total cpu time spent up to now is     1306.8 secs

     total energy              =   -1124.22405781 Ry
     Harris-Foulkes estimate   =   -1124.22405638 Ry
     estimated scf accuracy    <       0.00000988 Ry

     iteration #  8     ecut=    36.75 Ry     beta=0.30
     Davidson diagonalization with overlap
     ethr =  7.49E-09,  avg # of iterations =  1.1

     negative rho (up, down):  1.361E-05 0.000E+00
 
     Adding external electric field

     Computed dipole along edir(3) : 
        Dipole                0.0005 Ry au,          0.0012 Debye
        Dipole field          0.0000 Ry au
 
        Potential amp.       -0.0001 Ry
        Total length         47.6094 bohr
 

     total cpu time spent up to now is     1335.4 secs

     total energy              =   -1124.23038737 Ry
     Harris-Foulkes estimate   =   -1124.22405797 Ry
     estimated scf accuracy    <       0.00000478 Ry

     iteration #  9     ecut=    36.75 Ry     beta=0.30
     Davidson diagonalization with overlap
     ethr =  3.62E-09,  avg # of iterations =  6.9

     negative rho (up, down):  1.367E-05 0.000E+00
 
     Adding external electric field

     Computed dipole along edir(3) : 
        Dipole                0.0005 Ry au,          0.0012 Debye
        Dipole field          0.0000 Ry au
 
        Potential amp.       -0.0001 Ry
        Total length         47.6094 bohr
 

     total cpu time spent up to now is     1368.7 secs

     total energy              =   -1124.23038779 Ry
     Harris-Foulkes estimate   =   -1124.23038778 Ry
     estimated scf accuracy    <       0.00000021 Ry

     iteration # 10     ecut=    36.75 Ry     beta=0.30
     Davidson diagonalization with overlap
     ethr =  1.62E-10,  avg # of iterations =  8.0

     negative rho (up, down):  1.381E-05 0.000E+00

     negative rho (up, down):  1.381E-05 0.000E+00

     negative rho (up, down):  1.381E-05 0.000E+00

     negative rho (up, down):  1.381E-05 0.000E+00

     negative rho (up, down):  1.381E-05 0.000E+00

     negative rho (up, down):  1.381E-05 0.000E+00

     negative rho (up, down):  1.381E-05 0.000E+00

     negative rho (up, down):  1.381E-05 0.000E+00

     negative rho (up, down):  1.381E-05 0.000E+00

     negative rho (up, down):  1.381E-05 0.000E+00

     negative rho (up, down):  1.381E-05 0.000E+00

     negative rho (up, down):  1.381E-05 0.000E+00

     negative rho (up, down):  1.381E-05 0.000E+00

     negative rho (up, down):  1.381E-05 0.000E+00

     negative rho (up, down):  1.381E-05 0.000E+00

     negative rho (up, down):  1.381E-05 0.000E+00

     negative rho (up, down):  1.381E-05 0.000E+00

     negative rho (up, down):  1.381E-05 0.000E+00

     negative rho (up, down):  1.381E-05 0.000E+00

     negative rho (up, down):  1.381E-05 0.000E+00

     negative rho (up, down):  1.381E-05 0.000E+00

     negative rho (up, down):  1.381E-05 0.000E+00

     negative rho (up, down):  1.381E-05 0.000E+00

     negative rho (up, down):  1.381E-05 0.000E+00

     negative rho (up, down):  1.381E-05 0.000E+00

     negative rho (up, down):  1.381E-05 0.000E+00

     negative rho (up, down):  1.381E-05 0.000E+00

     negative rho (up, down):  1.381E-05 0.000E+00

     negative rho (up, down):  1.381E-05 0.000E+00

     negative rho (up, down):  1.381E-05 0.000E+00

     negative rho (up, down):  1.381E-05 0.000E+00

     negative rho (up, down):  1.381E-05 0.000E+00

     negative rho (up, down):  1.381E-05 0.000E+00

     negative rho (up, down):  1.381E-05 0.000E+00

     negative rho (up, down):  1.381E-05 0.000E+00
 
     Adding external electric field

     Computed dipole along edir(3) : 
        Dipole                0.0009 Ry au,          0.0024 Debye
        Dipole field          0.0000 Ry au
 
        Potential amp.       -0.0001 Ry
        Total length         47.6094 bohr
 

     total cpu time spent up to now is     1488.2 secs

     End of self-consistent calculation

          k = 0.0000 0.0000 0.0000 ( 28997 PWs)   bands (ev):

   -42.3389 -42.3351 -42.2961 -42.2961 -42.2960 -42.2923 -42.2923 -42.2923
   -41.7788 -41.7367 -41.7364 -41.7362 -22.4492 -22.4492 -22.4492 -22.4336
   -22.4336 -22.4336 -22.3965 -22.3421 -22.3141 -22.3140 -22.3140 -22.2805
   -22.2805 -22.2805 -22.1199 -22.1199 -22.1198 -22.1152 -22.1151 -22.1151
   -22.0202 -22.0202 -22.0167 -22.0167 -21.8958 -21.8958 -21.8958 -21.6878
   -21.6604 -21.6604 -21.6603 -21.5980 -21.5980 -21.5979 -21.5006 -21.5006
    -3.2891  -2.4035  -1.3426  -0.6147  -0.6147  -0.6147  -0.4876  -0.4876
    -0.4876  -0.2207  -0.2207  -0.2207   0.3233   0.3233   0.3233   0.7320
     0.7320   0.7320   1.1526   1.2501   1.6057   1.6422   1.6422   1.6422
     1.7608   1.7608   1.7608   2.3527

          k = 0.0000 0.0269 0.0000 ( 29019 PWs)   bands (ev):

[...]
     1.4899   1.5659   1.6169   1.7987

          k = 0.0233-0.0942 0.0000 ( 29098 PWs)   bands (ev):

   -42.3291 -42.3184 -42.3106 -42.2999 -42.2905 -42.2798 -42.2719 -42.2611
   -41.7339 -41.7233 -41.7155 -41.7048 -22.3763 -22.3553 -22.3506 -22.3419
   -22.3353 -22.3188 -22.3115 -22.3107 -22.3061 -22.2987 -22.2903 -22.2824
   -22.2672 -22.2645 -22.2510 -22.2203 -22.1992 -22.1654 -22.1517 -22.1182
   -22.1030 -22.0735 -22.0687 -22.0390 -21.8025 -21.7759 -21.7335 -21.6927
   -21.6477 -21.6415 -21.6385 -21.6374 -21.6315 -21.5957 -21.5486 -21.5198
    -2.3200  -1.6416  -1.4643  -1.0360  -0.8916  -0.4171  -0.3983   0.0323
     0.0870   0.2279   0.4435   0.5740   0.7141   0.7188   0.7667   0.8606
     0.9600   0.9742   1.0185   1.1370   1.1515   1.2225   1.2753   1.3075
     1.3915   1.4045   1.4541   1.5607

          k = 0.0233-0.0673 0.0000 ( 29098 PWs)   bands (ev):

   -42.3291 -42.3184 -42.3106 -42.2999 -42.2905 -42.2798 -42.2719 -42.2611
   -41.7339 -41.7233 -41.7155 -41.7048 -22.3763 -22.3553 -22.3506 -22.3419
   -22.3353 -22.3188 -22.3115 -22.3107 -22.3061 -22.2987 -22.2904 -22.2824
   -22.2672 -22.2645 -22.2510 -22.2203 -22.1992 -22.1654 -22.1517 -22.1182
   -22.1030 -22.0735 -22.0687 -22.0390 -21.8025 -21.7759 -21.7335 -21.6927
   -21.6477 -21.6415 -21.6385 -21.6374 -21.6315 -21.5957 -21.5486 -21.5198
    -2.3200  -1.6416  -1.4643  -1.0360  -0.8916  -0.4171  -0.3983   0.0323
     0.0870   0.2279   0.4435   0.5740   0.7141   0.7188   0.7667   0.8606
     0.9600   0.9742   1.0185   1.1370   1.1515   1.2225   1.2753   1.3075
     1.3915   1.4045   1.4541   1.5607

          k = 0.0233-0.0404 0.0000 ( 29087 PWs)   bands (ev):

   -42.3384 -42.3092 -42.3092 -42.3013 -42.2998 -42.2704 -42.2704 -42.2625
   -41.7431 -41.7141 -41.7141 -41.7063 -22.4163 -22.3884 -22.3884 -22.3813
   -22.3764 -22.3530 -22.3530 -22.3221 -22.3161 -22.3161 -22.3049 -22.2793
   -22.2793 -22.2657 -22.1943 -22.1611 -22.1283 -22.1283 -22.1102 -22.0942
   -22.0942 -22.0761 -22.0480 -22.0132 -21.8379 -21.8118 -21.8118 -21.6541
   -21.6376 -21.6376 -21.6369 -21.6333 -21.5734 -21.5734 -21.5539 -21.4948
    -2.8540  -1.9689  -0.9884  -0.9884  -0.9014  -0.5189  -0.5189  -0.1987
    -0.1295   0.0923   0.0923   0.2248   0.5232   0.5232   0.5716   0.8312
     0.8312   0.8590   1.1777   1.2019   1.3382   1.3382   1.4702   1.4702
     1.4899   1.5659   1.6169   1.7987

          k = 0.0466-0.0269 0.0000 ( 29058 PWs)   bands (ev):

   -42.3359 -42.3145 -42.3038 -42.3038 -42.2973 -42.2758 -42.2650 -42.2650
   -41.7406 -41.7194 -41.7087 -41.7087 -22.3986 -22.3986 -22.3707 -22.3635
   -22.3635 -22.3532 -22.3263 -22.3193 -22.3124 -22.3073 -22.3073 -22.2869
   -22.2709 -22.2709 -22.1828 -22.1828 -22.1495 -22.1495 -22.1369 -22.1029
   -22.1017 -22.0672 -22.0522 -22.0174 -21.8216 -21.8216 -21.7776 -21.6521
   -21.6402 -21.6349 -21.6349 -21.6253 -21.6253 -21.5795 -21.5476 -21.4990
    -2.7162  -1.8379  -1.3969  -0.7753  -0.7706  -0.4553  -0.4553  -0.1608
    -0.1608  -0.0095   0.3429   0.3429   0.5674   0.6220   0.6220   0.8547
     0.8547   0.8870   1.1158   1.1953   1.3297   1.3297   1.3391   1.4292
     1.4292   1.4707   1.4707   1.7972

          k = 0.0466 0.0000 0.0000 ( 29087 PWs)   bands (ev):

   -42.3384 -42.3092 -42.3092 -42.3013 -42.2998 -42.2704 -42.2704 -42.2625
   -41.7431 -41.7141 -41.7140 -41.7063 -22.4163 -22.3884 -22.3884 -22.3813
   -22.3764 -22.3530 -22.3530 -22.3221 -22.3161 -22.3161 -22.3049 -22.2794
   -22.2793 -22.2657 -22.1943 -22.1611 -22.1283 -22.1283 -22.1102 -22.0942
   -22.0942 -22.0761 -22.0480 -22.0132 -21.8379 -21.8118 -21.8118 -21.6541
   -21.6377 -21.6376 -21.6369 -21.6333 -21.5734 -21.5734 -21.5539 -21.4948
    -2.8540  -1.9689  -0.9884  -0.9884  -0.9014  -0.5189  -0.5189  -0.1987
    -0.1295   0.0923   0.0923   0.2248   0.5232   0.5232   0.5716   0.8312
     0.8312   0.8590   1.1777   1.2019   1.3382   1.3382   1.4701   1.4702
     1.4899   1.5659   1.6169   1.7987

          k = 0.0466 0.0269 0.0000 ( 29058 PWs)   bands (ev):

   -42.3359 -42.3145 -42.3038 -42.3038 -42.2973 -42.2758 -42.2650 -42.2650
   -41.7406 -41.7194 -41.7087 -41.7087 -22.3986 -22.3986 -22.3707 -22.3635
   -22.3635 -22.3532 -22.3263 -22.3193 -22.3124 -22.3073 -22.3073 -22.2869
   -22.2709 -22.2709 -22.1828 -22.1828 -22.1495 -22.1495 -22.1369 -22.1029
   -22.1017 -22.0672 -22.0522 -22.0174 -21.8216 -21.8216 -21.7776 -21.6521
   -21.6402 -21.6349 -21.6349 -21.6253 -21.6253 -21.5795 -21.5476 -21.4990
    -2.7162  -1.8379  -1.3969  -0.7753  -0.7706  -0.4553  -0.4553  -0.1608
    -0.1608  -0.0095   0.3429   0.3429   0.5674   0.6220   0.6220   0.8547
     0.8547   0.8870   1.1158   1.1953   1.3297   1.3297   1.3391   1.4292
     1.4292   1.4707   1.4707   1.7972

          k = 0.0466-0.1076 0.0000 ( 29098 PWs)   bands (ev):

   -42.3291 -42.3184 -42.3106 -42.2999 -42.2905 -42.2798 -42.2719 -42.2611
   -41.7339 -41.7233 -41.7155 -41.7048 -22.3763 -22.3553 -22.3506 -22.3419
   -22.3353 -22.3188 -22.3115 -22.3107 -22.3061 -22.2987 -22.2904 -22.2824
   -22.2672 -22.2645 -22.2510 -22.2203 -22.1993 -22.1654 -22.1517 -22.1182
   -22.1030 -22.0735 -22.0687 -22.0390 -21.8025 -21.7759 -21.7335 -21.6927
   -21.6477 -21.6415 -21.6385 -21.6374 -21.6315 -21.5957 -21.5486 -21.5198
    -2.3200  -1.6416  -1.4643  -1.0360  -0.8916  -0.4171  -0.3983   0.0323
     0.0870   0.2279   0.4435   0.5740   0.7141   0.7188   0.7667   0.8606
     0.9600   0.9742   1.0185   1.1370   1.1515   1.2225   1.2753   1.3075
     1.3915   1.4045   1.4541   1.5606

          k = 0.0466-0.0807 0.0000 ( 29103 PWs)   bands (ev):

   -42.3199 -42.3199 -42.3199 -42.2984 -42.2812 -42.2812 -42.2812 -42.2596
   -41.7247 -41.7247 -41.7247 -41.7034 -22.3362 -22.3362 -22.3362 -22.3298
   -22.3203 -22.3016 -22.3016 -22.3016 -22.2979 -22.2930 -22.2827 -22.2731
   -22.2731 -22.2731 -22.2616 -22.2407 -22.2407 -22.2407 -22.1108 -22.1108
   -22.1108 -22.0768 -22.0768 -22.0768 -21.7579 -21.7552 -21.7103 -21.7103
   -21.7102 -21.6419 -21.6418 -21.6418 -21.6306 -21.5562 -21.5562 -21.5562
    -1.7216  -1.7216  -1.7216  -0.9217  -0.9217  -0.9217   0.0887   0.0887
     0.0887   0.4294   0.4834   0.5128   0.8079   0.8079   0.8079   0.9261
     0.9387   1.0305   1.0305   1.0305   1.2045   1.2045   1.2045   1.2920
     1.4076   1.4077   1.4077   1.5429

          k = 0.0466-0.0538 0.0000 ( 29098 PWs)   bands (ev):

   -42.3291 -42.3184 -42.3106 -42.2999 -42.2905 -42.2798 -42.2719 -42.2611
   -41.7339 -41.7233 -41.7155 -41.7048 -22.3763 -22.3553 -22.3506 -22.3419
   -22.3353 -22.3188 -22.3115 -22.3107 -22.3061 -22.2987 -22.2903 -22.2824
   -22.2672 -22.2645 -22.2510 -22.2203 -22.1992 -22.1654 -22.1517 -22.1182
   -22.1030 -22.0735 -22.0687 -22.0390 -21.8025 -21.7759 -21.7335 -21.6927
   -21.6477 -21.6415 -21.6385 -21.6374 -21.6315 -21.5957 -21.5486 -21.5199
    -2.3200  -1.6416  -1.4643  -1.0360  -0.8916  -0.4171  -0.3983   0.0323
     0.0870   0.2279   0.4435   0.5740   0.7141   0.7188   0.7667   0.8606
     0.9600   0.9742   1.0185   1.1370   1.1515   1.2225   1.2753   1.3075
     1.3915   1.4045   1.4541   1.5607

          k =-0.0699 0.0404 0.0000 ( 29048 PWs)   bands (ev):

   -42.3252 -42.3252 -42.3038 -42.3038 -42.2866 -42.2866 -42.2650 -42.2650
   -41.7300 -41.7300 -41.7087 -41.7087 -22.3730 -22.3730 -22.3473 -22.3473
   -22.3382 -22.3382 -22.3071 -22.3071 -22.3046 -22.3046 -22.2724 -22.2724
   -22.2425 -22.2425 -22.2093 -22.2093 -22.2092 -22.2092 -22.1765 -22.1765
   -22.0771 -22.0770 -22.0424 -22.0424 -21.7983 -21.7983 -21.6809 -21.6809
   -21.6522 -21.6522 -21.6451 -21.6451 -21.6329 -21.6329 -21.5234 -21.5234
    -2.0876  -2.0875  -1.2685  -1.2685  -0.3918  -0.3918  -0.2686  -0.2686
     0.0325   0.0325   0.7012   0.7012   0.7544   0.7544   0.8324   0.8324
     0.9220   0.9220   1.0711   1.0712   1.1135   1.1135   1.1844   1.1844
     1.3890   1.3890   1.5191   1.5191

          k =-0.0699 0.0673 0.0000 ( 29098 PWs)   bands (ev):

   -42.3291 -42.3184 -42.3106 -42.2999 -42.2905 -42.2798 -42.2719 -42.2611
   -41.7339 -41.7233 -41.7155 -41.7048 -22.3763 -22.3553 -22.3506 -22.3419
   -22.3353 -22.3188 -22.3115 -22.3107 -22.3061 -22.2987 -22.2903 -22.2824
   -22.2672 -22.2645 -22.2510 -22.2203 -22.1992 -22.1654 -22.1517 -22.1182
   -22.1030 -22.0735 -22.0687 -22.0390 -21.8025 -21.7759 -21.7335 -21.6927
   -21.6477 -21.6415 -21.6385 -21.6374 -21.6315 -21.5957 -21.5486 -21.5198
    -2.3200  -1.6416  -1.4643  -1.0360  -0.8916  -0.4171  -0.3983   0.0323
     0.0870   0.2279   0.4435   0.5740   0.7141   0.7188   0.7667   0.8606
     0.9600   0.9742   1.0185   1.1370   1.1515   1.2225   1.2753   1.3075
     1.3915   1.4045   1.4541   1.5607

          k =-0.0699 0.0942 0.0000 ( 29098 PWs)   bands (ev):

   -42.3291 -42.3184 -42.3106 -42.2999 -42.2905 -42.2798 -42.2719 -42.2611
   -41.7339 -41.7233 -41.7155 -41.7048 -22.3763 -22.3553 -22.3506 -22.3419
   -22.3353 -22.3188 -22.3115 -22.3107 -22.3061 -22.2987 -22.2904 -22.2824
   -22.2672 -22.2645 -22.2510 -22.2203 -22.1992 -22.1654 -22.1517 -22.1182
   -22.1030 -22.0735 -22.0687 -22.0390 -21.8025 -21.7759 -21.7335 -21.6927
   -21.6477 -21.6415 -21.6385 -21.6374 -21.6315 -21.5957 -21.5486 -21.5198
    -2.3200  -1.6416  -1.4643  -1.0360  -0.8916  -0.4171  -0.3983   0.0323
     0.0870   0.2279   0.4435   0.5740   0.7141   0.7188   0.7667   0.8606
     0.9600   0.9742   1.0185   1.1370   1.1515   1.2225   1.2753   1.3075
     1.3915   1.4045   1.4541   1.5606

          k =-0.0699-0.0404 0.0000 ( 29048 PWs)   bands (ev):

   -42.3252 -42.3252 -42.3038 -42.3038 -42.2866 -42.2866 -42.2650 -42.2650
   -41.7300 -41.7300 -41.7087 -41.7087 -22.3730 -22.3730 -22.3473 -22.3473
   -22.3382 -22.3382 -22.3071 -22.3071 -22.3046 -22.3046 -22.2724 -22.2724
   -22.2425 -22.2425 -22.2093 -22.2093 -22.2092 -22.2092 -22.1765 -22.1765
   -22.0770 -22.0770 -22.0424 -22.0424 -21.7983 -21.7983 -21.6809 -21.6809
   -21.6522 -21.6522 -21.6451 -21.6451 -21.6329 -21.6329 -21.5234 -21.5234
    -2.0876  -2.0875  -1.2685  -1.2685  -0.3918  -0.3918  -0.2686  -0.2686
     0.0325   0.0325   0.7012   0.7012   0.7544   0.7544   0.8324   0.8324
     0.9220   0.9220   1.0711   1.0712   1.1135   1.1135   1.1844   1.1844
     1.3890   1.3890   1.5191   1.5191

     the Fermi energy is     1.0039 ev

!    total energy              =   -1124.23775404 Ry
     Harris-Foulkes estimate   =   -1124.23775415 Ry
     estimated scf accuracy    <       0.00000009 Ry

     The total energy is the sum of the following terms:

     one-electron contribution =   -5402.16145080 Ry
     hartree contribution      =    2693.04213369 Ry
     xc contribution           =    -338.82455811 Ry
     ewald contribution        =    1923.83896596 Ry
     electric field correction =       0.00000002 Ry
     smearing contrib. (-TS)   =      -0.13284480 Ry

     convergence has been achieved in  12 iterations
 
 BEEF-vdW xc energy contributions
           1 :   -295.649878810214     
           2 :    265.661940646423     
           3 :   -213.921584862522     
           4 :    153.055813318910     
           5 :   -94.9351252331253     
           6 :    47.0896202436359     
           7 :   -12.0950136523991     
           8 :   -10.7155899998696     
           9 :    22.9988837788640     
          10 :   -26.1432560632967     
          11 :    21.3964527053091     
          12 :   -10.7110330483918     
          13 :   -2.73373297209815     
          14 :    14.9707383433361     
          15 :   -22.5008844796111     
          16 :    23.5897112122289     
          17 :   -18.7808692746558     
          18 :    10.3371361042912     
          19 :   -1.03484645218742     
          20 :   -6.92139455805903     
          21 :    12.3335383673243     
          22 :   -14.8244430775845     
          23 :    14.4551821500979     
          24 :   -11.5422172288357     
          25 :    6.73762389254972     
          26 :   -1.13663764708775     
          27 :   -3.86302557904861     
          28 :    7.00085884892229     
          29 :   -7.66422173123209     
          30 :    6.13471424203709     
          31 :   -28.2109174649894     
          32 :   -19.3104762276589     

     Forces acting on atoms (Ry/au):


     negative rho (up, down):  1.435E-05 0.000E+00
     atom    1 type  1   force =    -0.00000126    0.00000047    0.00438848
     atom    2 type  1   force =    -0.00000252    0.00000060    0.00438974
     atom    3 type  1   force =    -0.00000147   -0.00000052    0.00439055
     atom    4 type  1   force =    -0.00000225   -0.00000007    0.00439157
     atom    5 type  1   force =     0.00000124    0.00000023   -0.00278017
     atom    6 type  1   force =    -0.00000024    0.00000029   -0.00278071
     atom    7 type  1   force =     0.00000142   -0.00000047   -0.00277728
     atom    8 type  1   force =     0.00000131    0.00000037   -0.00278014
     atom    9 type  1   force =    -0.00000172   -0.00000489   -0.00161038
     atom   10 type  1   force =     0.00000358   -0.00000077   -0.00161056
     atom   11 type  1   force =     0.00000313    0.00000398   -0.00160982
     atom   12 type  1   force =    -0.00000123    0.00000077   -0.00161128

     Total force =     0.003221     Total SCF correction =     0.000546
     SCF correction compared to forces is large: reduce conv_thr to get better values


     entering subroutine stress ...


     negative rho (up, down):  1.435E-05 0.000E+00
          total   stress  (Ry/bohr**3)                   (kbar)     P=   -2.66
  -0.00001745  -0.00000002   0.00000001         -2.57     -0.00      0.00
  -0.00000002  -0.00001745   0.00000000         -0.00     -2.57      0.00
   0.00000001   0.00000000  -0.00001926          0.00      0.00     -2.83


     bfgs converged in   8 scf cycles and   7 bfgs steps
     (criteria: energy <  1.0E+00, force <  1.9E-03)

     End of BFGS Geometry Optimization

     Final energy   =   -1124.2377540360 Ry
Begin final coordinates

ATOMIC_POSITIONS (crystal)
Y1       0.166666667   0.166666667   0.386999750    0   0   0
Y1       0.666666667   0.166666667   0.386999750    0   0   0
Y1       0.166666667   0.666666667   0.386999750    0   0   0
Y1       0.666666667   0.666666667   0.386999750    0   0   0
Y1       0.833333333   0.333333333   0.500000000    0   0   0
Y1       0.333333333   0.333333333   0.500000000    0   0   0
Y1       0.833333333   0.833333333   0.500000000    0   0   0
Y1       0.333333333   0.833333333   0.500000000    0   0   0
Y1       0.000004336   0.000004448   0.611140132
Y1       0.499998503   0.000002888   0.611140251
Y1       0.000005004   0.499993929   0.611140348
Y1       0.500004382   0.499998272   0.611139927
End final coordinates



     Writing output data file calc.save
 
     init_run     :     17.62s CPU     18.14s WALL (       1 calls)
     electrons    :   3196.54s CPU   3412.19s WALL (       8 calls)
     update_pot   :     26.09s CPU     27.43s WALL (       7 calls)
     forces       :    176.03s CPU    185.97s WALL (       8 calls)
     stress       :    531.53s CPU    562.67s WALL (       8 calls)

     Called by init_run:
     wfcinit      :      7.77s CPU      7.93s WALL (       1 calls)
     potinit      :      2.77s CPU      3.00s WALL (       1 calls)

     Called by electrons:
     c_bands      :   1156.00s CPU   1235.77s WALL (      84 calls)
     sum_band     :    609.69s CPU    651.91s WALL (      84 calls)
     v_of_rho     :    231.14s CPU    248.95s WALL (      91 calls)
     newd         :    547.78s CPU    551.51s WALL (      91 calls)
     mix_rho      :      8.24s CPU      8.37s WALL (      84 calls)
     vdW_energy   :    138.08s CPU    153.14s WALL (     379 calls)
     vdW_ffts     :    358.89s CPU    370.34s WALL (     774 calls)
     vdW_v        :    133.07s CPU    136.68s WALL (     379 calls)

     Called by c_bands:
     init_us_2    :      7.52s CPU      7.59s WALL (     925 calls)
     cegterg      :    999.03s CPU   1020.16s WALL (     420 calls)

     Called by *egterg:
     h_psi        :    703.65s CPU    717.07s WALL (    2594 calls)
     s_psi        :     60.91s CPU     61.10s WALL (    2594 calls)
     g_psi        :      4.11s CPU      4.12s WALL (    2169 calls)
     cdiaghg      :     64.77s CPU     65.31s WALL (    2549 calls)

     Called by h_psi:
     add_vuspsi   :     62.06s CPU     62.26s WALL (    2594 calls)

     General routines
     calbec       :     92.38s CPU     93.99s WALL (    3094 calls)
     fft          :    548.90s CPU    579.21s WALL (   22841 calls)
     ffts         :      0.53s CPU      0.56s WALL (     175 calls)
     fftw         :    406.45s CPU    421.57s WALL (  203854 calls)
     interpolate  :      5.37s CPU      5.61s WALL (     175 calls)
     davcio       :      0.00s CPU      0.04s WALL (       5 calls)
 
     Parallel routines
     fft_scatter  :    548.78s CPU    591.16s WALL (  226870 calls)
 
     PWSCF        :     1h 6m CPU        1h10m WALL

 
   This run was terminated on:  16:39:39  30Apr2018            

=------------------------------------------------------------------------------=
   JOB DONE.
=------------------------------------------------------------------------------=
Job  /afs/slac/g/suncat/bin/suncat-tsmpirun -x LD_LIBRARY_PATH -wdir /scratch/qe494147_4JnMk pw.x -npool 4 -in pw.inp

TID   HOST_NAME   COMMAND_LINE            STATUS            TERMINATION_TIME
===== ========== ================  =======================  ===================
00000 suncat0057 pw.x -npool 4 -i  Done                     04/30/2018 16:39:39
00001 suncat0057 pw.x -npool 4 -i  Done                     04/30/2018 16:39:39
00002 suncat0057 pw.x -npool 4 -i  Done                     04/30/2018 16:39:39
00003 suncat0057 pw.x -npool 4 -i  Done                     04/30/2018 16:39:39
00004 suncat0057 pw.x -npool 4 -i  Done                     04/30/2018 16:39:39
00005 suncat0057 pw.x -npool 4 -i  Done                     04/30/2018 16:39:39
00006 suncat0057 pw.x -npool 4 -i  Done                     04/30/2018 16:39:39
00007 suncat0057 pw.x -npool 4 -i  Done                     04/30/2018 16:39:39
00008 suncat0036 pw.x -npool 4 -i  Done                     04/30/2018 16:39:39
00009 suncat0036 pw.x -npool 4 -i  Done                     04/30/2018 16:39:39
00010 suncat0036 pw.x -npool 4 -i  Done                     04/30/2018 16:39:39
00011 suncat0036 pw.x -npool 4 -i  Done                     04/30/2018 16:39:39
00012 suncat0036 pw.x -npool 4 -i  Done                     04/30/2018 16:39:39
00013 suncat0036 pw.x -npool 4 -i  Done                     04/30/2018 16:39:39
00014 suncat0036 pw.x -npool 4 -i  Done                     04/30/2018 16:39:39
00015 suncat0036 pw.x -npool 4 -i  Done                     04/30/2018 16:39:39
00016 suncat0182 pw.x -npool 4 -i  Done                     04/30/2018 16:39:39
00017 suncat0182 pw.x -npool 4 -i  Done                     04/30/2018 16:39:39
00018 suncat0182 pw.x -npool 4 -i  Done                     04/30/2018 16:39:39
00019 suncat0182 pw.x -npool 4 -i  Done                     04/30/2018 16:39:39
00020 suncat0182 pw.x -npool 4 -i  Done                     04/30/2018 16:39:39
00021 suncat0182 pw.x -npool 4 -i  Done                     04/30/2018 16:39:39
00022 suncat0182 pw.x -npool 4 -i  Done                     04/30/2018 16:39:39
00023 suncat0182 pw.x -npool 4 -i  Done                     04/30/2018 16:39:39
00024 suncat0173 pw.x -npool 4 -i  Done                     04/30/2018 16:39:39
00025 suncat0173 pw.x -npool 4 -i  Done                     04/30/2018 16:39:39
00026 suncat0173 pw.x -npool 4 -i  Done                     04/30/2018 16:39:39
00027 suncat0173 pw.x -npool 4 -i  Done                     04/30/2018 16:39:39
00028 suncat0173 pw.x -npool 4 -i  Done                     04/30/2018 16:39:39
00029 suncat0173 pw.x -npool 4 -i  Done                     04/30/2018 16:39:39
00030 suncat0173 pw.x -npool 4 -i  Done                     04/30/2018 16:39:39
00031 suncat0173 pw.x -npool 4 -i  Done                     04/30/2018 16:39:39
