  python dir          : /u/if/mamunm/src/espresso
  espresso dir        : /nfs/slac/g/suncatfs/sw/espv18/espresso-dynpy-beef/bin
  pseudo dir          : /afs/slac.stanford.edu/u/if/mamunm/psp/gbrv1.5pbe
  ase-espresso py git : GITVERSION



     Program PWSCF v.5.1rc2 (svn rev. 11289) starts on 19Dec2018 at  6:58:16 

     This program is part of the open-source Quantum ESPRESSO suite
     for quantum simulation of materials; please cite
         "P. Giannozzi et al., J. Phys.:Condens. Matter 21 395502 (2009);
          URL http://www.quantum-espresso.org", 
     in publications or presentations arising from this work. More details at
     http://www.quantum-espresso.org/quote

     Parallel version (MPI), running on    32 processors
     R & G space division:  proc/nbgrp/npool/nimage =      32
     Reading input from pw.inp
     Message from routine read_cards :
     DEPRECATED: no units specified in CELL_PARAMETERS card

     Current dimensions of program PWSCF are:
     Max number of different atomic species (ntypx) = 10
     Max number of k-points (npk) =  40000
     Max angular momentum in pseudopotentials (lmaxx) =  3
     Presently stress not available with electric field


     **************************************************************************
     Initializing libbeef V0.1.1 with the BEEF-vdW functional.
     Citation: Wellendorff et al., PRB 85, 235149 (2012).
     **************************************************************************


     IMPORTANT: XC functional enforced from input :
     Exchange-correlation      = BEEF-VDW ( 1  4 27 13 2)
     Any further DFT definition will be discarded
     Please, verify this is what you really want


     Subspace diagonalization in iterative solution of the eigenvalue problem:
     a serial algorithm will be used

     Found symmetry operation: I + (  0.5000  0.5000  0.0000)
     This is a supercell, fractional translations are disabled
 
     Parallelization info
     --------------------
     sticks:   dense  smooth     PW     G-vecs:    dense   smooth      PW
     Min          94      37     10                17762     4483     680
     Max          97      38     11                17780     4518     701
     Sum        3011    1207    345               568613   143945   22167
 


     bravais-lattice index     =            0
     lattice parameter (alat)  =       1.8897  a.u.
     unit-cell volume          =    4782.8662 (a.u.)^3
     number of atoms/cell      =           12
     number of atomic types    =            2
     number of electrons       =       168.00
     number of Kohn-Sham states=          114
     kinetic-energy cutoff     =      36.7493  Ry
     charge density cutoff     =     367.4932  Ry
     convergence threshold     =      1.0E-06
     mixing beta               =       0.1000
     number of iterations used =           10  plain     mixing
     Exchange-correlation      = BEEF-VDW ( 1  4 27 13 2)
     nstep                     =           50


     celldm(1)=   1.889726  celldm(2)=   0.000000  celldm(3)=   0.000000
     celldm(4)=   0.000000  celldm(5)=   0.000000  celldm(6)=   0.000000

     crystal axes: (cart. coord. in units of alat)
               a(1) = (   5.530750   0.000000   0.000000 )  
               a(2) = (   1.798307   5.230228   0.000000 )  
               a(3) = (   0.000000   0.000000  24.501181 )  

     reciprocal axes: (cart. coord. in units 2 pi/alat)
               b(1) = (  0.180807 -0.062167  0.000000 )  
               b(2) = (  0.000000  0.191196  0.000000 )  
               b(3) = (  0.000000  0.000000  0.040814 )  


     PseudoPot. # 1 for Ta read from file:
     /afs/slac.stanford.edu/u/if/mamunm/psp/gbrv1.5pbe/Ta.UPF
     MD5 check sum: f8bbe9446314a3b8ea5d9f3e3836c939
     Pseudo is Ultrasoft + core correction, Zval = 13.0
     Generated by new atomic code, or converted to UPF format
     Using radial grid of  921 points,  7 beta functions with: 
                l(1) =   0
                l(2) =   0
                l(3) =   1
                l(4) =   1
                l(5) =   2
                l(6) =   2
                l(7) =   3
     Q(r) pseudized with  6 coefficients,  rinner =    1.300   1.300   1.300
                                                       1.300   1.300   1.300
                                                       1.300

     PseudoPot. # 2 for Re read from file:
     /afs/slac.stanford.edu/u/if/mamunm/psp/gbrv1.5pbe/Re.UPF
     MD5 check sum: 85f993410f3e006da9d71c142b4ad953
     Pseudo is Ultrasoft + core correction, Zval = 15.0
     Generated by new atomic code, or converted to UPF format
     Using radial grid of  981 points,  8 beta functions with: 
                l(1) =   0
                l(2) =   0
                l(3) =   1
                l(4) =   1
                l(5) =   2
                l(6) =   2
                l(7) =   3
                l(8) =   3
     Q(r) pseudized with  8 coefficients,  rinner =    1.150   1.150   1.150
                                                       1.150   1.150   1.150
                                                       1.150

     vdW kernel table read from file vdW_kernel_table
     MD5 check sum: 095c7af220d748ca6e76c0b4c6cfb241

     atomic species   valence    mass     pseudopotential
        Ta1           13.00   180.94788     Ta( 1.00)
        Re1           15.00   186.20700     Re( 1.00)

     No symmetry found



   Cartesian axes

     site n.     atom                  positions (alat units)
         1           Ta1 tau(   1) = (   0.0000000   0.0000000  10.0000000  )
         2           Ta1 tau(   2) = (   3.6645282   2.6151140  10.0000000  )
         3           Re1 tau(   3) = (   2.7653748   0.0000000  10.0000000  )
         4           Re1 tau(   4) = (   0.8991534   2.6151140  10.0000000  )
         5           Ta1 tau(   5) = (   5.5307497   3.9469039  12.2505903  )
         6           Ta1 tau(   6) = (   1.8662214   1.3317899  12.2505903  )
         7           Re1 tau(   7) = (   2.7653748   3.9469039  12.2505903  )
         8           Re1 tau(   8) = (   4.6315963   1.3317899  12.2505903  )
         9           Ta1 tau(   9) = (   3.7324429   2.6635798  14.5011806  )
        10           Ta1 tau(  10) = (   0.0679146   0.0484659  14.5011806  )
        11           Re1 tau(  11) = (   0.9670680   2.6635798  14.5011806  )
        12           Re1 tau(  12) = (   2.8332895   0.0484659  14.5011806  )

     number of k points=    20  Fermi-Dirac smearing, width (Ry)=  0.0110
                       cart. coord. in units 2pi/alat
        k(    1) = (   0.0000000   0.0000000   0.0000000), wk =   0.0555556
        k(    2) = (   0.0000000   0.0318660   0.0000000), wk =   0.1111111
        k(    3) = (   0.0000000   0.0637321   0.0000000), wk =   0.1111111
        k(    4) = (   0.0000000  -0.0955981   0.0000000), wk =   0.0555556
        k(    5) = (   0.0301346  -0.0103611   0.0000000), wk =   0.1111111
        k(    6) = (   0.0301346   0.0215049   0.0000000), wk =   0.1111111
        k(    7) = (   0.0301346   0.0533709   0.0000000), wk =   0.1111111
        k(    8) = (   0.0301346  -0.1059593   0.0000000), wk =   0.1111111
        k(    9) = (   0.0301346  -0.0740932   0.0000000), wk =   0.1111111
        k(   10) = (   0.0301346  -0.0422272   0.0000000), wk =   0.1111111
        k(   11) = (   0.0602691  -0.0207223   0.0000000), wk =   0.1111111
        k(   12) = (   0.0602691   0.0111437   0.0000000), wk =   0.1111111
        k(   13) = (   0.0602691   0.0430098   0.0000000), wk =   0.1111111
        k(   14) = (   0.0602691  -0.1163204   0.0000000), wk =   0.1111111
        k(   15) = (   0.0602691  -0.0844544   0.0000000), wk =   0.1111111
        k(   16) = (   0.0602691  -0.0525883   0.0000000), wk =   0.1111111
        k(   17) = (  -0.0904037   0.0310834   0.0000000), wk =   0.0555556
        k(   18) = (  -0.0904037   0.0629495   0.0000000), wk =   0.1111111
        k(   19) = (  -0.0904037   0.0948155   0.0000000), wk =   0.1111111
        k(   20) = (  -0.0904037  -0.0645147   0.0000000), wk =   0.0555556

     Dense  grid:   568613 G-vectors     FFT dimensions: (  64,  64, 288)

     Smooth grid:   143945 G-vectors     FFT dimensions: (  45,  45, 180)

     Largest allocated arrays     est. size (Mb)     dimensions
        Kohn-Sham Wavefunctions         1.04 Mb     (     595,  114)
        NL pseudopotentials             3.11 Mb     (     595,  342)
        Each V/rho on FFT grid          0.56 Mb     (   36864)
        Each G-vector array             0.14 Mb     (   17780)
        G-vector shells                 0.06 Mb     (    8426)
     Largest temporary arrays     est. size (Mb)     dimensions
        Auxiliary wavefunctions         4.14 Mb     (     595,  456)
        Each subspace H/S matrix        3.17 Mb     (     456,  456)
        Each <psi_i|beta_j> matrix      0.59 Mb     (     342,  114)
        Arrays for rho mixing           5.62 Mb     (   36864,   10)

     Initial potential from superposition of free atoms
     Check: negative starting charge=   -1.330961

     starting charge  164.99306, renormalised to  168.00000

     negative rho (up, down):  1.355E+00 0.000E+00


     ************************************************************************
     *
     * You are using vdW-DF for exchange-correlation in this calculation.
     * Please cite the following three references that made this development
     * possible:
     *
     *   M. Dion, H. Rydberg, E. Schroder, D. C. Langreth, and
     *   B. I. Lundqvist, Phys. Rev. Lett. 92, 246401 (2004).
     *
     *   T. Thonhauser, V. R. Cooper, S. Li, A. Puzder, P. Hyldgaard, and
     *   D. C. Langreth, Phys. Rev. B 76, 125112 (2007).
     *
     *   G. Roman-Perez and J. M. Soler, Phys. Rev. Lett. 103, 096102 (2009).
     *
     *
     * If you are using vdW-DF2, please also cite:
     *
     *   K. Lee, E. D. Murray, L. Kong, B. I. Lundqvist, and
     *   D. C. Langreth, Phys. Rev. B 82, 081101(R) (2010).
     *
     *
     * If you are calculating the stress with vdW-DF, please also cite:
     *
     *   R. Sabatini, E. Kucukbenli, B. Kolb, T. Thonhauser, and
     *   S. de Gironcoli, J. Phys.: Condens. Matter 24, 424209 (2012).
     *
     ************************************************************************

     Carrying out vdW-DF run using the following parameters:

     Nqs =      20    Nr_points =    1024   r_max =   100.000
     q_mesh =
               0.00001000     0.04494208     0.09755937     0.15916263
               0.23128650     0.31572767     0.41458969     0.53033537
               0.66584808     0.82450364     1.01025438     1.22772762
               1.48234092     1.78043706     2.12944203     2.53805004
               3.01644009     3.57652955     4.23227104     5.00000000

     Gradients computed in reciprocal space

     ************************************************************************


 
     Adding external electric field

     Computed dipole along edir(3) : 
        Dipole                0.0000 Ry au,          0.0000 Debye
        Dipole field          0.0000 Ry au
 
        Potential amp.       -0.0000 Ry
        Total length         45.1430 bohr
 
     Starting wfc are  156 randomized atomic wfcs

     total cpu time spent up to now is        8.3 secs

     Self-consistent Calculation

     iteration #  1     ecut=    36.75 Ry     beta=0.10
     Davidson diagonalization with overlap
     ethr =  1.00E-02,  avg # of iterations =  2.0

     negative rho (up, down):  1.353E+00 0.000E+00
 
     Adding external electric field

     Computed dipole along edir(3) : 
        Dipole               -0.0003 Ry au,         -0.0007 Debye
        Dipole field         -0.0000 Ry au
 
        Potential amp.        0.0001 Ry
        Total length         45.1430 bohr
 

     total cpu time spent up to now is       24.7 secs

     total energy              =   -2012.41189822 Ry
     Harris-Foulkes estimate   =   -2012.76962258 Ry
     estimated scf accuracy    <       2.28114823 Ry

     iteration #  2     ecut=    36.75 Ry     beta=0.10
     Davidson diagonalization with overlap
     ethr =  1.36E-03,  avg # of iterations =  1.2

     negative rho (up, down):  1.355E+00 0.000E+00
 
     Adding external electric field

     Computed dipole along edir(3) : 
        Dipole                0.0011 Ry au,          0.0028 Debye
        Dipole field          0.0000 Ry au
 
        Potential amp.       -0.0003 Ry
        Total length         45.1430 bohr
 

     total cpu time spent up to now is       37.7 secs

     total energy              =   -2012.42137901 Ry
     Harris-Foulkes estimate   =   -2012.53591140 Ry
     estimated scf accuracy    <       0.77226792 Ry

     iteration #  3     ecut=    36.75 Ry     beta=0.10
     Davidson diagonalization with overlap
     ethr =  4.60E-04,  avg # of iterations =  1.2

     negative rho (up, down):  1.361E+00 0.000E+00
 
     Adding external electric field

     Computed dipole along edir(3) : 
        Dipole               -0.0149 Ry au,         -0.0380 Debye
        Dipole field         -0.0000 Ry au
 
        Potential amp.        0.0035 Ry
        Total length         45.1430 bohr
 

     total cpu time spent up to now is       50.8 secs

     total energy              =   -2012.33962532 Ry
     Harris-Foulkes estimate   =   -2012.44314879 Ry
     estimated scf accuracy    <       0.45940817 Ry

     iteration #  4     ecut=    36.75 Ry     beta=0.10
     Davidson diagonalization with overlap
     ethr =  2.73E-04,  avg # of iterations =  1.7

     negative rho (up, down):  1.372E+00 0.000E+00
 
     Adding external electric field

     Computed dipole along edir(3) : 
        Dipole                0.1941 Ry au,          0.4933 Debye
        Dipole field          0.0005 Ry au
 
        Potential amp.       -0.0460 Ry
        Total length         45.1430 bohr
 

     total cpu time spent up to now is       64.3 secs

     total energy              =   -2012.28024690 Ry
     Harris-Foulkes estimate   =   -2012.35447208 Ry
     estimated scf accuracy    <       0.21297656 Ry

     iteration #  5     ecut=    36.75 Ry     beta=0.10
     Davidson diagonalization with overlap
     ethr =  1.27E-04,  avg # of iterations =  4.1

     negative rho (up, down):  1.375E+00 0.000E+00
 
     Adding external electric field

     Computed dipole along edir(3) : 
        Dipole               -0.0046 Ry au,         -0.0117 Debye
        Dipole field         -0.0000 Ry au
 
        Potential amp.        0.0011 Ry
        Total length         45.1430 bohr
 

     total cpu time spent up to now is       84.2 secs

     total energy              =   -2012.27845055 Ry
     Harris-Foulkes estimate   =   -2012.33346362 Ry
     estimated scf accuracy    <       1.78606067 Ry

     iteration #  6     ecut=    36.75 Ry     beta=0.10
     Davidson diagonalization with overlap
     ethr =  1.27E-04,  avg # of iterations =  1.3

     negative rho (up, down):  1.377E+00 0.000E+00
 
     Adding external electric field

     Computed dipole along edir(3) : 
        Dipole               -0.0006 Ry au,         -0.0015 Debye
        Dipole field         -0.0000 Ry au
 
        Potential amp.        0.0001 Ry
        Total length         45.1430 bohr
 

     total cpu time spent up to now is       97.2 secs

     total energy              =   -2012.30510044 Ry
     Harris-Foulkes estimate   =   -2012.30686924 Ry
     estimated scf accuracy    <       0.01783575 Ry

     iteration #  7     ecut=    36.75 Ry     beta=0.10
     Davidson diagonalization with overlap
     ethr =  1.06E-05,  avg # of iterations =  6.4

     negative rho (up, down):  1.380E+00 0.000E+00
 
     Adding external electric field

     Computed dipole along edir(3) : 
        Dipole                0.0011 Ry au,          0.0027 Debye
        Dipole field          0.0000 Ry au
 
        Potential amp.       -0.0002 Ry
        Total length         45.1430 bohr
 

     total cpu time spent up to now is      117.7 secs

     total energy              =   -2012.30769864 Ry
     Harris-Foulkes estimate   =   -2012.30682068 Ry
     estimated scf accuracy    <       0.00689884 Ry

     iteration #  8     ecut=    36.75 Ry     beta=0.10
     Davidson diagonalization with overlap
     ethr =  4.11E-06,  avg # of iterations =  2.0

     negative rho (up, down):  1.383E+00 0.000E+00
 
     Adding external electric field

     Computed dipole along edir(3) : 
        Dipole               -0.0002 Ry au,         -0.0006 Debye
        Dipole field         -0.0000 Ry au
 
        Potential amp.        0.0001 Ry
        Total length         45.1430 bohr
 

     total cpu time spent up to now is      132.0 secs

     total energy              =   -2012.30879741 Ry
     Harris-Foulkes estimate   =   -2012.30839163 Ry
     estimated scf accuracy    <       0.00397382 Ry

     iteration #  9     ecut=    36.75 Ry     beta=0.10
     Davidson diagonalization with overlap
     ethr =  2.37E-06,  avg # of iterations =  2.4

     negative rho (up, down):  1.383E+00 0.000E+00
 
     Adding external electric field

     Computed dipole along edir(3) : 
        Dipole               -0.0002 Ry au,         -0.0005 Debye
        Dipole field         -0.0000 Ry au
 
        Potential amp.        0.0001 Ry
        Total length         45.1430 bohr
 

     total cpu time spent up to now is      146.4 secs

     total energy              =   -2012.30831828 Ry
     Harris-Foulkes estimate   =   -2012.30902128 Ry
     estimated scf accuracy    <       0.00133659 Ry

     iteration # 10     ecut=    36.75 Ry     beta=0.10
     Davidson diagonalization with overlap
     ethr =  7.96E-07,  avg # of iterations =  2.2

     negative rho (up, down):  1.383E+00 0.000E+00
 
     Adding external electric field

     Computed dipole along edir(3) : 
        Dipole               -0.0001 Ry au,         -0.0002 Debye
        Dipole field         -0.0000 Ry au
 
        Potential amp.        0.0000 Ry
        Total length         45.1430 bohr
 

     total cpu time spent up to now is      164.1 secs

     total energy              =   -2012.30852861 Ry
     Harris-Foulkes estimate   =   -2012.30855408 Ry
     estimated scf accuracy    <       0.00025868 Ry

     iteration # 11     ecut=    36.75 Ry     beta=0.10
     Davidson diagonalization with overlap
     ethr =  1.54E-07,  avg # of iterations =  2.0

     negative rho (up, down):  1.383E+00 0.000E+00
 
     Adding external electric field

     Computed dipole along edir(3) : 
        Dipole               -0.0003 Ry au,         -0.0008 Debye
        Dipole field         -0.0000 Ry au
 
        Potential amp.        0.0001 Ry
        Total length         45.1430 bohr
 

     total cpu time spent up to now is      178.2 secs

     total energy              =   -2012.30853849 Ry
     Harris-Foulkes estimate   =   -2012.30856104 Ry
     estimated scf accuracy    <       0.00010446 Ry

     iteration # 12     ecut=    36.75 Ry     beta=0.10
     Davidson diagonalization with overlap
     ethr =  6.22E-08,  avg # of iterations =  2.6

     negative rho (up, down):  1.383E+00 0.000E+00
 
     Adding external electric field

     Computed dipole along edir(3) : 
        Dipole               -0.0001 Ry au,         -0.0003 Debye
        Dipole field         -0.0000 Ry au
 
        Potential amp.        0.0000 Ry
        Total length         45.1430 bohr
 

     total cpu time spent up to now is      194.2 secs

     total energy              =   -2012.30854758 Ry
     Harris-Foulkes estimate   =   -2012.30857669 Ry
     estimated scf accuracy    <       0.00022974 Ry

     iteration # 13     ecut=    36.75 Ry     beta=0.10
     Davidson diagonalization with overlap
     ethr =  6.22E-08,  avg # of iterations =  2.8

     negative rho (up, down):  1.383E+00 0.000E+00
 
     Adding external electric field

     Computed dipole along edir(3) : 
        Dipole                0.0001 Ry au,          0.0002 Debye
        Dipole field          0.0000 Ry au
 
        Potential amp.       -0.0000 Ry
        Total length         45.1430 bohr
 

     total cpu time spent up to now is      209.2 secs

     total energy              =   -2012.30855155 Ry
     Harris-Foulkes estimate   =   -2012.30855826 Ry
     estimated scf accuracy    <       0.00003255 Ry

     iteration # 14     ecut=    36.75 Ry     beta=0.10
     Davidson diagonalization with overlap
     ethr =  1.94E-08,  avg # of iterations =  2.8

     negative rho (up, down):  1.383E+00 0.000E+00
 
     Adding external electric field

     Computed dipole along edir(3) : 
        Dipole               -0.0000 Ry au,         -0.0001 Debye
        Dipole field         -0.0000 Ry au
 
        Potential amp.        0.0000 Ry
        Total length         45.1430 bohr
 

     total cpu time spent up to now is      225.1 secs

     total energy              =   -2012.30855610 Ry
     Harris-Foulkes estimate   =   -2012.30855745 Ry
     estimated scf accuracy    <       0.00000462 Ry

     iteration # 15     ecut=    36.75 Ry     beta=0.10
     Davidson diagonalization with overlap
     ethr =  2.75E-09,  avg # of iterations =  3.1

     negative rho (up, down):  1.383E+00 0.000E+00
 
     Adding external electric field

     Computed dipole along edir(3) : 
        Dipole               -0.0000 Ry au,         -0.0001 Debye
        Dipole field         -0.0000 Ry au
 
        Potential amp.        0.0000 Ry
        Total length         45.1430 bohr
 

     total cpu time spent up to now is      241.9 secs

     total energy              =   -2012.30855597 Ry
     Harris-Foulkes estimate   =   -2012.30855879 Ry
     estimated scf accuracy    <       0.00001290 Ry

     iteration # 16     ecut=    36.75 Ry     beta=0.10
     Davidson diagonalization with overlap
     ethr =  2.75E-09,  avg # of iterations =  2.2

     negative rho (up, down):  1.383E+00 0.000E+00

     negative rho (up, down):  1.383E+00 0.000E+00

     negative rho (up, down):  1.383E+00 0.000E+00

     negative rho (up, down):  1.383E+00 0.000E+00

     negative rho (up, down):  1.383E+00 0.000E+00

     negative rho (up, down):  1.383E+00 0.000E+00

     negative rho (up, down):  1.383E+00 0.000E+00

     negative rho (up, down):  1.383E+00 0.000E+00

     negative rho (up, down):  1.383E+00 0.000E+00

     negative rho (up, down):  1.383E+00 0.000E+00

     negative rho (up, down):  1.383E+00 0.000E+00

     negative rho (up, down):  1.383E+00 0.000E+00

     negative rho (up, down):  1.383E+00 0.000E+00

     negative rho (up, down):  1.383E+00 0.000E+00

     negative rho (up, down):  1.383E+00 0.000E+00

     negative rho (up, down):  1.383E+00 0.000E+00

     negative rho (up, down):  1.383E+00 0.000E+00

     negative rho (up, down):  1.383E+00 0.000E+00

     negative rho (up, down):  1.383E+00 0.000E+00

     negative rho (up, down):  1.383E+00 0.000E+00

     negative rho (up, down):  1.383E+00 0.000E+00

     negative rho (up, down):  1.383E+00 0.000E+00

     negative rho (up, down):  1.383E+00 0.000E+00

     negative rho (up, down):  1.383E+00 0.000E+00

     negative rho (up, down):  1.383E+00 0.000E+00

     negative rho (up, down):  1.383E+00 0.000E+00

     negative rho (up, down):  1.383E+00 0.000E+00

     negative rho (up, down):  1.383E+00 0.000E+00

     negative rho (up, down):  1.383E+00 0.000E+00

     negative rho (up, down):  1.383E+00 0.000E+00

     negative rho (up, down):  1.383E+00 0.000E+00

     negative rho (up, down):  1.383E+00 0.000E+00

     negative rho (up, down):  1.383E+00 0.000E+00

     negative rho (up, down):  1.383E+00 0.000E+00

     negative rho (up, down):  1.383E+00 0.000E+00
 
     Adding external electric field

     Computed dipole along edir(3) : 
        Dipole               -0.0003 Ry au,         -0.0007 Debye
        Dipole field         -0.0000 Ry au
 
        Potential amp.        0.0001 Ry
        Total length         45.1430 bohr
 

     total cpu time spent up to now is      270.3 secs

     End of self-consistent calculation

          k = 0.0000 0.0000 0.0000 ( 17999 PWs)   bands (ev):

   -78.1083 -78.1037 -77.7165 -77.7165 -77.7121 -77.7121 -66.1436 -66.1433
   -66.1332 -66.1331 -66.0274 -66.0175 -39.9453 -39.8745 -39.8622 -39.8186
   -39.8058 -39.7964 -39.4883 -39.4863 -39.4761 -39.4751 -39.4700 -39.4679
   -39.4206 -39.4145 -39.4031 -39.3913 -39.3301 -39.3291 -32.6263 -32.6220
   -32.6209 -32.6022 -32.4989 -32.4817 -32.4773 -32.4641 -32.4317 -32.3723
   -32.3684 -32.3635 -32.3193 -32.3009 -32.2702 -32.2513 -32.2474 -32.2435
    -6.0094  -3.9934  -3.3315  -3.0121  -2.9120  -2.8726  -2.7277  -2.6291
    -2.3647  -2.3264  -1.6198  -1.6046  -1.6012  -0.7427  -0.6725  -0.6610
    -0.4789  -0.3812  -0.3662  -0.1942  -0.1540  -0.1382   0.3253   0.8076
     0.8964   0.9516   1.1798   1.2446   1.7178   1.9821   2.1732   2.2122
     2.5600   2.5987   2.9986   3.2103   3.2982   3.7472   3.7617   3.7667
     3.9523   4.3423   4.4323   4.5346   4.6133   4.6511   4.7187   4.7457
     4.7678   4.8221   4.9807   5.0175   5.0541   5.1821   5.3629   5.3863
     5.6676   5.7230   5.7473   5.9150   6.0806   6.2448   6.5875   6.7018
     6.7986   6.8987

          k = 0.0000 0.0319 0.0000 ( 17973 PWs)   bands (ev):

   -78.1080 -78.1040 -77.7162 -77.7162 -77.7124 -77.7124 -66.1429 -66.1426
   -66.1340 -66.1338 -66.0267 -66.0182 -39.9342 -39.8712 -39.8604 -39.8174
   -39.8062 -39.8053 -39.4878 -39.4855 -39.4768 -39.4714 -39.4644 -39.4576
   -39.4166 -39.4115 -39.4015 -39.3912 -39.3382 -39.3378 -32.6290 -32.6239
   -32.6207 -32.6040 -32.4881 -32.4767 -32.4675 -32.4535 -32.4328 -32.3940
   -32.3877 -32.3501 -32.3193 -32.2978 -32.2888 -32.2685 -32.2619 -32.2508
    -5.7789  -3.7687  -3.0942  -3.0620  -2.7420  -2.6928  -2.6337  -2.4888
    -2.2440  -2.1852  -1.6217  -1.4007  -1.3320  -0.6508  -0.6224  -0.5635
    -0.3949  -0.3525  -0.3074  -0.2240  -0.1319  -0.0226   0.3616   0.6526
     0.7316   0.8162   0.9628   1.2720   1.5939   1.9559   1.9690   2.0287
     2.1131   2.4034   2.7740   2.8134   2.8472   3.3300   3.3473   3.7491
     3.9621   4.2078   4.3102   4.3660   4.3936   4.4417   4.5623   4.6002
     4.7154   4.8669   5.0225   5.1285   5.1302   5.2336   5.4024   5.4135
     5.5128   5.6272   5.6776   5.7397   5.9922   6.3174   6.7483   6.7520
     6.7607   6.9123

          k = 0.0000 0.0637 0.0000 ( 17960 PWs)   bands (ev):

   -78.1071 -78.1048 -77.7154 -77.7154 -77.7132 -77.7132 -66.1411 -66.1408
   -66.1360 -66.1358 -66.0250 -66.0201 -39.9055 -39.8644 -39.8572 -39.8298
   -39.8142 -39.8076 -39.4860 -39.4829 -39.4795 -39.4747 -39.4359 -39.4311
   -39.4075 -39.4052 -39.3984 -39.3919 -39.3619 -39.3608 -32.6332 -32.6301
   -32.6183 -32.6088 -32.4719 -32.4561 -32.4430 -32.4368 -32.4188 -32.4145
   -32.4136 -32.3470 -32.3432 -32.3236 -32.3123 -32.3082 -32.2836 -32.2593
    -5.1432  -3.4767  -3.2008  -2.5174  -2.4725  -2.2224  -2.1988  -2.1085
    -1.9833  -1.8010  -1.6277  -0.8237  -0.8179  -0.5308  -0.5199  -0.4792
    -0.4596  -0.3936  -0.3197  -0.1695   0.2355   0.2642   0.3740   0.3960
     0.4744   0.6606   0.7436   1.0573   1.2011   1.4963   1.5459   1.6423
     1.6820   1.9074   1.9555   2.2954   2.5834   2.8036   2.8056   3.3064
     3.4405   4.0725   4.1016   4.1531   4.1712   4.2917   4.2964   4.3667
     4.4361   4.4951   4.7513   4.7815   4.8264   4.8801   5.1266   5.3332
     5.3734   5.4438   5.5448   5.6219   5.6388   6.4007   6.5301   6.6841
     6.6974   7.0453

          k = 0.0000-0.0956 0.0000 ( 17978 PWs)   bands (ev):

   -78.1060 -78.1060 -77.7143 -77.7143 -77.7143 -77.7143 -66.1386 -66.1386
   -66.1384 -66.1383 -66.0226 -66.0226 -39.8700 -39.8700 -39.8550 -39.8550
   -39.8106 -39.8106 -39.4830 -39.4830 -39.4790 -39.4790 -39.4043 -39.4043
   -39.4035 -39.4035 -39.3918 -39.3918 -39.3903 -39.3903 -32.6345 -32.6345
   -32.6143 -32.6143 -32.4579 -32.4579 -32.4343 -32.4343 -32.4047 -32.4047
   -32.3716 -32.3716 -32.3663 -32.3663 -32.3346 -32.3346 -32.2703 -32.2703
    -4.2748  -4.2748  -2.6542  -2.6542  -1.8399  -1.8399  -1.8297  -1.8297
    -1.7688  -1.7688  -1.3798  -1.3798  -0.6108  -0.6108  -0.4447  -0.4447
    -0.3365  -0.3365   0.0021   0.0021   0.0727   0.0727   0.3525   0.3525
     0.6943   0.6944   0.9123   0.9123   1.0508   1.0508   1.4838   1.4838
     1.5236   1.5236   1.7260   1.7260   2.5900   2.5900   2.6353   2.6353
     3.5406   3.5406   3.7700   3.7700   4.1027   4.1027   4.1618   4.1618
     4.3098   4.3098   4.5578   4.5578   4.8864   4.8864   4.9677   4.9677
     5.3396   5.3396   5.4673   5.4673   6.2402   6.2402   6.5542   6.5542
     6.7240   6.7240

          k = 0.0301-0.0104 0.0000 ( 17973 PWs)   bands (ev):

   -78.1080 -78.1040 -77.7162 -77.7162 -77.7124 -77.7124 -66.1429 -66.1426
   -66.1340 -66.1338 -66.0267 -66.0182 -39.9342 -39.8712 -39.8604 -39.8174
   -39.8062 -39.8053 -39.4878 -39.4855 -39.4768 -39.4714 -39.4644 -39.4576
   -39.4166 -39.4115 -39.4015 -39.3912 -39.3382 -39.3378 -32.6290 -32.6239
   -32.6207 -32.6040 -32.4881 -32.4767 -32.4675 -32.4535 -32.4328 -32.3940
   -32.3877 -32.3501 -32.3193 -32.2978 -32.2888 -32.2685 -32.2619 -32.2508
    -5.7789  -3.7687  -3.0942  -3.0620  -2.7420  -2.6928  -2.6337  -2.4888
    -2.2440  -2.1852  -1.6217  -1.4007  -1.3320  -0.6508  -0.6224  -0.5635
    -0.3949  -0.3525  -0.3074  -0.2240  -0.1319  -0.0226   0.3616   0.6526
     0.7316   0.8162   0.9628   1.2720   1.5939   1.9559   1.9690   2.0287
     2.1131   2.4034   2.7740   2.8134   2.8472   3.3300   3.3473   3.7491
     3.9621   4.2078   4.3102   4.3660   4.3936   4.4417   4.5623   4.6002
     4.7154   4.8669   5.0225   5.1285   5.1302   5.2336   5.4024   5.4135
     5.5128   5.6272   5.6776   5.7397   5.9922   6.3174   6.7483   6.7520
     6.7610   6.9123

          k = 0.0301 0.0215 0.0000 ( 18015 PWs)   bands (ev):

   -78.1083 -78.1037 -77.7165 -77.7165 -77.7121 -77.7121 -66.1436 -66.1434
   -66.1334 -66.1332 -66.0276 -66.0174 -39.9415 -39.8696 -39.8571 -39.8182
   -39.8047 -39.7957 -39.4907 -39.4843 -39.4742 -39.4726 -39.4721 -39.4640
   -39.4131 -39.4103 -39.3981 -39.3904 -39.3296 -39.3285 -32.6440 -32.6172
   -32.6166 -32.6085 -32.5128 -32.4857 -32.4729 -32.4677 -32.4255 -32.4182
   -32.4159 -32.3349 -32.3302 -32.2853 -32.2727 -32.2577 -32.2542 -32.2469
    -5.6920  -3.6812  -3.0402  -2.8581  -2.7711  -2.7447  -2.4970  -2.4140
    -2.2247  -2.1835  -1.4213  -1.4191  -1.4148  -0.6217  -0.5501  -0.3905
    -0.3728  -0.3709  -0.2898  -0.0746  -0.0329   0.0084   0.6034   0.8061
     0.9153   1.0433   1.2277   1.2806   1.5823   1.8543   2.0373   2.2009
     2.2438   2.3884   2.4593   2.5728   2.9568   3.2990   3.4579   3.4895
     3.8020   3.8123   3.8151   3.9157   4.1016   4.1970   4.3799   4.5272
     4.6168   4.7028   4.8273   4.9661   5.0830   5.3606   5.3867   5.6507
     5.6611   5.7764   5.8450   5.8524   5.8650   6.2031   6.6712   6.8242
     6.8466   7.0366

          k = 0.0301 0.0534 0.0000 ( 17990 PWs)   bands (ev):

   -78.1079 -78.1040 -77.7162 -77.7161 -77.7124 -77.7124 -66.1429 -66.1428
   -66.1343 -66.1339 -66.0272 -66.0180 -39.9284 -39.8641 -39.8526 -39.8167
   -39.8046 -39.8043 -39.4914 -39.4816 -39.4770 -39.4736 -39.4584 -39.4515
   -39.4061 -39.4043 -39.3939 -39.3905 -39.3376 -39.3369 -32.6560 -32.6190
   -32.6127 -32.6095 -32.5094 -32.4770 -32.4684 -32.4589 -32.4516 -32.4448
   -32.4147 -32.3506 -32.3300 -32.2908 -32.2744 -32.2700 -32.2682 -32.2662
    -5.1841  -3.2128  -3.1025  -2.6797  -2.4708  -2.3148  -2.2345  -2.0502
    -1.9985  -1.9237  -1.4681  -1.0483  -0.8237  -0.5202  -0.4786  -0.3944
    -0.3214  -0.2180  -0.1347  -0.0673   0.1844   0.3404   0.6313   0.6331
     0.8939   0.8958   1.0214   1.3015   1.4826   1.7449   1.8150   1.8425
     1.9419   2.0271   2.0483   2.1985   2.2603   2.5757   2.7915   3.2056
     3.2137   3.4208   3.5639   3.6845   3.9573   4.0424   4.0912   4.2937
     4.3741   4.5131   4.6893   4.7968   4.8570   4.9243   5.2305   5.2831
     5.3391   5.6549   5.6817   5.7915   5.8302   6.1483   6.3917   6.7671
     6.7686   7.0350

          k = 0.0301-0.1060 0.0000 ( 17991 PWs)   bands (ev):

   -78.1071 -78.1048 -77.7154 -77.7153 -77.7132 -77.7132 -66.1411 -66.1410
   -66.1362 -66.1358 -66.0255 -66.0197 -39.9002 -39.8600 -39.8519 -39.8304
   -39.8139 -39.8065 -39.4897 -39.4808 -39.4781 -39.4757 -39.4306 -39.4254
   -39.4021 -39.3969 -39.3945 -39.3928 -39.3627 -39.3618 -32.6591 -32.6235
   -32.6092 -32.6077 -32.4811 -32.4730 -32.4638 -32.4411 -32.4384 -32.4334
   -32.4024 -32.3696 -32.3324 -32.3268 -32.3129 -32.3110 -32.2801 -32.2626
    -4.3804  -3.7932  -2.6319  -2.4091  -2.3063  -1.8340  -1.7922  -1.6840
    -1.6667  -1.4893  -1.4251  -0.8888  -0.7571  -0.4403  -0.4389  -0.3545
    -0.2836  -0.2570  -0.2541  -0.0831   0.2983   0.3061   0.3689   0.5672
     0.6098   0.8878   0.9478   0.9954   1.0317   1.0896   1.2274   1.3266
     1.5896   1.7735   1.7980   1.8322   2.3751   2.4745   2.5600   2.6577
     3.1341   3.3772   3.4186   3.6950   3.7203   3.9179   4.0341   4.2447
     4.2936   4.2941   4.3891   4.3920   4.7123   5.0461   5.1211   5.3437
     5.4204   5.5047   5.5453   5.5840   5.9519   6.2412   6.4621   6.5603
     6.6086   6.8696

          k = 0.0301-0.0741 0.0000 ( 18001 PWs)   bands (ev):

   -78.1060 -78.1059 -77.7143 -77.7143 -77.7143 -77.7142 -66.1388 -66.1385
   -66.1384 -66.1383 -66.0229 -66.0222 -39.8702 -39.8654 -39.8578 -39.8566
   -39.8110 -39.8102 -39.4859 -39.4839 -39.4793 -39.4744 -39.4045 -39.4028
   -39.4017 -39.4003 -39.3958 -39.3941 -39.3912 -39.3906 -32.6513 -32.6251
   -32.6100 -32.6035 -32.4904 -32.4627 -32.4136 -32.4102 -32.3973 -32.3955
   -32.3746 -32.3739 -32.3719 -32.3650 -32.3641 -32.3216 -32.2922 -32.2553
    -4.6786  -3.5091  -2.7642  -2.5410  -2.3705  -2.0267  -1.9587  -1.7476
    -1.6620  -1.5118  -1.2677  -0.9792  -0.7932  -0.6936  -0.4040  -0.3040
    -0.2732  -0.2538  -0.2113  -0.0078   0.1097   0.1471   0.1726   0.2253
     0.3685   0.4989   0.5495   0.7198   0.8768   0.9698   1.1525   1.2295
     1.2839   1.5306   2.0526   2.2294   2.4677   2.7710   2.8204   3.3178
     3.6414   3.6780   3.7622   3.8974   4.1121   4.1957   4.2658   4.2710
     4.4809   4.5219   4.7808   4.8500   5.1908   5.2094   5.2204   5.2685
     5.3465   5.4430   5.4649   5.6421   6.1692   6.2676   6.3302   6.3530
     6.4679   6.5200

          k = 0.0301-0.0422 0.0000 ( 17966 PWs)   bands (ev):

   -78.1071 -78.1048 -77.7154 -77.7154 -77.7132 -77.7132 -66.1412 -66.1408
   -66.1359 -66.1357 -66.0248 -66.0203 -39.9076 -39.8662 -39.8604 -39.8301
   -39.8143 -39.8084 -39.4855 -39.4835 -39.4810 -39.4719 -39.4382 -39.4331
   -39.4126 -39.4067 -39.4020 -39.3913 -39.3619 -39.3607 -32.6371 -32.6239
   -32.6162 -32.6019 -32.4865 -32.4490 -32.4449 -32.4261 -32.4138 -32.3792
   -32.3791 -32.3788 -32.3406 -32.3212 -32.3137 -32.3098 -32.2985 -32.2504
    -5.4139  -3.4111  -2.9714  -2.8542  -2.6872  -2.4817  -2.3744  -2.2963
    -2.0658  -1.8940  -1.2888  -1.2817  -1.0059  -0.7375  -0.5072  -0.4870
    -0.3763  -0.2628  -0.2213  -0.1460  -0.0107   0.0733   0.1625   0.2178
     0.2970   0.4322   0.9059   0.9809   1.3095   1.3603   1.4923   1.6895
     1.7144   2.0087   2.2410   2.5078   2.6379   3.0750   3.3981   3.6944
     4.0350   4.1360   4.1688   4.1861   4.2490   4.4292   4.5631   4.6096
     4.7452   4.8457   4.9340   5.0519   5.1166   5.2517   5.2852   5.3793
     5.5494   5.6466   5.8121   5.9713   6.0266   6.2202   6.5224   6.6822
     6.6859   7.0282

          k = 0.0603-0.0207 0.0000 ( 17960 PWs)   bands (ev):

   -78.1071 -78.1048 -77.7154 -77.7154 -77.7132 -77.7132 -66.1411 -66.1408
   -66.1360 -66.1358 -66.0250 -66.0201 -39.9055 -39.8644 -39.8572 -39.8298
   -39.8142 -39.8076 -39.4860 -39.4829 -39.4795 -39.4747 -39.4359 -39.4311
   -39.4075 -39.4052 -39.3984 -39.3919 -39.3619 -39.3608 -32.6332 -32.6301
   -32.6183 -32.6088 -32.4719 -32.4561 -32.4430 -32.4368 -32.4188 -32.4145
   -32.4136 -32.3470 -32.3432 -32.3236 -32.3123 -32.3082 -32.2836 -32.2593
    -5.1432  -3.4767  -3.2008  -2.5174  -2.4725  -2.2224  -2.1988  -2.1085
    -1.9833  -1.8010  -1.6277  -0.8237  -0.8179  -0.5308  -0.5199  -0.4792
    -0.4596  -0.3936  -0.3197  -0.1695   0.2355   0.2642   0.3740   0.3960
     0.4744   0.6606   0.7436   1.0573   1.2011   1.4963   1.5459   1.6423
     1.6820   1.9074   1.9555   2.2954   2.5834   2.8036   2.8056   3.3064
     3.4405   4.0725   4.1016   4.1531   4.1712   4.2917   4.2964   4.3667
     4.4361   4.4951   4.7513   4.7815   4.8264   4.8801   5.1266   5.3332
     5.3734   5.4438   5.5448   5.6219   5.6388   6.4007   6.5301   6.6841
     6.6974   7.0453

          k = 0.0603 0.0111 0.0000 ( 17990 PWs)   bands (ev):

   -78.1079 -78.1040 -77.7162 -77.7161 -77.7124 -77.7124 -66.1429 -66.1428
   -66.1343 -66.1339 -66.0272 -66.0180 -39.9284 -39.8641 -39.8526 -39.8167
   -39.8046 -39.8043 -39.4914 -39.4816 -39.4770 -39.4736 -39.4584 -39.4515
   -39.4061 -39.4043 -39.3939 -39.3905 -39.3376 -39.3369 -32.6560 -32.6190
   -32.6127 -32.6095 -32.5094 -32.4770 -32.4684 -32.4589 -32.4516 -32.4448
   -32.4147 -32.3506 -32.3300 -32.2908 -32.2744 -32.2700 -32.2682 -32.2662
    -5.1841  -3.2128  -3.1025  -2.6797  -2.4708  -2.3148  -2.2345  -2.0502
    -1.9985  -1.9237  -1.4681  -1.0483  -0.8237  -0.5202  -0.4786  -0.3944
    -0.3214  -0.2180  -0.1347  -0.0673   0.1844   0.3404   0.6313   0.6331
     0.8939   0.8958   1.0214   1.3015   1.4826   1.7449   1.8150   1.8425
     1.9419   2.0271   2.0483   2.1985   2.2603   2.5757   2.7915   3.2056
     3.2137   3.4208   3.5639   3.6845   3.9573   4.0424   4.0912   4.2937
     4.3741   4.5131   4.6893   4.7968   4.8570   4.9243   5.2305   5.2831
     5.3391   5.6549   5.6817   5.7915   5.8302   6.1483   6.3917   6.7671
     6.7686   7.0350

          k = 0.0603 0.0430 0.0000 ( 18012 PWs)   bands (ev):

   -78.1082 -78.1037 -77.7165 -77.7164 -77.7121 -77.7121 -66.1437 -66.1435
   -66.1338 -66.1332 -66.0282 -66.0171 -39.9339 -39.8602 -39.8466 -39.8172
   -39.8027 -39.7940 -39.4948 -39.4796 -39.4796 -39.4701 -39.4641 -39.4561
   -39.4028 -39.3983 -39.3891 -39.3879 -39.3283 -39.3269 -32.6738 -32.6244
   -32.6072 -32.5983 -32.5376 -32.4970 -32.4907 -32.4823 -32.4763 -32.4475
   -32.4062 -32.3746 -32.3273 -32.2778 -32.2769 -32.2648 -32.2594 -32.2534
    -4.8235  -2.9092  -2.8565  -2.5311  -2.3606  -2.2076  -1.8755  -1.8731
    -1.8700  -1.8088  -0.9597  -0.9380  -0.8995  -0.3976  -0.3181  -0.2928
    -0.2729  -0.1654   0.2585   0.2943   0.4772   0.4805   0.6502   0.8046
     0.8988   1.0692   1.1222   1.3125   1.5571   1.5612   1.6312   1.7668
     1.7744   1.7800   1.9120   1.9847   2.1391   2.4967   2.6113   2.6177
     2.7730   3.0149   3.2285   3.4026   3.5786   3.7572   3.9685   4.0257
     4.1892   4.2500   4.3469   4.6971   4.7343   4.9873   5.0252   5.0549
     5.0682   5.2309   5.3839   5.7017   5.7862   5.9121   6.1480   6.3233
     6.5336   6.8110

          k = 0.0603-0.1163 0.0000 ( 18032 PWs)   bands (ev):

   -78.1079 -78.1040 -77.7162 -77.7161 -77.7124 -77.7124 -66.1431 -66.1428
   -66.1346 -66.1339 -66.0277 -66.0177 -39.9223 -39.8571 -39.8447 -39.8160
   -39.8036 -39.8031 -39.4948 -39.4821 -39.4774 -39.4706 -39.4520 -39.4452
   -39.4002 -39.3930 -39.3903 -39.3865 -39.3372 -39.3364 -32.6797 -32.6282
   -32.6025 -32.5919 -32.5283 -32.5040 -32.4916 -32.4844 -32.4814 -32.4326
   -32.3996 -32.3938 -32.3266 -32.2937 -32.2861 -32.2755 -32.2712 -32.2594
    -4.1563  -3.0907  -3.0302  -2.3397  -1.7888  -1.7789  -1.7485  -1.6955
    -1.4386  -1.4341  -0.9181  -0.7016  -0.5471  -0.5272  -0.3367  -0.2903
    -0.2083  -0.0920   0.2045   0.2179   0.2941   0.3844   0.4901   0.7961
     0.8081   0.9348   0.9615   1.0437   1.1728   1.3263   1.4238   1.4737
     1.5605   1.6239   1.9404   1.9537   2.0235   2.1502   2.4002   2.4617
     2.5335   2.7606   3.3015   3.3229   3.4718   3.6760   3.7184   3.8000
     4.2649   4.2934   4.3150   4.3992   4.4178   4.6192   4.9558   5.0219
     5.1232   5.2510   5.3642   5.5289   5.7969   5.8368   6.0994   6.3525
     6.3527   6.6028

          k = 0.0603-0.0845 0.0000 ( 18030 PWs)   bands (ev):

   -78.1070 -78.1048 -77.7154 -77.7153 -77.7132 -77.7132 -66.1412 -66.1409
   -66.1364 -66.1357 -66.0257 -66.0196 -39.8970 -39.8572 -39.8495 -39.8317
   -39.8138 -39.8059 -39.4915 -39.4836 -39.4755 -39.4739 -39.4272 -39.4218
   -39.4001 -39.3963 -39.3912 -39.3910 -39.3639 -39.3630 -32.6706 -32.6281
   -32.6010 -32.5953 -32.5052 -32.4850 -32.4807 -32.4392 -32.4389 -32.4107
   -32.4002 -32.3923 -32.3350 -32.3240 -32.3138 -32.3134 -32.2923 -32.2561
    -3.8873  -3.3869  -3.2377  -2.0856  -2.0824  -1.9205  -1.4744  -1.3106
    -1.1214  -1.1010  -1.0663  -0.9227  -0.8464  -0.7601  -0.5797  -0.4144
    -0.1746  -0.0452   0.0465   0.0588   0.0977   0.3054   0.3434   0.3544
     0.4062   0.4099   0.4450   0.9222   0.9280   0.9530   1.0281   1.2109
     1.3110   1.3217   1.9444   2.1713   2.3312   2.4002   2.4311   2.8762
     2.9296   2.9439   3.6121   3.6262   3.8430   4.1735   4.2018   4.2632
     4.3157   4.3323   4.5662   4.6477   4.9107   5.0870   5.2287   5.2412
     5.3111   5.3347   5.5248   5.6574   5.6617   5.8893   6.1792   6.1792
     6.2153   6.2906

          k = 0.0603-0.0526 0.0000 ( 18001 PWs)   bands (ev):

   -78.1060 -78.1059 -77.7143 -77.7143 -77.7143 -77.7142 -66.1388 -66.1385
   -66.1384 -66.1383 -66.0229 -66.0222 -39.8702 -39.8654 -39.8578 -39.8566
   -39.8110 -39.8102 -39.4859 -39.4839 -39.4793 -39.4744 -39.4045 -39.4028
   -39.4017 -39.4003 -39.3958 -39.3941 -39.3912 -39.3906 -32.6513 -32.6251
   -32.6100 -32.6035 -32.4904 -32.4627 -32.4136 -32.4102 -32.3973 -32.3955
   -32.3746 -32.3738 -32.3719 -32.3650 -32.3641 -32.3216 -32.2922 -32.2553
    -4.6786  -3.5091  -2.7642  -2.5410  -2.3705  -2.0267  -1.9587  -1.7476
    -1.6620  -1.5118  -1.2677  -0.9792  -0.7932  -0.6936  -0.4040  -0.3040
    -0.2732  -0.2538  -0.2113  -0.0078   0.1097   0.1471   0.1726   0.2253
     0.3685   0.4989   0.5495   0.7198   0.8768   0.9698   1.1525   1.2295
     1.2839   1.5306   2.0526   2.2294   2.4677   2.7710   2.8204   3.3178
     3.6414   3.6780   3.7622   3.8974   4.1121   4.1957   4.2658   4.2710
     4.4809   4.5219   4.7808   4.8500   5.1908   5.2094   5.2204   5.2685
     5.3465   5.4430   5.4649   5.6421   6.1692   6.2676   6.3302   6.3530
     6.4679   6.5200

          k =-0.0904 0.0311 0.0000 ( 17978 PWs)   bands (ev):

   -78.1060 -78.1060 -77.7143 -77.7143 -77.7143 -77.7143 -66.1386 -66.1386
   -66.1384 -66.1383 -66.0226 -66.0226 -39.8700 -39.8700 -39.8550 -39.8550
   -39.8106 -39.8106 -39.4830 -39.4830 -39.4790 -39.4790 -39.4043 -39.4043
   -39.4035 -39.4035 -39.3918 -39.3918 -39.3903 -39.3903 -32.6345 -32.6345
   -32.6143 -32.6143 -32.4579 -32.4579 -32.4343 -32.4343 -32.4047 -32.4047
   -32.3716 -32.3716 -32.3663 -32.3663 -32.3346 -32.3346 -32.2703 -32.2703
    -4.2748  -4.2748  -2.6542  -2.6542  -1.8399  -1.8399  -1.8297  -1.8297
    -1.7688  -1.7688  -1.3798  -1.3798  -0.6108  -0.6108  -0.4447  -0.4447
    -0.3365  -0.3365   0.0021   0.0021   0.0727   0.0727   0.3525   0.3525
     0.6944   0.6944   0.9123   0.9123   1.0508   1.0508   1.4838   1.4838
     1.5236   1.5236   1.7260   1.7260   2.5900   2.5900   2.6353   2.6353
     3.5406   3.5406   3.7700   3.7700   4.1027   4.1027   4.1618   4.1618
     4.3098   4.3098   4.5578   4.5578   4.8864   4.8864   4.9677   4.9677
     5.3396   5.3396   5.4673   5.4673   6.2402   6.2402   6.5542   6.5542
     6.7240   6.7240

          k =-0.0904 0.0629 0.0000 ( 17991 PWs)   bands (ev):

   -78.1071 -78.1048 -77.7154 -77.7153 -77.7132 -77.7132 -66.1411 -66.1410
   -66.1362 -66.1358 -66.0255 -66.0197 -39.9002 -39.8600 -39.8519 -39.8304
   -39.8139 -39.8065 -39.4897 -39.4808 -39.4781 -39.4757 -39.4306 -39.4254
   -39.4021 -39.3969 -39.3945 -39.3928 -39.3627 -39.3618 -32.6591 -32.6235
   -32.6092 -32.6077 -32.4811 -32.4730 -32.4638 -32.4411 -32.4384 -32.4334
   -32.4024 -32.3696 -32.3324 -32.3268 -32.3129 -32.3110 -32.2801 -32.2626
    -4.3804  -3.7932  -2.6319  -2.4091  -2.3063  -1.8340  -1.7922  -1.6840
    -1.6667  -1.4893  -1.4251  -0.8888  -0.7571  -0.4403  -0.4389  -0.3545
    -0.2836  -0.2570  -0.2541  -0.0831   0.2983   0.3061   0.3689   0.5672
     0.6098   0.8878   0.9478   0.9954   1.0317   1.0896   1.2274   1.3266
     1.5896   1.7735   1.7980   1.8322   2.3751   2.4745   2.5600   2.6577
     3.1341   3.3772   3.4186   3.6950   3.7203   3.9179   4.0341   4.2447
     4.2936   4.2941   4.3891   4.3920   4.7123   5.0461   5.1211   5.3437
     5.4204   5.5047   5.5453   5.5840   5.9519   6.2412   6.4621   6.5603
     6.6086   6.8696

          k =-0.0904 0.0948 0.0000 ( 18032 PWs)   bands (ev):

   -78.1079 -78.1040 -77.7162 -77.7161 -77.7124 -77.7124 -66.1431 -66.1428
   -66.1346 -66.1339 -66.0277 -66.0177 -39.9223 -39.8571 -39.8447 -39.8160
   -39.8036 -39.8031 -39.4948 -39.4821 -39.4774 -39.4706 -39.4520 -39.4452
   -39.4002 -39.3930 -39.3903 -39.3865 -39.3372 -39.3364 -32.6797 -32.6282
   -32.6025 -32.5919 -32.5283 -32.5040 -32.4916 -32.4844 -32.4814 -32.4326
   -32.3996 -32.3938 -32.3266 -32.2937 -32.2861 -32.2755 -32.2712 -32.2594
    -4.1563  -3.0907  -3.0302  -2.3397  -1.7888  -1.7789  -1.7485  -1.6955
    -1.4386  -1.4341  -0.9181  -0.7016  -0.5471  -0.5272  -0.3367  -0.2903
    -0.2083  -0.0920   0.2045   0.2179   0.2941   0.3844   0.4901   0.7961
     0.8081   0.9348   0.9615   1.0437   1.1728   1.3263   1.4238   1.4737
     1.5605   1.6239   1.9404   1.9537   2.0235   2.1502   2.4002   2.4617
     2.5335   2.7606   3.3015   3.3229   3.4718   3.6760   3.7184   3.8000
     4.2649   4.2934   4.3150   4.3992   4.4178   4.6192   4.9558   5.0219
     5.1232   5.2510   5.3642   5.5289   5.7969   5.8368   6.0994   6.3525
     6.3527   6.6028

          k =-0.0904-0.0645 0.0000 ( 18040 PWs)   bands (ev):

   -78.1082 -78.1037 -77.7164 -77.7164 -77.7121 -77.7121 -66.1438 -66.1435
   -66.1340 -66.1332 -66.0285 -66.0170 -39.9302 -39.8556 -39.8413 -39.8166
   -39.8017 -39.7932 -39.4967 -39.4827 -39.4771 -39.4683 -39.4602 -39.4521
   -39.3991 -39.3912 -39.3882 -39.3833 -39.3277 -39.3261 -32.6877 -32.6300
   -32.6004 -32.5843 -32.5496 -32.5150 -32.5035 -32.5032 -32.4998 -32.4262
   -32.4101 -32.3992 -32.3276 -32.2877 -32.2792 -32.2620 -32.2587 -32.2568
    -3.7742  -3.6155  -2.3592  -2.1333  -2.0755  -1.8778  -1.6775  -1.4863
    -1.4650  -1.2684  -0.6276  -0.6158  -0.4516  -0.4463  -0.3258  -0.1426
    -0.1119  -0.0944   0.0237   0.5385   0.5388   0.5883   0.8322   0.8400
     0.9409   0.9598   0.9612   1.1270   1.3542   1.3820   1.4107   1.5044
     1.5160   1.7332   1.7755   1.8174   1.8926   1.9781   2.1030   2.4663
     2.8748   2.8892   2.9746   3.0792   3.2165   3.3740   3.4950   3.5209
     3.7231   3.9307   4.1102   4.2629   4.2756   4.4367   4.5297   4.5423
     4.9944   5.0059   5.1791   5.3761   5.6989   5.8434   6.2207   6.3485
     6.5914   6.7256

     the Fermi energy is     2.3531 ev

!    total energy              =   -2012.30855784 Ry
     Harris-Foulkes estimate   =   -2012.30855747 Ry
     estimated scf accuracy    <       0.00000021 Ry

     The total energy is the sum of the following terms:

     one-electron contribution =  -14473.10856045 Ry
     hartree contribution      =    7219.14770467 Ry
     xc contribution           =    -586.20949776 Ry
     ewald contribution        =    5827.92177731 Ry
     electric field correction =       0.00000000 Ry
     smearing contrib. (-TS)   =      -0.05998161 Ry

     convergence has been achieved in  16 iterations
 
 BEEF-vdW xc energy contributions
           1 :   -519.079000661957     
           2 :    481.167669763015     
           3 :   -413.895684519796     
           4 :    331.230858324834     
           5 :   -247.948488729966     
           6 :    175.468237245418     
           7 :   -119.545496121602     
           8 :    80.2987326579362     
           9 :   -54.0726660283335     
          10 :    36.0109113007471     
          11 :   -22.1888573760325     
          12 :    10.6128695677528     
          13 :   -1.03892847070495     
          14 :   -5.93251956456299     
          15 :    9.84308614738427     
          16 :   -10.9488501126189     
          17 :    10.2105363805742     
          18 :   -8.86264391377790     
          19 :    7.89070422311966     
          20 :   -7.71518907972541     
          21 :    8.20213245697960     
          22 :   -8.92014420469002     
          23 :    9.44956318988193     
          24 :   -9.57506625339829     
          25 :    9.30511751600363     
          26 :   -8.77338187923635     
          27 :    8.11991984410167     
          28 :   -7.42678549981031     
          29 :    6.72422984969921     
          30 :   -6.03490911498045     
          31 :   -44.4760546869212     
          32 :   -32.9966524161207     

     Forces acting on atoms (Ry/au):


     negative rho (up, down):  1.383E+00 0.000E+00
     atom    1 type  1   force =     0.00512088    0.00365427   -0.00891596
     atom    2 type  1   force =     0.00512253    0.00365597   -0.00891869
     atom    3 type  2   force =     0.00215347    0.00153506    0.04087214
     atom    4 type  2   force =     0.00215104    0.00153595    0.04086889
     atom    5 type  1   force =    -0.00000073    0.00000374   -0.00001643
     atom    6 type  1   force =     0.00000164   -0.00000285   -0.00001582
     atom    7 type  2   force =     0.00001984    0.00002074    0.00000409
     atom    8 type  2   force =     0.00001784    0.00000649    0.00000600
     atom    9 type  1   force =    -0.00512013   -0.00365595    0.00891123
     atom   10 type  1   force =    -0.00512240   -0.00365458    0.00890814
     atom   11 type  2   force =    -0.00217336   -0.00155030   -0.04084862
     atom   12 type  2   force =    -0.00217061   -0.00154854   -0.04085498

     Total force =     0.084752     Total SCF correction =     0.000990


     entering subroutine stress ...


     negative rho (up, down):  1.383E+00 0.000E+00
          total   stress  (Ry/bohr**3)                   (kbar)     P=  -35.73
  -0.00027350   0.00004090  -0.00002587        -40.23      6.02     -3.80
   0.00004090  -0.00030163  -0.00001846          6.02    -44.37     -2.72
  -0.00002587  -0.00001846  -0.00015356         -3.80     -2.72    -22.59

 !ASE

     Writing output data file calc.save
 
     init_run     :      5.41s CPU      7.91s WALL (       1 calls)
     electrons    :    192.07s CPU    262.13s WALL (       1 calls)
     forces       :      3.64s CPU      3.98s WALL (       1 calls)
     stress       :     14.22s CPU     15.37s WALL (       1 calls)

     Called by init_run:
     wfcinit      :      3.37s CPU      5.49s WALL (       1 calls)
     potinit      :      0.41s CPU      0.58s WALL (       1 calls)

     Called by electrons:
     c_bands      :    136.23s CPU    189.07s WALL (      16 calls)
     sum_band     :     29.21s CPU     38.11s WALL (      16 calls)
     v_of_rho     :      4.22s CPU      6.83s WALL (      17 calls)
     newd         :     15.31s CPU     15.98s WALL (      17 calls)
     mix_rho      :      0.18s CPU      0.27s WALL (      16 calls)
     vdW_energy   :      2.74s CPU      3.12s WALL (      53 calls)
     vdW_ffts     :      4.80s CPU      9.78s WALL (     108 calls)
     vdW_v        :      1.48s CPU      2.29s WALL (      53 calls)

     Called by c_bands:
     init_us_2    :      1.68s CPU      1.79s WALL (     700 calls)
     cegterg      :    124.88s CPU    176.51s WALL (     320 calls)

     Called by *egterg:
     h_psi        :     59.57s CPU    100.48s WALL (    1142 calls)
     s_psi        :      8.78s CPU      8.85s WALL (    1142 calls)
     g_psi        :      0.43s CPU      0.44s WALL (     802 calls)
     cdiaghg      :     33.58s CPU     34.41s WALL (    1122 calls)

     Called by h_psi:
     add_vuspsi   :      9.84s CPU      9.85s WALL (    1142 calls)

     General routines
     calbec       :     15.30s CPU     17.72s WALL (    1502 calls)
     fft          :      7.54s CPU     15.72s WALL (    3225 calls)
     ffts         :      0.01s CPU      0.04s WALL (      33 calls)
     fftw         :     41.18s CPU     88.01s WALL (  202184 calls)
     interpolate  :      0.08s CPU      0.21s WALL (      33 calls)
     davcio       :      0.00s CPU      0.19s WALL (      20 calls)
 
     Parallel routines
     fft_scatter  :     24.24s CPU     71.48s WALL (  205442 calls)
 
     PWSCF        :  3m35.91s CPU     4m50.59s WALL

 
   This run was terminated on:   7: 3: 7  19Dec2018            

=------------------------------------------------------------------------------=
   JOB DONE.
=------------------------------------------------------------------------------=
Job  /afs/slac/g/suncat/bin/suncat-tsmpirun -x LD_LIBRARY_PATH -wdir /scratch/qe530632_sJacU pw.x -in pw.inp

TID   HOST_NAME   COMMAND_LINE            STATUS            TERMINATION_TIME
===== ========== ================  =======================  ===================
00000 suncat2060 pw.x -in pw.inp   Done                     12/19/2018 07:03:07
00001 suncat2060 pw.x -in pw.inp   Done                     12/19/2018 07:03:07
00002 suncat2060 pw.x -in pw.inp   Done                     12/19/2018 07:03:07
00003 suncat2060 pw.x -in pw.inp   Done                     12/19/2018 07:03:07
00004 suncat2060 pw.x -in pw.inp   Done                     12/19/2018 07:03:07
00005 suncat2060 pw.x -in pw.inp   Done                     12/19/2018 07:03:07
00006 suncat2060 pw.x -in pw.inp   Done                     12/19/2018 07:03:07
00007 suncat2060 pw.x -in pw.inp   Done                     12/19/2018 07:03:07
00008 suncat2060 pw.x -in pw.inp   Done                     12/19/2018 07:03:07
00009 suncat2060 pw.x -in pw.inp   Done                     12/19/2018 07:03:07
00010 suncat2060 pw.x -in pw.inp   Done                     12/19/2018 07:03:07
00011 suncat2060 pw.x -in pw.inp   Done                     12/19/2018 07:03:07
00012 suncat2060 pw.x -in pw.inp   Done                     12/19/2018 07:03:07
00013 suncat2060 pw.x -in pw.inp   Done                     12/19/2018 07:03:07
00014 suncat2060 pw.x -in pw.inp   Done                     12/19/2018 07:03:07
00015 suncat2060 pw.x -in pw.inp   Done                     12/19/2018 07:03:07
00016 suncat2059 pw.x -in pw.inp   Done                     12/19/2018 07:03:07
00017 suncat2059 pw.x -in pw.inp   Done                     12/19/2018 07:03:07
00018 suncat2059 pw.x -in pw.inp   Done                     12/19/2018 07:03:07
00019 suncat2059 pw.x -in pw.inp   Done                     12/19/2018 07:03:07
00020 suncat2059 pw.x -in pw.inp   Done                     12/19/2018 07:03:07
00021 suncat2059 pw.x -in pw.inp   Done                     12/19/2018 07:03:07
00022 suncat2059 pw.x -in pw.inp   Done                     12/19/2018 07:03:07
00023 suncat2059 pw.x -in pw.inp   Done                     12/19/2018 07:03:07
00024 suncat2059 pw.x -in pw.inp   Done                     12/19/2018 07:03:07
00025 suncat2059 pw.x -in pw.inp   Done                     12/19/2018 07:03:07
00026 suncat2059 pw.x -in pw.inp   Done                     12/19/2018 07:03:07
00027 suncat2059 pw.x -in pw.inp   Done                     12/19/2018 07:03:07
00028 suncat2059 pw.x -in pw.inp   Done                     12/19/2018 07:03:07
00029 suncat2059 pw.x -in pw.inp   Done                     12/19/2018 07:03:07
00030 suncat2059 pw.x -in pw.inp   Done                     12/19/2018 07:03:07
00031 suncat2059 pw.x -in pw.inp   Done                     12/19/2018 07:03:07

     Program PWSCF v.5.1rc2 (svn rev. 11289) starts on 19Dec2018 at  7: 3:12 

     This program is part of the open-source Quantum ESPRESSO suite
     for quantum simulation of materials; please cite
         "P. Giannozzi et al., J. Phys.:Condens. Matter 21 395502 (2009);
          URL http://www.quantum-espresso.org", 
     in publications or presentations arising from this work. More details at
     http://www.quantum-espresso.org/quote

     Parallel version (MPI), running on    32 processors
     R & G space division:  proc/nbgrp/npool/nimage =      32
     Reading input from pw.inp
     Message from routine read_cards :
     DEPRECATED: no units specified in CELL_PARAMETERS card

     Current dimensions of program PWSCF are:
     Max number of different atomic species (ntypx) = 10
     Max number of k-points (npk) =  40000
     Max angular momentum in pseudopotentials (lmaxx) =  3
     Presently stress not available with electric field


     **************************************************************************
     Initializing libbeef V0.1.1 with the BEEF-vdW functional.
     Citation: Wellendorff et al., PRB 85, 235149 (2012).
     **************************************************************************


     IMPORTANT: XC functional enforced from input :
     Exchange-correlation      = BEEF-VDW ( 1  4 27 13 2)
     Any further DFT definition will be discarded
     Please, verify this is what you really want


     Subspace diagonalization in iterative solution of the eigenvalue problem:
     a serial algorithm will be used

     Found symmetry operation: I + (  0.5000  0.5000  0.0000)
     This is a supercell, fractional translations are disabled
 
     Parallelization info
     --------------------
     sticks:   dense  smooth     PW     G-vecs:    dense   smooth      PW
     Min          94      37     10                17762     4483     680
     Max          97      38     11                17780     4518     701
     Sum        3011    1207    345               568613   143945   22167
 


     bravais-lattice index     =            0
     lattice parameter (alat)  =       1.8897  a.u.
     unit-cell volume          =    4782.8662 (a.u.)^3
     number of atoms/cell      =           12
     number of atomic types    =            2
     number of electrons       =       168.00
     number of Kohn-Sham states=          114
     kinetic-energy cutoff     =      36.7493  Ry
     charge density cutoff     =     367.4932  Ry
     convergence threshold     =      1.0E-06
     mixing beta               =       0.1000
     number of iterations used =           10  plain     mixing
     Exchange-correlation      = BEEF-VDW ( 1  4 27 13 2)
     nstep                     =           50


     celldm(1)=   1.889726  celldm(2)=   0.000000  celldm(3)=   0.000000
     celldm(4)=   0.000000  celldm(5)=   0.000000  celldm(6)=   0.000000

     crystal axes: (cart. coord. in units of alat)
               a(1) = (   5.530750   0.000000   0.000000 )  
               a(2) = (   1.798307   5.230228   0.000000 )  
               a(3) = (   0.000000   0.000000  24.501181 )  

     reciprocal axes: (cart. coord. in units 2 pi/alat)
               b(1) = (  0.180807 -0.062167  0.000000 )  
               b(2) = (  0.000000  0.191196  0.000000 )  
               b(3) = (  0.000000  0.000000  0.040814 )  


     PseudoPot. # 1 for Ta read from file:
     /afs/slac.stanford.edu/u/if/mamunm/psp/gbrv1.5pbe/Ta.UPF
     MD5 check sum: f8bbe9446314a3b8ea5d9f3e3836c939
     Pseudo is Ultrasoft + core correction, Zval = 13.0
     Generated by new atomic code, or converted to UPF format
     Using radial grid of  921 points,  7 beta functions with: 
                l(1) =   0
                l(2) =   0
                l(3) =   1
                l(4) =   1
                l(5) =   2
                l(6) =   2
                l(7) =   3
     Q(r) pseudized with  6 coefficients,  rinner =    1.300   1.300   1.300
                                                       1.300   1.300   1.300
                                                       1.300

     PseudoPot. # 2 for Re read from file:
     /afs/slac.stanford.edu/u/if/mamunm/psp/gbrv1.5pbe/Re.UPF
     MD5 check sum: 85f993410f3e006da9d71c142b4ad953
     Pseudo is Ultrasoft + core correction, Zval = 15.0
     Generated by new atomic code, or converted to UPF format
     Using radial grid of  981 points,  8 beta functions with: 
                l(1) =   0
                l(2) =   0
                l(3) =   1
                l(4) =   1
                l(5) =   2
                l(6) =   2
                l(7) =   3
                l(8) =   3
     Q(r) pseudized with  8 coefficients,  rinner =    1.150   1.150   1.150
                                                       1.150   1.150   1.150
                                                       1.150

     vdW kernel table read from file vdW_kernel_table
     MD5 check sum: 095c7af220d748ca6e76c0b4c6cfb241

     atomic species   valence    mass     pseudopotential
        Ta1           13.00   180.94788     Ta( 1.00)
        Re1           15.00   186.20700     Re( 1.00)

     No symmetry found



   Cartesian axes

     site n.     atom                  positions (alat units)
         1           Ta1 tau(   1) = (   0.0000000   0.0000000  10.0000000  )
         2           Ta1 tau(   2) = (   3.6645282   2.6151140  10.0000000  )
         3           Re1 tau(   3) = (   2.7653748   0.0000000  10.0000000  )
         4           Re1 tau(   4) = (   0.8991534   2.6151140  10.0000000  )
         5           Ta1 tau(   5) = (   5.5307497   3.9469039  12.2505903  )
         6           Ta1 tau(   6) = (   1.8662214   1.3317899  12.2505903  )
         7           Re1 tau(   7) = (   2.7653748   3.9469039  12.2505903  )
         8           Re1 tau(   8) = (   4.6315963   1.3317899  12.2505903  )
         9           Ta1 tau(   9) = (   3.7192785   2.6541800  14.5240923  )
        10           Ta1 tau(  10) = (   0.0547444   0.0390695  14.5240844  )
        11           Re1 tau(  11) = (   0.9614801   2.6595939  14.3961546  )
        12           Re1 tau(  12) = (   2.8277086   0.0444844  14.3961383  )

     number of k points=    20  Fermi-Dirac smearing, width (Ry)=  0.0110
                       cart. coord. in units 2pi/alat
        k(    1) = (   0.0000000   0.0000000   0.0000000), wk =   0.0555556
        k(    2) = (   0.0000000   0.0318660   0.0000000), wk =   0.1111111
        k(    3) = (   0.0000000   0.0637321   0.0000000), wk =   0.1111111
        k(    4) = (   0.0000000  -0.0955981   0.0000000), wk =   0.0555556
        k(    5) = (   0.0301346  -0.0103611   0.0000000), wk =   0.1111111
        k(    6) = (   0.0301346   0.0215049   0.0000000), wk =   0.1111111
        k(    7) = (   0.0301346   0.0533709   0.0000000), wk =   0.1111111
        k(    8) = (   0.0301346  -0.1059593   0.0000000), wk =   0.1111111
        k(    9) = (   0.0301346  -0.0740932   0.0000000), wk =   0.1111111
        k(   10) = (   0.0301346  -0.0422272   0.0000000), wk =   0.1111111
        k(   11) = (   0.0602691  -0.0207223   0.0000000), wk =   0.1111111
        k(   12) = (   0.0602691   0.0111437   0.0000000), wk =   0.1111111
        k(   13) = (   0.0602691   0.0430098   0.0000000), wk =   0.1111111
        k(   14) = (   0.0602691  -0.1163204   0.0000000), wk =   0.1111111
        k(   15) = (   0.0602691  -0.0844544   0.0000000), wk =   0.1111111
        k(   16) = (   0.0602691  -0.0525883   0.0000000), wk =   0.1111111
        k(   17) = (  -0.0904037   0.0310834   0.0000000), wk =   0.0555556
        k(   18) = (  -0.0904037   0.0629495   0.0000000), wk =   0.1111111
        k(   19) = (  -0.0904037   0.0948155   0.0000000), wk =   0.1111111
        k(   20) = (  -0.0904037  -0.0645147   0.0000000), wk =   0.0555556

     Dense  grid:   568613 G-vectors     FFT dimensions: (  64,  64, 288)

     Smooth grid:   143945 G-vectors     FFT dimensions: (  45,  45, 180)

     Largest allocated arrays     est. size (Mb)     dimensions
        Kohn-Sham Wavefunctions         1.04 Mb     (     595,  114)
        NL pseudopotentials             3.11 Mb     (     595,  342)
        Each V/rho on FFT grid          0.56 Mb     (   36864)
        Each G-vector array             0.14 Mb     (   17780)
        G-vector shells                 0.06 Mb     (    8426)
     Largest temporary arrays     est. size (Mb)     dimensions
        Auxiliary wavefunctions         4.14 Mb     (     595,  456)
        Each subspace H/S matrix        3.17 Mb     (     456,  456)
        Each <psi_i|beta_j> matrix      0.59 Mb     (     342,  114)
        Arrays for rho mixing           5.62 Mb     (   36864,   10)

     Initial potential from superposition of free atoms
     Check: negative starting charge=   -1.330020

     starting charge  164.99306, renormalised to  168.00000

     negative rho (up, down):  1.354E+00 0.000E+00


     ************************************************************************
     *
     * You are using vdW-DF for exchange-correlation in this calculation.
     * Please cite the following three references that made this development
     * possible:
     *
     *   M. Dion, H. Rydberg, E. Schroder, D. C. Langreth, and
     *   B. I. Lundqvist, Phys. Rev. Lett. 92, 246401 (2004).
     *
     *   T. Thonhauser, V. R. Cooper, S. Li, A. Puzder, P. Hyldgaard, and
     *   D. C. Langreth, Phys. Rev. B 76, 125112 (2007).
     *
     *   G. Roman-Perez and J. M. Soler, Phys. Rev. Lett. 103, 096102 (2009).
     *
     *
     * If you are using vdW-DF2, please also cite:
     *
     *   K. Lee, E. D. Murray, L. Kong, B. I. Lundqvist, and
     *   D. C. Langreth, Phys. Rev. B 82, 081101(R) (2010).
     *
     *
     * If you are calculating the stress with vdW-DF, please also cite:
     *
     *   R. Sabatini, E. Kucukbenli, B. Kolb, T. Thonhauser, and
     *   S. de Gironcoli, J. Phys.: Condens. Matter 24, 424209 (2012).
     *
     ************************************************************************

     Carrying out vdW-DF run using the following parameters:

     Nqs =      20    Nr_points =    1024   r_max =   100.000
     q_mesh =
               0.00001000     0.04494208     0.09755937     0.15916263
               0.23128650     0.31572767     0.41458969     0.53033537
               0.66584808     0.82450364     1.01025438     1.22772762
               1.48234092     1.78043706     2.12944203     2.53805004
               3.01644009     3.57652955     4.23227104     5.00000000

     Gradients computed in reciprocal space

     ************************************************************************


 
     Adding external electric field

     Computed dipole along edir(3) : 
        Dipole               -0.1140 Ry au,         -0.2898 Debye
        Dipole field         -0.0003 Ry au
 
        Potential amp.        0.0270 Ry
        Total length         45.1430 bohr
 
     Starting wfc are  156 randomized atomic wfcs

     total cpu time spent up to now is        8.2 secs

     Self-consistent Calculation

     iteration #  1     ecut=    36.75 Ry     beta=0.10
     Davidson diagonalization with overlap
     ethr =  1.00E-02,  avg # of iterations =  2.0

     negative rho (up, down):  1.352E+00 0.000E+00
 
     Adding external electric field

     Computed dipole along edir(3) : 
        Dipole                0.3649 Ry au,          0.9274 Debye
        Dipole field          0.0010 Ry au
 
        Potential amp.       -0.0865 Ry
        Total length         45.1430 bohr
 

     total cpu time spent up to now is       24.7 secs

     total energy              =   -2012.34763589 Ry
     Harris-Foulkes estimate   =   -2012.82941050 Ry
     estimated scf accuracy    <       2.95880290 Ry

     iteration #  2     ecut=    36.75 Ry     beta=0.10
     Davidson diagonalization with overlap
     ethr =  1.76E-03,  avg # of iterations =  1.1

     negative rho (up, down):  1.353E+00 0.000E+00
 
     Adding external electric field

     Computed dipole along edir(3) : 
        Dipole               -0.3711 Ry au,         -0.9434 Debye
        Dipole field         -0.0010 Ry au
 
        Potential amp.        0.0880 Ry
        Total length         45.1430 bohr
 

     total cpu time spent up to now is       38.0 secs

     total energy              =   -2012.26593444 Ry
     Harris-Foulkes estimate   =   -2012.63134608 Ry
     estimated scf accuracy    <       5.89100483 Ry

     iteration #  3     ecut=    36.75 Ry     beta=0.10
     Davidson diagonalization with overlap
     ethr =  1.76E-03,  avg # of iterations =  1.0

     negative rho (up, down):  1.355E+00 0.000E+00
 
     Adding external electric field

     Computed dipole along edir(3) : 
        Dipole                0.0215 Ry au,          0.0547 Debye
        Dipole field          0.0001 Ry au
 
        Potential amp.       -0.0051 Ry
        Total length         45.1430 bohr
 

     total cpu time spent up to now is       51.3 secs

     total energy              =   -2012.35121248 Ry
     Harris-Foulkes estimate   =   -2012.60786150 Ry
     estimated scf accuracy    <       5.91778693 Ry

     iteration #  4     ecut=    36.75 Ry     beta=0.10
     Davidson diagonalization with overlap
     ethr =  1.76E-03,  avg # of iterations =  1.0

     negative rho (up, down):  1.363E+00 0.000E+00
 
     Adding external electric field

     Computed dipole along edir(3) : 
        Dipole                0.0237 Ry au,          0.0602 Debye
        Dipole field          0.0001 Ry au
 
        Potential amp.       -0.0056 Ry
        Total length         45.1430 bohr
 

     total cpu time spent up to now is       64.4 secs

     total energy              =   -2012.33372727 Ry
     Harris-Foulkes estimate   =   -2012.44853368 Ry
     estimated scf accuracy    <       0.44649561 Ry

     iteration #  5     ecut=    36.75 Ry     beta=0.10
     Davidson diagonalization with overlap
     ethr =  2.66E-04,  avg # of iterations =  1.1

     negative rho (up, down):  1.374E+00 0.000E+00
 
     Adding external electric field

     Computed dipole along edir(3) : 
        Dipole                0.0417 Ry au,          0.1059 Debye
        Dipole field          0.0001 Ry au
 
        Potential amp.       -0.0099 Ry
        Total length         45.1430 bohr
 

     total cpu time spent up to now is       77.4 secs

     total energy              =   -2012.28686116 Ry
     Harris-Foulkes estimate   =   -2012.35157459 Ry
     estimated scf accuracy    <       0.16816956 Ry

     iteration #  6     ecut=    36.75 Ry     beta=0.10
     Davidson diagonalization with overlap
     ethr =  1.00E-04,  avg # of iterations =  4.9

     negative rho (up, down):  1.376E+00 0.000E+00
 
     Adding external electric field

     Computed dipole along edir(3) : 
        Dipole                0.0269 Ry au,          0.0684 Debye
        Dipole field          0.0001 Ry au
 
        Potential amp.       -0.0064 Ry
        Total length         45.1430 bohr
 

     total cpu time spent up to now is       96.7 secs

     total energy              =   -2012.31091993 Ry
     Harris-Foulkes estimate   =   -2012.31680750 Ry
     estimated scf accuracy    <       0.03380275 Ry

     iteration #  7     ecut=    36.75 Ry     beta=0.10
     Davidson diagonalization with overlap
     ethr =  2.01E-05,  avg # of iterations =  4.5

     negative rho (up, down):  1.379E+00 0.000E+00
 
     Adding external electric field

     Computed dipole along edir(3) : 
        Dipole                0.0334 Ry au,          0.0850 Debye
        Dipole field          0.0001 Ry au
 
        Potential amp.       -0.0079 Ry
        Total length         45.1430 bohr
 

     total cpu time spent up to now is      114.2 secs

     total energy              =   -2012.31343633 Ry
     Harris-Foulkes estimate   =   -2012.31635638 Ry
     estimated scf accuracy    <       0.02306414 Ry

     iteration #  8     ecut=    36.75 Ry     beta=0.10
     Davidson diagonalization with overlap
     ethr =  1.37E-05,  avg # of iterations =  3.2

     negative rho (up, down):  1.380E+00 0.000E+00
 
     Adding external electric field

     Computed dipole along edir(3) : 
        Dipole                0.0334 Ry au,          0.0849 Debye
        Dipole field          0.0001 Ry au
 
        Potential amp.       -0.0079 Ry
        Total length         45.1430 bohr
 

     total cpu time spent up to now is      129.8 secs

     total energy              =   -2012.31634113 Ry
     Harris-Foulkes estimate   =   -2012.31781397 Ry
     estimated scf accuracy    <       0.01459580 Ry

     iteration #  9     ecut=    36.75 Ry     beta=0.10
     Davidson diagonalization with overlap
     ethr =  8.69E-06,  avg # of iterations =  1.0

     negative rho (up, down):  1.383E+00 0.000E+00
 
     Adding external electric field

     Computed dipole along edir(3) : 
        Dipole                0.0337 Ry au,          0.0856 Debye
        Dipole field          0.0001 Ry au
 
        Potential amp.       -0.0080 Ry
        Total length         45.1430 bohr
 

     total cpu time spent up to now is      142.8 secs

     total energy              =   -2012.31703434 Ry
     Harris-Foulkes estimate   =   -2012.31707026 Ry
     estimated scf accuracy    <       0.00220071 Ry

     iteration # 10     ecut=    36.75 Ry     beta=0.10
     Davidson diagonalization with overlap
     ethr =  1.31E-06,  avg # of iterations =  6.5

     negative rho (up, down):  1.383E+00 0.000E+00
 
     Adding external electric field

     Computed dipole along edir(3) : 
        Dipole                0.0332 Ry au,          0.0844 Debye
        Dipole field          0.0001 Ry au
 
        Potential amp.       -0.0079 Ry
        Total length         45.1430 bohr
 

     total cpu time spent up to now is      165.0 secs

     total energy              =   -2012.31735021 Ry
     Harris-Foulkes estimate   =   -2012.31741881 Ry
     estimated scf accuracy    <       0.00088654 Ry

     iteration # 11     ecut=    36.75 Ry     beta=0.10
     Davidson diagonalization with overlap
     ethr =  5.28E-07,  avg # of iterations =  1.0

     negative rho (up, down):  1.383E+00 0.000E+00
 
     Adding external electric field

     Computed dipole along edir(3) : 
        Dipole                0.0329 Ry au,          0.0837 Debye
        Dipole field          0.0001 Ry au
 
        Potential amp.       -0.0078 Ry
        Total length         45.1430 bohr
 

     total cpu time spent up to now is      177.9 secs

     total energy              =   -2012.31739850 Ry
     Harris-Foulkes estimate   =   -2012.31738834 Ry
     estimated scf accuracy    <       0.00018790 Ry

     iteration # 12     ecut=    36.75 Ry     beta=0.10
     Davidson diagonalization with overlap
     ethr =  1.12E-07,  avg # of iterations =  1.5

     negative rho (up, down):  1.383E+00 0.000E+00
 
     Adding external electric field

     Computed dipole along edir(3) : 
        Dipole                0.0327 Ry au,          0.0832 Debye
        Dipole field          0.0001 Ry au
 
        Potential amp.       -0.0078 Ry
        Total length         45.1430 bohr
 

     total cpu time spent up to now is      191.3 secs

     total energy              =   -2012.31737180 Ry
     Harris-Foulkes estimate   =   -2012.31740601 Ry
     estimated scf accuracy    <       0.00015376 Ry

     iteration # 13     ecut=    36.75 Ry     beta=0.10
     Davidson diagonalization with overlap
     ethr =  9.15E-08,  avg # of iterations =  2.5

     negative rho (up, down):  1.383E+00 0.000E+00
 
     Adding external electric field

     Computed dipole along edir(3) : 
        Dipole                0.0327 Ry au,          0.0831 Debye
        Dipole field          0.0001 Ry au
 
        Potential amp.       -0.0078 Ry
        Total length         45.1430 bohr
 

     total cpu time spent up to now is      206.5 secs

     total energy              =   -2012.31739240 Ry
     Harris-Foulkes estimate   =   -2012.31739378 Ry
     estimated scf accuracy    <       0.00002385 Ry

     iteration # 14     ecut=    36.75 Ry     beta=0.10
     Davidson diagonalization with overlap
     ethr =  1.42E-08,  avg # of iterations =  2.2

     negative rho (up, down):  1.383E+00 0.000E+00
 
     Adding external electric field

     Computed dipole along edir(3) : 
        Dipole                0.0329 Ry au,          0.0836 Debye
        Dipole field          0.0001 Ry au
 
        Potential amp.       -0.0078 Ry
        Total length         45.1430 bohr
 

     total cpu time spent up to now is      221.7 secs

     total energy              =   -2012.31739542 Ry
     Harris-Foulkes estimate   =   -2012.31739576 Ry
     estimated scf accuracy    <       0.00000356 Ry

     iteration # 15     ecut=    36.75 Ry     beta=0.10
     Davidson diagonalization with overlap
     ethr =  2.12E-09,  avg # of iterations =  2.4

     negative rho (up, down):  1.383E+00 0.000E+00
 
     Adding external electric field

     Computed dipole along edir(3) : 
        Dipole                0.0330 Ry au,          0.0839 Debye
        Dipole field          0.0001 Ry au
 
        Potential amp.       -0.0078 Ry
        Total length         45.1430 bohr
 

     total cpu time spent up to now is      236.6 secs

     total energy              =   -2012.31739637 Ry
     Harris-Foulkes estimate   =   -2012.31739566 Ry
     estimated scf accuracy    <       0.00000181 Ry

     iteration # 16     ecut=    36.75 Ry     beta=0.10
     Davidson diagonalization with overlap
     ethr =  1.08E-09,  avg # of iterations =  2.5

     negative rho (up, down):  1.383E+00 0.000E+00
 
     Adding external electric field

     Computed dipole along edir(3) : 
        Dipole                0.0329 Ry au,          0.0836 Debye
        Dipole field          0.0001 Ry au
 
        Potential amp.       -0.0078 Ry
        Total length         45.1430 bohr
 

     total cpu time spent up to now is      252.9 secs

     total energy              =   -2012.31739630 Ry
     Harris-Foulkes estimate   =   -2012.31739693 Ry
     estimated scf accuracy    <       0.00000189 Ry

     iteration # 17     ecut=    36.75 Ry     beta=0.10
     Davidson diagonalization with overlap
     ethr =  1.08E-09,  avg # of iterations =  2.0

     negative rho (up, down):  1.383E+00 0.000E+00

     negative rho (up, down):  1.383E+00 0.000E+00

     negative rho (up, down):  1.383E+00 0.000E+00

     negative rho (up, down):  1.383E+00 0.000E+00

     negative rho (up, down):  1.383E+00 0.000E+00

     negative rho (up, down):  1.383E+00 0.000E+00

     negative rho (up, down):  1.383E+00 0.000E+00

     negative rho (up, down):  1.383E+00 0.000E+00

     negative rho (up, down):  1.383E+00 0.000E+00

     negative rho (up, down):  1.383E+00 0.000E+00

     negative rho (up, down):  1.383E+00 0.000E+00

     negative rho (up, down):  1.383E+00 0.000E+00

     negative rho (up, down):  1.383E+00 0.000E+00

     negative rho (up, down):  1.383E+00 0.000E+00

     negative rho (up, down):  1.383E+00 0.000E+00

     negative rho (up, down):  1.383E+00 0.000E+00

     negative rho (up, down):  1.383E+00 0.000E+00

     negative rho (up, down):  1.383E+00 0.000E+00

     negative rho (up, down):  1.383E+00 0.000E+00

     negative rho (up, down):  1.383E+00 0.000E+00

     negative rho (up, down):  1.383E+00 0.000E+00

     negative rho (up, down):  1.383E+00 0.000E+00

     negative rho (up, down):  1.383E+00 0.000E+00

     negative rho (up, down):  1.383E+00 0.000E+00

     negative rho (up, down):  1.383E+00 0.000E+00

     negative rho (up, down):  1.383E+00 0.000E+00

     negative rho (up, down):  1.383E+00 0.000E+00

     negative rho (up, down):  1.383E+00 0.000E+00

     negative rho (up, down):  1.383E+00 0.000E+00

     negative rho (up, down):  1.383E+00 0.000E+00

     negative rho (up, down):  1.383E+00 0.000E+00

     negative rho (up, down):  1.383E+00 0.000E+00

     negative rho (up, down):  1.383E+00 0.000E+00

     negative rho (up, down):  1.383E+00 0.000E+00

     negative rho (up, down):  1.383E+00 0.000E+00
 
     Adding external electric field

     Computed dipole along edir(3) : 
        Dipole                0.0322 Ry au,          0.0818 Debye
        Dipole field          0.0001 Ry au
 
        Potential amp.       -0.0076 Ry
        Total length         45.1430 bohr
 

     total cpu time spent up to now is      281.4 secs

     End of self-consistent calculation

          k = 0.0000 0.0000 0.0000 ( 17999 PWs)   bands (ev):

[...]

   -78.0466 -78.0442 -77.6839 -77.6817 -77.6209 -77.6186 -66.1180 -66.1130
   -66.1000 -66.0949 -65.8876 -65.8826 -39.8441 -39.8104 -39.8039 -39.7686
   -39.7547 -39.7487 -39.4553 -39.4480 -39.4041 -39.3867 -39.3776 -39.3732
   -39.3712 -39.3607 -39.3336 -39.3304 -39.3216 -39.2997 -32.6097 -32.6021
   -32.5771 -32.5698 -32.4068 -32.4017 -32.3947 -32.3747 -32.3739 -32.3659
   -32.3256 -32.2791 -32.2728 -32.2589 -32.2509 -32.2067 -32.1839 -32.1663
    -5.1209  -3.4591  -3.1634  -2.5019  -2.4358  -2.2151  -2.1949  -2.1086
    -1.9859  -1.8202  -1.6112  -0.8005  -0.7881  -0.5313  -0.5310  -0.4709
    -0.4386  -0.3847  -0.2640  -0.1319   0.2119   0.3319   0.3920   0.5127
     0.5144   0.7026   0.8348   1.0841   1.2116   1.5189   1.5744   1.6995
     1.7695   1.9312   1.9724   2.3558   2.5922   2.7862   2.8414   3.3523
     3.4774   4.0769   4.1758   4.2027   4.2733   4.3111   4.3944   4.4737
     4.6122   4.6200   4.7541   4.8026   4.9029   5.0733   5.1467   5.3651
     5.4534   5.4572   5.5813   5.7320   5.7436   6.5432   6.6072   6.7644
     6.7876   7.0845

          k = 0.0603 0.0111 0.0000 ( 17990 PWs)   bands (ev):

   -78.0474 -78.0434 -77.6846 -77.6809 -77.6217 -77.6178 -66.1199 -66.1111
   -66.1019 -66.0931 -65.8898 -65.8805 -39.8670 -39.8102 -39.7992 -39.7575
   -39.7452 -39.7430 -39.4579 -39.4461 -39.4254 -39.3957 -39.3878 -39.3764
   -39.3701 -39.3572 -39.3322 -39.3189 -39.3065 -39.2751 -32.6241 -32.5969
   -32.5771 -32.5652 -32.4481 -32.4287 -32.4071 -32.3938 -32.3934 -32.3728
   -32.3699 -32.2701 -32.2505 -32.2334 -32.2275 -32.1764 -32.1712 -32.1640
    -5.1615  -3.1760  -3.0899  -2.6501  -2.4651  -2.3037  -2.2169  -2.0463
    -1.9850  -1.9477  -1.4535  -1.0243  -0.8200  -0.4963  -0.4573  -0.3907
    -0.2745  -0.1588  -0.1429  -0.0888   0.1512   0.4887   0.6481   0.6938
     0.9450   0.9527   1.0904   1.3365   1.4747   1.7317   1.8537   1.8768
     1.9526   2.0449   2.0550   2.2609   2.2953   2.6364   2.7379   3.2797
     3.2809   3.5491   3.6110   3.7181   4.0863   4.1337   4.1840   4.3645
     4.4441   4.5582   4.7769   4.8591   4.9381   4.9737   5.3122   5.3677
     5.3709   5.7663   5.8000   5.8324   5.9000   6.2182   6.5008   6.8392
     6.8434   7.1419

          k = 0.0603 0.0430 0.0000 ( 18012 PWs)   bands (ev):

   -78.0476 -78.0431 -77.6849 -77.6806 -77.6220 -77.6175 -66.1207 -66.1105
   -66.1027 -66.0925 -65.8907 -65.8797 -39.8725 -39.8063 -39.7929 -39.7582
   -39.7429 -39.7326 -39.4593 -39.4462 -39.4304 -39.4007 -39.3870 -39.3762
   -39.3661 -39.3539 -39.3274 -39.3155 -39.2969 -39.2652 -32.6368 -32.5984
   -32.5746 -32.5590 -32.4742 -32.4511 -32.4307 -32.4172 -32.3972 -32.3948
   -32.3703 -32.2881 -32.2495 -32.2210 -32.2140 -32.1757 -32.1694 -32.1510
    -4.7994  -2.8898  -2.8212  -2.5435  -2.3192  -2.1927  -1.8618  -1.8532
    -1.8365  -1.8289  -0.9787  -0.9236  -0.8830  -0.3758  -0.3497  -0.3042
    -0.1991  -0.1445   0.2244   0.2567   0.4863   0.6341   0.6795   0.8998
     0.9453   1.0073   1.0756   1.4042   1.5249   1.5779   1.6419   1.7906
     1.8079   1.8339   1.9285   1.9773   2.1917   2.4910   2.5925   2.7049
     3.0073   3.0916   3.3155   3.4457   3.6429   3.9751   4.0245   4.0744
     4.2617   4.2957   4.4205   4.7311   4.9889   4.9955   5.0867   5.1045
     5.1566   5.3371   5.3933   5.7533   5.9854   5.9975   6.1763   6.4538
     6.5823   6.8760

          k = 0.0603-0.1163 0.0000 ( 18032 PWs)   bands (ev):

   -78.0473 -78.0435 -77.6846 -77.6809 -77.6217 -77.6178 -66.1201 -66.1112
   -66.1020 -66.0932 -65.8901 -65.8804 -39.8610 -39.8033 -39.7907 -39.7572
   -39.7430 -39.7422 -39.4586 -39.4479 -39.4191 -39.3895 -39.3849 -39.3767
   -39.3630 -39.3545 -39.3231 -39.3154 -39.3060 -39.2747 -32.6404 -32.6007
   -32.5716 -32.5567 -32.4644 -32.4438 -32.4417 -32.4335 -32.3934 -32.3836
   -32.3689 -32.2984 -32.2492 -32.2372 -32.2311 -32.1801 -32.1685 -32.1644
    -4.1301  -3.0706  -3.0112  -2.3105  -1.7735  -1.7601  -1.6988  -1.6455
    -1.4925  -1.4105  -0.9290  -0.7146  -0.5657  -0.5154  -0.3296  -0.3274
    -0.1568  -0.0826   0.1847   0.2168   0.2979   0.3868   0.5091   0.7328
     0.8594   0.9506   0.9919   1.1629   1.2196   1.3358   1.4459   1.5770
     1.5893   1.7082   1.8600   1.9145   2.0594   2.1159   2.4671   2.5244
     2.7206   2.8185   3.3490   3.4976   3.5178   3.7812   3.8509   3.9595
     4.3105   4.3509   4.3732   4.4875   4.5556   4.8044   5.0349   5.1068
     5.2125   5.2598   5.3951   5.5925   5.8474   5.9706   6.1506   6.3987
     6.4408   6.6762

          k = 0.0603-0.0845 0.0000 ( 18030 PWs)   bands (ev):

   -78.0465 -78.0443 -77.6838 -77.6817 -77.6208 -77.6186 -66.1182 -66.1130
   -66.1002 -66.0950 -65.8882 -65.8823 -39.8357 -39.8036 -39.7955 -39.7702
   -39.7551 -39.7458 -39.4557 -39.4501 -39.3957 -39.3823 -39.3787 -39.3643
   -39.3625 -39.3601 -39.3326 -39.3217 -39.3205 -39.3021 -32.6321 -32.6014
   -32.5703 -32.5612 -32.4353 -32.4328 -32.4162 -32.3991 -32.3815 -32.3639
   -32.3386 -32.2946 -32.2766 -32.2720 -32.2465 -32.2097 -32.1850 -32.1624
    -3.8644  -3.3500  -3.2291  -2.0636  -2.0445  -1.8942  -1.4681  -1.3283
    -1.1137  -1.0528  -1.0486  -0.9176  -0.8683  -0.7727  -0.6487  -0.3842
    -0.1952  -0.0022   0.0493   0.1048   0.1379   0.2240   0.3042   0.3930
     0.4306   0.4312   0.4655   0.9974   1.0330   1.0356   1.0803   1.3220
     1.3729   1.3967   1.9426   2.1333   2.3710   2.3732   2.4042   2.9060
     2.9925   3.0779   3.6622   3.8740   3.8816   4.2400   4.2580   4.3482
     4.4061   4.4348   4.5644   5.0143   5.0158   5.1512   5.2269   5.2865
     5.3399   5.4499   5.5609   5.6563   5.7202   5.9826   6.2210   6.2562
     6.3188   6.3228

          k = 0.0603-0.0526 0.0000 ( 18001 PWs)   bands (ev):

   -78.0454 -78.0453 -77.6828 -77.6827 -77.6198 -77.6197 -66.1156 -66.1155
   -66.0975 -66.0975 -65.8854 -65.8849 -39.8099 -39.8066 -39.8032 -39.8001
   -39.7523 -39.7503 -39.4525 -39.4517 -39.3842 -39.3813 -39.3682 -39.3681
   -39.3619 -39.3609 -39.3393 -39.3344 -39.3265 -39.3218 -32.6165 -32.6025
   -32.5705 -32.5704 -32.4200 -32.4129 -32.3714 -32.3642 -32.3459 -32.3337
   -32.3315 -32.3240 -32.2827 -32.2747 -32.2613 -32.2434 -32.1874 -32.1630
    -4.6559  -3.4877  -2.7264  -2.5268  -2.3531  -2.0209  -1.9250  -1.7592
    -1.6596  -1.5179  -1.2586  -0.9573  -0.7900  -0.7040  -0.3993  -0.2799
    -0.2536  -0.2448  -0.2113   0.0311   0.1121   0.1775   0.1836   0.2387
     0.3841   0.5832   0.6021   0.8039   0.9239   1.0047   1.2491   1.2569
     1.3201   1.6314   2.0915   2.2487   2.4892   2.7772   2.7988   3.3327
     3.7169   3.7370   3.7952   3.9798   4.1941   4.2610   4.3276   4.4137
     4.5741   4.6487   4.8084   5.0597   5.2305   5.2480   5.2675   5.3055
     5.4409   5.4429   5.5929   5.7082   6.2235   6.3580   6.4518   6.4935
     6.5163   6.6392

          k =-0.0904 0.0311 0.0000 ( 17978 PWs)   bands (ev):

   -78.0454 -78.0454 -77.6828 -77.6827 -77.6198 -77.6198 -66.1155 -66.1155
   -66.0975 -66.0975 -65.8851 -65.8851 -39.8112 -39.8112 -39.7987 -39.7987
   -39.7513 -39.7513 -39.4519 -39.4519 -39.3846 -39.3846 -39.3684 -39.3684
   -39.3591 -39.3591 -39.3387 -39.3387 -39.3226 -39.3226 -32.6072 -32.6072
   -32.5745 -32.5745 -32.4021 -32.4021 -32.3881 -32.3881 -32.3380 -32.3380
   -32.3261 -32.3261 -32.2781 -32.2781 -32.2494 -32.2494 -32.1739 -32.1739
    -4.2520  -4.2519  -2.6263  -2.6263  -1.8414  -1.8414  -1.8023  -1.8023
    -1.7644  -1.7644  -1.3701  -1.3701  -0.6060  -0.6060  -0.4588  -0.4588
    -0.3383  -0.3383   0.0469   0.0469   0.0974   0.0974   0.4237   0.4237
     0.7160   0.7160   0.9339   0.9339   1.0847   1.0847   1.5052   1.5052
     1.6035   1.6035   1.7914   1.7914   2.5505   2.5505   2.6659   2.6659
     3.6881   3.6881   3.8456   3.8457   4.1375   4.1375   4.2068   4.2068
     4.4513   4.4513   4.7311   4.7311   4.9048   4.9049   4.9888   4.9888
     5.3874   5.3874   5.5369   5.5369   6.3330   6.3330   6.7052   6.7052
     6.8061   6.8061

          k =-0.0904 0.0629 0.0000 ( 17991 PWs)   bands (ev):

   -78.0465 -78.0443 -77.6838 -77.6817 -77.6209 -77.6186 -66.1181 -66.1130
   -66.1001 -66.0950 -65.8880 -65.8824 -39.8389 -39.8062 -39.7980 -39.7692
   -39.7549 -39.7467 -39.4555 -39.4493 -39.3991 -39.3845 -39.3788 -39.3678
   -39.3649 -39.3591 -39.3313 -39.3264 -39.3208 -39.3006 -32.6241 -32.6001
   -32.5740 -32.5674 -32.4209 -32.4178 -32.4026 -32.3987 -32.3893 -32.3653
   -32.3342 -32.2849 -32.2744 -32.2689 -32.2488 -32.2076 -32.1786 -32.1682
    -4.3564  -3.7713  -2.6031  -2.3911  -2.2779  -1.8303  -1.7523  -1.6844
    -1.6625  -1.4742  -1.4469  -0.8669  -0.7595  -0.4610  -0.4583  -0.3368
    -0.3018  -0.2372  -0.2233  -0.0251   0.3192   0.3323   0.3854   0.6194
     0.6492   0.8845   0.9707   0.9946   1.0899   1.1358   1.3202   1.3634
     1.7057   1.7742   1.8435   1.8744   2.3561   2.4007   2.5825   2.6921
     3.2089   3.4767   3.5868   3.7789   3.8469   3.9517   4.2155   4.2772
     4.3179   4.3548   4.5075   4.5248   4.8040   5.1310   5.1922   5.3754
     5.4491   5.5878   5.6018   5.6615   6.0332   6.3233   6.5573   6.6860
     6.7594   6.9572

          k =-0.0904 0.0948 0.0000 ( 18032 PWs)   bands (ev):

   -78.0473 -78.0435 -77.6846 -77.6809 -77.6217 -77.6178 -66.1201 -66.1112
   -66.1020 -66.0932 -65.8901 -65.8804 -39.8610 -39.8033 -39.7907 -39.7572
   -39.7430 -39.7422 -39.4586 -39.4479 -39.4191 -39.3895 -39.3849 -39.3767
   -39.3630 -39.3545 -39.3231 -39.3154 -39.3060 -39.2747 -32.6404 -32.6007
   -32.5716 -32.5567 -32.4644 -32.4438 -32.4417 -32.4335 -32.3934 -32.3836
   -32.3689 -32.2984 -32.2492 -32.2372 -32.2311 -32.1801 -32.1685 -32.1644
    -4.1301  -3.0706  -3.0112  -2.3105  -1.7735  -1.7601  -1.6988  -1.6455
    -1.4925  -1.4105  -0.9290  -0.7146  -0.5657  -0.5154  -0.3296  -0.3274
    -0.1568  -0.0826   0.1847   0.2168   0.2979   0.3868   0.5091   0.7328
     0.8594   0.9506   0.9919   1.1629   1.2196   1.3358   1.4459   1.5770
     1.5893   1.7082   1.8600   1.9145   2.0594   2.1159   2.4671   2.5244
     2.7206   2.8185   3.3490   3.4976   3.5178   3.7812   3.8509   3.9595
     4.3105   4.3509   4.3732   4.4875   4.5556   4.8044   5.0349   5.1068
     5.2125   5.2598   5.3951   5.5925   5.8474   5.9706   6.1506   6.3987
     6.4408   6.6762

          k =-0.0904-0.0645 0.0000 ( 18040 PWs)   bands (ev):

   -78.0476 -78.0431 -77.6849 -77.6806 -77.6220 -77.6175 -66.1208 -66.1106
   -66.1028 -66.0925 -65.8909 -65.8797 -39.8688 -39.8018 -39.7872 -39.7579
   -39.7415 -39.7318 -39.4599 -39.4475 -39.4265 -39.3968 -39.3850 -39.3760
   -39.3619 -39.3522 -39.3215 -39.3126 -39.2962 -39.2646 -32.6469 -32.6014
   -32.5705 -32.5520 -32.4849 -32.4601 -32.4553 -32.4429 -32.4022 -32.3969
   -32.3706 -32.3059 -32.2503 -32.2237 -32.2167 -32.1802 -32.1634 -32.1540
    -3.7296  -3.6121  -2.3632  -2.0885  -2.0568  -1.8195  -1.6166  -1.5430
    -1.4328  -1.2235  -0.6839  -0.5743  -0.4774  -0.4096  -0.3183  -0.2253
    -0.2106  -0.0471   0.0131   0.5420   0.5501   0.5567   0.7106   0.8273
     0.9442   0.9991   1.1534   1.2280   1.4159   1.4279   1.4481   1.5057
     1.5222   1.5807   1.8557   1.8685   1.8951   1.9195   2.3682   2.5363
     2.8760   2.9592   2.9991   3.1448   3.3462   3.5992   3.6432   3.6787
     3.9284   3.9435   4.1420   4.3276   4.3349   4.5697   4.5785   4.7630
     5.0368   5.1569   5.1923   5.3718   5.7515   6.0071   6.2567   6.4823
     6.6131   6.7842

     the Fermi energy is     2.3800 ev

!    total energy              =   -2012.31791420 Ry
     Harris-Foulkes estimate   =   -2012.31791377 Ry
     estimated scf accuracy    <       0.00000020 Ry

     The total energy is the sum of the following terms:

     one-electron contribution =  -14588.13710371 Ry
     hartree contribution      =    7277.01304163 Ry
     xc contribution           =    -586.34383936 Ry
     ewald contribution        =    5885.20902100 Ry
     electric field correction =       0.00000252 Ry
     smearing contrib. (-TS)   =      -0.05903628 Ry

     convergence has been achieved in  17 iterations
 
 BEEF-vdW xc energy contributions
           1 :   -519.214409614172     
           2 :    481.347412572846     
           3 :   -414.134245981450     
           4 :    331.499185882724     
           5 :   -248.184256476026     
           6 :    175.607403232429     
           7 :   -119.559812604527     
           8 :    80.2162405743680     
           9 :   -53.9653107464751     
          10 :    35.9544524450005     
          11 :   -22.2200082889673     
          12 :    10.7109074351372     
          13 :   -1.14175512838733     
          14 :   -5.89023263141439     
          15 :    9.89384064978344     
          16 :   -11.0778974194285     
          17 :    10.3679050446555     
          18 :   -8.99189411249972     
          19 :    7.95784970558555     
          20 :   -7.72305921739689     
          21 :    8.18395483634481     
          22 :   -8.91725036625621     
          23 :    9.48666805632729     
          24 :   -9.64782318702305     
          25 :    9.38627613735639     
          26 :   -8.83166316275685     
          27 :    8.13888306933859     
          28 :   -7.41289384377581     
          29 :    6.70094123493175     
          30 :   -6.02748542987672     
          31 :   -44.4849782348456     
          32 :   -33.0152598838688     

     Forces acting on atoms (Ry/au):


     negative rho (up, down):  1.384E+00 0.000E+00
     atom    1 type  1   force =     0.00501647    0.00358215   -0.00700267
     atom    2 type  1   force =     0.00501792    0.00357947   -0.00700377
     atom    3 type  2   force =     0.00226983    0.00161906    0.03440356
     atom    4 type  2   force =     0.00226665    0.00161806    0.03440524
     atom    5 type  1   force =    -0.00325698   -0.00232454   -0.01730210
     atom    6 type  1   force =    -0.00325864   -0.00232508   -0.01730149
     atom    7 type  2   force =    -0.00277211   -0.00197762   -0.01164237
     atom    8 type  2   force =    -0.00276980   -0.00197793   -0.01164348
     atom    9 type  1   force =    -0.00065641   -0.00046992    0.00127218
     atom   10 type  1   force =    -0.00065410   -0.00046837    0.00127072
     atom   11 type  2   force =    -0.00060190   -0.00042908    0.00027227
     atom   12 type  2   force =    -0.00060093   -0.00042621    0.00027190

     Total force =     0.059057     Total SCF correction =     0.002194


     entering subroutine stress ...


     negative rho (up, down):  1.384E+00 0.000E+00
          total   stress  (Ry/bohr**3)                   (kbar)     P=  -29.95
  -0.00024873   0.00004028  -0.00001515        -36.59      5.93     -2.23
   0.00004028  -0.00027643  -0.00001081          5.93    -40.66     -1.59
  -0.00001515  -0.00001081  -0.00008557         -2.23     -1.59    -12.59

 !ASE

     Writing output data file calc.save
 
     init_run     :      5.74s CPU      7.95s WALL (       1 calls)
     electrons    :    211.56s CPU    277.88s WALL (       1 calls)
     forces       :      3.68s CPU      3.98s WALL (       1 calls)
     stress       :     14.63s CPU     15.18s WALL (       1 calls)

     Called by init_run:
     wfcinit      :      3.66s CPU      5.41s WALL (       1 calls)
     potinit      :      0.41s CPU      0.59s WALL (       1 calls)

     Called by electrons:
     c_bands      :    151.01s CPU    200.63s WALL (      17 calls)
     sum_band     :     32.50s CPU     40.59s WALL (      17 calls)
     v_of_rho     :      4.61s CPU      7.48s WALL (      18 calls)
     newd         :     16.20s CPU     16.94s WALL (      18 calls)
     mix_rho      :      0.19s CPU      0.29s WALL (      17 calls)
     vdW_energy   :      2.16s CPU      2.42s WALL (      54 calls)
     vdW_ffts     :      5.73s CPU     11.18s WALL (     110 calls)
     vdW_v        :      1.52s CPU      2.27s WALL (      54 calls)

     Called by c_bands:
     init_us_2    :      1.30s CPU      1.30s WALL (     740 calls)
     cegterg      :    139.50s CPU    188.60s WALL (     340 calls)

     Called by *egterg:
     h_psi        :     70.20s CPU    107.56s WALL (    1239 calls)
     s_psi        :      9.42s CPU      9.46s WALL (    1239 calls)
     g_psi        :      0.45s CPU      0.46s WALL (     879 calls)
     cdiaghg      :     37.46s CPU     38.21s WALL (    1219 calls)

     Called by h_psi:
     add_vuspsi   :     10.25s CPU     10.26s WALL (    1239 calls)

     General routines
     calbec       :     15.58s CPU     17.39s WALL (    1619 calls)
     fft          :      8.51s CPU     16.74s WALL (    3291 calls)
     ffts         :      0.02s CPU      0.05s WALL (      35 calls)
     fftw         :     53.50s CPU     96.68s WALL (  212410 calls)
     interpolate  :      0.10s CPU      0.19s WALL (      35 calls)
     davcio       :      0.00s CPU      0.07s WALL (      20 calls)
 
     Parallel routines
     fft_scatter  :     37.23s CPU     87.43s WALL (  215736 calls)
 
     PWSCF        :  3m56.15s CPU     5m 6.30s WALL

 
   This run was terminated on:   7:18:38  19Dec2018            

=------------------------------------------------------------------------------=
   JOB DONE.
=------------------------------------------------------------------------------=
Job  /afs/slac/g/suncat/bin/suncat-tsmpirun -x LD_LIBRARY_PATH -wdir /scratch/qe530632_sJacU pw.x -in pw.inp

TID   HOST_NAME   COMMAND_LINE            STATUS            TERMINATION_TIME
===== ========== ================  =======================  ===================
00000 suncat2060 pw.x -in pw.inp   Done                     12/19/2018 07:18:38
00001 suncat2060 pw.x -in pw.inp   Done                     12/19/2018 07:18:38
00002 suncat2060 pw.x -in pw.inp   Done                     12/19/2018 07:18:38
00003 suncat2060 pw.x -in pw.inp   Done                     12/19/2018 07:18:38
00004 suncat2060 pw.x -in pw.inp   Done                     12/19/2018 07:18:38
00005 suncat2060 pw.x -in pw.inp   Done                     12/19/2018 07:18:38
00006 suncat2060 pw.x -in pw.inp   Done                     12/19/2018 07:18:38
00007 suncat2060 pw.x -in pw.inp   Done                     12/19/2018 07:18:38
00008 suncat2060 pw.x -in pw.inp   Done                     12/19/2018 07:18:38
00009 suncat2060 pw.x -in pw.inp   Done                     12/19/2018 07:18:38
00010 suncat2060 pw.x -in pw.inp   Done                     12/19/2018 07:18:38
00011 suncat2060 pw.x -in pw.inp   Done                     12/19/2018 07:18:38
00012 suncat2060 pw.x -in pw.inp   Done                     12/19/2018 07:18:38
00013 suncat2060 pw.x -in pw.inp   Done                     12/19/2018 07:18:38
00014 suncat2060 pw.x -in pw.inp   Done                     12/19/2018 07:18:38
00015 suncat2060 pw.x -in pw.inp   Done                     12/19/2018 07:18:38
00016 suncat2059 pw.x -in pw.inp   Done                     12/19/2018 07:18:38
00017 suncat2059 pw.x -in pw.inp   Done                     12/19/2018 07:18:38
00018 suncat2059 pw.x -in pw.inp   Done                     12/19/2018 07:18:38
00019 suncat2059 pw.x -in pw.inp   Done                     12/19/2018 07:18:38
00020 suncat2059 pw.x -in pw.inp   Done                     12/19/2018 07:18:38
00021 suncat2059 pw.x -in pw.inp   Done                     12/19/2018 07:18:38
00022 suncat2059 pw.x -in pw.inp   Done                     12/19/2018 07:18:38
00023 suncat2059 pw.x -in pw.inp   Done                     12/19/2018 07:18:38
00024 suncat2059 pw.x -in pw.inp   Done                     12/19/2018 07:18:38
00025 suncat2059 pw.x -in pw.inp   Done                     12/19/2018 07:18:38
00026 suncat2059 pw.x -in pw.inp   Done                     12/19/2018 07:18:38
00027 suncat2059 pw.x -in pw.inp   Done                     12/19/2018 07:18:38
00028 suncat2059 pw.x -in pw.inp   Done                     12/19/2018 07:18:38
00029 suncat2059 pw.x -in pw.inp   Done                     12/19/2018 07:18:38
00030 suncat2059 pw.x -in pw.inp   Done                     12/19/2018 07:18:38
00031 suncat2059 pw.x -in pw.inp   Done                     12/19/2018 07:18:38
