  python dir          : /u/if/mamunm/src/espresso
  espresso dir        : /nfs/slac/g/suncatfs/sw/espv18/espresso-dynpy-beef/bin
  pseudo dir          : /afs/slac.stanford.edu/u/if/mamunm/psp/gbrv1.5pbe
  ase-espresso py git : GITVERSION



     Program PWSCF v.5.1rc2 (svn rev. 11289) starts on 18Dec2018 at 20:34:26 

     This program is part of the open-source Quantum ESPRESSO suite
     for quantum simulation of materials; please cite
         "P. Giannozzi et al., J. Phys.:Condens. Matter 21 395502 (2009);
          URL http://www.quantum-espresso.org", 
     in publications or presentations arising from this work. More details at
     http://www.quantum-espresso.org/quote

     Parallel version (MPI), running on    32 processors
     R & G space division:  proc/nbgrp/npool/nimage =      32
     Reading input from pw.inp
     Message from routine read_cards :
     DEPRECATED: no units specified in CELL_PARAMETERS card

     Current dimensions of program PWSCF are:
     Max number of different atomic species (ntypx) = 10
     Max number of k-points (npk) =  40000
     Max angular momentum in pseudopotentials (lmaxx) =  3
     Presently stress not available with electric field


     **************************************************************************
     Initializing libbeef V0.1.1 with the BEEF-vdW functional.
     Citation: Wellendorff et al., PRB 85, 235149 (2012).
     **************************************************************************


     IMPORTANT: XC functional enforced from input :
     Exchange-correlation      = BEEF-VDW ( 1  4 27 13 2)
     Any further DFT definition will be discarded
     Please, verify this is what you really want


     Subspace diagonalization in iterative solution of the eigenvalue problem:
     a serial algorithm will be used

     Found symmetry operation: I + ( -0.5000  0.0000  0.0000)
     This is a supercell, fractional translations are disabled
 
     Parallelization info
     --------------------
     sticks:   dense  smooth     PW     G-vecs:    dense   smooth      PW
     Min         107      43     12                20801     5241     838
     Max         108      44     13                20810     5292     853
     Sum        3449    1381    409               665773   168467   27071
 


     bravais-lattice index     =            0
     lattice parameter (alat)  =       1.8897  a.u.
     unit-cell volume          =    5599.3361 (a.u.)^3
     number of atoms/cell      =           12
     number of atomic types    =            2
     number of electrons       =       156.00
     number of Kohn-Sham states=          108
     kinetic-energy cutoff     =      36.7493  Ry
     charge density cutoff     =     367.4932  Ry
     convergence threshold     =      1.0E-06
     mixing beta               =       0.1000
     number of iterations used =           10  plain     mixing
     Exchange-correlation      = BEEF-VDW ( 1  4 27 13 2)
     nstep                     =           50


     celldm(1)=   1.889726  celldm(2)=   0.000000  celldm(3)=   0.000000
     celldm(4)=   0.000000  celldm(5)=   0.000000  celldm(6)=   0.000000

     crystal axes: (cart. coord. in units of alat)
               a(1) = (   6.066211   0.000000   0.000000 )  
               a(2) = (  -3.033106   5.461435   0.000000 )  
               a(3) = (   0.000000   0.000000  25.044690 )  

     reciprocal axes: (cart. coord. in units 2 pi/alat)
               b(1) = (  0.164848  0.091551  0.000000 )  
               b(2) = (  0.000000  0.183102  0.000000 )  
               b(3) = (  0.000000  0.000000  0.039929 )  


     PseudoPot. # 1 for Nb read from file:
     /afs/slac.stanford.edu/u/if/mamunm/psp/gbrv1.5pbe/Nb.UPF
     MD5 check sum: 573aab8a2fa660278ed4a62cd769473f
     Pseudo is Ultrasoft + core correction, Zval = 13.0
     Generated by new atomic code, or converted to UPF format
     Using radial grid of  887 points,  6 beta functions with: 
                l(1) =   0
                l(2) =   0
                l(3) =   1
                l(4) =   1
                l(5) =   2
                l(6) =   2
     Q(r) pseudized with  6 coefficients,  rinner =    1.000   1.000   1.000
                                                       1.000   1.000

     PseudoPot. # 2 for Tl read from file:
     /afs/slac.stanford.edu/u/if/mamunm/psp/gbrv1.5pbe/Tl.UPF
     MD5 check sum: b76cf1f7e72655a2b2c53cf6385d7059
     Pseudo is Ultrasoft + core correction, Zval = 13.0
     Generated by new atomic code, or converted to UPF format
     Using radial grid of  899 points,  6 beta functions with: 
                l(1) =   0
                l(2) =   0
                l(3) =   1
                l(4) =   1
                l(5) =   2
                l(6) =   2
     Q(r) pseudized with  6 coefficients,  rinner =    1.100   1.100   1.100
                                                       1.100   1.100

     vdW kernel table read from file vdW_kernel_table
     MD5 check sum: 095c7af220d748ca6e76c0b4c6cfb241

     atomic species   valence    mass     pseudopotential
        Nb1           13.00    92.90637     Nb( 1.00)
        Tl1           13.00   204.38000     Tl( 1.00)

     No symmetry found



   Cartesian axes

     site n.     atom                  positions (alat units)
         1           Nb1 tau(   1) = (   0.0000000   0.0000000  10.0000000  )
         2           Nb1 tau(   2) = (   3.0331056   0.0000000  10.0000000  )
         3           Tl1 tau(   3) = (   1.5165528   2.7307174  10.0000000  )
         4           Tl1 tau(   4) = (  -1.5165528   2.7307174  10.0000000  )
         5           Nb1 tau(   5) = (   3.0331056   1.6844894  12.5223451  )
         6           Nb1 tau(   6) = (   0.0000000   1.6844894  12.5223451  )
         7           Tl1 tau(   7) = (  -1.5165528   4.4152068  12.5223451  )
         8           Tl1 tau(   8) = (   1.5165528   4.4152068  12.5223451  )
         9           Nb1 tau(   9) = (  -0.0000000   3.3689789  15.0446901  )
        10           Nb1 tau(  10) = (   3.0331056   3.3689789  15.0446901  )
        11           Tl1 tau(  11) = (   4.5496583   0.6382615  15.0446901  )
        12           Tl1 tau(  12) = (   1.5165528   0.6382615  15.0446901  )

     number of k points=    20  Fermi-Dirac smearing, width (Ry)=  0.0110
                       cart. coord. in units 2pi/alat
        k(    1) = (   0.0000000   0.0000000   0.0000000), wk =   0.0555556
        k(    2) = (   0.0000000   0.0305170   0.0000000), wk =   0.1111111
        k(    3) = (   0.0000000   0.0610340   0.0000000), wk =   0.1111111
        k(    4) = (   0.0000000  -0.0915510   0.0000000), wk =   0.0555556
        k(    5) = (   0.0274746   0.0152585   0.0000000), wk =   0.1111111
        k(    6) = (   0.0274746   0.0457755   0.0000000), wk =   0.1111111
        k(    7) = (   0.0274746   0.0762925   0.0000000), wk =   0.1111111
        k(    8) = (   0.0274746  -0.0762925   0.0000000), wk =   0.1111111
        k(    9) = (   0.0274746  -0.0457755   0.0000000), wk =   0.1111111
        k(   10) = (   0.0274746  -0.0152585   0.0000000), wk =   0.1111111
        k(   11) = (   0.0549492   0.0305170   0.0000000), wk =   0.1111111
        k(   12) = (   0.0549492   0.0610340   0.0000000), wk =   0.1111111
        k(   13) = (   0.0549492   0.0915510   0.0000000), wk =   0.1111111
        k(   14) = (   0.0549492  -0.0610340   0.0000000), wk =   0.1111111
        k(   15) = (   0.0549492  -0.0305170   0.0000000), wk =   0.1111111
        k(   16) = (   0.0549492   0.0000000   0.0000000), wk =   0.1111111
        k(   17) = (  -0.0824238  -0.0457755   0.0000000), wk =   0.0555556
        k(   18) = (  -0.0824238  -0.0152585   0.0000000), wk =   0.1111111
        k(   19) = (  -0.0824238   0.0152585   0.0000000), wk =   0.1111111
        k(   20) = (  -0.0824238  -0.1373266   0.0000000), wk =   0.0555556

     Dense  grid:   665773 G-vectors     FFT dimensions: (  72,  75, 300)

     Smooth grid:   168467 G-vectors     FFT dimensions: (  45,  45, 192)

     Largest allocated arrays     est. size (Mb)     dimensions
        Kohn-Sham Wavefunctions         1.12 Mb     (     677,  108)
        NL pseudopotentials             2.23 Mb     (     677,  216)
        Each V/rho on FFT grid          0.82 Mb     (   54000)
        Each G-vector array             0.16 Mb     (   20803)
        G-vector shells                 0.08 Mb     (   10455)
     Largest temporary arrays     est. size (Mb)     dimensions
        Auxiliary wavefunctions         4.46 Mb     (     677,  432)
        Each subspace H/S matrix        2.85 Mb     (     432,  432)
        Each <psi_i|beta_j> matrix      0.36 Mb     (     216,  108)
        Arrays for rho mixing           8.24 Mb     (   54000,   10)

     Check: negative/imaginary core charge=   -0.000001    0.000000

     Initial potential from superposition of free atoms
     Check: negative starting charge=   -0.302131

     starting charge  155.95441, renormalised to  156.00000

     negative rho (up, down):  3.022E-01 0.000E+00


     ************************************************************************
     *
     * You are using vdW-DF for exchange-correlation in this calculation.
     * Please cite the following three references that made this development
     * possible:
     *
     *   M. Dion, H. Rydberg, E. Schroder, D. C. Langreth, and
     *   B. I. Lundqvist, Phys. Rev. Lett. 92, 246401 (2004).
     *
     *   T. Thonhauser, V. R. Cooper, S. Li, A. Puzder, P. Hyldgaard, and
     *   D. C. Langreth, Phys. Rev. B 76, 125112 (2007).
     *
     *   G. Roman-Perez and J. M. Soler, Phys. Rev. Lett. 103, 096102 (2009).
     *
     *
     * If you are using vdW-DF2, please also cite:
     *
     *   K. Lee, E. D. Murray, L. Kong, B. I. Lundqvist, and
     *   D. C. Langreth, Phys. Rev. B 82, 081101(R) (2010).
     *
     *
     * If you are calculating the stress with vdW-DF, please also cite:
     *
     *   R. Sabatini, E. Kucukbenli, B. Kolb, T. Thonhauser, and
     *   S. de Gironcoli, J. Phys.: Condens. Matter 24, 424209 (2012).
     *
     ************************************************************************

     Carrying out vdW-DF run using the following parameters:

     Nqs =      20    Nr_points =    1024   r_max =   100.000
     q_mesh =
               0.00001000     0.04494208     0.09755937     0.15916263
               0.23128650     0.31572767     0.41458969     0.53033537
               0.66584808     0.82450364     1.01025438     1.22772762
               1.48234092     1.78043706     2.12944203     2.53805004
               3.01644009     3.57652955     4.23227104     5.00000000

     Gradients computed in reciprocal space

     ************************************************************************


 
     Adding external electric field

     Computed dipole along edir(3) : 
        Dipole                0.0000 Ry au,          0.0000 Debye
        Dipole field          0.0000 Ry au
 
        Potential amp.       -0.0000 Ry
        Total length         46.1444 bohr
 
     Starting wfc are  132 randomized atomic wfcs

     total cpu time spent up to now is        8.7 secs

     Self-consistent Calculation

     iteration #  1     ecut=    36.75 Ry     beta=0.10
     Davidson diagonalization with overlap
     ethr =  1.00E-02,  avg # of iterations =  4.7

     Threshold (ethr) on eigenvalues was too large:
     Diagonalizing with lowered threshold

     Davidson diagonalization with overlap
     ethr =  8.43E-04,  avg # of iterations =  3.4

     negative rho (up, down):  3.043E-01 0.000E+00
 
     Adding external electric field

     Computed dipole along edir(3) : 
        Dipole                0.0001 Ry au,          0.0002 Debye
        Dipole field          0.0000 Ry au
 
        Potential amp.       -0.0000 Ry
        Total length         46.1444 bohr
 

     total cpu time spent up to now is       38.7 secs

     total energy              =   -1591.47325962 Ry
     Harris-Foulkes estimate   =   -1591.69515714 Ry
     estimated scf accuracy    <       1.48735979 Ry

     iteration #  2     ecut=    36.75 Ry     beta=0.10
     Davidson diagonalization with overlap
     ethr =  9.53E-04,  avg # of iterations =  6.4

     negative rho (up, down):  3.056E-01 0.000E+00
 
     Adding external electric field

     Computed dipole along edir(3) : 
        Dipole               -0.0000 Ry au,         -0.0000 Debye
        Dipole field         -0.0000 Ry au
 
        Potential amp.        0.0000 Ry
        Total length         46.1444 bohr
 

     total cpu time spent up to now is       54.7 secs

     total energy              =   -1591.53667965 Ry
     Harris-Foulkes estimate   =   -1591.59881216 Ry
     estimated scf accuracy    <       0.68326129 Ry

     iteration #  3     ecut=    36.75 Ry     beta=0.10
     Davidson diagonalization with overlap
     ethr =  4.38E-04,  avg # of iterations =  3.1

     negative rho (up, down):  3.155E-01 0.000E+00
 
     Adding external electric field

     Computed dipole along edir(3) : 
        Dipole                0.0012 Ry au,          0.0032 Debye
        Dipole field          0.0000 Ry au
 
        Potential amp.       -0.0003 Ry
        Total length         46.1444 bohr
 

     total cpu time spent up to now is       67.3 secs

     total energy              =   -1591.44374860 Ry
     Harris-Foulkes estimate   =   -1591.55721095 Ry
     estimated scf accuracy    <       0.33825106 Ry

     iteration #  4     ecut=    36.75 Ry     beta=0.10
     Davidson diagonalization with overlap
     ethr =  2.17E-04,  avg # of iterations =  6.0

     negative rho (up, down):  3.165E-01 0.000E+00
 
     Adding external electric field

     Computed dipole along edir(3) : 
        Dipole               -0.0272 Ry au,         -0.0692 Debye
        Dipole field         -0.0001 Ry au
 
        Potential amp.        0.0056 Ry
        Total length         46.1444 bohr
 

     total cpu time spent up to now is       85.5 secs

     total energy              =   -1591.48264028 Ry
     Harris-Foulkes estimate   =   -1591.50101246 Ry
     estimated scf accuracy    <       0.06451932 Ry

     iteration #  5     ecut=    36.75 Ry     beta=0.10
     Davidson diagonalization with overlap
     ethr =  4.14E-05,  avg # of iterations =  4.2

     negative rho (up, down):  3.185E-01 0.000E+00
 
     Adding external electric field

     Computed dipole along edir(3) : 
        Dipole                0.0406 Ry au,          0.1032 Debye
        Dipole field          0.0001 Ry au
 
        Potential amp.       -0.0084 Ry
        Total length         46.1444 bohr
 

     total cpu time spent up to now is      102.5 secs

     total energy              =   -1591.50018397 Ry
     Harris-Foulkes estimate   =   -1591.51018911 Ry
     estimated scf accuracy    <       0.15370242 Ry

     iteration #  6     ecut=    36.75 Ry     beta=0.10
     Davidson diagonalization with overlap
     ethr =  4.14E-05,  avg # of iterations =  1.0

     negative rho (up, down):  3.235E-01 0.000E+00
 
     Adding external electric field

     Computed dipole along edir(3) : 
        Dipole               -0.0011 Ry au,         -0.0029 Debye
        Dipole field         -0.0000 Ry au
 
        Potential amp.        0.0002 Ry
        Total length         46.1444 bohr
 

     total cpu time spent up to now is      113.5 secs

     total energy              =   -1591.48835937 Ry
     Harris-Foulkes estimate   =   -1591.50395210 Ry
     estimated scf accuracy    <       0.14400549 Ry

     iteration #  7     ecut=    36.75 Ry     beta=0.10
     Davidson diagonalization with overlap
     ethr =  4.14E-05,  avg # of iterations =  2.4

     negative rho (up, down):  3.278E-01 0.000E+00
 
     Adding external electric field

     Computed dipole along edir(3) : 
        Dipole                0.0006 Ry au,          0.0014 Debye
        Dipole field          0.0000 Ry au
 
        Potential amp.       -0.0001 Ry
        Total length         46.1444 bohr
 

     total cpu time spent up to now is      126.5 secs

     total energy              =   -1591.49709735 Ry
     Harris-Foulkes estimate   =   -1591.49732983 Ry
     estimated scf accuracy    <       0.00875971 Ry

     iteration #  8     ecut=    36.75 Ry     beta=0.10
     Davidson diagonalization with overlap
     ethr =  5.62E-06,  avg # of iterations =  6.9

     negative rho (up, down):  3.299E-01 0.000E+00
 
     Adding external electric field

     Computed dipole along edir(3) : 
        Dipole               -0.0003 Ry au,         -0.0008 Debye
        Dipole field         -0.0000 Ry au
 
        Potential amp.        0.0001 Ry
        Total length         46.1444 bohr
 

     total cpu time spent up to now is      144.5 secs

     total energy              =   -1591.49640068 Ry
     Harris-Foulkes estimate   =   -1591.49888078 Ry
     estimated scf accuracy    <       0.01495649 Ry

     iteration #  9     ecut=    36.75 Ry     beta=0.10
     Davidson diagonalization with overlap
     ethr =  5.62E-06,  avg # of iterations =  3.6

     negative rho (up, down):  3.307E-01 0.000E+00
 
     Adding external electric field

     Computed dipole along edir(3) : 
        Dipole               -0.0002 Ry au,         -0.0006 Debye
        Dipole field         -0.0000 Ry au
 
        Potential amp.        0.0000 Ry
        Total length         46.1444 bohr
 

     total cpu time spent up to now is      158.7 secs

     total energy              =   -1591.49829183 Ry
     Harris-Foulkes estimate   =   -1591.49837929 Ry
     estimated scf accuracy    <       0.00306819 Ry

     iteration # 10     ecut=    36.75 Ry     beta=0.10
     Davidson diagonalization with overlap
     ethr =  1.97E-06,  avg # of iterations =  1.4

     negative rho (up, down):  3.314E-01 0.000E+00
 
     Adding external electric field

     Computed dipole along edir(3) : 
        Dipole                0.0000 Ry au,          0.0001 Debye
        Dipole field          0.0000 Ry au
 
        Potential amp.       -0.0000 Ry
        Total length         46.1444 bohr
 

     total cpu time spent up to now is      170.1 secs

     total energy              =   -1591.49813864 Ry
     Harris-Foulkes estimate   =   -1591.49836862 Ry
     estimated scf accuracy    <       0.00107051 Ry

     iteration # 11     ecut=    36.75 Ry     beta=0.10
     Davidson diagonalization with overlap
     ethr =  6.86E-07,  avg # of iterations =  2.6

     negative rho (up, down):  3.313E-01 0.000E+00
 
     Adding external electric field

     Computed dipole along edir(3) : 
        Dipole                0.0000 Ry au,          0.0001 Debye
        Dipole field          0.0000 Ry au
 
        Potential amp.       -0.0000 Ry
        Total length         46.1444 bohr
 

     total cpu time spent up to now is      183.2 secs

     total energy              =   -1591.49829377 Ry
     Harris-Foulkes estimate   =   -1591.49830409 Ry
     estimated scf accuracy    <       0.00017497 Ry

     iteration # 12     ecut=    36.75 Ry     beta=0.10
     Davidson diagonalization with overlap
     ethr =  1.12E-07,  avg # of iterations =  2.0

     negative rho (up, down):  3.312E-01 0.000E+00
 
     Adding external electric field

     Computed dipole along edir(3) : 
        Dipole               -0.0000 Ry au,         -0.0000 Debye
        Dipole field         -0.0000 Ry au
 
        Potential amp.        0.0000 Ry
        Total length         46.1444 bohr
 

     total cpu time spent up to now is      195.2 secs

     total energy              =   -1591.49831825 Ry
     Harris-Foulkes estimate   =   -1591.49831462 Ry
     estimated scf accuracy    <       0.00003764 Ry

     iteration # 13     ecut=    36.75 Ry     beta=0.10
     Davidson diagonalization with overlap
     ethr =  2.41E-08,  avg # of iterations =  2.3

     negative rho (up, down):  3.313E-01 0.000E+00
 
     Adding external electric field

     Computed dipole along edir(3) : 
        Dipole                0.0000 Ry au,          0.0001 Debye
        Dipole field          0.0000 Ry au
 
        Potential amp.       -0.0000 Ry
        Total length         46.1444 bohr
 

     total cpu time spent up to now is      208.3 secs

     total energy              =   -1591.49833134 Ry
     Harris-Foulkes estimate   =   -1591.49832535 Ry
     estimated scf accuracy    <       0.00001750 Ry

     iteration # 14     ecut=    36.75 Ry     beta=0.10
     Davidson diagonalization with overlap
     ethr =  1.12E-08,  avg # of iterations =  2.2

     negative rho (up, down):  3.312E-01 0.000E+00
 
     Adding external electric field

     Computed dipole along edir(3) : 
        Dipole                0.0000 Ry au,          0.0001 Debye
        Dipole field          0.0000 Ry au
 
        Potential amp.       -0.0000 Ry
        Total length         46.1444 bohr
 

     total cpu time spent up to now is      220.5 secs

     total energy              =   -1591.49833493 Ry
     Harris-Foulkes estimate   =   -1591.49833323 Ry
     estimated scf accuracy    <       0.00000245 Ry

     iteration # 15     ecut=    36.75 Ry     beta=0.10
     Davidson diagonalization with overlap
     ethr =  1.57E-09,  avg # of iterations =  3.1

     negative rho (up, down):  3.312E-01 0.000E+00
 
     Adding external electric field

     Computed dipole along edir(3) : 
        Dipole                0.0000 Ry au,          0.0001 Debye
        Dipole field          0.0000 Ry au
 
        Potential amp.       -0.0000 Ry
        Total length         46.1444 bohr
 

     total cpu time spent up to now is      235.8 secs

     total energy              =   -1591.49833442 Ry
     Harris-Foulkes estimate   =   -1591.49833539 Ry
     estimated scf accuracy    <       0.00000164 Ry

     iteration # 16     ecut=    36.75 Ry     beta=0.10
     Davidson diagonalization with overlap
     ethr =  1.05E-09,  avg # of iterations =  2.0

     negative rho (up, down):  3.309E-01 0.000E+00

     negative rho (up, down):  3.309E-01 0.000E+00

     negative rho (up, down):  3.309E-01 0.000E+00

     negative rho (up, down):  3.309E-01 0.000E+00

     negative rho (up, down):  3.309E-01 0.000E+00

     negative rho (up, down):  3.309E-01 0.000E+00

     negative rho (up, down):  3.309E-01 0.000E+00

     negative rho (up, down):  3.309E-01 0.000E+00

     negative rho (up, down):  3.309E-01 0.000E+00

     negative rho (up, down):  3.309E-01 0.000E+00

     negative rho (up, down):  3.309E-01 0.000E+00

     negative rho (up, down):  3.309E-01 0.000E+00

     negative rho (up, down):  3.309E-01 0.000E+00

     negative rho (up, down):  3.309E-01 0.000E+00

     negative rho (up, down):  3.309E-01 0.000E+00

     negative rho (up, down):  3.309E-01 0.000E+00

     negative rho (up, down):  3.309E-01 0.000E+00

     negative rho (up, down):  3.309E-01 0.000E+00

     negative rho (up, down):  3.309E-01 0.000E+00

     negative rho (up, down):  3.309E-01 0.000E+00

     negative rho (up, down):  3.309E-01 0.000E+00

     negative rho (up, down):  3.309E-01 0.000E+00

     negative rho (up, down):  3.309E-01 0.000E+00

     negative rho (up, down):  3.309E-01 0.000E+00

     negative rho (up, down):  3.309E-01 0.000E+00

     negative rho (up, down):  3.309E-01 0.000E+00

     negative rho (up, down):  3.309E-01 0.000E+00

     negative rho (up, down):  3.309E-01 0.000E+00

     negative rho (up, down):  3.309E-01 0.000E+00

     negative rho (up, down):  3.309E-01 0.000E+00

     negative rho (up, down):  3.309E-01 0.000E+00

     negative rho (up, down):  3.309E-01 0.000E+00

     negative rho (up, down):  3.309E-01 0.000E+00

     negative rho (up, down):  3.309E-01 0.000E+00

     negative rho (up, down):  3.309E-01 0.000E+00
 
     Adding external electric field

     Computed dipole along edir(3) : 
        Dipole                0.0003 Ry au,          0.0007 Debye
        Dipole field          0.0000 Ry au
 
        Potential amp.       -0.0001 Ry
        Total length         46.1444 bohr
 

     total cpu time spent up to now is      265.2 secs

     End of self-consistent calculation

          k = 0.0000 0.0000 0.0000 ( 21063 PWs)   bands (ev):

   -53.8216 -53.8189 -53.7722 -53.7696 -53.7029 -53.6525 -30.0045 -29.9525
   -29.9511 -29.9455 -29.9283 -29.9040 -29.8962 -29.8901 -29.8321 -29.8242
   -29.8193 -29.7684 -29.7586 -29.5601 -29.5095 -29.4354 -29.4244 -29.4004
   -11.0403 -10.7739 -10.6594 -10.6165 -10.5388 -10.5266 -10.4944 -10.4662
   -10.4058 -10.2075 -10.1901 -10.1328 -10.1191 -10.0558 -10.0522  -9.9638
    -9.8998  -9.8526  -9.8235  -9.8101  -9.7742  -9.7455  -9.7185  -9.6181
    -9.5952  -9.5916  -9.5785  -9.5649  -9.3808  -9.2466  -7.9576  -6.4172
    -5.0257  -4.3051  -3.1470  -2.5079  -1.1816  -0.9235  -0.7735  -0.4592
    -0.2773  -0.1943  -0.1895   0.0154   0.4150   0.6162   0.7070   0.7184
     0.7601   1.1236   1.4453   1.6064   1.6255   1.7906   1.9966   2.1272
     2.2972   2.3804   2.4863   2.5193   2.5952   2.6708   2.9870   3.1027
     3.2404   3.3285   3.3721   3.4738   3.4838   3.7012   3.7518   3.7861
     3.9842   4.4086   4.4291   4.6860   4.6946   5.0940   5.2448   5.2972
     5.4312   5.9270   6.6323   6.8545

          k = 0.0000 0.0305 0.0000 ( 21072 PWs)   bands (ev):

   -53.8216 -53.8189 -53.7722 -53.7696 -53.7029 -53.6525 -30.0054 -29.9522
   -29.9517 -29.9455 -29.9284 -29.9042 -29.8961 -29.8912 -29.8322 -29.8252
   -29.8192 -29.7688 -29.7590 -29.5600 -29.5096 -29.4355 -29.4244 -29.4005
   -11.0387 -10.7612 -10.6475 -10.6152 -10.5380 -10.5268 -10.4777 -10.4579
   -10.3940 -10.1907 -10.1738 -10.1302 -10.1234 -10.0532 -10.0467  -9.9544
    -9.8909  -9.8537  -9.8174  -9.8019  -9.7719  -9.7382  -9.7209  -9.6156
    -9.5893  -9.5876  -9.5787  -9.5635  -9.3790  -9.2451  -7.8174  -6.3455
    -4.9864  -4.2352  -3.1301  -2.3646  -1.7072  -1.5650  -0.9920  -0.5017
    -0.3777  -0.3680   0.0185   0.0412   0.1539   0.2340   0.4300   0.7234
     0.7351   0.9109   1.0589   1.2488   1.3949   1.7184   1.8642   2.0891
     2.1251   2.3396   2.4600   2.6727   2.8053   2.8723   3.0467   3.3103
     3.3948   3.5077   3.5756   3.6083   3.6490   3.7110   3.8194   4.1285
     4.2834   4.4074   4.6869   5.1068   5.2348   5.3610   5.4126   5.5485
     5.9409   6.2615   6.7264   6.9430

          k = 0.0000 0.0610 0.0000 ( 21008 PWs)   bands (ev):

   -53.8215 -53.8188 -53.7722 -53.7696 -53.7028 -53.6524 -30.0070 -29.9530
   -29.9516 -29.9456 -29.9287 -29.9044 -29.8959 -29.8935 -29.8325 -29.8265
   -29.8196 -29.7692 -29.7600 -29.5599 -29.5097 -29.4356 -29.4245 -29.4007
   -11.0353 -10.7383 -10.6205 -10.6123 -10.5360 -10.5272 -10.4445 -10.4405
   -10.3704 -10.1628 -10.1469 -10.1253 -10.1178 -10.0474 -10.0377  -9.9329
    -9.8769  -9.8541  -9.8078  -9.7841  -9.7716  -9.7250  -9.7232  -9.6120
    -9.5802  -9.5756  -9.5738  -9.5613  -9.3757  -9.2418  -7.4565  -6.2522
    -4.9015  -4.0704  -3.0971  -2.4962  -2.0737  -1.9408  -1.6381  -0.7383
    -0.7280  -0.7116  -0.5016  -0.3266  -0.1393  -0.0316   0.0838   0.1846
     0.5630   0.6304   0.7302   0.7400   1.1920   1.9108   2.0513   2.1054
     2.3117   2.4200   2.4431   2.5975   2.6629   2.9366   3.1312   3.1660
     3.5044   3.6279   3.6690   3.9926   4.1142   4.2984   4.4093   4.5191
     5.0001   5.1069   5.1632   5.4514   5.5862   5.7353   6.0124   6.3568
     6.4193   6.6392   6.8350   7.1083

          k = 0.0000-0.0916 0.0000 ( 21000 PWs)   bands (ev):

   -53.8215 -53.8188 -53.7722 -53.7696 -53.7028 -53.6524 -30.0078 -29.9536
   -29.9513 -29.9456 -29.9288 -29.9045 -29.8958 -29.8947 -29.8327 -29.8268
   -29.8201 -29.7694 -29.7606 -29.5599 -29.5098 -29.4357 -29.4245 -29.4008
   -11.0337 -10.7282 -10.6109 -10.6053 -10.5350 -10.5275 -10.4331 -10.4265
   -10.3584 -10.1605 -10.1312 -10.1229 -10.1049 -10.0444 -10.0339  -9.9203
    -9.8732  -9.8526  -9.8041  -9.7749  -9.7740  -9.7272  -9.7154  -9.6110
    -9.5773  -9.5723  -9.5646  -9.5606  -9.3742  -9.2402  -7.1894  -6.2957
    -4.8257  -3.9700  -3.0846  -2.8675  -2.2750  -1.7008  -1.3397  -1.2804
    -1.2037  -0.8303  -0.7836  -0.5795  -0.4507  -0.2065  -0.0568   0.2019
     0.3561   0.4830   0.6887   0.7228   1.1187   1.9605   2.1116   2.1566
     2.3534   2.4106   2.4765   2.5877   2.8818   2.9876   3.0555   3.1874
     3.4366   3.6197   3.6729   3.8676   4.2282   4.4109   5.1346   5.2316
     5.2698   5.3919   5.5669   5.7096   5.7307   5.8200   6.3198   6.4047
     6.4980   6.6102   6.6506   6.7772

          k = 0.0275 0.0153 0.0000 ( 21058 PWs)   bands (ev):

   -53.8183 -53.8156 -53.7755 -53.7729 -53.6995 -53.6559 -30.0008 -29.9498
   -29.9486 -29.9179 -29.8998 -29.8956 -29.8866 -29.8715 -29.8363 -29.8208
   -29.8153 -29.7724 -29.7629 -29.5567 -29.5129 -29.4713 -29.4593 -29.4354
   -10.9684 -10.7318 -10.6192 -10.5825 -10.5385 -10.4804 -10.4582 -10.4041
   -10.3982 -10.1766 -10.1663 -10.1486 -10.0960 -10.0889 -10.0206  -9.9984
    -9.8904  -9.8452  -9.8243  -9.8021  -9.7801  -9.7457  -9.7112  -9.6561
    -9.6277  -9.6196  -9.6165  -9.5985  -9.4488  -9.3239  -7.8040  -6.2931
    -4.9231  -4.7824  -3.6759  -2.8105  -1.1427  -0.7741  -0.5080  -0.3501
    -0.3264   0.0092   0.0937   0.1136   0.3318   0.4892   0.7066   0.7926
     0.8623   0.9624   1.3051   1.4886   1.6087   1.7156   1.7349   1.8276
     2.0693   2.2771   2.4718   2.5913   2.6017   2.9165   3.0552   3.1366
     3.2115   3.3084   3.4226   3.6476   3.7312   3.7705   3.9808   4.0213
     4.1024   4.2092   4.4813   4.6733   4.8658   4.9653   5.3634   5.4603
     5.7682   6.1002   6.6049   6.7816

          k = 0.0275 0.0458 0.0000 ( 21075 PWs)   bands (ev):

   -53.8183 -53.8156 -53.7755 -53.7729 -53.6995 -53.6558 -30.0022 -29.9497
   -29.9482 -29.9189 -29.8997 -29.8958 -29.8884 -29.8717 -29.8364 -29.8222
   -29.8154 -29.7728 -29.7635 -29.5566 -29.5130 -29.4713 -29.4593 -29.4356
   -10.9660 -10.7123 -10.5991 -10.5785 -10.5391 -10.4570 -10.4551 -10.3867
   -10.3859 -10.1744 -10.1407 -10.1244 -10.0935 -10.0915 -10.0124  -9.9854
    -9.8785  -9.8466  -9.8165  -9.7890  -9.7783  -9.7347  -9.7162  -9.6539
    -9.6235  -9.6189  -9.6042  -9.5977  -9.4463  -9.3228  -7.5444  -6.1853
    -4.8585  -4.7839  -3.6809  -2.6273  -1.9927  -1.2249  -1.1732  -0.6014
    -0.2697  -0.2618  -0.1379  -0.0714   0.0954   0.2269   0.3456   0.6537
     0.7547   0.8324   0.8769   1.2543   1.2842   1.8178   1.8722   2.1232
     2.1546   2.2876   2.4478   2.6185   2.7988   3.0099   3.0122   3.1536
     3.2764   3.5449   3.5894   3.6418   3.8238   4.0648   4.0773   4.2176
     4.4566   4.5154   5.0485   5.1234   5.3923   5.4849   5.6407   5.8926
     6.0627   6.3278   6.7193   7.0019

          k = 0.0275 0.0763 0.0000 ( 21031 PWs)   bands (ev):

   -53.8182 -53.8156 -53.7755 -53.7729 -53.6995 -53.6558 -30.0035 -29.9496
   -29.9477 -29.9200 -29.8995 -29.8961 -29.8903 -29.8719 -29.8366 -29.8229
   -29.8159 -29.7730 -29.7644 -29.5565 -29.5132 -29.4713 -29.4593 -29.4357
   -10.9635 -10.6946 -10.5754 -10.5748 -10.5398 -10.4553 -10.4290 -10.3733
   -10.3697 -10.1729 -10.1272 -10.1021 -10.0911 -10.0766 -10.0055  -9.9699
    -9.8697  -9.8458  -9.8107  -9.7797  -9.7751  -9.7236  -9.7210  -9.6522
    -9.6200  -9.6182  -9.5971  -9.5884  -9.4438  -9.3213  -7.1807  -6.1706
    -4.7982  -4.7690  -3.6774  -2.5993  -2.3866  -1.5606  -1.3254  -1.0490
    -0.9289  -0.4764  -0.4085  -0.3047  -0.1607   0.0679   0.2931   0.3819
     0.6343   0.6902   0.7692   0.7915   1.2072   2.0087   2.0244   2.2058
     2.2943   2.4459   2.5206   2.5708   2.6362   2.8553   2.9011   3.1360
     3.2904   3.3431   3.7533   4.1162   4.1481   4.3420   4.3815   4.7775
     5.0220   5.2152   5.2169   5.4956   5.6645   5.7256   5.9673   6.2499
     6.2734   6.4346   6.9793   7.0105

          k = 0.0275-0.0763 0.0000 ( 21031 PWs)   bands (ev):

   -53.8182 -53.8156 -53.7755 -53.7729 -53.6995 -53.6558 -30.0035 -29.9496
   -29.9477 -29.9200 -29.8995 -29.8961 -29.8903 -29.8719 -29.8366 -29.8229
   -29.8159 -29.7730 -29.7644 -29.5565 -29.5132 -29.4713 -29.4593 -29.4357
   -10.9635 -10.6946 -10.5754 -10.5748 -10.5398 -10.4553 -10.4290 -10.3733
   -10.3697 -10.1729 -10.1272 -10.1021 -10.0911 -10.0766 -10.0055  -9.9699
    -9.8697  -9.8458  -9.8107  -9.7797  -9.7751  -9.7236  -9.7210  -9.6522
    -9.6200  -9.6182  -9.5971  -9.5884  -9.4438  -9.3213  -7.1807  -6.1706
    -4.7982  -4.7690  -3.6774  -2.5993  -2.3866  -1.5606  -1.3254  -1.0490
    -0.9289  -0.4764  -0.4085  -0.3047  -0.1607   0.0679   0.2931   0.3819
     0.6343   0.6902   0.7692   0.7915   1.2072   2.0087   2.0244   2.2058
     2.2943   2.4459   2.5206   2.5708   2.6362   2.8553   2.9011   3.1360
     3.2904   3.3431   3.7533   4.1162   4.1482   4.3420   4.3815   4.7775
     5.0220   5.2152   5.2169   5.4956   5.6645   5.7256   5.9673   6.2499
     6.2734   6.4346   6.9793   7.0105

          k = 0.0275-0.0458 0.0000 ( 21075 PWs)   bands (ev):

   -53.8183 -53.8156 -53.7755 -53.7729 -53.6995 -53.6558 -30.0022 -29.9497
   -29.9482 -29.9189 -29.8997 -29.8958 -29.8884 -29.8717 -29.8364 -29.8222
   -29.8154 -29.7728 -29.7635 -29.5566 -29.5130 -29.4713 -29.4593 -29.4356
   -10.9660 -10.7123 -10.5991 -10.5785 -10.5391 -10.4570 -10.4551 -10.3867
   -10.3859 -10.1744 -10.1407 -10.1244 -10.0935 -10.0915 -10.0124  -9.9854
    -9.8785  -9.8466  -9.8165  -9.7890  -9.7783  -9.7347  -9.7162  -9.6539
    -9.6235  -9.6189  -9.6042  -9.5977  -9.4463  -9.3228  -7.5444  -6.1853
    -4.8585  -4.7839  -3.6809  -2.6273  -1.9927  -1.2249  -1.1732  -0.6014
    -0.2697  -0.2618  -0.1379  -0.0714   0.0954   0.2269   0.3456   0.6537
     0.7547   0.8324   0.8769   1.2543   1.2842   1.8178   1.8722   2.1232
     2.1546   2.2876   2.4478   2.6185   2.7988   3.0099   3.0122   3.1536
     3.2764   3.5449   3.5894   3.6418   3.8238   4.0648   4.0773   4.2176
     4.4566   4.5154   5.0485   5.1234   5.3923   5.4849   5.6407   5.8926
     6.0627   6.3278   6.7194   7.0019

          k = 0.0275-0.0153 0.0000 ( 21058 PWs)   bands (ev):

   -53.8183 -53.8156 -53.7755 -53.7729 -53.6995 -53.6559 -30.0008 -29.9498
   -29.9486 -29.9179 -29.8998 -29.8956 -29.8866 -29.8715 -29.8363 -29.8208
   -29.8153 -29.7724 -29.7629 -29.5567 -29.5129 -29.4713 -29.4593 -29.4354
   -10.9684 -10.7318 -10.6192 -10.5825 -10.5385 -10.4804 -10.4582 -10.4041
   -10.3982 -10.1766 -10.1663 -10.1486 -10.0960 -10.0889 -10.0206  -9.9984
    -9.8904  -9.8452  -9.8243  -9.8021  -9.7801  -9.7457  -9.7112  -9.6561
    -9.6277  -9.6196  -9.6165  -9.5985  -9.4488  -9.3239  -7.8040  -6.2931
    -4.9231  -4.7824  -3.6759  -2.8105  -1.1427  -0.7741  -0.5080  -0.3501
    -0.3264   0.0092   0.0937   0.1136   0.3318   0.4892   0.7066   0.7926
     0.8623   0.9624   1.3051   1.4886   1.6087   1.7156   1.7349   1.8276
     2.0693   2.2771   2.4718   2.5913   2.6017   2.9165   3.0552   3.1366
     3.2115   3.3084   3.4226   3.6476   3.7312   3.7705   3.9808   4.0213
     4.1024   4.2092   4.4813   4.6733   4.8658   4.9653   5.3634   5.4603
     5.7682   6.1002   6.6048   6.7816

          k = 0.0549 0.0305 0.0000 ( 21069 PWs)   bands (ev):

   -53.8093 -53.8066 -53.7846 -53.7820 -53.6903 -53.6651 -29.9905 -29.9610
   -29.9382 -29.9101 -29.8766 -29.8476 -29.8260 -29.8113 -29.8057 -29.8045
   -29.7848 -29.7801 -29.7743 -29.5682 -29.5550 -29.5464 -29.5301 -29.5222
   -10.7954 -10.6177 -10.5747 -10.5098 -10.4979 -10.4505 -10.4035 -10.3034
   -10.2309 -10.2058 -10.1853 -10.1320 -10.0500 -10.0371  -9.9966  -9.9340
    -9.8711  -9.8294  -9.8270  -9.8015  -9.7841  -9.7597  -9.7488  -9.7338
    -9.7241  -9.6911  -9.6858  -9.6747  -9.6367  -9.5249  -7.3496  -5.9297
    -5.7087  -4.6148  -4.5746  -3.4540  -1.2612  -0.8539  -0.5608  -0.1669
    -0.0191   0.1506   0.3406   0.4005   0.4234   0.5381   0.7305   0.7948
     0.8957   1.0152   1.1423   1.2772   1.5849   1.6812   1.6872   1.9210
     1.9213   2.0953   2.4328   2.5669   2.6462   2.8653   2.9017   3.0737
     3.0873   3.2438   3.4497   3.5248   3.7751   3.7906   3.8658   4.2583
     4.5553   4.7023   4.7951   4.8822   4.9312   5.4419   5.4950   5.7869
     5.9336   6.3020   6.5900   6.5907

          k = 0.0549 0.0610 0.0000 ( 21093 PWs)   bands (ev):

   -53.8093 -53.8066 -53.7846 -53.7820 -53.6903 -53.6651 -29.9917 -29.9606
   -29.9378 -29.9101 -29.8783 -29.8473 -29.8269 -29.8121 -29.8059 -29.8046
   -29.7848 -29.7804 -29.7749 -29.5679 -29.5549 -29.5464 -29.5302 -29.5224
   -10.7939 -10.6002 -10.5762 -10.4913 -10.4899 -10.4318 -10.3938 -10.3063
   -10.2308 -10.2100 -10.1765 -10.1266 -10.0279 -10.0166  -9.9937  -9.9267
    -9.8641  -9.8278  -9.8273  -9.8010  -9.7754  -9.7616  -9.7422  -9.7365
    -9.7257  -9.6978  -9.6904  -9.6601  -9.6344  -9.5253  -7.0419  -5.8616
    -5.8540  -4.6069  -4.5510  -3.3918  -1.9254  -1.0508  -0.8720  -0.4548
    -0.1713  -0.0119   0.0174   0.0237   0.2609   0.3765   0.6850   0.8278
     0.8909   1.0493   1.0884   1.3573   1.4962   1.7039   1.7825   2.0057
     2.0588   2.3737   2.4405   2.6705   2.7537   2.7578   2.9573   2.9778
     3.0069   3.1962   3.3025   3.7968   3.8567   3.9019   4.2557   4.3669
     4.4828   4.5121   4.7892   5.0582   5.4340   5.4960   5.8899   6.2124
     6.4238   6.6196   6.7629   6.9371

          k = 0.0549 0.0916 0.0000 ( 21071 PWs)   bands (ev):

   -53.8092 -53.8066 -53.7846 -53.7820 -53.6903 -53.6651 -29.9923 -29.9605
   -29.9376 -29.9101 -29.8791 -29.8472 -29.8274 -29.8124 -29.8060 -29.8048
   -29.7847 -29.7804 -29.7753 -29.5678 -29.5548 -29.5463 -29.5302 -29.5224
   -10.7931 -10.5913 -10.5771 -10.4880 -10.4771 -10.4202 -10.3911 -10.3095
   -10.2312 -10.2118 -10.1720 -10.1236 -10.0239 -10.0040  -9.9840  -9.9235
    -9.8590  -9.8281  -9.8270  -9.8013  -9.7716  -9.7611  -9.7392  -9.7385
    -9.7269  -9.7033  -9.6926  -9.6505  -9.6347  -9.5259  -6.8345  -5.9345
    -5.8761  -4.6323  -4.5022  -3.3635  -2.2223  -1.0680  -0.9114  -0.6369
    -0.2988  -0.1458  -0.0647  -0.0409  -0.0039   0.3840   0.6743   0.8214
     0.9146   1.0094   1.1024   1.3683   1.4370   1.7091   1.8973   2.1095
     2.1366   2.2796   2.3034   2.5521   2.6642   2.7428   2.8681   2.9715
     3.0563   3.0681   3.3577   3.8063   4.0114   4.0412   4.1244   4.3910
     4.6044   4.6586   5.4888   5.5950   5.7247   5.7806   5.9893   6.0994
     6.6156   6.7908   6.8526   6.8907

          k = 0.0549-0.0610 0.0000 ( 21093 PWs)   bands (ev):

   -53.8093 -53.8066 -53.7846 -53.7820 -53.6903 -53.6651 -29.9917 -29.9606
   -29.9378 -29.9101 -29.8783 -29.8473 -29.8269 -29.8121 -29.8059 -29.8046
   -29.7848 -29.7804 -29.7749 -29.5679 -29.5549 -29.5464 -29.5302 -29.5224
   -10.7939 -10.6002 -10.5762 -10.4913 -10.4899 -10.4318 -10.3938 -10.3062
   -10.2308 -10.2100 -10.1765 -10.1266 -10.0279 -10.0166  -9.9937  -9.9267
    -9.8641  -9.8278  -9.8273  -9.8010  -9.7754  -9.7616  -9.7422  -9.7365
    -9.7257  -9.6978  -9.6904  -9.6601  -9.6344  -9.5253  -7.0419  -5.8616
    -5.8540  -4.6069  -4.5510  -3.3918  -1.9254  -1.0508  -0.8720  -0.4548
    -0.1713  -0.0119   0.0174   0.0237   0.2609   0.3765   0.6850   0.8278
     0.8909   1.0493   1.0884   1.3573   1.4962   1.7039   1.7825   2.0057
     2.0588   2.3737   2.4405   2.6705   2.7537   2.7578   2.9573   2.9778
     3.0069   3.1962   3.3025   3.7968   3.8567   3.9019   4.2557   4.3669
     4.4828   4.5121   4.7892   5.0582   5.4340   5.4960   5.8899   6.2124
     6.4238   6.6196   6.7629   6.9372

          k = 0.0549-0.0305 0.0000 ( 21069 PWs)   bands (ev):

   -53.8093 -53.8066 -53.7846 -53.7820 -53.6903 -53.6651 -29.9905 -29.9610
   -29.9382 -29.9101 -29.8766 -29.8476 -29.8260 -29.8113 -29.8057 -29.8045
   -29.7848 -29.7801 -29.7743 -29.5682 -29.5550 -29.5464 -29.5301 -29.5222
   -10.7954 -10.6177 -10.5747 -10.5098 -10.4979 -10.4505 -10.4035 -10.3034
   -10.2309 -10.2058 -10.1853 -10.1320 -10.0500 -10.0371  -9.9966  -9.9340
    -9.8711  -9.8294  -9.8270  -9.8015  -9.7841  -9.7597  -9.7488  -9.7338
    -9.7241  -9.6911  -9.6858  -9.6747  -9.6367  -9.5249  -7.3496  -5.9297
    -5.7087  -4.6148  -4.5746  -3.4540  -1.2612  -0.8539  -0.5608  -0.1668
    -0.0191   0.1506   0.3406   0.4005   0.4234   0.5381   0.7305   0.7948
     0.8957   1.0152   1.1423   1.2772   1.5849   1.6812   1.6872   1.9210
     1.9213   2.0953   2.4328   2.5669   2.6462   2.8653   2.9017   3.0737
     3.0873   3.2438   3.4497   3.5248   3.7751   3.7906   3.8658   4.2583
     4.5553   4.7023   4.7951   4.8822   4.9312   5.4419   5.4950   5.7869
     5.9336   6.3020   6.5901   6.5907

          k = 0.0549 0.0000 0.0000 ( 21067 PWs)   bands (ev):

   -53.8093 -53.8066 -53.7846 -53.7820 -53.6903 -53.6651 -29.9899 -29.9612
   -29.9384 -29.9101 -29.8759 -29.8478 -29.8256 -29.8106 -29.8056 -29.8047
   -29.7848 -29.7799 -29.7741 -29.5683 -29.5550 -29.5464 -29.5301 -29.5221
   -10.7963 -10.6264 -10.5741 -10.5179 -10.5012 -10.4582 -10.4100 -10.3032
   -10.2311 -10.2035 -10.1898 -10.1347 -10.0609 -10.0491  -9.9930  -9.9386
    -9.8729  -9.8323  -9.8261  -9.8024  -9.7881  -9.7592  -9.7526  -9.7298
    -9.7269  -9.6892  -9.6837  -9.6806  -9.6384  -9.5247  -7.4756  -5.9901
    -5.6274  -4.6461  -4.5703  -3.4852  -0.8401  -0.6381  -0.3238  -0.0650
     0.2293   0.2593   0.3582   0.4658   0.5030   0.6109   0.6453   0.9487
     0.9939   1.1664   1.2985   1.3076   1.3241   1.5183   1.5960   1.6057
     1.8374   1.9620   2.3480   2.3688   2.5707   2.7560   2.8684   2.9595
     3.2495   3.2980   3.3701   3.5142   3.6702   4.0209   4.2047   4.4007
     4.4851   4.6156   4.8662   4.8738   4.9787   5.0584   5.2559   5.6825
     5.9598   6.1466   6.2286   6.3300

          k =-0.0824-0.0458 0.0000 ( 21082 PWs)   bands (ev):

   -53.7970 -53.7970 -53.7943 -53.7943 -53.6777 -53.6777 -29.9760 -29.9760
   -29.9241 -29.9241 -29.8625 -29.8625 -29.7977 -29.7977 -29.7896 -29.7896
   -29.6983 -29.6983 -29.6810 -29.6810 -29.6571 -29.6571 -29.5348 -29.5348
   -10.6474 -10.6474 -10.4661 -10.4661 -10.4151 -10.4151 -10.3550 -10.3550
   -10.3290 -10.3290  -9.9537  -9.9537  -9.9117  -9.9117  -9.9012  -9.9012
    -9.8818  -9.8818  -9.8595  -9.8595  -9.8325  -9.8325  -9.8130  -9.8130
    -9.7940  -9.7940  -9.7589  -9.7589  -9.6532  -9.6532  -6.6245  -6.6245
    -5.3502  -5.3502  -4.1083  -4.1083  -1.1634  -1.1634  -0.4841  -0.4841
     0.1459   0.1459   0.3312   0.3312   0.6598   0.6598   0.8981   0.8981
     0.9904   0.9904   1.4914   1.4914   1.5606   1.5606   1.7680   1.7680
     2.0603   2.0603   2.2407   2.2407   2.6794   2.6794   2.8547   2.8547
     3.1666   3.1666   3.4106   3.4106   3.7387   3.7387   4.2321   4.2321
     4.4766   4.4766   5.2759   5.2759   5.3305   5.3305   5.9342   5.9342
     6.4849   6.4849   6.6120   6.6120

          k =-0.0824-0.0153 0.0000 ( 21096 PWs)   bands (ev):

   -53.7970 -53.7969 -53.7943 -53.7943 -53.6777 -53.6777 -29.9767 -29.9753
   -29.9242 -29.9239 -29.8634 -29.8617 -29.7979 -29.7971 -29.7900 -29.7895
   -29.6988 -29.6977 -29.6811 -29.6809 -29.6572 -29.6571 -29.5349 -29.5347
   -10.6489 -10.6462 -10.4708 -10.4523 -10.4216 -10.4146 -10.3673 -10.3451
   -10.3319 -10.3264  -9.9544  -9.9541  -9.9194  -9.9082  -9.8996  -9.8937
    -9.8873  -9.8684  -9.8583  -9.8531  -9.8413  -9.8403  -9.8159  -9.8086
    -9.7944  -9.7937  -9.7615  -9.7590  -9.6634  -9.6440  -6.8177  -6.3899
    -5.4196  -5.3312  -4.1301  -4.0852  -1.4951  -0.7564  -0.4291  -0.2443
    -0.0178   0.0603   0.2927   0.3864   0.4876   0.7674   0.8853   0.8921
     1.0533   1.1300   1.4592   1.4862   1.5616   1.6723   1.7325   1.8606
     1.8709   2.0614   2.0793   2.2410   2.2495   2.4834   2.8725   2.9805
     3.0868   3.1468   3.1950   3.4900   3.7371   4.0184   4.2799   4.3385
     4.4823   4.8642   5.0115   5.2306   5.4986   5.7235   5.8903   6.2236
     6.2277   6.4820   6.5995   6.6311

          k =-0.0824 0.0153 0.0000 ( 21096 PWs)   bands (ev):

   -53.7970 -53.7969 -53.7943 -53.7943 -53.6777 -53.6777 -29.9767 -29.9753
   -29.9242 -29.9239 -29.8634 -29.8617 -29.7979 -29.7971 -29.7900 -29.7895
   -29.6988 -29.6977 -29.6811 -29.6809 -29.6572 -29.6571 -29.5349 -29.5347
   -10.6489 -10.6462 -10.4708 -10.4523 -10.4216 -10.4146 -10.3673 -10.3451
   -10.3319 -10.3264  -9.9544  -9.9541  -9.9194  -9.9082  -9.8996  -9.8937
    -9.8873  -9.8684  -9.8583  -9.8531  -9.8413  -9.8403  -9.8159  -9.8086
    -9.7944  -9.7937  -9.7615  -9.7590  -9.6634  -9.6440  -6.8177  -6.3899
    -5.4196  -5.3312  -4.1301  -4.0852  -1.4951  -0.7564  -0.4291  -0.2443
    -0.0178   0.0603   0.2927   0.3864   0.4876   0.7674   0.8853   0.8921
     1.0533   1.1300   1.4592   1.4862   1.5616   1.6723   1.7325   1.8606
     1.8709   2.0614   2.0793   2.2410   2.2495   2.4834   2.8725   2.9805
     3.0868   3.1468   3.1950   3.4900   3.7371   4.0184   4.2799   4.3385
     4.4823   4.8642   5.0115   5.2306   5.4986   5.7235   5.8903   6.2236
     6.2277   6.4820   6.5995   6.6311

          k =-0.0824-0.1373 0.0000 ( 21082 PWs)   bands (ev):

   -53.7970 -53.7970 -53.7943 -53.7943 -53.6777 -53.6777 -29.9760 -29.9760
   -29.9241 -29.9241 -29.8625 -29.8625 -29.7977 -29.7977 -29.7896 -29.7896
   -29.6983 -29.6983 -29.6810 -29.6810 -29.6571 -29.6571 -29.5348 -29.5348
   -10.6474 -10.6474 -10.4661 -10.4661 -10.4151 -10.4151 -10.3550 -10.3550
   -10.3290 -10.3290  -9.9537  -9.9537  -9.9117  -9.9117  -9.9012  -9.9012
    -9.8818  -9.8818  -9.8595  -9.8595  -9.8325  -9.8325  -9.8130  -9.8130
    -9.7940  -9.7940  -9.7589  -9.7589  -9.6532  -9.6532  -6.6245  -6.6245
    -5.3502  -5.3502  -4.1083  -4.1083  -1.1634  -1.1634  -0.4841  -0.4841
     0.1459   0.1459   0.3312   0.3312   0.6598   0.6598   0.8981   0.8981
     0.9904   0.9904   1.4914   1.4914   1.5606   1.5606   1.7680   1.7680
     2.0603   2.0603   2.2407   2.2407   2.6794   2.6794   2.8547   2.8547
     3.1666   3.1666   3.4106   3.4106   3.7387   3.7387   4.2321   4.2321
     4.4766   4.4766   5.2759   5.2759   5.3305   5.3305   5.9342   5.9342
     6.4849   6.4849   6.6120   6.6120

     the Fermi energy is     1.7383 ev

!    total energy              =   -1591.49832432 Ry
     Harris-Foulkes estimate   =   -1591.49833455 Ry
     estimated scf accuracy    <       0.00000077 Ry

     The total energy is the sum of the following terms:

     one-electron contribution =  -10421.92038418 Ry
     hartree contribution      =    5248.69227129 Ry
     xc contribution           =    -498.40025935 Ry
     ewald contribution        =    4080.20010939 Ry
     electric field correction =       0.00000000 Ry
     smearing contrib. (-TS)   =      -0.07006148 Ry

     convergence has been achieved in  16 iterations
 
 BEEF-vdW xc energy contributions
           1 :   -440.434805350048     
           2 :    407.530297846586     
           3 :   -349.881484153981     
           4 :    280.540847818681     
           5 :   -212.809340791743     
           6 :    156.160994098184     
           7 :   -114.273797224095     
           8 :    85.5112462577086     
           9 :   -65.2197360769430     
          10 :    48.5472461966535     
          11 :   -32.5529217849270     
          12 :    16.8721724609924     
          13 :   -2.99234586184957     
          14 :   -7.21726253363181     
          15 :    12.8352427260577     
          16 :   -14.4494355541489     
          17 :    13.8038471356127     
          18 :   -12.8874277795702     
          19 :    13.0236397345569     
          20 :   -14.4277462141474     
          21 :    16.3682091967438     
          22 :   -17.7532905750408     
          23 :    17.7775677772254     
          24 :   -16.3072479454843     
          25 :    13.8605545947287     
          26 :   -11.2675862829684     
          27 :    9.22967120686513     
          28 :   -8.01819179119616     
          29 :    7.43638876362274     
          30 :   -7.02118685577580     
          31 :   -38.7347301204254     
          32 :   -28.7215261771542     

     Forces acting on atoms (Ry/au):


     negative rho (up, down):  3.309E-01 0.000E+00
     atom    1 type  1   force =     0.00000393    0.02070226    0.04876181
     atom    2 type  1   force =     0.00000386    0.02070303    0.04876215
     atom    3 type  2   force =    -0.00000787   -0.00722555   -0.04910586
     atom    4 type  2   force =    -0.00001017   -0.00722738   -0.04910291
     atom    5 type  1   force =    -0.00000959   -0.00001754   -0.00001507
     atom    6 type  1   force =    -0.00000904   -0.00001639   -0.00001505
     atom    7 type  2   force =    -0.00000419    0.00000082    0.00004869
     atom    8 type  2   force =    -0.00000198   -0.00000064    0.00004872
     atom    9 type  1   force =    -0.00000663   -0.02072149   -0.04876754
     atom   10 type  1   force =    -0.00000574   -0.02072053   -0.04876710
     atom   11 type  2   force =     0.00002701    0.00726065    0.04907657
     atom   12 type  2   force =     0.00002042    0.00726277    0.04907560

     Total force =     0.145180     Total SCF correction =     0.000933


     entering subroutine stress ...


     negative rho (up, down):  3.309E-01 0.000E+00
          total   stress  (Ry/bohr**3)                   (kbar)     P=  -13.73
  -0.00008344  -0.00000001   0.00000000        -12.27     -0.00      0.00
  -0.00000001  -0.00017460  -0.00004699         -0.00    -25.68     -6.91
   0.00000000  -0.00004699  -0.00002193          0.00     -6.91     -3.23

 !ASE

     Writing output data file calc.save
 
     init_run     :      5.14s CPU      7.67s WALL (       1 calls)
     electrons    :    190.35s CPU    256.64s WALL (       1 calls)
     forces       :      2.76s CPU      3.34s WALL (       1 calls)
     stress       :      7.39s CPU      7.99s WALL (       1 calls)

     Called by init_run:
     wfcinit      :      3.32s CPU      5.43s WALL (       1 calls)
     potinit      :      0.56s CPU      0.80s WALL (       1 calls)

     Called by electrons:
     c_bands      :    144.35s CPU    193.05s WALL (      17 calls)
     sum_band     :     23.15s CPU     30.61s WALL (      17 calls)
     v_of_rho     :      5.75s CPU      9.14s WALL (      17 calls)
     newd         :      6.76s CPU      7.02s WALL (      17 calls)
     mix_rho      :      0.26s CPU      0.35s WALL (      17 calls)
     vdW_energy   :      2.81s CPU      3.16s WALL (      53 calls)
     vdW_ffts     :      7.39s CPU     14.32s WALL (     108 calls)
     vdW_v        :      2.24s CPU      3.36s WALL (      53 calls)

     Called by c_bands:
     init_us_2    :      0.79s CPU      0.80s WALL (     740 calls)
     cegterg      :    138.87s CPU    187.40s WALL (     340 calls)

     Called by *egterg:
     h_psi        :     65.60s CPU    103.85s WALL (    1503 calls)
     s_psi        :      6.77s CPU      6.80s WALL (    1503 calls)
     g_psi        :      0.51s CPU      0.52s WALL (    1143 calls)
     cdiaghg      :     41.76s CPU     42.66s WALL (    1463 calls)

     Called by h_psi:
     add_vuspsi   :      6.86s CPU      6.89s WALL (    1503 calls)

     General routines
     calbec       :     10.58s CPU     11.98s WALL (    1883 calls)
     fft          :     10.89s CPU     21.23s WALL (    3229 calls)
     ffts         :      0.02s CPU      0.05s WALL (      34 calls)
     fftw         :     54.28s CPU     98.37s WALL (  202824 calls)
     interpolate  :      0.14s CPU      0.26s WALL (      34 calls)
     davcio       :      0.00s CPU      0.02s WALL (      20 calls)
 
     Parallel routines
     fft_scatter  :     39.15s CPU     92.67s WALL (  206087 calls)
 
     PWSCF        :  3m26.60s CPU     4m37.56s WALL

 
   This run was terminated on:  20:39: 4  18Dec2018            

=------------------------------------------------------------------------------=
   JOB DONE.
=------------------------------------------------------------------------------=
Job  /afs/slac/g/suncat/bin/suncat-tsmpirun -x LD_LIBRARY_PATH -wdir /scratch/qe530323_nUIPQ pw.x -in pw.inp

TID   HOST_NAME   COMMAND_LINE            STATUS            TERMINATION_TIME
===== ========== ================  =======================  ===================
00000 suncat2044 pw.x -in pw.inp   Done                     12/18/2018 20:39:04
00001 suncat2044 pw.x -in pw.inp   Done                     12/18/2018 20:39:04
00002 suncat2044 pw.x -in pw.inp   Done                     12/18/2018 20:39:04
00003 suncat2044 pw.x -in pw.inp   Done                     12/18/2018 20:39:04
00004 suncat2044 pw.x -in pw.inp   Done                     12/18/2018 20:39:04
00005 suncat2044 pw.x -in pw.inp   Done                     12/18/2018 20:39:04
00006 suncat2044 pw.x -in pw.inp   Done                     12/18/2018 20:39:04
00007 suncat2044 pw.x -in pw.inp   Done                     12/18/2018 20:39:04
00008 suncat2044 pw.x -in pw.inp   Done                     12/18/2018 20:39:04
00009 suncat2044 pw.x -in pw.inp   Done                     12/18/2018 20:39:04
00010 suncat2044 pw.x -in pw.inp   Done                     12/18/2018 20:39:04
00011 suncat2044 pw.x -in pw.inp   Done                     12/18/2018 20:39:04
00012 suncat2044 pw.x -in pw.inp   Done                     12/18/2018 20:39:04
00013 suncat2044 pw.x -in pw.inp   Done                     12/18/2018 20:39:04
00014 suncat2044 pw.x -in pw.inp   Done                     12/18/2018 20:39:04
00015 suncat2044 pw.x -in pw.inp   Done                     12/18/2018 20:39:04
00016 suncat2043 pw.x -in pw.inp   Done                     12/18/2018 20:39:04
00017 suncat2043 pw.x -in pw.inp   Done                     12/18/2018 20:39:04
00018 suncat2043 pw.x -in pw.inp   Done                     12/18/2018 20:39:04
00019 suncat2043 pw.x -in pw.inp   Done                     12/18/2018 20:39:04
00020 suncat2043 pw.x -in pw.inp   Done                     12/18/2018 20:39:04
00021 suncat2043 pw.x -in pw.inp   Done                     12/18/2018 20:39:04
00022 suncat2043 pw.x -in pw.inp   Done                     12/18/2018 20:39:04
00023 suncat2043 pw.x -in pw.inp   Done                     12/18/2018 20:39:04
00024 suncat2043 pw.x -in pw.inp   Done                     12/18/2018 20:39:04
00025 suncat2043 pw.x -in pw.inp   Done                     12/18/2018 20:39:04
00026 suncat2043 pw.x -in pw.inp   Done                     12/18/2018 20:39:04
00027 suncat2043 pw.x -in pw.inp   Done                     12/18/2018 20:39:04
00028 suncat2043 pw.x -in pw.inp   Done                     12/18/2018 20:39:04
00029 suncat2043 pw.x -in pw.inp   Done                     12/18/2018 20:39:04
00030 suncat2043 pw.x -in pw.inp   Done                     12/18/2018 20:39:04
00031 suncat2043 pw.x -in pw.inp   Done                     12/18/2018 20:39:04

     Program PWSCF v.5.1rc2 (svn rev. 11289) starts on 18Dec2018 at 20:39:10 

     This program is part of the open-source Quantum ESPRESSO suite
     for quantum simulation of materials; please cite
         "P. Giannozzi et al., J. Phys.:Condens. Matter 21 395502 (2009);
          URL http://www.quantum-espresso.org", 
     in publications or presentations arising from this work. More details at
     http://www.quantum-espresso.org/quote

     Parallel version (MPI), running on    32 processors
     R & G space division:  proc/nbgrp/npool/nimage =      32
     Reading input from pw.inp
     Message from routine read_cards :
     DEPRECATED: no units specified in CELL_PARAMETERS card

     Current dimensions of program PWSCF are:
     Max number of different atomic species (ntypx) = 10
     Max number of k-points (npk) =  40000
     Max angular momentum in pseudopotentials (lmaxx) =  3
     Presently stress not available with electric field


     **************************************************************************
     Initializing libbeef V0.1.1 with the BEEF-vdW functional.
     Citation: Wellendorff et al., PRB 85, 235149 (2012).
     **************************************************************************


     IMPORTANT: XC functional enforced from input :
     Exchange-correlation      = BEEF-VDW ( 1  4 27 13 2)
     Any further DFT definition will be discarded
     Please, verify this is what you really want


     Subspace diagonalization in iterative solution of the eigenvalue problem:
     a serial algorithm will be used

     Found symmetry operation: I + ( -0.5000  0.0000  0.0000)
     This is a supercell, fractional translations are disabled
 
     Parallelization info
     --------------------
     sticks:   dense  smooth     PW     G-vecs:    dense   smooth      PW
     Min         107      43     12                20801     5241     838
     Max         108      44     13                20810     5292     853
     Sum        3449    1381    409               665773   168467   27071
 


     bravais-lattice index     =            0
     lattice parameter (alat)  =       1.8897  a.u.
     unit-cell volume          =    5599.3361 (a.u.)^3
     number of atoms/cell      =           12
     number of atomic types    =            2
     number of electrons       =       156.00
     number of Kohn-Sham states=          108
     kinetic-energy cutoff     =      36.7493  Ry
     charge density cutoff     =     367.4932  Ry
     convergence threshold     =      1.0E-06
     mixing beta               =       0.1000
     number of iterations used =           10  plain     mixing
     Exchange-correlation      = BEEF-VDW ( 1  4 27 13 2)
     nstep                     =           50


     celldm(1)=   1.889726  celldm(2)=   0.000000  celldm(3)=   0.000000
     celldm(4)=   0.000000  celldm(5)=   0.000000  celldm(6)=   0.000000

     crystal axes: (cart. coord. in units of alat)
               a(1) = (   6.066211   0.000000   0.000000 )  
               a(2) = (  -3.033106   5.461435   0.000000 )  
               a(3) = (   0.000000   0.000000  25.044690 )  

     reciprocal axes: (cart. coord. in units 2 pi/alat)
               b(1) = (  0.164848  0.091551  0.000000 )  
               b(2) = (  0.000000  0.183102  0.000000 )  
               b(3) = (  0.000000  0.000000  0.039929 )  


     PseudoPot. # 1 for Nb read from file:
     /afs/slac.stanford.edu/u/if/mamunm/psp/gbrv1.5pbe/Nb.UPF
     MD5 check sum: 573aab8a2fa660278ed4a62cd769473f
     Pseudo is Ultrasoft + core correction, Zval = 13.0
     Generated by new atomic code, or converted to UPF format
     Using radial grid of  887 points,  6 beta functions with: 
                l(1) =   0
                l(2) =   0
                l(3) =   1
                l(4) =   1
                l(5) =   2
                l(6) =   2
     Q(r) pseudized with  6 coefficients,  rinner =    1.000   1.000   1.000
                                                       1.000   1.000

     PseudoPot. # 2 for Tl read from file:
     /afs/slac.stanford.edu/u/if/mamunm/psp/gbrv1.5pbe/Tl.UPF
     MD5 check sum: b76cf1f7e72655a2b2c53cf6385d7059
     Pseudo is Ultrasoft + core correction, Zval = 13.0
     Generated by new atomic code, or converted to UPF format
     Using radial grid of  899 points,  6 beta functions with: 
                l(1) =   0
                l(2) =   0
                l(3) =   1
                l(4) =   1
                l(5) =   2
                l(6) =   2
     Q(r) pseudized with  6 coefficients,  rinner =    1.100   1.100   1.100
                                                       1.100   1.100

     vdW kernel table read from file vdW_kernel_table
     MD5 check sum: 095c7af220d748ca6e76c0b4c6cfb241

     atomic species   valence    mass     pseudopotential
        Nb1           13.00    92.90637     Nb( 1.00)
        Tl1           13.00   204.38000     Tl( 1.00)

     No symmetry found



   Cartesian axes

     site n.     atom                  positions (alat units)
         1           Nb1 tau(   1) = (   0.0000000   0.0000000  10.0000000  )
         2           Nb1 tau(   2) = (   3.0331056   0.0000000  10.0000000  )
         3           Tl1 tau(   3) = (   1.5165528   2.7307174  10.0000000  )
         4           Tl1 tau(   4) = (  -1.5165528   2.7307174  10.0000000  )
         5           Nb1 tau(   5) = (   3.0331056   1.6844894  12.5223451  )
         6           Nb1 tau(   6) = (   0.0000000   1.6844894  12.5223451  )
         7           Tl1 tau(   7) = (  -1.5165528   4.4152068  12.5223451  )
         8           Tl1 tau(   8) = (   1.5165528   4.4152068  12.5223451  )
         9           Nb1 tau(   9) = (  -0.0000170   3.3157018  14.9193037  )
        10           Nb1 tau(  10) = (   3.0330908   3.3157043  14.9193049  )
        11           Tl1 tau(  11) = (   4.5497278   0.6569294  15.1708710  )
        12           Tl1 tau(  12) = (   1.5166053   0.6569348  15.1708686  )

     number of k points=    20  Fermi-Dirac smearing, width (Ry)=  0.0110
                       cart. coord. in units 2pi/alat
        k(    1) = (   0.0000000   0.0000000   0.0000000), wk =   0.0555556
        k(    2) = (   0.0000000   0.0305170   0.0000000), wk =   0.1111111
        k(    3) = (   0.0000000   0.0610340   0.0000000), wk =   0.1111111
        k(    4) = (   0.0000000  -0.0915510   0.0000000), wk =   0.0555556
        k(    5) = (   0.0274746   0.0152585   0.0000000), wk =   0.1111111
        k(    6) = (   0.0274746   0.0457755   0.0000000), wk =   0.1111111
        k(    7) = (   0.0274746   0.0762925   0.0000000), wk =   0.1111111
        k(    8) = (   0.0274746  -0.0762925   0.0000000), wk =   0.1111111
        k(    9) = (   0.0274746  -0.0457755   0.0000000), wk =   0.1111111
        k(   10) = (   0.0274746  -0.0152585   0.0000000), wk =   0.1111111
        k(   11) = (   0.0549492   0.0305170   0.0000000), wk =   0.1111111
        k(   12) = (   0.0549492   0.0610340   0.0000000), wk =   0.1111111
        k(   13) = (   0.0549492   0.0915510   0.0000000), wk =   0.1111111
        k(   14) = (   0.0549492  -0.0610340   0.0000000), wk =   0.1111111
        k(   15) = (   0.0549492  -0.0305170   0.0000000), wk =   0.1111111
        k(   16) = (   0.0549492   0.0000000   0.0000000), wk =   0.1111111
        k(   17) = (  -0.0824238  -0.0457755   0.0000000), wk =   0.0555556
        k(   18) = (  -0.0824238  -0.0152585   0.0000000), wk =   0.1111111
        k(   19) = (  -0.0824238   0.0152585   0.0000000), wk =   0.1111111
        k(   20) = (  -0.0824238  -0.1373266   0.0000000), wk =   0.0555556

     Dense  grid:   665773 G-vectors     FFT dimensions: (  72,  75, 300)

     Smooth grid:   168467 G-vectors     FFT dimensions: (  45,  45, 192)

     Largest allocated arrays     est. size (Mb)     dimensions
        Kohn-Sham Wavefunctions         1.12 Mb     (     677,  108)
        NL pseudopotentials             2.23 Mb     (     677,  216)
        Each V/rho on FFT grid          0.82 Mb     (   54000)
        Each G-vector array             0.16 Mb     (   20803)
        G-vector shells                 0.08 Mb     (   10455)
     Largest temporary arrays     est. size (Mb)     dimensions
        Auxiliary wavefunctions         4.46 Mb     (     677,  432)
        Each subspace H/S matrix        2.85 Mb     (     432,  432)
        Each <psi_i|beta_j> matrix      0.36 Mb     (     216,  108)
        Arrays for rho mixing           8.24 Mb     (   54000,   10)

     Check: negative/imaginary core charge=   -0.000001    0.000000

     Initial potential from superposition of free atoms
     Check: negative starting charge=   -0.302851

     starting charge  155.95441, renormalised to  156.00000

     negative rho (up, down):  3.029E-01 0.000E+00


     ************************************************************************
     *
     * You are using vdW-DF for exchange-correlation in this calculation.
     * Please cite the following three references that made this development
     * possible:
     *
     *   M. Dion, H. Rydberg, E. Schroder, D. C. Langreth, and
     *   B. I. Lundqvist, Phys. Rev. Lett. 92, 246401 (2004).
     *
     *   T. Thonhauser, V. R. Cooper, S. Li, A. Puzder, P. Hyldgaard, and
     *   D. C. Langreth, Phys. Rev. B 76, 125112 (2007).
     *
     *   G. Roman-Perez and J. M. Soler, Phys. Rev. Lett. 103, 096102 (2009).
     *
     *
     * If you are using vdW-DF2, please also cite:
     *
     *   K. Lee, E. D. Murray, L. Kong, B. I. Lundqvist, and
     *   D. C. Langreth, Phys. Rev. B 82, 081101(R) (2010).
     *
     *
     * If you are calculating the stress with vdW-DF, please also cite:
     *
     *   R. Sabatini, E. Kucukbenli, B. Kolb, T. Thonhauser, and
     *   S. de Gironcoli, J. Phys.: Condens. Matter 24, 424209 (2012).
     *
     ************************************************************************

     Carrying out vdW-DF run using the following parameters:

     Nqs =      20    Nr_points =    1024   r_max =   100.000
     q_mesh =
               0.00001000     0.04494208     0.09755937     0.15916263
               0.23128650     0.31572767     0.41458969     0.53033537
               0.66584808     0.82450364     1.01025438     1.22772762
               1.48234092     1.78043706     2.12944203     2.53805004
               3.01644009     3.57652955     4.23227104     5.00000000

     Gradients computed in reciprocal space

     ************************************************************************


 
     Adding external electric field

     Computed dipole along edir(3) : 
        Dipole                0.0010 Ry au,          0.0026 Debye
        Dipole field          0.0000 Ry au
 
        Potential amp.       -0.0002 Ry
        Total length         46.1444 bohr
 
     Starting wfc are  132 randomized atomic wfcs

     total cpu time spent up to now is        7.3 secs

     Self-consistent Calculation

     iteration #  1     ecut=    36.75 Ry     beta=0.10
     Davidson diagonalization with overlap
     ethr =  1.00E-02,  avg # of iterations =  5.3

     Threshold (ethr) on eigenvalues was too large:
     Diagonalizing with lowered threshold

     Davidson diagonalization with overlap
     ethr =  8.60E-04,  avg # of iterations =  3.2

     negative rho (up, down):  3.050E-01 0.000E+00
 
     Adding external electric field

     Computed dipole along edir(3) : 
        Dipole               -0.3778 Ry au,         -0.9603 Debye
        Dipole field         -0.0008 Ry au
 
        Potential amp.        0.0783 Ry
        Total length         46.1444 bohr
 

     total cpu time spent up to now is       39.2 secs

     total energy              =   -1591.50387695 Ry
     Harris-Foulkes estimate   =   -1591.72881951 Ry
     estimated scf accuracy    <       1.49856328 Ry

     iteration #  2     ecut=    36.75 Ry     beta=0.10
     Davidson diagonalization with overlap
     ethr =  9.61E-04,  avg # of iterations =  6.5

     negative rho (up, down):  3.054E-01 0.000E+00
 
     Adding external electric field

     Computed dipole along edir(3) : 
        Dipole                0.2265 Ry au,          0.5757 Debye
        Dipole field          0.0005 Ry au
 
        Potential amp.       -0.0469 Ry
        Total length         46.1444 bohr
 

     total cpu time spent up to now is       55.4 secs

     total energy              =   -1591.45577706 Ry
     Harris-Foulkes estimate   =   -1591.69898167 Ry
     estimated scf accuracy    <       4.42944769 Ry

     iteration #  3     ecut=    36.75 Ry     beta=0.10
     Davidson diagonalization with overlap
     ethr =  9.61E-04,  avg # of iterations =  3.6

     negative rho (up, down):  3.066E-01 0.000E+00
 
     Adding external electric field

     Computed dipole along edir(3) : 
        Dipole               -0.0332 Ry au,         -0.0845 Debye
        Dipole field         -0.0001 Ry au
 
        Potential amp.        0.0069 Ry
        Total length         46.1444 bohr
 

     total cpu time spent up to now is       68.8 secs

     total energy              =   -1591.55159275 Ry
     Harris-Foulkes estimate   =   -1591.65430799 Ry
     estimated scf accuracy    <       2.46465993 Ry

     iteration #  4     ecut=    36.75 Ry     beta=0.10
     Davidson diagonalization with overlap
     ethr =  9.61E-04,  avg # of iterations =  1.1

     negative rho (up, down):  3.163E-01 0.000E+00
 
     Adding external electric field

     Computed dipole along edir(3) : 
        Dipole               -0.0298 Ry au,         -0.0758 Debye
        Dipole field         -0.0001 Ry au
 
        Potential amp.        0.0062 Ry
        Total length         46.1444 bohr
 

     total cpu time spent up to now is       80.0 secs

     total energy              =   -1591.49421524 Ry
     Harris-Foulkes estimate   =   -1591.59313346 Ry
     estimated scf accuracy    <       0.30465461 Ry

     iteration #  5     ecut=    36.75 Ry     beta=0.10
     Davidson diagonalization with overlap
     ethr =  1.95E-04,  avg # of iterations =  5.8

     negative rho (up, down):  3.169E-01 0.000E+00
 
     Adding external electric field

     Computed dipole along edir(3) : 
        Dipole                0.0005 Ry au,          0.0012 Debye
        Dipole field          0.0000 Ry au
 
        Potential amp.       -0.0001 Ry
        Total length         46.1444 bohr
 

     total cpu time spent up to now is       97.1 secs

     total energy              =   -1591.53083983 Ry
     Harris-Foulkes estimate   =   -1591.54113438 Ry
     estimated scf accuracy    <       0.06862963 Ry

     iteration #  6     ecut=    36.75 Ry     beta=0.10
     Davidson diagonalization with overlap
     ethr =  4.40E-05,  avg # of iterations =  3.6

     negative rho (up, down):  3.240E-01 0.000E+00
 
     Adding external electric field

     Computed dipole along edir(3) : 
        Dipole               -0.0343 Ry au,         -0.0871 Debye
        Dipole field         -0.0001 Ry au
 
        Potential amp.        0.0071 Ry
        Total length         46.1444 bohr
 

     total cpu time spent up to now is      111.0 secs

     total energy              =   -1591.53386149 Ry
     Harris-Foulkes estimate   =   -1591.53907510 Ry
     estimated scf accuracy    <       0.06540149 Ry

     iteration #  7     ecut=    36.75 Ry     beta=0.10
     Davidson diagonalization with overlap
     ethr =  4.19E-05,  avg # of iterations =  1.2

     negative rho (up, down):  3.276E-01 0.000E+00
 
     Adding external electric field

     Computed dipole along edir(3) : 
        Dipole                0.0011 Ry au,          0.0028 Debye
        Dipole field          0.0000 Ry au
 
        Potential amp.       -0.0002 Ry
        Total length         46.1444 bohr
 

     total cpu time spent up to now is      122.3 secs

     total energy              =   -1591.53867614 Ry
     Harris-Foulkes estimate   =   -1591.53841608 Ry
     estimated scf accuracy    <       0.01090521 Ry

     iteration #  8     ecut=    36.75 Ry     beta=0.10
     Davidson diagonalization with overlap
     ethr =  6.99E-06,  avg # of iterations =  6.2

     negative rho (up, down):  3.294E-01 0.000E+00
 
     Adding external electric field

     Computed dipole along edir(3) : 
        Dipole               -0.0251 Ry au,         -0.0638 Debye
        Dipole field         -0.0001 Ry au
 
        Potential amp.        0.0052 Ry
        Total length         46.1444 bohr
 

     total cpu time spent up to now is      140.5 secs

     total energy              =   -1591.53698350 Ry
     Harris-Foulkes estimate   =   -1591.54128653 Ry
     estimated scf accuracy    <       0.01761541 Ry

     iteration #  9     ecut=    36.75 Ry     beta=0.10
     Davidson diagonalization with overlap
     ethr =  6.99E-06,  avg # of iterations =  3.8

     negative rho (up, down):  3.309E-01 0.000E+00
 
     Adding external electric field

     Computed dipole along edir(3) : 
        Dipole               -0.0175 Ry au,         -0.0445 Debye
        Dipole field         -0.0000 Ry au
 
        Potential amp.        0.0036 Ry
        Total length         46.1444 bohr
 

     total cpu time spent up to now is      155.5 secs

     total energy              =   -1591.53952593 Ry
     Harris-Foulkes estimate   =   -1591.53965283 Ry
     estimated scf accuracy    <       0.00569733 Ry

     iteration # 10     ecut=    36.75 Ry     beta=0.10
     Davidson diagonalization with overlap
     ethr =  3.65E-06,  avg # of iterations =  1.1

     negative rho (up, down):  3.315E-01 0.000E+00
 
     Adding external electric field

     Computed dipole along edir(3) : 
        Dipole               -0.0247 Ry au,         -0.0627 Debye
        Dipole field         -0.0001 Ry au
 
        Potential amp.        0.0051 Ry
        Total length         46.1444 bohr
 

     total cpu time spent up to now is      166.7 secs

     total energy              =   -1591.53944036 Ry
     Harris-Foulkes estimate   =   -1591.53976856 Ry
     estimated scf accuracy    <       0.00140663 Ry

     iteration # 11     ecut=    36.75 Ry     beta=0.10
     Davidson diagonalization with overlap
     ethr =  9.02E-07,  avg # of iterations =  2.6

     negative rho (up, down):  3.316E-01 0.000E+00
 
     Adding external electric field

     Computed dipole along edir(3) : 
        Dipole               -0.0183 Ry au,         -0.0466 Debye
        Dipole field         -0.0000 Ry au
 
        Potential amp.        0.0038 Ry
        Total length         46.1444 bohr
 

     total cpu time spent up to now is      180.1 secs

     total energy              =   -1591.53967530 Ry
     Harris-Foulkes estimate   =   -1591.53966384 Ry
     estimated scf accuracy    <       0.00051726 Ry

     iteration # 12     ecut=    36.75 Ry     beta=0.10
     Davidson diagonalization with overlap
     ethr =  3.32E-07,  avg # of iterations =  1.0

     negative rho (up, down):  3.315E-01 0.000E+00
 
     Adding external electric field

     Computed dipole along edir(3) : 
        Dipole               -0.0170 Ry au,         -0.0433 Debye
        Dipole field         -0.0000 Ry au
 
        Potential amp.        0.0035 Ry
        Total length         46.1444 bohr
 

     total cpu time spent up to now is      191.7 secs

     total energy              =   -1591.53967852 Ry
     Harris-Foulkes estimate   =   -1591.53969311 Ry
     estimated scf accuracy    <       0.00006812 Ry

     iteration # 13     ecut=    36.75 Ry     beta=0.10
     Davidson diagonalization with overlap
     ethr =  4.37E-08,  avg # of iterations =  2.9

     negative rho (up, down):  3.315E-01 0.000E+00
 
     Adding external electric field

     Computed dipole along edir(3) : 
        Dipole               -0.0190 Ry au,         -0.0484 Debye
        Dipole field         -0.0000 Ry au
 
        Potential amp.        0.0039 Ry
        Total length         46.1444 bohr
 

     total cpu time spent up to now is      205.3 secs

     total energy              =   -1591.53969904 Ry
     Harris-Foulkes estimate   =   -1591.53969253 Ry
     estimated scf accuracy    <       0.00007634 Ry

     iteration # 14     ecut=    36.75 Ry     beta=0.10
     Davidson diagonalization with overlap
     ethr =  4.37E-08,  avg # of iterations =  1.0

     negative rho (up, down):  3.315E-01 0.000E+00
 
     Adding external electric field

     Computed dipole along edir(3) : 
        Dipole               -0.0202 Ry au,         -0.0513 Debye
        Dipole field         -0.0000 Ry au
 
        Potential amp.        0.0042 Ry
        Total length         46.1444 bohr
 

     total cpu time spent up to now is      216.2 secs

     total energy              =   -1591.53970745 Ry
     Harris-Foulkes estimate   =   -1591.53970142 Ry
     estimated scf accuracy    <       0.00001029 Ry

     iteration # 15     ecut=    36.75 Ry     beta=0.10
     Davidson diagonalization with overlap
     ethr =  6.60E-09,  avg # of iterations =  2.8

     negative rho (up, down):  3.314E-01 0.000E+00
 
     Adding external electric field

     Computed dipole along edir(3) : 
        Dipole               -0.0197 Ry au,         -0.0501 Debye
        Dipole field         -0.0000 Ry au
 
        Potential amp.        0.0041 Ry
        Total length         46.1444 bohr
 

     total cpu time spent up to now is      229.8 secs

     total energy              =   -1591.53971083 Ry
     Harris-Foulkes estimate   =   -1591.53970934 Ry
     estimated scf accuracy    <       0.00000318 Ry

     iteration # 16     ecut=    36.75 Ry     beta=0.10
     Davidson diagonalization with overlap
     ethr =  2.04E-09,  avg # of iterations =  2.0

     negative rho (up, down):  3.314E-01 0.000E+00
 
     Adding external electric field

     Computed dipole along edir(3) : 
        Dipole               -0.0193 Ry au,         -0.0491 Debye
        Dipole field         -0.0000 Ry au
 
        Potential amp.        0.0040 Ry
        Total length         46.1444 bohr
 

     total cpu time spent up to now is      242.0 secs

     total energy              =   -1591.53971219 Ry
     Harris-Foulkes estimate   =   -1591.53971115 Ry
     estimated scf accuracy    <       0.00000101 Ry

     iteration # 17     ecut=    36.75 Ry     beta=0.10
     Davidson diagonalization with overlap
     ethr =  6.45E-10,  avg # of iterations =  2.6

     negative rho (up, down):  3.311E-01 0.000E+00

     negative rho (up, down):  3.311E-01 0.000E+00

     negative rho (up, down):  3.311E-01 0.000E+00

     negative rho (up, down):  3.311E-01 0.000E+00

     negative rho (up, down):  3.311E-01 0.000E+00

     negative rho (up, down):  3.311E-01 0.000E+00

     negative rho (up, down):  3.311E-01 0.000E+00

     negative rho (up, down):  3.311E-01 0.000E+00

     negative rho (up, down):  3.311E-01 0.000E+00

     negative rho (up, down):  3.311E-01 0.000E+00

     negative rho (up, down):  3.311E-01 0.000E+00

     negative rho (up, down):  3.311E-01 0.000E+00

     negative rho (up, down):  3.311E-01 0.000E+00

     negative rho (up, down):  3.311E-01 0.000E+00

     negative rho (up, down):  3.311E-01 0.000E+00

     negative rho (up, down):  3.311E-01 0.000E+00

     negative rho (up, down):  3.311E-01 0.000E+00

     negative rho (up, down):  3.311E-01 0.000E+00

     negative rho (up, down):  3.311E-01 0.000E+00

     negative rho (up, down):  3.311E-01 0.000E+00

     negative rho (up, down):  3.311E-01 0.000E+00

     negative rho (up, down):  3.311E-01 0.000E+00

     negative rho (up, down):  3.311E-01 0.000E+00

     negative rho (up, down):  3.311E-01 0.000E+00

     negative rho (up, down):  3.311E-01 0.000E+00

     negative rho (up, down):  3.311E-01 0.000E+00

     negative rho (up, down):  3.311E-01 0.000E+00

     negative rho (up, down):  3.311E-01 0.000E+00

     negative rho (up, down):  3.311E-01 0.000E+00

     negative rho (up, down):  3.311E-01 0.000E+00

     negative rho (up, down):  3.311E-01 0.000E+00

     negative rho (up, down):  3.311E-01 0.000E+00

     negative rho (up, down):  3.311E-01 0.000E+00

     negative rho (up, down):  3.311E-01 0.000E+00

     negative rho (up, down):  3.311E-01 0.000E+00
 
     Adding external electric field

     Computed dipole along edir(3) : 
        Dipole               -0.0203 Ry au,         -0.0516 Debye
        Dipole field         -0.0000 Ry au
 
        Potential amp.        0.0042 Ry
        Total length         46.1444 bohr
 

     total cpu time spent up to now is      272.8 secs

     End of self-consistent calculation

          k = 0.0000 0.0000 0.0000 ( 21063 PWs)   bands (ev):

   -53.8577 -53.8084 -53.7818 -53.7319 -53.6950 -53.6449 -30.0391 -29.9789
   -29.9719 -29.9598 -29.9391 -29.9017 -29.8930 -29.8898 -29.8367 -29.8282
   -29.8145 -29.7716 -29.7537 -29.5017 -29.4634 -29.4523 -29.4245 -29.3876
   -11.0435 -10.7584 -10.6870 -10.6040 -10.5202 -10.4863 -10.4760 -10.4556
   -10.4009 -10.2170 -10.1620 -10.1271 -10.1081 -10.0811 -10.0479  -9.9805
    -9.8913  -9.8393  -9.8172  -9.7998  -9.7566  -9.7287  -9.7258  -9.6252
    -9.6040  -9.5994  -9.5567  -9.5357  -9.3719  -9.2601  -7.9155  -6.3779
    -5.1023  -4.2925  -3.1122  -2.5546  -1.1965  -0.9705  -0.7728  -0.3975
    -0.2680  -0.2404  -0.1453  -0.0185   0.4374   0.5606   0.6398   0.6838
     0.7031   1.1612   1.2915   1.4175   1.5934   1.6814   1.9678   2.1168
     2.3249   2.3589   2.4413   2.4844   2.5922   2.7846   2.9983   3.0318
     3.1281   3.3407   3.4328   3.4365   3.4779   3.7054   3.7289   3.8071
     4.0977   4.4541   4.5089   4.6332   4.8238   5.1917   5.2394   5.2842
     5.4243   5.9500   6.5941   6.8836

          k = 0.0000 0.0305 0.0000 ( 21072 PWs)   bands (ev):

[...]
    -4.9490  -4.6655  -3.4531  -2.7257  -1.1148  -0.7459  -0.5085  -0.3338
    -0.2515  -0.0052  -0.0025   0.1449   0.2866   0.5225   0.6130   0.7455
     0.9468   1.0805   1.2129   1.2901   1.4397   1.6134   1.6997   1.9204
     2.2273   2.2704   2.4180   2.5859   2.8403   2.8991   2.9356   3.2244
     3.4148   3.4699   3.5141   3.7209   3.8145   4.0129   4.1133   4.1708
     4.3192   4.4184   4.7449   4.9077   4.9133   5.3224   5.3547   5.4564
     5.6650   6.1755   6.2682   6.6413

          k = 0.0549 0.0305 0.0000 ( 21069 PWs)   bands (ev):

   -53.8312 -53.8066 -53.6218 -53.5964 -53.4852 -53.4604 -30.0536 -30.0216
   -29.9372 -29.9087 -29.8316 -29.8196 -29.8040 -29.7212 -29.7062 -29.6919
   -29.6197 -29.5939 -29.5903 -29.5677 -29.4442 -29.3446 -29.1160 -29.0924
   -10.6912 -10.5141 -10.4676 -10.4184 -10.4058 -10.3559 -10.3103 -10.2215
   -10.1770 -10.1607 -10.1245 -10.0794 -10.0297  -9.9726  -9.9028  -9.8712
    -9.8173  -9.7778  -9.7670  -9.7324  -9.7284  -9.7141  -9.6965  -9.6639
    -9.6613  -9.6407  -9.6294  -9.6138  -9.5721  -9.5101  -7.1771  -5.7165
    -5.5752  -4.6434  -4.3252  -3.4392  -1.2365  -0.8736  -0.3710  -0.2434
    -0.1233   0.1790   0.2232   0.3774   0.4145   0.6078   0.6775   0.7361
     0.9144   0.9577   1.0414   1.3469   1.4815   1.6086   1.6588   1.9373
     2.0884   2.2209   2.4872   2.5675   2.7068   2.9271   3.0240   3.2206
     3.3846   3.4084   3.6299   3.7082   3.9061   4.1199   4.2336   4.4312
     4.4754   4.7603   4.9521   4.9687   5.1178   5.4261   5.5115   5.7496
     5.9502   6.1463   6.2655   6.6551

          k = 0.0549 0.0610 0.0000 ( 21093 PWs)   bands (ev):

   -53.8312 -53.8066 -53.6218 -53.5964 -53.4853 -53.4604 -30.0544 -30.0215
   -29.9372 -29.9087 -29.8326 -29.8201 -29.8038 -29.7228 -29.7067 -29.6911
   -29.6191 -29.5941 -29.5913 -29.5677 -29.4441 -29.3446 -29.1160 -29.0924
   -10.6894 -10.4997 -10.4466 -10.4197 -10.4020 -10.3407 -10.3022 -10.2204
   -10.1757 -10.1653 -10.1205 -10.0724 -10.0042  -9.9725  -9.8903  -9.8705
    -9.8107  -9.7735  -9.7681  -9.7338  -9.7306  -9.7134  -9.6968  -9.6663
    -9.6594  -9.6372  -9.6299  -9.6140  -9.5701  -9.5101  -6.8920  -5.7084
    -5.5984  -4.5882  -4.3563  -3.4159  -1.8878  -0.9792  -0.8446  -0.3805
    -0.3236  -0.0563   0.0116   0.0963   0.2840   0.3796   0.5202   0.8342
     0.9579   0.9878   1.1883   1.3334   1.5016   1.6519   1.7170   1.9884
     2.1646   2.4060   2.5193   2.7553   2.7779   2.9361   3.0852   3.1572
     3.3843   3.4771   3.5642   3.7613   4.0029   4.2890   4.3546   4.5028
     4.5760   4.6163   4.8332   5.0357   5.2212   5.6035   6.0168   6.1355
     6.4578   6.4826   6.6047   7.0629

          k = 0.0549 0.0916 0.0000 ( 21071 PWs)   bands (ev):

   -53.8312 -53.8066 -53.6217 -53.5964 -53.4853 -53.4604 -30.0549 -30.0214
   -29.9372 -29.9087 -29.8331 -29.8203 -29.8037 -29.7236 -29.7069 -29.6907
   -29.6188 -29.5942 -29.5918 -29.5676 -29.4441 -29.3446 -29.1160 -29.0925
   -10.6885 -10.4937 -10.4327 -10.4206 -10.4000 -10.3315 -10.2997 -10.2211
   -10.1751 -10.1676 -10.1185 -10.0689  -9.9916  -9.9709  -9.8831  -9.8706
    -9.8054  -9.7722  -9.7675  -9.7396  -9.7300  -9.7129  -9.6959  -9.6703
    -9.6576  -9.6346  -9.6295  -9.6140  -9.5692  -9.5101  -6.7113  -5.7740
    -5.5746  -4.5554  -4.3783  -3.4069  -2.1494  -1.0100  -0.9977  -0.5780
    -0.2624  -0.1847  -0.1421   0.0221   0.1868   0.2712   0.4759   0.8549
     0.9301   1.0052   1.2605   1.3539   1.3937   1.6346   1.9217   2.0781
     2.1518   2.3399   2.3535   2.7236   2.7713   2.8352   3.0410   3.2927
     3.4342   3.4948   3.7180   3.8279   4.0508   4.1367   4.2774   4.4119
     4.5359   4.6785   5.4406   5.6231   5.7295   5.9750   6.0366   6.2543
     6.3593   6.6239   6.7207   6.8460

          k = 0.0549-0.0610 0.0000 ( 21093 PWs)   bands (ev):

   -53.8312 -53.8066 -53.6218 -53.5964 -53.4853 -53.4604 -30.0544 -30.0215
   -29.9372 -29.9087 -29.8326 -29.8201 -29.8038 -29.7228 -29.7067 -29.6911
   -29.6191 -29.5941 -29.5913 -29.5677 -29.4441 -29.3446 -29.1160 -29.0924
   -10.6894 -10.4997 -10.4466 -10.4197 -10.4020 -10.3407 -10.3022 -10.2204
   -10.1757 -10.1653 -10.1205 -10.0724 -10.0042  -9.9725  -9.8903  -9.8705
    -9.8107  -9.7735  -9.7681  -9.7338  -9.7306  -9.7134  -9.6968  -9.6663
    -9.6594  -9.6372  -9.6299  -9.6140  -9.5701  -9.5101  -6.8920  -5.7084
    -5.5984  -4.5882  -4.3563  -3.4159  -1.8878  -0.9792  -0.8446  -0.3804
    -0.3236  -0.0563   0.0116   0.0963   0.2840   0.3797   0.5202   0.8342
     0.9579   0.9879   1.1883   1.3334   1.5016   1.6520   1.7170   1.9884
     2.1646   2.4060   2.5193   2.7552   2.7778   2.9361   3.0852   3.1572
     3.3842   3.4771   3.5643   3.7614   4.0028   4.2890   4.3546   4.5028
     4.5760   4.6163   4.8333   5.0357   5.2211   5.6034   6.0168   6.1355
     6.4578   6.4826   6.6046   7.0629

          k = 0.0549-0.0305 0.0000 ( 21069 PWs)   bands (ev):

   -53.8312 -53.8066 -53.6218 -53.5964 -53.4852 -53.4604 -30.0536 -30.0216
   -29.9372 -29.9087 -29.8316 -29.8196 -29.8040 -29.7212 -29.7062 -29.6919
   -29.6197 -29.5939 -29.5903 -29.5677 -29.4442 -29.3446 -29.1160 -29.0924
   -10.6912 -10.5141 -10.4676 -10.4184 -10.4058 -10.3559 -10.3103 -10.2215
   -10.1770 -10.1607 -10.1245 -10.0794 -10.0297  -9.9726  -9.9028  -9.8712
    -9.8173  -9.7778  -9.7670  -9.7324  -9.7284  -9.7141  -9.6965  -9.6639
    -9.6613  -9.6407  -9.6294  -9.6138  -9.5721  -9.5101  -7.1771  -5.7165
    -5.5752  -4.6434  -4.3252  -3.4392  -1.2365  -0.8736  -0.3710  -0.2434
    -0.1233   0.1790   0.2232   0.3774   0.4145   0.6079   0.6774   0.7361
     0.9144   0.9577   1.0414   1.3469   1.4815   1.6086   1.6588   1.9373
     2.0884   2.2209   2.4871   2.5676   2.7067   2.9270   3.0239   3.2206
     3.3846   3.4084   3.6299   3.7083   3.9061   4.1197   4.2335   4.4313
     4.4755   4.7603   4.9520   4.9688   5.1180   5.4261   5.5115   5.7496
     5.9502   6.1463   6.2655   6.6550

          k = 0.0549 0.0000 0.0000 ( 21067 PWs)   bands (ev):

   -53.8312 -53.8066 -53.6218 -53.5964 -53.4852 -53.4604 -30.0532 -30.0216
   -29.9372 -29.9087 -29.8311 -29.8193 -29.8041 -29.7205 -29.7060 -29.6923
   -29.6200 -29.5938 -29.5898 -29.5678 -29.4443 -29.3446 -29.1160 -29.0923
   -10.6921 -10.5226 -10.4755 -10.4179 -10.4077 -10.3622 -10.3154 -10.2227
   -10.1776 -10.1588 -10.1265 -10.0830 -10.0416  -9.9725  -9.9086  -9.8717
    -9.8188  -9.7809  -9.7661  -9.7333  -9.7281  -9.7143  -9.6955  -9.6666
    -9.6602  -9.6418  -9.6286  -9.6138  -9.5732  -9.5103  -7.2972  -5.7868
    -5.5072  -4.6743  -4.3170  -3.4519  -0.7930  -0.6675  -0.3251  -0.0092
     0.0855   0.1729   0.2899   0.4501   0.4797   0.6647   0.6946   0.9339
     0.9567   1.0313   1.0773   1.2152   1.4005   1.4006   1.5643   1.8175
     2.0183   2.0658   2.3881   2.5316   2.5602   2.8880   2.9002   3.1917
     3.3223   3.4724   3.6165   4.0503   4.0839   4.1084   4.2955   4.4913
     4.5012   4.7984   4.8238   4.8398   5.0376   5.2228   5.2735   5.7029
     5.8027   5.9313   6.1503   6.3864

          k =-0.0824-0.0458 0.0000 ( 21082 PWs)   bands (ev):

   -53.8189 -53.8189 -53.6091 -53.6091 -53.4728 -53.4728 -30.0378 -30.0378
   -29.9230 -29.9230 -29.8180 -29.8180 -29.7068 -29.7068 -29.6948 -29.6948
   -29.6052 -29.6052 -29.5765 -29.5765 -29.4703 -29.4703 -29.1042 -29.1042
   -10.5012 -10.5012 -10.3661 -10.3661 -10.3305 -10.3305 -10.3050 -10.3050
   -10.2699 -10.2699  -9.9109  -9.9109  -9.8793  -9.8793  -9.8482  -9.8480
    -9.8336  -9.8333  -9.7899  -9.7899  -9.7650  -9.7648  -9.7474  -9.7472
    -9.7310  -9.7309  -9.6752  -9.6752  -9.6336  -9.6336  -6.4691  -6.4690
    -5.1126  -5.1122  -4.1311  -4.1308  -1.1584  -1.1584  -0.3093  -0.3092
     0.0197   0.0198   0.3342   0.3342   0.5493   0.5493   0.7586   0.7586
     0.9349   0.9349   1.4568   1.4569   1.5750   1.5751   1.8339   1.8339
     2.2330   2.2330   2.3916   2.3916   2.6851   2.6851   2.9414   2.9414
     3.4760   3.4761   3.7033   3.7033   3.9222   3.9222   4.2449   4.2450
     4.5959   4.5959   5.3412   5.3412   5.4931   5.4931   5.9425   5.9425
     6.3875   6.3876   6.5390   6.5390

          k =-0.0824-0.0153 0.0000 ( 21096 PWs)   bands (ev):

   -53.8189 -53.8189 -53.6091 -53.6091 -53.4728 -53.4728 -30.0382 -30.0374
   -29.9230 -29.9230 -29.8185 -29.8175 -29.7078 -29.7058 -29.6951 -29.6946
   -29.6059 -29.6045 -29.5768 -29.5763 -29.4704 -29.4703 -29.1042 -29.1042
   -10.5024 -10.5002 -10.3704 -10.3549 -10.3299 -10.3298 -10.3170 -10.2999
   -10.2712 -10.2696  -9.9118  -9.9106  -9.8901  -9.8623  -9.8483  -9.8476
    -9.8343  -9.8327  -9.7931  -9.7925  -9.7696  -9.7586  -9.7480  -9.7466
    -9.7338  -9.7297  -9.6758  -9.6750  -9.6369  -9.6299  -6.6483  -6.2603
    -5.1953  -5.0597  -4.1618  -4.1031  -1.4336  -0.8043  -0.3455  -0.1778
     0.0098   0.1095   0.2341   0.3160   0.3821   0.5829   0.6716   0.7252
     0.9810   1.1786   1.4793   1.5010   1.5558   1.6300   1.8276   1.9270
     1.9825   2.1553   2.2143   2.3951   2.4417   2.5770   2.9364   3.0644
     3.3378   3.5557   3.5623   3.7366   4.0303   4.2636   4.3494   4.4315
     4.5182   4.7839   4.9336   5.1889   5.5814   5.6345   6.0553   6.2333
     6.3396   6.4478   6.5627   6.5911

          k =-0.0824 0.0153 0.0000 ( 21096 PWs)   bands (ev):

   -53.8189 -53.8189 -53.6091 -53.6091 -53.4728 -53.4728 -30.0382 -30.0374
   -29.9230 -29.9230 -29.8185 -29.8175 -29.7078 -29.7058 -29.6951 -29.6946
   -29.6059 -29.6045 -29.5768 -29.5763 -29.4704 -29.4703 -29.1042 -29.1042
   -10.5024 -10.5002 -10.3704 -10.3549 -10.3299 -10.3298 -10.3170 -10.2999
   -10.2712 -10.2696  -9.9118  -9.9106  -9.8901  -9.8624  -9.8483  -9.8476
    -9.8343  -9.8327  -9.7931  -9.7925  -9.7696  -9.7586  -9.7480  -9.7466
    -9.7338  -9.7297  -9.6758  -9.6750  -9.6369  -9.6299  -6.6483  -6.2603
    -5.1953  -5.0597  -4.1618  -4.1031  -1.4336  -0.8044  -0.3455  -0.1778
     0.0098   0.1095   0.2341   0.3159   0.3821   0.5829   0.6716   0.7253
     0.9810   1.1787   1.4793   1.5010   1.5558   1.6300   1.8276   1.9270
     1.9824   2.1553   2.2143   2.3951   2.4417   2.5770   2.9364   3.0644
     3.3378   3.5557   3.5623   3.7366   4.0303   4.2636   4.3493   4.4315
     4.5182   4.7839   4.9337   5.1888   5.5814   5.6345   6.0553   6.2333
     6.3396   6.4477   6.5627   6.5912

          k =-0.0824-0.1373 0.0000 ( 21082 PWs)   bands (ev):

   -53.8189 -53.8189 -53.6091 -53.6091 -53.4728 -53.4728 -30.0378 -30.0378
   -29.9230 -29.9230 -29.8180 -29.8180 -29.7068 -29.7068 -29.6948 -29.6948
   -29.6052 -29.6052 -29.5765 -29.5765 -29.4703 -29.4703 -29.1042 -29.1042
   -10.5012 -10.5012 -10.3661 -10.3661 -10.3305 -10.3305 -10.3051 -10.3050
   -10.2699 -10.2699  -9.9109  -9.9109  -9.8794  -9.8793  -9.8482  -9.8480
    -9.8336  -9.8333  -9.7899  -9.7899  -9.7650  -9.7648  -9.7474  -9.7472
    -9.7310  -9.7309  -9.6752  -9.6752  -9.6336  -9.6336  -6.4691  -6.4690
    -5.1126  -5.1122  -4.1311  -4.1308  -1.1584  -1.1584  -0.3092  -0.3092
     0.0197   0.0198   0.3342   0.3342   0.5493   0.5493   0.7586   0.7587
     0.9349   0.9349   1.4568   1.4569   1.5751   1.5751   1.8339   1.8339
     2.2329   2.2329   2.3916   2.3917   2.6851   2.6851   2.9414   2.9414
     3.4761   3.4761   3.7033   3.7033   3.9221   3.9221   4.2450   4.2450
     4.5959   4.5960   5.3412   5.3412   5.4931   5.4931   5.9424   5.9425
     6.3875   6.3876   6.5389   6.5390

     the Fermi energy is     1.7303 ev

!    total energy              =   -1591.57285021 Ry
     Harris-Foulkes estimate   =   -1591.57284910 Ry
     estimated scf accuracy    <       0.00000053 Ry

     The total energy is the sum of the following terms:

     one-electron contribution =  -10300.99914735 Ry
     hartree contribution      =    5188.63602740 Ry
     xc contribution           =    -498.44772754 Ry
     ewald contribution        =    4019.29981597 Ry
     electric field correction =       0.00000037 Ry
     smearing contrib. (-TS)   =      -0.06181906 Ry

     convergence has been achieved in  17 iterations
 
 BEEF-vdW xc energy contributions
           1 :   -440.474037650126     
           2 :    407.519121906575     
           3 :   -349.807681049383     
           4 :    280.431967275296     
           5 :   -212.703098498065     
           6 :    156.071366931762     
           7 :   -114.172243139920     
           8 :    85.3364270393390     
           9 :   -64.9173336842072     
          10 :    48.1194335999047     
          11 :   -32.0792713497970     
          12 :    16.4785904955228     
          13 :   -2.78342891574306     
          14 :   -7.21716791396329     
          15 :    12.6929836685923     
          16 :   -14.2822119448105     
          17 :    13.7169540478470     
          18 :   -12.9269855774858     
          19 :    13.1631074879720     
          20 :   -14.5870368364456     
          21 :    16.4535931742245     
          22 :   -17.7024965891551     
          23 :    17.5922582294497     
          24 :   -16.0564586747790     
          25 :    13.6494860876938     
          26 :   -11.1861958813973     
          27 :    9.30838206779310     
          28 :   -8.21319860258598     
          29 :    7.65182320878534     
          30 :   -7.15632305048439     
          31 :   -38.7350760387458     
          32 :   -28.7055133274223     

     Forces acting on atoms (Ry/au):


     negative rho (up, down):  3.293E-01 0.000E+00
     atom    1 type  1   force =     0.00001308    0.01600031    0.04153303
     atom    2 type  1   force =     0.00001320    0.01600023    0.04153691
     atom    3 type  2   force =     0.00001809   -0.00553167   -0.04992093
     atom    4 type  2   force =     0.00001280   -0.00553197   -0.04991999
     atom    5 type  1   force =    -0.00000954   -0.02648910   -0.00069077
     atom    6 type  1   force =    -0.00001020   -0.02648967   -0.00069165
     atom    7 type  2   force =     0.00000039    0.01619864    0.00930925
     atom    8 type  2   force =     0.00001008    0.01619689    0.00930957
     atom    9 type  1   force =    -0.00002883   -0.00097887    0.00034348
     atom   10 type  1   force =    -0.00003062   -0.00101054    0.00034737
     atom   11 type  2   force =    -0.00003645    0.00081724   -0.00057711
     atom   12 type  2   force =     0.00004802    0.00081852   -0.00057916

     Total force =     0.105424     Total SCF correction =     0.001478


     entering subroutine stress ...


     negative rho (up, down):  3.293E-01 0.000E+00
          total   stress  (Ry/bohr**3)                   (kbar)     P=  -13.90
  -0.00009630   0.00000000   0.00000001        -14.17      0.00      0.00
   0.00000000  -0.00017295  -0.00001840          0.00    -25.44     -2.71
   0.00000001  -0.00001840  -0.00001416          0.00     -2.71     -2.08

 !ASE

     Writing output data file calc.save
 
     init_run     :      4.84s CPU      7.09s WALL (       1 calls)
     electrons    :    188.00s CPU    256.04s WALL (       1 calls)
     forces       :      2.55s CPU      2.84s WALL (       1 calls)
     stress       :      7.51s CPU      8.06s WALL (       1 calls)

     Called by init_run:
     wfcinit      :      2.96s CPU      4.71s WALL (       1 calls)
     potinit      :      0.55s CPU      0.76s WALL (       1 calls)

     Called by electrons:
     c_bands      :    141.51s CPU    190.80s WALL (      17 calls)
     sum_band     :     22.87s CPU     31.22s WALL (      17 calls)
     v_of_rho     :      6.13s CPU      9.66s WALL (      18 calls)
     newd         :      7.18s CPU      7.50s WALL (      18 calls)
     mix_rho      :      0.25s CPU      0.36s WALL (      17 calls)
     vdW_energy   :      2.93s CPU      3.31s WALL (      54 calls)
     vdW_ffts     :      7.40s CPU     14.34s WALL (     110 calls)
     vdW_v        :      2.14s CPU      3.10s WALL (      54 calls)

     Called by c_bands:
     init_us_2    :      0.85s CPU      0.87s WALL (     740 calls)
     cegterg      :    135.89s CPU    184.95s WALL (     340 calls)

     Called by *egterg:
     h_psi        :     64.72s CPU    102.46s WALL (    1459 calls)
     s_psi        :      6.70s CPU      6.75s WALL (    1459 calls)
     g_psi        :      0.52s CPU      0.50s WALL (    1099 calls)
     cdiaghg      :     40.13s CPU     41.10s WALL (    1439 calls)

     Called by h_psi:
     add_vuspsi   :      6.96s CPU      6.99s WALL (    1459 calls)

     General routines
     calbec       :     10.63s CPU     12.12s WALL (    1839 calls)
     fft          :     10.85s CPU     21.09s WALL (    3291 calls)
     ffts         :      0.03s CPU      0.05s WALL (      35 calls)
     fftw         :     53.59s CPU     97.51s WALL (  200488 calls)
     interpolate  :      0.16s CPU      0.27s WALL (      35 calls)
     davcio       :      0.00s CPU      0.07s WALL (      20 calls)
 
     Parallel routines
     fft_scatter  :     38.83s CPU     92.01s WALL (  203814 calls)
 
     PWSCF        :  3m23.49s CPU     4m35.09s WALL

 
   This run was terminated on:  21:26:18  18Dec2018            

=------------------------------------------------------------------------------=
   JOB DONE.
=------------------------------------------------------------------------------=
Job  /afs/slac/g/suncat/bin/suncat-tsmpirun -x LD_LIBRARY_PATH -wdir /scratch/qe530323_nUIPQ pw.x -in pw.inp

TID   HOST_NAME   COMMAND_LINE            STATUS            TERMINATION_TIME
===== ========== ================  =======================  ===================
00000 suncat2044 pw.x -in pw.inp   Done                     12/18/2018 21:26:18
00001 suncat2044 pw.x -in pw.inp   Done                     12/18/2018 21:26:18
00002 suncat2044 pw.x -in pw.inp   Done                     12/18/2018 21:26:18
00003 suncat2044 pw.x -in pw.inp   Done                     12/18/2018 21:26:18
00004 suncat2044 pw.x -in pw.inp   Done                     12/18/2018 21:26:18
00005 suncat2044 pw.x -in pw.inp   Done                     12/18/2018 21:26:18
00006 suncat2044 pw.x -in pw.inp   Done                     12/18/2018 21:26:18
00007 suncat2044 pw.x -in pw.inp   Done                     12/18/2018 21:26:18
00008 suncat2044 pw.x -in pw.inp   Done                     12/18/2018 21:26:18
00009 suncat2044 pw.x -in pw.inp   Done                     12/18/2018 21:26:18
00010 suncat2044 pw.x -in pw.inp   Done                     12/18/2018 21:26:18
00011 suncat2044 pw.x -in pw.inp   Done                     12/18/2018 21:26:18
00012 suncat2044 pw.x -in pw.inp   Done                     12/18/2018 21:26:18
00013 suncat2044 pw.x -in pw.inp   Done                     12/18/2018 21:26:18
00014 suncat2044 pw.x -in pw.inp   Done                     12/18/2018 21:26:18
00015 suncat2044 pw.x -in pw.inp   Done                     12/18/2018 21:26:18
00016 suncat2043 pw.x -in pw.inp   Done                     12/18/2018 21:26:18
00017 suncat2043 pw.x -in pw.inp   Done                     12/18/2018 21:26:18
00018 suncat2043 pw.x -in pw.inp   Done                     12/18/2018 21:26:18
00019 suncat2043 pw.x -in pw.inp   Done                     12/18/2018 21:26:18
00020 suncat2043 pw.x -in pw.inp   Done                     12/18/2018 21:26:18
00021 suncat2043 pw.x -in pw.inp   Done                     12/18/2018 21:26:18
00022 suncat2043 pw.x -in pw.inp   Done                     12/18/2018 21:26:18
00023 suncat2043 pw.x -in pw.inp   Done                     12/18/2018 21:26:18
00024 suncat2043 pw.x -in pw.inp   Done                     12/18/2018 21:26:18
00025 suncat2043 pw.x -in pw.inp   Done                     12/18/2018 21:26:18
00026 suncat2043 pw.x -in pw.inp   Done                     12/18/2018 21:26:18
00027 suncat2043 pw.x -in pw.inp   Done                     12/18/2018 21:26:18
00028 suncat2043 pw.x -in pw.inp   Done                     12/18/2018 21:26:18
00029 suncat2043 pw.x -in pw.inp   Done                     12/18/2018 21:26:18
00030 suncat2043 pw.x -in pw.inp   Done                     12/18/2018 21:26:18
00031 suncat2043 pw.x -in pw.inp   Done                     12/18/2018 21:26:18
