  python dir          : /u/if/mamunm/src/espresso
  espresso dir        : /nfs/slac/g/suncatfs/sw/espv18/espresso-dynpy-beef/bin
  pseudo dir          : /afs/slac.stanford.edu/u/if/mamunm/psp/gbrv1.5pbe
  ase-espresso py git : GITVERSION



     Program PWSCF v.5.1rc2 (svn rev. 11289) starts on 19Dec2018 at  5:51:54 

     This program is part of the open-source Quantum ESPRESSO suite
     for quantum simulation of materials; please cite
         "P. Giannozzi et al., J. Phys.:Condens. Matter 21 395502 (2009);
          URL http://www.quantum-espresso.org", 
     in publications or presentations arising from this work. More details at
     http://www.quantum-espresso.org/quote

     Parallel version (MPI), running on    32 processors
     R & G space division:  proc/nbgrp/npool/nimage =      32
     Reading input from pw.inp
     Message from routine read_cards :
     DEPRECATED: no units specified in CELL_PARAMETERS card

     Current dimensions of program PWSCF are:
     Max number of different atomic species (ntypx) = 10
     Max number of k-points (npk) =  40000
     Max angular momentum in pseudopotentials (lmaxx) =  3
     Presently stress not available with electric field


     **************************************************************************
     Initializing libbeef V0.1.1 with the BEEF-vdW functional.
     Citation: Wellendorff et al., PRB 85, 235149 (2012).
     **************************************************************************


     IMPORTANT: XC functional enforced from input :
     Exchange-correlation      = BEEF-VDW ( 1  4 27 13 2)
     Any further DFT definition will be discarded
     Please, verify this is what you really want


     Subspace diagonalization in iterative solution of the eigenvalue problem:
     a serial algorithm will be used

     Found symmetry operation: I + ( -0.5000 -0.5000  0.0000)
     This is a supercell, fractional translations are disabled
 
     Parallelization info
     --------------------
     sticks:   dense  smooth     PW     G-vecs:    dense   smooth      PW
     Min         118      47     13                22870     5767     869
     Max         119      48     14                22884     5803     878
     Sum        3783    1509    427               732031   185207   27979
 


     bravais-lattice index     =            0
     lattice parameter (alat)  =       1.8897  a.u.
     unit-cell volume          =    6154.6751 (a.u.)^3
     number of atoms/cell      =           12
     number of atomic types    =            2
     number of electrons       =       150.00
     number of Kohn-Sham states=          105
     kinetic-energy cutoff     =      36.7493  Ry
     charge density cutoff     =     367.4932  Ry
     convergence threshold     =      1.0E-06
     mixing beta               =       0.1000
     number of iterations used =           10  plain     mixing
     Exchange-correlation      = BEEF-VDW ( 1  4 27 13 2)
     nstep                     =           50


     celldm(1)=   1.889726  celldm(2)=   0.000000  celldm(3)=   0.000000
     celldm(4)=   0.000000  celldm(5)=   0.000000  celldm(6)=   0.000000

     crystal axes: (cart. coord. in units of alat)
               a(1) = (   6.234964   0.000000   0.000000 )  
               a(2) = (   2.234922   5.820644   0.000000 )  
               a(3) = (   0.000000   0.000000  25.130641 )  

     reciprocal axes: (cart. coord. in units 2 pi/alat)
               b(1) = (  0.160386 -0.061583  0.000000 )  
               b(2) = (  0.000000  0.171802  0.000000 )  
               b(3) = (  0.000000  0.000000  0.039792 )  


     PseudoPot. # 1 for Sn read from file:
     /afs/slac.stanford.edu/u/if/mamunm/psp/gbrv1.5pbe/Sn.UPF
     MD5 check sum: 469debedee59599fedebd795477fea03
     Pseudo is Ultrasoft + core correction, Zval = 14.0
     Generated by new atomic code, or converted to UPF format
     Using radial grid of  891 points,  6 beta functions with: 
                l(1) =   0
                l(2) =   0
                l(3) =   1
                l(4) =   1
                l(5) =   2
                l(6) =   2
     Q(r) pseudized with  8 coefficients,  rinner =    1.350   1.350   1.350
                                                       1.350   1.350

     PseudoPot. # 2 for Au read from file:
     /afs/slac.stanford.edu/u/if/mamunm/psp/gbrv1.5pbe/Au.UPF
     MD5 check sum: 9d7f43293ad2c663164586bc4b293ffc
     Pseudo is Ultrasoft + core correction, Zval = 11.0
     Generated by new atomic code, or converted to UPF format
     Using radial grid of  985 points,  7 beta functions with: 
                l(1) =   0
                l(2) =   0
                l(3) =   1
                l(4) =   1
                l(5) =   2
                l(6) =   2
                l(7) =   3
     Q(r) pseudized with  6 coefficients,  rinner =    1.900   1.900   1.900
                                                       1.900   1.900   1.900
                                                       1.900

     vdW kernel table read from file vdW_kernel_table
     MD5 check sum: 095c7af220d748ca6e76c0b4c6cfb241

     atomic species   valence    mass     pseudopotential
        Sn1           14.00   118.71000     Sn( 1.00)
        Au1           11.00   196.96657     Au( 1.00)

     No symmetry found



   Cartesian axes

     site n.     atom                  positions (alat units)
         1           Sn1 tau(   1) = (   0.0000000   0.0000000  10.0000000  )
         2           Sn1 tau(   2) = (   4.2349428   2.9103220  10.0000000  )
         3           Au1 tau(   3) = (   3.1174819   0.0000000  10.0000000  )
         4           Au1 tau(   4) = (   1.1174610   2.9103220  10.0000000  )
         5           Sn1 tau(   5) = (   6.2349637   4.2847690  12.5653205  )
         6           Sn1 tau(   6) = (   2.0000209   1.3744471  12.5653205  )
         7           Au1 tau(   7) = (   3.1174819   4.2847690  12.5653205  )
         8           Au1 tau(   8) = (   5.1175027   1.3744471  12.5653205  )
         9           Sn1 tau(   9) = (   4.0000417   2.7488941  15.1306410  )
        10           Sn1 tau(  10) = (   8.2349846   5.6592161  15.1306410  )
        11           Au1 tau(  11) = (   7.1175236   2.7488941  15.1306410  )
        12           Au1 tau(  12) = (   5.1175027   5.6592161  15.1306410  )

     number of k points=    20  Fermi-Dirac smearing, width (Ry)=  0.0110
                       cart. coord. in units 2pi/alat
        k(    1) = (   0.0000000   0.0000000   0.0000000), wk =   0.0555556
        k(    2) = (   0.0000000   0.0286337   0.0000000), wk =   0.1111111
        k(    3) = (   0.0000000   0.0572674   0.0000000), wk =   0.1111111
        k(    4) = (   0.0000000  -0.0859011   0.0000000), wk =   0.0555556
        k(    5) = (   0.0267310  -0.0102638   0.0000000), wk =   0.1111111
        k(    6) = (   0.0267310   0.0183700   0.0000000), wk =   0.1111111
        k(    7) = (   0.0267310   0.0470037   0.0000000), wk =   0.1111111
        k(    8) = (   0.0267310  -0.0961649   0.0000000), wk =   0.1111111
        k(    9) = (   0.0267310  -0.0675312   0.0000000), wk =   0.1111111
        k(   10) = (   0.0267310  -0.0388975   0.0000000), wk =   0.1111111
        k(   11) = (   0.0534620  -0.0205275   0.0000000), wk =   0.1111111
        k(   12) = (   0.0534620   0.0081062   0.0000000), wk =   0.1111111
        k(   13) = (   0.0534620   0.0367399   0.0000000), wk =   0.1111111
        k(   14) = (   0.0534620  -0.1064287   0.0000000), wk =   0.1111111
        k(   15) = (   0.0534620  -0.0777949   0.0000000), wk =   0.1111111
        k(   16) = (   0.0534620  -0.0491612   0.0000000), wk =   0.1111111
        k(   17) = (  -0.0801929   0.0307913   0.0000000), wk =   0.0555556
        k(   18) = (  -0.0801929   0.0594250   0.0000000), wk =   0.1111111
        k(   19) = (  -0.0801929   0.0880587   0.0000000), wk =   0.1111111
        k(   20) = (  -0.0801929  -0.0551099   0.0000000), wk =   0.0555556

     Dense  grid:   732031 G-vectors     FFT dimensions: (  72,  72, 300)

     Smooth grid:   185207 G-vectors     FFT dimensions: (  45,  45, 192)

     Largest allocated arrays     est. size (Mb)     dimensions
        Kohn-Sham Wavefunctions         1.20 Mb     (     751,  105)
        NL pseudopotentials             2.96 Mb     (     751,  258)
        Each V/rho on FFT grid          0.79 Mb     (   51840)
        Each G-vector array             0.17 Mb     (   22872)
        G-vector shells                 0.09 Mb     (   11222)
     Largest temporary arrays     est. size (Mb)     dimensions
        Auxiliary wavefunctions         4.81 Mb     (     751,  420)
        Each subspace H/S matrix        2.69 Mb     (     420,  420)
        Each <psi_i|beta_j> matrix      0.41 Mb     (     258,  105)
        Arrays for rho mixing           7.91 Mb     (   51840,   10)

     Check: negative/imaginary core charge=   -0.000001    0.000000

     Initial potential from superposition of free atoms
     Check: negative starting charge=   -0.000970

     starting charge  143.99900, renormalised to  150.00000

     negative rho (up, down):  1.011E-03 0.000E+00


     ************************************************************************
     *
     * You are using vdW-DF for exchange-correlation in this calculation.
     * Please cite the following three references that made this development
     * possible:
     *
     *   M. Dion, H. Rydberg, E. Schroder, D. C. Langreth, and
     *   B. I. Lundqvist, Phys. Rev. Lett. 92, 246401 (2004).
     *
     *   T. Thonhauser, V. R. Cooper, S. Li, A. Puzder, P. Hyldgaard, and
     *   D. C. Langreth, Phys. Rev. B 76, 125112 (2007).
     *
     *   G. Roman-Perez and J. M. Soler, Phys. Rev. Lett. 103, 096102 (2009).
     *
     *
     * If you are using vdW-DF2, please also cite:
     *
     *   K. Lee, E. D. Murray, L. Kong, B. I. Lundqvist, and
     *   D. C. Langreth, Phys. Rev. B 82, 081101(R) (2010).
     *
     *
     * If you are calculating the stress with vdW-DF, please also cite:
     *
     *   R. Sabatini, E. Kucukbenli, B. Kolb, T. Thonhauser, and
     *   S. de Gironcoli, J. Phys.: Condens. Matter 24, 424209 (2012).
     *
     ************************************************************************

     Carrying out vdW-DF run using the following parameters:

     Nqs =      20    Nr_points =    1024   r_max =   100.000
     q_mesh =
               0.00001000     0.04494208     0.09755937     0.15916263
               0.23128650     0.31572767     0.41458969     0.53033537
               0.66584808     0.82450364     1.01025438     1.22772762
               1.48234092     1.78043706     2.12944203     2.53805004
               3.01644009     3.57652955     4.23227104     5.00000000

     Gradients computed in reciprocal space

     ************************************************************************


 
     Adding external electric field

     Computed dipole along edir(3) : 
        Dipole                0.0000 Ry au,          0.0000 Debye
        Dipole field          0.0000 Ry au
 
        Potential amp.       -0.0000 Ry
        Total length         46.3028 bohr
 
     Starting wfc are  108 randomized atomic wfcs

     total cpu time spent up to now is       20.9 secs

     Self-consistent Calculation

     iteration #  1     ecut=    36.75 Ry     beta=0.10
     Davidson diagonalization with overlap
     ethr =  1.00E-02,  avg # of iterations =  8.3

     negative rho (up, down):  6.325E-04 0.000E+00
 
     Adding external electric field

     Computed dipole along edir(3) : 
        Dipole               -0.0004 Ry au,         -0.0010 Debye
        Dipole field         -0.0000 Ry au
 
        Potential amp.        0.0001 Ry
        Total length         46.3028 bohr
 

     total cpu time spent up to now is       94.0 secs

     total energy              =   -1665.13234842 Ry
     Harris-Foulkes estimate   =   -1666.02858568 Ry
     estimated scf accuracy    <       5.38085042 Ry

     iteration #  2     ecut=    36.75 Ry     beta=0.10
     Davidson diagonalization with overlap
     ethr =  3.59E-03,  avg # of iterations =  1.0

     negative rho (up, down):  5.182E-04 0.000E+00
 
     Adding external electric field

     Computed dipole along edir(3) : 
        Dipole                0.0000 Ry au,          0.0000 Debye
        Dipole field          0.0000 Ry au
 
        Potential amp.       -0.0000 Ry
        Total length         46.3028 bohr
 

     total cpu time spent up to now is      136.5 secs

     total energy              =   -1664.54530867 Ry
     Harris-Foulkes estimate   =   -1665.30825646 Ry
     estimated scf accuracy    <       2.37597134 Ry

     iteration #  3     ecut=    36.75 Ry     beta=0.10
     Davidson diagonalization with overlap
     ethr =  1.58E-03,  avg # of iterations =  1.9

     negative rho (up, down):  5.147E-04 0.000E+00
 
     Adding external electric field

     Computed dipole along edir(3) : 
        Dipole               -0.0019 Ry au,         -0.0048 Debye
        Dipole field         -0.0000 Ry au
 
        Potential amp.        0.0004 Ry
        Total length         46.3028 bohr
 

     total cpu time spent up to now is      180.7 secs

     total energy              =   -1664.47690369 Ry
     Harris-Foulkes estimate   =   -1664.71450396 Ry
     estimated scf accuracy    <       0.59271912 Ry

     iteration #  4     ecut=    36.75 Ry     beta=0.10
     Davidson diagonalization with overlap
     ethr =  3.95E-04,  avg # of iterations =  5.8

     negative rho (up, down):  6.255E-04 0.000E+00
 
     Adding external electric field

     Computed dipole along edir(3) : 
        Dipole                0.0081 Ry au,          0.0205 Debye
        Dipole field          0.0000 Ry au
 
        Potential amp.       -0.0015 Ry
        Total length         46.3028 bohr
 

     total cpu time spent up to now is      232.8 secs

     total energy              =   -1664.46081350 Ry
     Harris-Foulkes estimate   =   -1664.53736790 Ry
     estimated scf accuracy    <       0.15478433 Ry

     iteration #  5     ecut=    36.75 Ry     beta=0.10
     Davidson diagonalization with overlap
     ethr =  1.03E-04,  avg # of iterations =  3.9

     negative rho (up, down):  6.453E-04 0.000E+00
 
     Adding external electric field

     Computed dipole along edir(3) : 
        Dipole               -0.0226 Ry au,         -0.0573 Debye
        Dipole field         -0.0000 Ry au
 
        Potential amp.        0.0043 Ry
        Total length         46.3028 bohr
 

     total cpu time spent up to now is      289.8 secs

     total energy              =   -1664.49099655 Ry
     Harris-Foulkes estimate   =   -1664.49419259 Ry
     estimated scf accuracy    <       0.01570443 Ry

     iteration #  6     ecut=    36.75 Ry     beta=0.10
     Davidson diagonalization with overlap
     ethr =  1.05E-05,  avg # of iterations =  6.5

     negative rho (up, down):  6.243E-04 0.000E+00
 
     Adding external electric field

     Computed dipole along edir(3) : 
        Dipole                0.0123 Ry au,          0.0312 Debye
        Dipole field          0.0000 Ry au
 
        Potential amp.       -0.0023 Ry
        Total length         46.3028 bohr
 

     total cpu time spent up to now is      341.5 secs

     total energy              =   -1664.49160414 Ry
     Harris-Foulkes estimate   =   -1664.49230730 Ry
     estimated scf accuracy    <       0.00995188 Ry

     iteration #  7     ecut=    36.75 Ry     beta=0.10
     Davidson diagonalization with overlap
     ethr =  6.63E-06,  avg # of iterations =  1.3

     negative rho (up, down):  7.831E-04 0.000E+00
 
     Adding external electric field

     Computed dipole along edir(3) : 
        Dipole               -0.0006 Ry au,         -0.0016 Debye
        Dipole field         -0.0000 Ry au
 
        Potential amp.        0.0001 Ry
        Total length         46.3028 bohr
 

     total cpu time spent up to now is      384.3 secs

     total energy              =   -1664.49082170 Ry
     Harris-Foulkes estimate   =   -1664.49207899 Ry
     estimated scf accuracy    <       0.00674071 Ry

     iteration #  8     ecut=    36.75 Ry     beta=0.10
     Davidson diagonalization with overlap
     ethr =  4.49E-06,  avg # of iterations =  1.1

     negative rho (up, down):  7.766E-04 0.000E+00
 
     Adding external electric field

     Computed dipole along edir(3) : 
        Dipole               -0.0000 Ry au,         -0.0001 Debye
        Dipole field         -0.0000 Ry au
 
        Potential amp.        0.0000 Ry
        Total length         46.3028 bohr
 

     total cpu time spent up to now is      426.8 secs

     total energy              =   -1664.49064817 Ry
     Harris-Foulkes estimate   =   -1664.49115099 Ry
     estimated scf accuracy    <       0.00128128 Ry

     iteration #  9     ecut=    36.75 Ry     beta=0.10
     Davidson diagonalization with overlap
     ethr =  8.54E-07,  avg # of iterations =  4.5

     negative rho (up, down):  7.610E-04 0.000E+00
 
     Adding external electric field

     Computed dipole along edir(3) : 
        Dipole                0.0003 Ry au,          0.0008 Debye
        Dipole field          0.0000 Ry au
 
        Potential amp.       -0.0001 Ry
        Total length         46.3028 bohr
 

     total cpu time spent up to now is      481.1 secs

     total energy              =   -1664.49082976 Ry
     Harris-Foulkes estimate   =   -1664.49095578 Ry
     estimated scf accuracy    <       0.00049025 Ry

     iteration # 10     ecut=    36.75 Ry     beta=0.10
     Davidson diagonalization with overlap
     ethr =  3.27E-07,  avg # of iterations =  2.3

     negative rho (up, down):  6.978E-04 0.000E+00
 
     Adding external electric field

     Computed dipole along edir(3) : 
        Dipole               -0.0000 Ry au,         -0.0001 Debye
        Dipole field         -0.0000 Ry au
 
        Potential amp.        0.0000 Ry
        Total length         46.3028 bohr
 

     total cpu time spent up to now is      528.7 secs

     total energy              =   -1664.49086867 Ry
     Harris-Foulkes estimate   =   -1664.49090985 Ry
     estimated scf accuracy    <       0.00009023 Ry

     iteration # 11     ecut=    36.75 Ry     beta=0.10
     Davidson diagonalization with overlap
     ethr =  6.02E-08,  avg # of iterations =  2.0

     negative rho (up, down):  6.646E-04 0.000E+00
 
     Adding external electric field

     Computed dipole along edir(3) : 
        Dipole                0.0000 Ry au,          0.0001 Debye
        Dipole field          0.0000 Ry au
 
        Potential amp.       -0.0000 Ry
        Total length         46.3028 bohr
 

     total cpu time spent up to now is      582.9 secs

     total energy              =   -1664.49089649 Ry
     Harris-Foulkes estimate   =   -1664.49089169 Ry
     estimated scf accuracy    <       0.00002360 Ry

     iteration # 12     ecut=    36.75 Ry     beta=0.10
     Davidson diagonalization with overlap
     ethr =  1.57E-08,  avg # of iterations =  3.0

     negative rho (up, down):  6.196E-04 0.000E+00
 
     Adding external electric field

     Computed dipole along edir(3) : 
        Dipole                0.0000 Ry au,          0.0000 Debye
        Dipole field          0.0000 Ry au
 
        Potential amp.       -0.0000 Ry
        Total length         46.3028 bohr
 

     total cpu time spent up to now is      639.9 secs

     total energy              =   -1664.49090033 Ry
     Harris-Foulkes estimate   =   -1664.49090334 Ry
     estimated scf accuracy    <       0.00001080 Ry

     iteration # 13     ecut=    36.75 Ry     beta=0.10
     Davidson diagonalization with overlap
     ethr =  7.20E-09,  avg # of iterations =  2.0

     negative rho (up, down):  5.868E-04 0.000E+00
 
     Adding external electric field

     Computed dipole along edir(3) : 
        Dipole                0.0000 Ry au,          0.0000 Debye
        Dipole field          0.0000 Ry au
 
        Potential amp.       -0.0000 Ry
        Total length         46.3028 bohr
 

     total cpu time spent up to now is      688.0 secs

     total energy              =   -1664.49090473 Ry
     Harris-Foulkes estimate   =   -1664.49090276 Ry
     estimated scf accuracy    <       0.00000388 Ry

     iteration # 14     ecut=    36.75 Ry     beta=0.10
     Davidson diagonalization with overlap
     ethr =  2.59E-09,  avg # of iterations =  2.0

     negative rho (up, down):  3.282E-04 0.000E+00

     negative rho (up, down):  3.282E-04 0.000E+00

     negative rho (up, down):  3.282E-04 0.000E+00

     negative rho (up, down):  3.282E-04 0.000E+00

     negative rho (up, down):  3.282E-04 0.000E+00

     negative rho (up, down):  3.282E-04 0.000E+00

     negative rho (up, down):  3.282E-04 0.000E+00

     negative rho (up, down):  3.282E-04 0.000E+00

     negative rho (up, down):  3.282E-04 0.000E+00

     negative rho (up, down):  3.282E-04 0.000E+00

     negative rho (up, down):  3.282E-04 0.000E+00

     negative rho (up, down):  3.282E-04 0.000E+00

     negative rho (up, down):  3.282E-04 0.000E+00

     negative rho (up, down):  3.282E-04 0.000E+00

     negative rho (up, down):  3.282E-04 0.000E+00

     negative rho (up, down):  3.282E-04 0.000E+00

     negative rho (up, down):  3.282E-04 0.000E+00

     negative rho (up, down):  3.282E-04 0.000E+00

     negative rho (up, down):  3.282E-04 0.000E+00

     negative rho (up, down):  3.282E-04 0.000E+00

     negative rho (up, down):  3.282E-04 0.000E+00

     negative rho (up, down):  3.282E-04 0.000E+00

     negative rho (up, down):  3.282E-04 0.000E+00

     negative rho (up, down):  3.282E-04 0.000E+00

     negative rho (up, down):  3.282E-04 0.000E+00

     negative rho (up, down):  3.282E-04 0.000E+00

     negative rho (up, down):  3.282E-04 0.000E+00

     negative rho (up, down):  3.282E-04 0.000E+00

     negative rho (up, down):  3.282E-04 0.000E+00

     negative rho (up, down):  3.282E-04 0.000E+00

     negative rho (up, down):  3.282E-04 0.000E+00

     negative rho (up, down):  3.282E-04 0.000E+00

     negative rho (up, down):  3.282E-04 0.000E+00

     negative rho (up, down):  3.282E-04 0.000E+00

     negative rho (up, down):  3.282E-04 0.000E+00
 
     Adding external electric field

     Computed dipole along edir(3) : 
        Dipole               -0.0004 Ry au,         -0.0010 Debye
        Dipole field         -0.0000 Ry au
 
        Potential amp.        0.0001 Ry
        Total length         46.3028 bohr
 

     total cpu time spent up to now is      829.7 secs

     End of self-consistent calculation

          k = 0.0000 0.0000 0.0000 ( 23173 PWs)   bands (ev):

   -21.7561 -21.7286 -21.7251 -21.7231 -21.7161 -21.7139 -21.7104 -21.6981
   -21.6910 -21.6715 -21.6596 -21.6575 -21.6344 -21.6336 -21.6186 -21.6177
   -21.6131 -21.6127 -21.6103 -21.6096 -21.6081 -21.6074 -21.6066 -21.6063
   -21.5997 -21.5970 -21.5880 -21.5874 -21.5659 -21.5627  -9.4685  -8.1436
    -7.1603  -6.9538  -6.5366  -6.4378  -4.5047  -4.4161  -4.2067  -4.0864
    -4.0543  -4.0375  -3.9964  -3.9930  -3.9175  -3.8364  -3.7015  -3.6272
    -3.5950  -3.5920  -3.5330  -3.4568  -3.3118  -3.3100  -3.2948  -3.1976
    -3.1703  -3.1081  -3.0362  -3.0360  -3.0003  -2.7494  -2.7466  -2.5869
    -2.3192  -2.1909  -2.1825  -2.0180  -2.0114  -1.8246  -1.4535  -1.3768
    -1.3049  -1.1320  -0.5344  -0.4495  -0.3013   0.2990   0.9278   0.9317
     0.9574   1.2064   2.3599   2.4405   3.1385   3.4985   3.7220   3.9210
     4.2935   4.3005   4.5071   4.9521   5.0600   5.3046   5.3942   5.5001
     6.4062   7.0234   7.1415   7.2347   7.3598   7.4187   7.4630   7.8815
     7.8967

          k = 0.0000 0.0286 0.0000 ( 23178 PWs)   bands (ev):

   -21.7503 -21.7265 -21.7244 -21.7205 -21.7153 -21.7148 -21.7107 -21.7001
   -21.6928 -21.6764 -21.6540 -21.6521 -21.6327 -21.6318 -21.6162 -21.6154
   -21.6136 -21.6130 -21.6099 -21.6088 -21.6085 -21.6083 -21.6072 -21.6070
   -21.6007 -21.5975 -21.5896 -21.5892 -21.5710 -21.5681  -9.3404  -8.0309
    -7.1238  -7.0834  -6.6299  -6.4853  -4.4675  -4.4296  -4.2561  -4.2119
    -4.1685  -4.0229  -4.0132  -4.0080  -3.8366  -3.7931  -3.7694  -3.6990
    -3.6094  -3.5524  -3.4854  -3.4581  -3.4280  -3.3770  -3.3037  -3.2828
    -3.2782  -3.1523  -3.1438  -3.0560  -3.0415  -2.9475  -2.8490  -2.7831
    -2.7205  -2.5482  -2.1597  -1.8796  -1.7401  -1.6294  -1.4855  -1.2745
    -0.9809  -0.9223  -0.5728  -0.0782   0.2636   0.5635   0.6293   1.1909
     1.8185   2.1381   2.1815   2.2787   3.0830   3.2619   3.5760   3.8958
     4.0305   4.1351   4.4414   4.8104   5.1173   5.2337   5.4224   6.1696
     6.3412   6.6177   6.9186   7.0006   7.1759   7.3276   7.4195   7.6079
     7.7253

          k = 0.0000 0.0573 0.0000 ( 23145 PWs)   bands (ev):

   -21.7351 -21.7224 -21.7208 -21.7170 -21.7142 -21.7130 -21.7116 -21.7056
   -21.6978 -21.6902 -21.6395 -21.6379 -21.6276 -21.6268 -21.6161 -21.6150
   -21.6136 -21.6132 -21.6097 -21.6091 -21.6089 -21.6063 -21.6062 -21.6049
   -21.6021 -21.5987 -21.5943 -21.5940 -21.5845 -21.5823  -8.9655  -7.7127
    -7.6838  -6.8898  -6.8635  -6.5646  -4.4553  -4.4405  -4.3686  -4.3342
    -4.2658  -4.1910  -4.0591  -4.0188  -3.8250  -3.7886  -3.7312  -3.7127
    -3.6283  -3.5941  -3.5730  -3.5476  -3.5193  -3.5091  -3.4504  -3.3850
    -3.3616  -3.2762  -3.2432  -3.1531  -3.1465  -3.1299  -3.0716  -3.0058
    -2.6576  -2.6567  -2.3488  -2.1609  -1.8303  -1.7260  -1.3201  -0.5444
    -0.4210  -0.4156  -0.2196   0.3628   0.6883   1.1167   1.2717   1.5288
     2.0938   2.4317   2.4834   2.6095   3.1030   3.4578   3.5426   3.9251
     4.1840   4.2455   4.4007   4.8603   5.2630   5.3618   5.4959   5.7666
     6.0221   6.1693   6.4227   6.4330   6.8204   7.0257   7.0269   7.1632
     7.2893

          k = 0.0000-0.0859 0.0000 ( 23152 PWs)   bands (ev):

   -21.7205 -21.7205 -21.7168 -21.7168 -21.7132 -21.7132 -21.7073 -21.7073
   -21.7052 -21.7052 -21.6239 -21.6239 -21.6224 -21.6224 -21.6206 -21.6206
   -21.6198 -21.6198 -21.6074 -21.6074 -21.6024 -21.6024 -21.6017 -21.6017
   -21.6012 -21.6012 -21.5983 -21.5983 -21.5969 -21.5969  -8.3800  -8.3800
    -7.2666  -7.2666  -6.6879  -6.6879  -4.5241  -4.5241  -4.4249  -4.4249
    -4.1416  -4.1416  -4.0889  -4.0888  -3.8371  -3.8371  -3.7578  -3.7578
    -3.6920  -3.6920  -3.5642  -3.5642  -3.4830  -3.4830  -3.4348  -3.4348
    -3.3608  -3.3608  -3.3127  -3.3127  -3.2204  -3.2204  -3.0689  -3.0689
    -2.6390  -2.6390  -2.3421  -2.3421  -1.8417  -1.8417  -0.8798  -0.8798
     0.1439   0.1439   0.2759   0.2759   0.8718   0.8718   1.2392   1.2392
     2.8134   2.8134   2.8647   2.8647   3.0683   3.0683   4.0363   4.0363
     4.6727   4.6727   4.8007   4.8007   5.3795   5.3795   5.4906   5.4906
     5.6524   5.6524   6.0887   6.0887   6.4508   6.4508   6.5985   6.5985
     7.3123

          k = 0.0267-0.0103 0.0000 ( 23178 PWs)   bands (ev):

   -21.7503 -21.7265 -21.7244 -21.7205 -21.7153 -21.7148 -21.7107 -21.7001
   -21.6928 -21.6764 -21.6540 -21.6521 -21.6327 -21.6318 -21.6162 -21.6154
   -21.6136 -21.6130 -21.6099 -21.6088 -21.6085 -21.6083 -21.6072 -21.6070
   -21.6007 -21.5975 -21.5896 -21.5892 -21.5710 -21.5681  -9.3404  -8.0309
    -7.1238  -7.0834  -6.6299  -6.4853  -4.4675  -4.4296  -4.2561  -4.2119
    -4.1685  -4.0229  -4.0132  -4.0080  -3.8366  -3.7931  -3.7694  -3.6990
    -3.6094  -3.5524  -3.4854  -3.4581  -3.4280  -3.3770  -3.3037  -3.2828
    -3.2782  -3.1523  -3.1438  -3.0560  -3.0415  -2.9475  -2.8490  -2.7831
    -2.7205  -2.5482  -2.1597  -1.8796  -1.7401  -1.6294  -1.4855  -1.2745
    -0.9809  -0.9223  -0.5728  -0.0782   0.2636   0.5635   0.6293   1.1909
     1.8185   2.1381   2.1815   2.2787   3.0830   3.2619   3.5760   3.8958
     4.0305   4.1351   4.4414   4.8104   5.1173   5.2337   5.4224   6.1696
     6.3412   6.6177   6.9186   7.0006   7.1759   7.3276   7.4195   7.6078
     7.7253

          k = 0.0267 0.0184 0.0000 ( 23183 PWs)   bands (ev):

   -21.7561 -21.7284 -21.7238 -21.7219 -21.7159 -21.7147 -21.7107 -21.6980
   -21.6906 -21.6705 -21.6590 -21.6572 -21.6348 -21.6333 -21.6175 -21.6168
   -21.6130 -21.6120 -21.6098 -21.6090 -21.6081 -21.6068 -21.6060 -21.6054
   -21.6002 -21.5996 -21.5874 -21.5871 -21.5655 -21.5632  -9.3025  -7.9985
    -7.1544  -7.0405  -6.5318  -6.1520  -4.8135  -4.6717  -4.4329  -4.3645
    -4.1400  -4.1217  -4.0775  -4.0166  -3.8130  -3.7178  -3.7175  -3.6969
    -3.6737  -3.6600  -3.6503  -3.4742  -3.4683  -3.3774  -3.2304  -3.2201
    -3.2108  -3.1662  -3.0796  -3.0721  -3.0041  -2.9563  -2.9517  -2.8368
    -2.7220  -2.5636  -2.2914  -2.2508  -2.0774  -1.9558  -1.2766  -1.0352
    -0.9874  -0.6512  -0.4791   0.1120   0.2865   0.5340   1.1195   1.5240
     2.0166   2.3124   2.4018   3.1103   3.3231   3.3997   3.6920   4.0784
     4.2541   4.4211   4.4655   4.7314   5.0904   5.4529   5.4967   6.0379
     6.4078   6.5503   6.5521   6.9421   6.9636   7.3133   7.3389   7.4714
     7.5206

          k = 0.0267 0.0470 0.0000 ( 23118 PWs)   bands (ev):

   -21.7504 -21.7262 -21.7219 -21.7188 -21.7180 -21.7129 -21.7114 -21.7000
   -21.6922 -21.6749 -21.6536 -21.6509 -21.6332 -21.6314 -21.6146 -21.6141
   -21.6132 -21.6118 -21.6092 -21.6087 -21.6081 -21.6076 -21.6069 -21.6053
   -21.6020 -21.5996 -21.5888 -21.5885 -21.5705 -21.5691  -9.0160  -7.7628
    -7.3568  -7.1459  -6.6181  -6.0408  -4.8510  -4.8117  -4.6363  -4.5080
    -4.2282  -4.1780  -4.1764  -3.9578  -3.9030  -3.8674  -3.8612  -3.8078
    -3.7056  -3.6685  -3.6283  -3.4786  -3.4671  -3.4321  -3.3928  -3.3679
    -3.2976  -3.1896  -3.1826  -3.1276  -3.1150  -3.0596  -3.0275  -2.9880
    -2.8977  -2.5714  -2.4856  -2.3337  -2.1094  -1.5858  -1.3726  -1.1618
    -0.6033  -0.4980  -0.1458   0.6560   1.4098   1.4942   1.5868   2.1607
     2.1646   2.6312   2.7091   3.0802   3.0939   3.7989   4.0751   4.3019
     4.3892   4.4772   4.5061   4.7668   4.9570   5.1906   5.5373   5.7210
     5.8552   6.0571   6.2725   6.5960   6.8506   7.0133   7.0169   7.1168
     7.3751

          k = 0.0267-0.0962 0.0000 ( 23185 PWs)   bands (ev):

   -21.7354 -21.7207 -21.7205 -21.7192 -21.7137 -21.7118 -21.7107 -21.7056
   -21.6978 -21.6893 -21.6398 -21.6363 -21.6282 -21.6264 -21.6161 -21.6141
   -21.6137 -21.6130 -21.6084 -21.6084 -21.6080 -21.6070 -21.6056 -21.6050
   -21.6034 -21.5980 -21.5942 -21.5938 -21.5844 -21.5834  -8.5107  -8.0236
    -7.4088  -7.1336  -6.9777  -6.1773  -4.8067  -4.6880  -4.6550  -4.4238
    -4.3064  -4.1965  -4.1346  -3.9289  -3.8991  -3.8879  -3.8805  -3.8181
    -3.7812  -3.6756  -3.6536  -3.5699  -3.5614  -3.5364  -3.4302  -3.3473
    -3.3245  -3.2823  -3.2147  -3.1952  -3.1917  -3.1708  -3.1552  -3.0519
    -2.9835  -2.5915  -2.5676  -2.2914  -1.7526  -1.5675  -1.3801  -1.3011
    -0.1167   0.0657   0.4596   0.8964   1.1005   1.5326   2.0827   2.2877
     2.4243   2.5128   2.7294   3.2677   3.3602   3.5335   3.6395   4.2200
     4.6322   4.6687   4.7562   4.8698   5.0068   5.3824   5.5557   5.6188
     5.9663   6.0598   6.0777   6.2814   6.4044   6.4159   6.6217   6.8021
     6.9505

          k = 0.0267-0.0675 0.0000 ( 23169 PWs)   bands (ev):

   -21.7231 -21.7187 -21.7174 -21.7155 -21.7133 -21.7131 -21.7078 -21.7065
   -21.7057 -21.7048 -21.6243 -21.6243 -21.6219 -21.6218 -21.6210 -21.6202
   -21.6199 -21.6196 -21.6085 -21.6083 -21.6042 -21.6023 -21.6016 -21.6014
   -21.6008 -21.5998 -21.5988 -21.5981 -21.5968 -21.5959  -8.6677  -7.8658
    -7.4579  -7.2130  -6.9703  -6.5260  -4.7090  -4.4495  -4.3680  -4.2181
    -4.1990  -4.1713  -4.0615  -3.9363  -3.9262  -3.7950  -3.7521  -3.7234
    -3.6849  -3.6722  -3.6578  -3.5621  -3.5555  -3.4805  -3.4114  -3.3919
    -3.3824  -3.3528  -3.3084  -3.2810  -3.2688  -3.1929  -3.1902  -3.0997
    -2.9996  -2.6318  -2.5668  -2.1037  -1.5937  -1.4192  -1.1614  -0.9979
     0.0172   0.2020   0.4706   0.6913   0.7310   1.2013   1.4618   1.4789
     1.9824   2.2212   2.4426   2.6956   3.1895   3.5048   3.5965   3.8422
     4.3001   4.6597   4.7013   5.0323   5.2692   5.4172   5.4453   5.9216
     6.0224   6.0306   6.2010   6.3195   6.3566   6.8137   6.8699   7.0841
     7.1237

          k = 0.0267-0.0389 0.0000 ( 23139 PWs)   bands (ev):

   -21.7349 -21.7239 -21.7209 -21.7152 -21.7146 -21.7141 -21.7114 -21.7055
   -21.6979 -21.6907 -21.6400 -21.6378 -21.6273 -21.6271 -21.6163 -21.6148
   -21.6137 -21.6131 -21.6105 -21.6096 -21.6095 -21.6081 -21.6066 -21.6048
   -21.6022 -21.5963 -21.5946 -21.5941 -21.5848 -21.5818  -9.1241  -7.8420
    -7.3332  -6.9962  -6.8697  -6.7488  -4.4120  -4.2753  -4.1791  -4.1700
    -4.1456  -4.0557  -4.0224  -4.0142  -3.9412  -3.7941  -3.7568  -3.7028
    -3.5844  -3.5496  -3.5041  -3.4591  -3.4470  -3.4128  -3.3922  -3.3859
    -3.3674  -3.3614  -3.2603  -3.1523  -3.1115  -3.0936  -3.0763  -3.0724
    -3.0036  -2.6704  -2.4704  -1.8077  -1.3015  -1.2544  -1.1432  -1.0461
    -0.4629  -0.2636  -0.2191  -0.0434  -0.0179   0.3691   1.6195   1.7205
     1.7457   2.0136   2.3589   2.4420   2.8191   3.0289   3.0485   3.6229
     3.7511   4.1456   4.2428   4.6544   5.3201   5.6262   5.6852   5.9166
     6.4821   6.5837   6.8369   6.8554   7.1745   7.2875   7.2994   7.4111
     7.6029

          k = 0.0535-0.0205 0.0000 ( 23145 PWs)   bands (ev):

   -21.7351 -21.7224 -21.7208 -21.7170 -21.7142 -21.7130 -21.7116 -21.7056
   -21.6978 -21.6902 -21.6395 -21.6379 -21.6276 -21.6268 -21.6161 -21.6150
   -21.6136 -21.6132 -21.6097 -21.6091 -21.6089 -21.6063 -21.6062 -21.6049
   -21.6021 -21.5987 -21.5943 -21.5940 -21.5845 -21.5823  -8.9655  -7.7127
    -7.6838  -6.8898  -6.8635  -6.5646  -4.4553  -4.4405  -4.3686  -4.3342
    -4.2658  -4.1910  -4.0591  -4.0188  -3.8250  -3.7886  -3.7312  -3.7127
    -3.6283  -3.5941  -3.5730  -3.5476  -3.5193  -3.5091  -3.4504  -3.3850
    -3.3616  -3.2762  -3.2432  -3.1531  -3.1465  -3.1299  -3.0716  -3.0058
    -2.6576  -2.6567  -2.3488  -2.1609  -1.8303  -1.7260  -1.3201  -0.5444
    -0.4210  -0.4156  -0.2196   0.3628   0.6883   1.1167   1.2717   1.5288
     2.0938   2.4317   2.4834   2.6095   3.1030   3.4578   3.5426   3.9251
     4.1840   4.2455   4.4007   4.8603   5.2630   5.3618   5.4959   5.7666
     6.0221   6.1693   6.4227   6.4330   6.8204   7.0257   7.0269   7.1631
     7.2893

          k = 0.0535 0.0081 0.0000 ( 23118 PWs)   bands (ev):

   -21.7504 -21.7262 -21.7219 -21.7188 -21.7180 -21.7129 -21.7114 -21.7000
   -21.6922 -21.6749 -21.6536 -21.6509 -21.6332 -21.6314 -21.6146 -21.6141
   -21.6132 -21.6118 -21.6092 -21.6087 -21.6081 -21.6076 -21.6069 -21.6053
   -21.6020 -21.5996 -21.5888 -21.5885 -21.5705 -21.5691  -9.0160  -7.7628
    -7.3568  -7.1459  -6.6181  -6.0408  -4.8510  -4.8117  -4.6363  -4.5080
    -4.2282  -4.1780  -4.1764  -3.9578  -3.9030  -3.8674  -3.8612  -3.8078
    -3.7056  -3.6685  -3.6283  -3.4786  -3.4671  -3.4321  -3.3928  -3.3679
    -3.2976  -3.1896  -3.1826  -3.1276  -3.1150  -3.0596  -3.0275  -2.9880
    -2.8977  -2.5714  -2.4856  -2.3337  -2.1094  -1.5858  -1.3726  -1.1618
    -0.6033  -0.4980  -0.1458   0.6560   1.4098   1.4942   1.5868   2.1607
     2.1646   2.6312   2.7091   3.0802   3.0939   3.7989   4.0751   4.3019
     4.3892   4.4772   4.5061   4.7668   4.9570   5.1906   5.5373   5.7210
     5.8552   6.0571   6.2725   6.5960   6.8506   7.0133   7.0169   7.1168
     7.3752

          k = 0.0535 0.0367 0.0000 ( 23097 PWs)   bands (ev):

   -21.7562 -21.7281 -21.7210 -21.7195 -21.7194 -21.7117 -21.7115 -21.6980
   -21.6898 -21.6684 -21.6593 -21.6546 -21.6354 -21.6329 -21.6154 -21.6149
   -21.6127 -21.6105 -21.6093 -21.6081 -21.6072 -21.6071 -21.6058 -21.6056
   -21.6050 -21.5970 -21.5865 -21.5861 -21.5654 -21.5642  -8.8220  -7.6405
    -7.3633  -7.1340  -6.4517  -5.5849  -5.3246  -5.0693  -4.9801  -4.6219
    -4.2742  -4.2302  -4.2238  -4.1997  -3.9794  -3.9551  -3.9389  -3.7655
    -3.7592  -3.7444  -3.7397  -3.6574  -3.5507  -3.4716  -3.4541  -3.3676
    -3.3467  -3.3016  -3.2944  -3.2311  -3.1256  -3.0441  -3.0143  -2.9574
    -2.8517  -2.7393  -2.6109  -2.3748  -2.3051  -1.8493  -1.6673  -0.3820
    -0.1358   0.0068   0.3089   0.7135   1.6059   1.7394   2.3413   2.3690
     2.4247   3.3319   3.5136   3.5747   3.6004   4.0925   4.1926   4.2259
     4.5291   4.6360   4.9693   5.0311   5.2248   5.2655   5.5301   5.5356
     5.7576   5.9019   6.0163   6.3427   6.3581   6.5046   6.7339   6.8204
     7.0955

          k = 0.0535-0.1064 0.0000 ( 23121 PWs)   bands (ev):

   -21.7506 -21.7260 -21.7210 -21.7194 -21.7169 -21.7122 -21.7105 -21.7000
   -21.6918 -21.6733 -21.6541 -21.6483 -21.6336 -21.6310 -21.6135 -21.6129
   -21.6124 -21.6106 -21.6097 -21.6090 -21.6080 -21.6071 -21.6070 -21.6065
   -21.6060 -21.5952 -21.5884 -21.5878 -21.5712 -21.5695  -8.4119  -7.6716
    -7.5076  -7.3271  -6.6061  -5.5633  -5.2511  -5.0805  -4.9285  -4.7330
    -4.3929  -4.2075  -4.1927  -4.1783  -4.0776  -3.9778  -3.9335  -3.8738
    -3.8312  -3.8110  -3.7690  -3.7071  -3.5950  -3.5610  -3.5287  -3.3742
    -3.3349  -3.3040  -3.2840  -3.2480  -3.0974  -3.0768  -3.0633  -3.0075
    -2.9240  -2.7652  -2.6606  -2.2724  -2.2031  -1.8738  -1.7289  -0.6402
     0.0988   0.5555   0.8319   1.4320   1.5827   1.7459   2.2260   2.7134
     3.1873   3.2569   3.2889   3.4689   4.0084   4.1202   4.2431   4.3306
     4.5386   4.5682   4.8154   4.8989   4.9107   5.4041   5.5351   5.6827
     5.8535   5.9242   5.9760   6.1631   6.3383   6.3923   6.5266   6.6028
     6.6378

          k = 0.0535-0.0778 0.0000 ( 23171 PWs)   bands (ev):

   -21.7356 -21.7222 -21.7205 -21.7176 -21.7136 -21.7116 -21.7094 -21.7056
   -21.6979 -21.6887 -21.6402 -21.6349 -21.6284 -21.6262 -21.6161 -21.6138
   -21.6133 -21.6128 -21.6096 -21.6080 -21.6079 -21.6072 -21.6056 -21.6053
   -21.6040 -21.5950 -21.5943 -21.5936 -21.5853 -21.5835  -8.1479  -7.9237
    -7.7487  -7.1295  -7.0382  -6.0334  -5.1162  -4.6481  -4.6378  -4.5191
    -4.3545  -4.1411  -4.0693  -4.0119  -3.9090  -3.8884  -3.8640  -3.8490
    -3.8381  -3.8341  -3.8149  -3.5934  -3.5612  -3.5281  -3.4913  -3.3483
    -3.3085  -3.3078  -3.2862  -3.2814  -3.2112  -3.1906  -3.1568  -3.1363
    -2.9654  -2.7297  -2.6742  -2.1419  -1.8428  -1.8421  -1.4236  -1.0266
     0.5282   0.5683   0.7426   1.3283   1.4630   1.5284   1.8592   2.1890
     2.2548   2.3413   3.0052   3.2166   3.2432   3.8276   4.4297   4.4797
     4.6619   4.7864   4.8169   5.0835   5.3704   5.4702   5.4814   5.5651
     5.5930   5.6900   5.8661   6.1705   6.3064   6.4583   6.6375   6.6861
     6.8682

          k = 0.0535-0.0492 0.0000 ( 23169 PWs)   bands (ev):

   -21.7231 -21.7187 -21.7174 -21.7155 -21.7133 -21.7131 -21.7078 -21.7065
   -21.7057 -21.7048 -21.6243 -21.6243 -21.6219 -21.6218 -21.6210 -21.6202
   -21.6199 -21.6196 -21.6085 -21.6083 -21.6042 -21.6023 -21.6016 -21.6014
   -21.6008 -21.5998 -21.5988 -21.5981 -21.5968 -21.5959  -8.6677  -7.8658
    -7.4579  -7.2130  -6.9703  -6.5260  -4.7090  -4.4495  -4.3680  -4.2181
    -4.1990  -4.1713  -4.0615  -3.9363  -3.9262  -3.7950  -3.7521  -3.7234
    -3.6849  -3.6722  -3.6578  -3.5621  -3.5555  -3.4805  -3.4114  -3.3919
    -3.3824  -3.3528  -3.3084  -3.2810  -3.2688  -3.1929  -3.1902  -3.0997
    -2.9996  -2.6318  -2.5668  -2.1037  -1.5937  -1.4192  -1.1614  -0.9979
     0.0172   0.2020   0.4706   0.6913   0.7310   1.2013   1.4618   1.4789
     1.9824   2.2212   2.4426   2.6956   3.1895   3.5048   3.5965   3.8422
     4.3001   4.6597   4.7013   5.0323   5.2692   5.4172   5.4453   5.9216
     6.0224   6.0306   6.2010   6.3195   6.3566   6.8137   6.8699   7.0844
     7.1237

          k =-0.0802 0.0308 0.0000 ( 23152 PWs)   bands (ev):

   -21.7205 -21.7205 -21.7168 -21.7168 -21.7132 -21.7132 -21.7073 -21.7073
   -21.7052 -21.7052 -21.6239 -21.6239 -21.6224 -21.6224 -21.6206 -21.6206
   -21.6198 -21.6198 -21.6074 -21.6074 -21.6024 -21.6024 -21.6017 -21.6017
   -21.6012 -21.6012 -21.5983 -21.5983 -21.5969 -21.5969  -8.3800  -8.3800
    -7.2666  -7.2666  -6.6879  -6.6879  -4.5241  -4.5241  -4.4249  -4.4249
    -4.1416  -4.1416  -4.0888  -4.0888  -3.8371  -3.8371  -3.7578  -3.7578
    -3.6920  -3.6920  -3.5642  -3.5642  -3.4830  -3.4830  -3.4348  -3.4348
    -3.3608  -3.3608  -3.3127  -3.3127  -3.2204  -3.2204  -3.0689  -3.0689
    -2.6390  -2.6390  -2.3421  -2.3421  -1.8417  -1.8417  -0.8798  -0.8798
     0.1439   0.1439   0.2759   0.2759   0.8718   0.8718   1.2392   1.2392
     2.8134   2.8134   2.8647   2.8647   3.0683   3.0683   4.0363   4.0363
     4.6727   4.6727   4.8007   4.8007   5.3795   5.3795   5.4906   5.4906
     5.6524   5.6524   6.0887   6.0887   6.4508   6.4508   6.5985   6.5985
     7.3123

          k =-0.0802 0.0594 0.0000 ( 23185 PWs)   bands (ev):

   -21.7354 -21.7207 -21.7205 -21.7192 -21.7137 -21.7118 -21.7107 -21.7056
   -21.6978 -21.6893 -21.6398 -21.6363 -21.6282 -21.6264 -21.6161 -21.6141
   -21.6137 -21.6130 -21.6084 -21.6084 -21.6080 -21.6070 -21.6056 -21.6050
   -21.6034 -21.5980 -21.5942 -21.5938 -21.5844 -21.5834  -8.5107  -8.0236
    -7.4088  -7.1336  -6.9777  -6.1773  -4.8067  -4.6880  -4.6550  -4.4238
    -4.3064  -4.1965  -4.1346  -3.9289  -3.8991  -3.8879  -3.8805  -3.8181
    -3.7812  -3.6756  -3.6536  -3.5699  -3.5614  -3.5364  -3.4302  -3.3473
    -3.3245  -3.2823  -3.2147  -3.1952  -3.1917  -3.1708  -3.1552  -3.0519
    -2.9835  -2.5915  -2.5676  -2.2914  -1.7526  -1.5675  -1.3801  -1.3011
    -0.1167   0.0657   0.4596   0.8964   1.1005   1.5326   2.0827   2.2877
     2.4243   2.5128   2.7294   3.2677   3.3602   3.5335   3.6395   4.2200
     4.6322   4.6687   4.7562   4.8698   5.0068   5.3824   5.5557   5.6188
     5.9663   6.0598   6.0777   6.2814   6.4044   6.4159   6.6217   6.8021
     6.9506

          k =-0.0802 0.0881 0.0000 ( 23121 PWs)   bands (ev):

   -21.7506 -21.7260 -21.7210 -21.7194 -21.7169 -21.7122 -21.7105 -21.7000
   -21.6918 -21.6733 -21.6541 -21.6483 -21.6336 -21.6310 -21.6135 -21.6129
   -21.6124 -21.6106 -21.6097 -21.6090 -21.6080 -21.6071 -21.6070 -21.6065
   -21.6060 -21.5952 -21.5884 -21.5878 -21.5712 -21.5695  -8.4119  -7.6716
    -7.5076  -7.3271  -6.6061  -5.5633  -5.2511  -5.0805  -4.9285  -4.7330
    -4.3929  -4.2075  -4.1927  -4.1783  -4.0776  -3.9778  -3.9335  -3.8738
    -3.8312  -3.8110  -3.7690  -3.7071  -3.5950  -3.5610  -3.5287  -3.3742
    -3.3349  -3.3040  -3.2840  -3.2480  -3.0974  -3.0768  -3.0633  -3.0075
    -2.9240  -2.7652  -2.6606  -2.2724  -2.2031  -1.8738  -1.7289  -0.6402
     0.0988   0.5555   0.8319   1.4320   1.5827   1.7459   2.2260   2.7134
     3.1873   3.2569   3.2889   3.4689   4.0084   4.1202   4.2431   4.3306
     4.5386   4.5682   4.8154   4.8989   4.9107   5.4041   5.5351   5.6827
     5.8535   5.9242   5.9760   6.1631   6.3383   6.3923   6.5266   6.6028
     6.6379

          k =-0.0802-0.0551 0.0000 ( 23102 PWs)   bands (ev):

   -21.7562 -21.7280 -21.7212 -21.7196 -21.7184 -21.7119 -21.7103 -21.6979
   -21.6894 -21.6674 -21.6596 -21.6526 -21.6358 -21.6327 -21.6146 -21.6138
   -21.6127 -21.6104 -21.6096 -21.6081 -21.6073 -21.6072 -21.6068 -21.6065
   -21.6054 -21.5943 -21.5861 -21.5855 -21.5661 -21.5641  -8.1657  -8.0405
    -7.3011  -7.1636  -6.4044  -5.5134  -5.4627  -4.9694  -4.9070  -4.8202
    -4.7282  -4.4200  -4.3260  -4.1820  -4.1734  -4.0036  -4.0020  -3.9717
    -3.8805  -3.8111  -3.8025  -3.7648  -3.6355  -3.6038  -3.5656  -3.4521
    -3.3395  -3.3228  -3.2772  -3.2382  -3.0673  -3.0275  -3.0233  -2.9739
    -2.8519  -2.8052  -2.7100  -2.3047  -2.2316  -2.0489  -1.8324  -0.2340
     0.2070   0.7342   1.0833   1.3300   1.8131   2.3682   2.8303   2.8508
     2.9179   3.2002   3.3298   3.3676   4.1026   4.1070   4.6149   4.6423
     4.9088   5.0030   5.0114   5.1173   5.3103   5.4986   5.6471   5.7621
     5.7795   5.8443   5.8775   5.8816   6.2424   6.4623   6.6115   6.6692
     6.7826

     the Fermi energy is     0.3710 ev

!    total energy              =   -1664.49090747 Ry
     Harris-Foulkes estimate   =   -1664.49090556 Ry
     estimated scf accuracy    <       0.00000070 Ry

     The total energy is the sum of the following terms:

     one-electron contribution =   -8884.46494077 Ry
     hartree contribution      =    4520.17650718 Ry
     xc contribution           =    -650.68025811 Ry
     ewald contribution        =    3350.50985427 Ry
     electric field correction =       0.00000000 Ry
     smearing contrib. (-TS)   =      -0.03207005 Ry

     convergence has been achieved in  14 iterations
 
 BEEF-vdW xc energy contributions
           1 :   -577.634424653501     
           2 :    533.447954191528     
           3 :   -456.341194360896     
           4 :    364.252854198431     
           5 :   -275.259939856380     
           6 :    201.983468044413     
           7 :   -149.019989813158     
           8 :    113.884485156818     
           9 :   -90.4404618606718     
          10 :    72.8091959273168     
          11 :   -57.8769860424186     
          12 :    45.5237968106325     
          13 :   -37.0588237069202     
          14 :    33.1967688169556     
          15 :   -32.9110087058860     
          16 :    33.7207365586271     
          17 :   -33.0247904109738     
          18 :    29.5066239070061     
          19 :   -23.7267801309167     
          20 :    17.6077718313986     
          21 :   -13.2221191995177     
          22 :    11.6517472207029     
          23 :   -12.5602326991808     
          24 :    14.6152619582994     
          25 :   -16.3879565791909     
          26 :    17.1256606655220     
          27 :   -16.9704699051678     
          28 :    16.5939327870586     
          29 :   -16.5851865443651     
          30 :    17.0244002869504     
          31 :   -47.5397585457137     
          32 :   -34.5505536857689     

     Forces acting on atoms (Ry/au):


     negative rho (up, down):  3.282E-04 0.000E+00
     atom    1 type  1   force =    -0.00147030   -0.00101214    0.00129620
     atom    2 type  1   force =    -0.00147109   -0.00100634    0.00130709
     atom    3 type  2   force =     0.00010564    0.00007152    0.00374247
     atom    4 type  2   force =     0.00010482    0.00007264    0.00374408
     atom    5 type  1   force =     0.00000033    0.00000369   -0.00001456
     atom    6 type  1   force =    -0.00000056   -0.00000078   -0.00001563
     atom    7 type  2   force =     0.00000128    0.00000074   -0.00000298
     atom    8 type  2   force =     0.00000006   -0.00000082    0.00000007
     atom    9 type  1   force =     0.00147048    0.00100538   -0.00130164
     atom   10 type  1   force =     0.00146701    0.00100878   -0.00129977
     atom   11 type  2   force =    -0.00010404   -0.00007088   -0.00372795
     atom   12 type  2   force =    -0.00010363   -0.00007179   -0.00372738

     Total force =     0.008681     Total SCF correction =     0.001552
     SCF correction compared to forces is large: reduce conv_thr to get better values


     entering subroutine stress ...


     negative rho (up, down):  3.282E-04 0.000E+00
          total   stress  (Ry/bohr**3)                   (kbar)     P=  -11.39
  -0.00010541  -0.00000569   0.00000417        -15.51     -0.84      0.61
  -0.00000569  -0.00010105   0.00000287         -0.84    -14.86      0.42
   0.00000417   0.00000287  -0.00002586          0.61      0.42     -3.80

 !ASE

     Writing output data file calc.save
 
     init_run     :     11.12s CPU     20.59s WALL (       1 calls)
     electrons    :    441.94s CPU    808.87s WALL (       1 calls)
     forces       :      4.47s CPU      6.20s WALL (       1 calls)
     stress       :     14.13s CPU     17.12s WALL (       1 calls)

     Called by init_run:
     wfcinit      :      7.55s CPU     14.92s WALL (       1 calls)
     potinit      :      1.73s CPU      3.32s WALL (       1 calls)

     Called by electrons:
     c_bands      :    308.24s CPU    558.17s WALL (      14 calls)
     sum_band     :     58.68s CPU    107.46s WALL (      14 calls)
     v_of_rho     :     20.51s CPU     41.66s WALL (      15 calls)
     newd         :     10.38s CPU     11.29s WALL (      15 calls)
     mix_rho      :      0.67s CPU      1.35s WALL (      14 calls)
     vdW_energy   :      2.84s CPU      3.16s WALL (      51 calls)
     vdW_ffts     :     44.00s CPU     93.95s WALL (     104 calls)
     vdW_v        :      7.37s CPU     14.70s WALL (      51 calls)

     Called by c_bands:
     init_us_2    :      1.03s CPU      1.06s WALL (     620 calls)
     cegterg      :    299.74s CPU    547.69s WALL (     280 calls)

     Called by *egterg:
     h_psi        :    228.98s CPU    463.59s WALL (    1213 calls)
     s_psi        :      7.17s CPU      7.22s WALL (    1213 calls)
     g_psi        :      0.53s CPU      0.53s WALL (     913 calls)
     cdiaghg      :     37.97s CPU     40.12s WALL (    1193 calls)

     Called by h_psi:
     add_vuspsi   :      7.32s CPU      7.34s WALL (    1213 calls)

     General routines
     calbec       :     14.12s CPU     19.18s WALL (    1533 calls)
     fft          :     65.46s CPU    139.76s WALL (    3093 calls)
     ffts         :      0.13s CPU      0.32s WALL (      29 calls)
     fftw         :    247.93s CPU    524.40s WALL (  174136 calls)
     interpolate  :      0.72s CPU      1.58s WALL (      29 calls)
     davcio       :      0.00s CPU      0.24s WALL (      20 calls)
 
     Parallel routines
     fft_scatter  :    292.16s CPU    640.86s WALL (  177258 calls)
 
     PWSCF        :  7m52.33s CPU    14m14.23s WALL

 
   This run was terminated on:   6: 6: 8  19Dec2018            

=------------------------------------------------------------------------------=
   JOB DONE.
=------------------------------------------------------------------------------=
Job  /afs/slac/g/suncat/bin/suncat-tsmpirun -x LD_LIBRARY_PATH -wdir /scratch/qe530599_P3yX5 pw.x -in pw.inp

TID   HOST_NAME   COMMAND_LINE            STATUS            TERMINATION_TIME
===== ========== ================  =======================  ===================
00000 suncat2071 pw.x -in pw.inp   Done                     12/19/2018 06:06:08
00001 suncat2071 pw.x -in pw.inp   Done                     12/19/2018 06:06:08
00002 suncat2071 pw.x -in pw.inp   Done                     12/19/2018 06:06:08
00003 suncat2071 pw.x -in pw.inp   Done                     12/19/2018 06:06:08
00004 suncat2071 pw.x -in pw.inp   Done                     12/19/2018 06:06:08
00005 suncat2071 pw.x -in pw.inp   Done                     12/19/2018 06:06:08
00006 suncat2071 pw.x -in pw.inp   Done                     12/19/2018 06:06:08
00007 suncat2071 pw.x -in pw.inp   Done                     12/19/2018 06:06:08
00008 suncat2071 pw.x -in pw.inp   Done                     12/19/2018 06:06:08
00009 suncat2071 pw.x -in pw.inp   Done                     12/19/2018 06:06:08
00010 suncat2071 pw.x -in pw.inp   Done                     12/19/2018 06:06:08
00011 suncat2071 pw.x -in pw.inp   Done                     12/19/2018 06:06:08
00012 suncat2071 pw.x -in pw.inp   Done                     12/19/2018 06:06:08
00013 suncat2071 pw.x -in pw.inp   Done                     12/19/2018 06:06:08
00014 suncat2071 pw.x -in pw.inp   Done                     12/19/2018 06:06:08
00015 suncat2071 pw.x -in pw.inp   Done                     12/19/2018 06:06:08
00016 suncat2070 pw.x -in pw.inp   Done                     12/19/2018 06:06:08
00017 suncat2070 pw.x -in pw.inp   Done                     12/19/2018 06:06:08
00018 suncat2070 pw.x -in pw.inp   Done                     12/19/2018 06:06:08
00019 suncat2070 pw.x -in pw.inp   Done                     12/19/2018 06:06:08
00020 suncat2070 pw.x -in pw.inp   Done                     12/19/2018 06:06:08
00021 suncat2070 pw.x -in pw.inp   Done                     12/19/2018 06:06:08
00022 suncat2070 pw.x -in pw.inp   Done                     12/19/2018 06:06:08
00023 suncat2070 pw.x -in pw.inp   Done                     12/19/2018 06:06:08
00024 suncat2070 pw.x -in pw.inp   Done                     12/19/2018 06:06:08
00025 suncat2070 pw.x -in pw.inp   Done                     12/19/2018 06:06:08
00026 suncat2070 pw.x -in pw.inp   Done                     12/19/2018 06:06:08
00027 suncat2070 pw.x -in pw.inp   Done                     12/19/2018 06:06:08
00028 suncat2070 pw.x -in pw.inp   Done                     12/19/2018 06:06:08
00029 suncat2070 pw.x -in pw.inp   Done                     12/19/2018 06:06:08
00030 suncat2070 pw.x -in pw.inp   Done                     12/19/2018 06:06:08
00031 suncat2070 pw.x -in pw.inp   Done                     12/19/2018 06:06:08

     Program PWSCF v.5.1rc2 (svn rev. 11289) starts on 19Dec2018 at  6: 6:15 

     This program is part of the open-source Quantum ESPRESSO suite
     for quantum simulation of materials; please cite
         "P. Giannozzi et al., J. Phys.:Condens. Matter 21 395502 (2009);
          URL http://www.quantum-espresso.org", 
     in publications or presentations arising from this work. More details at
     http://www.quantum-espresso.org/quote

     Parallel version (MPI), running on    32 processors
     R & G space division:  proc/nbgrp/npool/nimage =      32
     Reading input from pw.inp
     Message from routine read_cards :
     DEPRECATED: no units specified in CELL_PARAMETERS card

     Current dimensions of program PWSCF are:
     Max number of different atomic species (ntypx) = 10
     Max number of k-points (npk) =  40000
     Max angular momentum in pseudopotentials (lmaxx) =  3
     Presently stress not available with electric field


     **************************************************************************
     Initializing libbeef V0.1.1 with the BEEF-vdW functional.
     Citation: Wellendorff et al., PRB 85, 235149 (2012).
     **************************************************************************


     IMPORTANT: XC functional enforced from input :
     Exchange-correlation      = BEEF-VDW ( 1  4 27 13 2)
     Any further DFT definition will be discarded
     Please, verify this is what you really want


     Subspace diagonalization in iterative solution of the eigenvalue problem:
     a serial algorithm will be used

     Found symmetry operation: I + ( -0.5000 -0.5000  0.0000)
     This is a supercell, fractional translations are disabled
 
     Parallelization info
     --------------------
     sticks:   dense  smooth     PW     G-vecs:    dense   smooth      PW
     Min         118      47     13                22870     5767     869
     Max         119      48     14                22884     5803     878
     Sum        3783    1509    427               732031   185207   27979
 


     bravais-lattice index     =            0
     lattice parameter (alat)  =       1.8897  a.u.
     unit-cell volume          =    6154.6751 (a.u.)^3
     number of atoms/cell      =           12
     number of atomic types    =            2
     number of electrons       =       150.00
     number of Kohn-Sham states=          105
     kinetic-energy cutoff     =      36.7493  Ry
     charge density cutoff     =     367.4932  Ry
     convergence threshold     =      1.0E-06
     mixing beta               =       0.1000
     number of iterations used =           10  plain     mixing
     Exchange-correlation      = BEEF-VDW ( 1  4 27 13 2)
     nstep                     =           50


     celldm(1)=   1.889726  celldm(2)=   0.000000  celldm(3)=   0.000000
     celldm(4)=   0.000000  celldm(5)=   0.000000  celldm(6)=   0.000000

     crystal axes: (cart. coord. in units of alat)
               a(1) = (   6.234964   0.000000   0.000000 )  
               a(2) = (   2.234922   5.820644   0.000000 )  
               a(3) = (   0.000000   0.000000  25.130641 )  

     reciprocal axes: (cart. coord. in units 2 pi/alat)
               b(1) = (  0.160386 -0.061583  0.000000 )  
               b(2) = (  0.000000  0.171802  0.000000 )  
               b(3) = (  0.000000  0.000000  0.039792 )  


     PseudoPot. # 1 for Sn read from file:
     /afs/slac.stanford.edu/u/if/mamunm/psp/gbrv1.5pbe/Sn.UPF
     MD5 check sum: 469debedee59599fedebd795477fea03
     Pseudo is Ultrasoft + core correction, Zval = 14.0
     Generated by new atomic code, or converted to UPF format
     Using radial grid of  891 points,  6 beta functions with: 
                l(1) =   0
                l(2) =   0
                l(3) =   1
                l(4) =   1
                l(5) =   2
                l(6) =   2
     Q(r) pseudized with  8 coefficients,  rinner =    1.350   1.350   1.350
                                                       1.350   1.350

     PseudoPot. # 2 for Au read from file:
     /afs/slac.stanford.edu/u/if/mamunm/psp/gbrv1.5pbe/Au.UPF
     MD5 check sum: 9d7f43293ad2c663164586bc4b293ffc
     Pseudo is Ultrasoft + core correction, Zval = 11.0
     Generated by new atomic code, or converted to UPF format
     Using radial grid of  985 points,  7 beta functions with: 
                l(1) =   0
                l(2) =   0
                l(3) =   1
                l(4) =   1
                l(5) =   2
                l(6) =   2
                l(7) =   3
     Q(r) pseudized with  6 coefficients,  rinner =    1.900   1.900   1.900
                                                       1.900   1.900   1.900
                                                       1.900

     vdW kernel table read from file vdW_kernel_table
     MD5 check sum: 095c7af220d748ca6e76c0b4c6cfb241

     atomic species   valence    mass     pseudopotential
        Sn1           14.00   118.71000     Sn( 1.00)
        Au1           11.00   196.96657     Au( 1.00)

     No symmetry found



   Cartesian axes

     site n.     atom                  positions (alat units)
         1           Sn1 tau(   1) = (   0.0000000   0.0000000  10.0000000  )
         2           Sn1 tau(   2) = (   4.2349428   2.9103220  10.0000000  )
         3           Au1 tau(   3) = (   3.1174819   0.0000000  10.0000000  )
         4           Au1 tau(   4) = (   1.1174610   2.9103220  10.0000000  )
         5           Sn1 tau(   5) = (   6.2349637   4.2847690  12.5653205  )
         6           Sn1 tau(   6) = (   2.0000209   1.3744471  12.5653205  )
         7           Au1 tau(   7) = (   3.1174819   4.2847690  12.5653205  )
         8           Au1 tau(   8) = (   5.1175027   1.3744471  12.5653205  )
         9           Sn1 tau(   9) = (   4.0038225   2.7514791  15.1272944  )
        10           Sn1 tau(  10) = (   8.2387564   5.6618098  15.1272992  )
        11           Au1 tau(  11) = (   7.1172561   2.7487119  15.1210561  )
        12           Au1 tau(  12) = (   5.1172363   5.6590315  15.1210575  )

     number of k points=    20  Fermi-Dirac smearing, width (Ry)=  0.0110
                       cart. coord. in units 2pi/alat
        k(    1) = (   0.0000000   0.0000000   0.0000000), wk =   0.0555556
        k(    2) = (   0.0000000   0.0286337   0.0000000), wk =   0.1111111
        k(    3) = (   0.0000000   0.0572674   0.0000000), wk =   0.1111111
        k(    4) = (   0.0000000  -0.0859011   0.0000000), wk =   0.0555556
        k(    5) = (   0.0267310  -0.0102638   0.0000000), wk =   0.1111111
        k(    6) = (   0.0267310   0.0183700   0.0000000), wk =   0.1111111
        k(    7) = (   0.0267310   0.0470037   0.0000000), wk =   0.1111111
        k(    8) = (   0.0267310  -0.0961649   0.0000000), wk =   0.1111111
        k(    9) = (   0.0267310  -0.0675312   0.0000000), wk =   0.1111111
        k(   10) = (   0.0267310  -0.0388975   0.0000000), wk =   0.1111111
        k(   11) = (   0.0534620  -0.0205275   0.0000000), wk =   0.1111111
        k(   12) = (   0.0534620   0.0081062   0.0000000), wk =   0.1111111
        k(   13) = (   0.0534620   0.0367399   0.0000000), wk =   0.1111111
        k(   14) = (   0.0534620  -0.1064287   0.0000000), wk =   0.1111111
        k(   15) = (   0.0534620  -0.0777949   0.0000000), wk =   0.1111111
        k(   16) = (   0.0534620  -0.0491612   0.0000000), wk =   0.1111111
        k(   17) = (  -0.0801929   0.0307913   0.0000000), wk =   0.0555556
        k(   18) = (  -0.0801929   0.0594250   0.0000000), wk =   0.1111111
        k(   19) = (  -0.0801929   0.0880587   0.0000000), wk =   0.1111111
        k(   20) = (  -0.0801929  -0.0551099   0.0000000), wk =   0.0555556

     Dense  grid:   732031 G-vectors     FFT dimensions: (  72,  72, 300)

     Smooth grid:   185207 G-vectors     FFT dimensions: (  45,  45, 192)

     Largest allocated arrays     est. size (Mb)     dimensions
        Kohn-Sham Wavefunctions         1.20 Mb     (     751,  105)
        NL pseudopotentials             2.96 Mb     (     751,  258)
        Each V/rho on FFT grid          0.79 Mb     (   51840)
        Each G-vector array             0.17 Mb     (   22872)
        G-vector shells                 0.09 Mb     (   11222)
     Largest temporary arrays     est. size (Mb)     dimensions
        Auxiliary wavefunctions         4.81 Mb     (     751,  420)
        Each subspace H/S matrix        2.69 Mb     (     420,  420)
        Each <psi_i|beta_j> matrix      0.41 Mb     (     258,  105)
        Arrays for rho mixing           7.91 Mb     (   51840,   10)

     Check: negative/imaginary core charge=   -0.000001    0.000000

     Initial potential from superposition of free atoms
     Check: negative starting charge=   -0.000973

     starting charge  143.99900, renormalised to  150.00000

     negative rho (up, down):  1.013E-03 0.000E+00


     ************************************************************************
     *
     * You are using vdW-DF for exchange-correlation in this calculation.
     * Please cite the following three references that made this development
     * possible:
     *
     *   M. Dion, H. Rydberg, E. Schroder, D. C. Langreth, and
     *   B. I. Lundqvist, Phys. Rev. Lett. 92, 246401 (2004).
     *
     *   T. Thonhauser, V. R. Cooper, S. Li, A. Puzder, P. Hyldgaard, and
     *   D. C. Langreth, Phys. Rev. B 76, 125112 (2007).
     *
     *   G. Roman-Perez and J. M. Soler, Phys. Rev. Lett. 103, 096102 (2009).
     *
     *
     * If you are using vdW-DF2, please also cite:
     *
     *   K. Lee, E. D. Murray, L. Kong, B. I. Lundqvist, and
     *   D. C. Langreth, Phys. Rev. B 82, 081101(R) (2010).
     *
     *
     * If you are calculating the stress with vdW-DF, please also cite:
     *
     *   R. Sabatini, E. Kucukbenli, B. Kolb, T. Thonhauser, and
     *   S. de Gironcoli, J. Phys.: Condens. Matter 24, 424209 (2012).
     *
     ************************************************************************

     Carrying out vdW-DF run using the following parameters:

     Nqs =      20    Nr_points =    1024   r_max =   100.000
     q_mesh =
               0.00001000     0.04494208     0.09755937     0.15916263
               0.23128650     0.31572767     0.41458969     0.53033537
               0.66584808     0.82450364     1.01025438     1.22772762
               1.48234092     1.78043706     2.12944203     2.53805004
               3.01644009     3.57652955     4.23227104     5.00000000

     Gradients computed in reciprocal space

     ************************************************************************


 
     Adding external electric field

     Computed dipole along edir(3) : 
        Dipole                0.0108 Ry au,          0.0275 Debye
        Dipole field          0.0000 Ry au
 
        Potential amp.       -0.0020 Ry
        Total length         46.3028 bohr
 
     Starting wfc are  108 randomized atomic wfcs

     total cpu time spent up to now is       21.6 secs

     Self-consistent Calculation

     iteration #  1     ecut=    36.75 Ry     beta=0.10
     Davidson diagonalization with overlap
     ethr =  1.00E-02,  avg # of iterations =  8.3

     negative rho (up, down):  6.326E-04 0.000E+00
 
     Adding external electric field

     Computed dipole along edir(3) : 
        Dipole               -0.0115 Ry au,         -0.0292 Debye
        Dipole field         -0.0000 Ry au
 
        Potential amp.        0.0022 Ry
        Total length         46.3028 bohr
 

     total cpu time spent up to now is       94.4 secs

     total energy              =   -1665.13099579 Ry
     Harris-Foulkes estimate   =   -1666.02961767 Ry
     estimated scf accuracy    <       5.39372122 Ry

     iteration #  2     ecut=    36.75 Ry     beta=0.10
     Davidson diagonalization with overlap
     ethr =  3.60E-03,  avg # of iterations =  1.0

     negative rho (up, down):  5.185E-04 0.000E+00
 
     Adding external electric field

     Computed dipole along edir(3) : 
        Dipole                0.0650 Ry au,          0.1651 Debye
        Dipole field          0.0001 Ry au
 
        Potential amp.       -0.0123 Ry
        Total length         46.3028 bohr
 

     total cpu time spent up to now is      137.7 secs

     total energy              =   -1664.55012454 Ry
     Harris-Foulkes estimate   =   -1665.30829164 Ry
     estimated scf accuracy    <       2.37629661 Ry

     iteration #  3     ecut=    36.75 Ry     beta=0.10
     Davidson diagonalization with overlap
     ethr =  1.58E-03,  avg # of iterations =  2.0

     negative rho (up, down):  5.048E-04 0.000E+00
 
     Adding external electric field

     Computed dipole along edir(3) : 
        Dipole               -0.1837 Ry au,         -0.4668 Debye
        Dipole field         -0.0004 Ry au
 
        Potential amp.        0.0347 Ry
        Total length         46.3028 bohr
 

     total cpu time spent up to now is      182.8 secs

     total energy              =   -1664.49306812 Ry
     Harris-Foulkes estimate   =   -1664.71813301 Ry
     estimated scf accuracy    <       0.61765367 Ry

     iteration #  4     ecut=    36.75 Ry     beta=0.10
     Davidson diagonalization with overlap
     ethr =  4.12E-04,  avg # of iterations =  5.8

     negative rho (up, down):  4.774E-04 0.000E+00
 
     Adding external electric field

     Computed dipole along edir(3) : 
        Dipole                0.0715 Ry au,          0.1818 Debye
        Dipole field          0.0001 Ry au
 
        Potential amp.       -0.0135 Ry
        Total length         46.3028 bohr
 

     total cpu time spent up to now is      233.4 secs

     total energy              =   -1664.50274268 Ry
     Harris-Foulkes estimate   =   -1664.55498129 Ry
     estimated scf accuracy    <       0.32328772 Ry

     iteration #  5     ecut=    36.75 Ry     beta=0.10
     Davidson diagonalization with overlap
     ethr =  2.16E-04,  avg # of iterations =  4.7

     negative rho (up, down):  5.670E-04 0.000E+00
 
     Adding external electric field

     Computed dipole along edir(3) : 
        Dipole                0.0052 Ry au,          0.0133 Debye
        Dipole field          0.0000 Ry au
 
        Potential amp.       -0.0010 Ry
        Total length         46.3028 bohr
 

     total cpu time spent up to now is      280.9 secs

     total energy              =   -1664.48125277 Ry
     Harris-Foulkes estimate   =   -1664.52616618 Ry
     estimated scf accuracy    <       0.11813829 Ry

     iteration #  6     ecut=    36.75 Ry     beta=0.10
     Davidson diagonalization with overlap
     ethr =  7.88E-05,  avg # of iterations =  3.4

     negative rho (up, down):  6.576E-04 0.000E+00
 
     Adding external electric field

     Computed dipole along edir(3) : 
        Dipole               -0.0017 Ry au,         -0.0043 Debye
        Dipole field         -0.0000 Ry au
 
        Potential amp.        0.0003 Ry
        Total length         46.3028 bohr
 

     total cpu time spent up to now is      327.7 secs

     total energy              =   -1664.48834596 Ry
     Harris-Foulkes estimate   =   -1664.49288941 Ry
     estimated scf accuracy    <       0.01531944 Ry

     iteration #  7     ecut=    36.75 Ry     beta=0.10
     Davidson diagonalization with overlap
     ethr =  1.02E-05,  avg # of iterations =  6.2

     negative rho (up, down):  7.023E-04 0.000E+00
 
     Adding external electric field

     Computed dipole along edir(3) : 
        Dipole                0.0019 Ry au,          0.0049 Debye
        Dipole field          0.0000 Ry au
 
        Potential amp.       -0.0004 Ry
        Total length         46.3028 bohr
 

     total cpu time spent up to now is      392.1 secs

     total energy              =   -1664.48951929 Ry
     Harris-Foulkes estimate   =   -1664.49334498 Ry
     estimated scf accuracy    <       0.00840811 Ry

     iteration #  8     ecut=    36.75 Ry     beta=0.10
     Davidson diagonalization with overlap
     ethr =  5.61E-06,  avg # of iterations =  2.0

     negative rho (up, down):  7.905E-04 0.000E+00
 
     Adding external electric field

     Computed dipole along edir(3) : 
        Dipole                0.0001 Ry au,          0.0003 Debye
        Dipole field          0.0000 Ry au
 
        Potential amp.       -0.0000 Ry
        Total length         46.3028 bohr
 

     total cpu time spent up to now is      442.7 secs

     total energy              =   -1664.49069859 Ry
     Harris-Foulkes estimate   =   -1664.49157054 Ry
     estimated scf accuracy    <       0.00264987 Ry

     iteration #  9     ecut=    36.75 Ry     beta=0.10
     Davidson diagonalization with overlap
     ethr =  1.77E-06,  avg # of iterations =  4.4

     negative rho (up, down):  7.809E-04 0.000E+00
 
     Adding external electric field

     Computed dipole along edir(3) : 
        Dipole                0.0013 Ry au,          0.0033 Debye
        Dipole field          0.0000 Ry au
 
        Potential amp.       -0.0002 Ry
        Total length         46.3028 bohr
 

     total cpu time spent up to now is      491.7 secs

     total energy              =   -1664.49100978 Ry
     Harris-Foulkes estimate   =   -1664.49112812 Ry
     estimated scf accuracy    <       0.00038364 Ry

     iteration # 10     ecut=    36.75 Ry     beta=0.10
     Davidson diagonalization with overlap
     ethr =  2.56E-07,  avg # of iterations =  2.8

     negative rho (up, down):  7.098E-04 0.000E+00
 
     Adding external electric field

     Computed dipole along edir(3) : 
        Dipole                0.0010 Ry au,          0.0025 Debye
        Dipole field          0.0000 Ry au
 
        Potential amp.       -0.0002 Ry
        Total length         46.3028 bohr
 

     total cpu time spent up to now is      542.9 secs

     total energy              =   -1664.49108739 Ry
     Harris-Foulkes estimate   =   -1664.49110611 Ry
     estimated scf accuracy    <       0.00009836 Ry

     iteration # 11     ecut=    36.75 Ry     beta=0.10
     Davidson diagonalization with overlap
     ethr =  6.56E-08,  avg # of iterations =  1.5

     negative rho (up, down):  6.642E-04 0.000E+00
 
     Adding external electric field

     Computed dipole along edir(3) : 
        Dipole                0.0015 Ry au,          0.0039 Debye
        Dipole field          0.0000 Ry au
 
        Potential amp.       -0.0003 Ry
        Total length         46.3028 bohr
 

     total cpu time spent up to now is      586.0 secs

     total energy              =   -1664.49107768 Ry
     Harris-Foulkes estimate   =   -1664.49109250 Ry
     estimated scf accuracy    <       0.00004591 Ry

     iteration # 12     ecut=    36.75 Ry     beta=0.10
     Davidson diagonalization with overlap
     ethr =  3.06E-08,  avg # of iterations =  2.3

     negative rho (up, down):  6.173E-04 0.000E+00
 
     Adding external electric field

     Computed dipole along edir(3) : 
        Dipole                0.0014 Ry au,          0.0037 Debye
        Dipole field          0.0000 Ry au
 
        Potential amp.       -0.0003 Ry
        Total length         46.3028 bohr
 

     total cpu time spent up to now is      639.2 secs

     total energy              =   -1664.49109011 Ry
     Harris-Foulkes estimate   =   -1664.49108930 Ry
     estimated scf accuracy    <       0.00000592 Ry

     iteration # 13     ecut=    36.75 Ry     beta=0.10
     Davidson diagonalization with overlap
     ethr =  3.95E-09,  avg # of iterations =  2.0

     negative rho (up, down):  5.850E-04 0.000E+00
 
     Adding external electric field

     Computed dipole along edir(3) : 
        Dipole                0.0013 Ry au,          0.0033 Debye
        Dipole field          0.0000 Ry au
 
        Potential amp.       -0.0002 Ry
        Total length         46.3028 bohr
 

     total cpu time spent up to now is      685.3 secs

     total energy              =   -1664.49109315 Ry
     Harris-Foulkes estimate   =   -1664.49109066 Ry
     estimated scf accuracy    <       0.00000553 Ry

     iteration # 14     ecut=    36.75 Ry     beta=0.10
     Davidson diagonalization with overlap
     ethr =  3.68E-09,  avg # of iterations =  2.0

     negative rho (up, down):  5.520E-04 0.000E+00
 
     Adding external electric field

     Computed dipole along edir(3) : 
        Dipole                0.0013 Ry au,          0.0032 Debye
        Dipole field          0.0000 Ry au
 
        Potential amp.       -0.0002 Ry
        Total length         46.3028 bohr
 

     total cpu time spent up to now is      732.8 secs

     total energy              =   -1664.49109479 Ry
     Harris-Foulkes estimate   =   -1664.49109404 Ry
     estimated scf accuracy    <       0.00000109 Ry

     iteration # 15     ecut=    36.75 Ry     beta=0.10
     Davidson diagonalization with overlap
     ethr =  7.29E-10,  avg # of iterations =  2.5

     negative rho (up, down):  3.294E-04 0.000E+00

     negative rho (up, down):  3.294E-04 0.000E+00

     negative rho (up, down):  3.294E-04 0.000E+00

     negative rho (up, down):  3.294E-04 0.000E+00

     negative rho (up, down):  3.294E-04 0.000E+00

     negative rho (up, down):  3.294E-04 0.000E+00

     negative rho (up, down):  3.294E-04 0.000E+00

     negative rho (up, down):  3.294E-04 0.000E+00

     negative rho (up, down):  3.294E-04 0.000E+00

     negative rho (up, down):  3.294E-04 0.000E+00

     negative rho (up, down):  3.294E-04 0.000E+00

     negative rho (up, down):  3.294E-04 0.000E+00

     negative rho (up, down):  3.294E-04 0.000E+00

     negative rho (up, down):  3.294E-04 0.000E+00

     negative rho (up, down):  3.294E-04 0.000E+00

     negative rho (up, down):  3.294E-04 0.000E+00

     negative rho (up, down):  3.294E-04 0.000E+00

     negative rho (up, down):  3.294E-04 0.000E+00

     negative rho (up, down):  3.294E-04 0.000E+00

     negative rho (up, down):  3.294E-04 0.000E+00

     negative rho (up, down):  3.294E-04 0.000E+00

     negative rho (up, down):  3.294E-04 0.000E+00

     negative rho (up, down):  3.294E-04 0.000E+00

     negative rho (up, down):  3.294E-04 0.000E+00

     negative rho (up, down):  3.294E-04 0.000E+00

     negative rho (up, down):  3.294E-04 0.000E+00

     negative rho (up, down):  3.294E-04 0.000E+00

     negative rho (up, down):  3.294E-04 0.000E+00

     negative rho (up, down):  3.294E-04 0.000E+00

     negative rho (up, down):  3.294E-04 0.000E+00

     negative rho (up, down):  3.294E-04 0.000E+00

     negative rho (up, down):  3.294E-04 0.000E+00

     negative rho (up, down):  3.294E-04 0.000E+00

     negative rho (up, down):  3.294E-04 0.000E+00

     negative rho (up, down):  3.294E-04 0.000E+00
 
     Adding external electric field

     Computed dipole along edir(3) : 
        Dipole                0.0011 Ry au,          0.0027 Debye
        Dipole field          0.0000 Ry au
 
        Potential amp.       -0.0002 Ry
        Total length         46.3028 bohr
 

     total cpu time spent up to now is      878.1 secs

     End of self-consistent calculation

          k = 0.0000 0.0000 0.0000 ( 23173 PWs)   bands (ev):

   -21.7551 -21.7276 -21.7241 -21.7224 -21.7152 -21.7129 -21.7094 -21.6971
   -21.6903 -21.6707 -21.6585 -21.6565 -21.6333 -21.6325 -21.6177 -21.6168
   -21.6119 -21.6115 -21.6092 -21.6085 -21.6070 -21.6062 -21.6054 -21.6051
   -21.5985 -21.5957 -21.5871 -21.5865 -21.5649 -21.5617  -9.4742  -8.1450
    -7.1614  -6.9578  -6.5417  -6.4400  -4.5079  -4.4211  -4.2116  -4.0921
    -4.0647  -4.0416  -3.9997  -3.9940  -3.9241  -3.8407  -3.7053  -3.6301
    -3.6002  -3.5926  -3.5363  -3.4593  -3.3149  -3.3120  -3.2977  -3.2012
    -3.1720  -3.1142  -3.0384  -3.0380  -3.0039  -2.7513  -2.7491  -2.5875
    -2.3193  -2.1941  -2.1834  -2.0197  -2.0156  -1.8283  -1.4570  -1.3803
    -1.3045  -1.1347  -0.5316  -0.4501  -0.3014   0.3053   0.9325   0.9400
     0.9606   1.2124   2.3676   2.4437   3.1353   3.5027   3.7291   3.9219
     4.3009   4.3026   4.5078   4.9534   5.0634   5.3046   5.3973   5.5037
     6.4077   7.0344   7.1426   7.2368   7.3609   7.4204   7.4641   7.8806
     7.8980

          k = 0.0000 0.0286 0.0000 ( 23178 PWs)   bands (ev):

   -21.7494 -21.7255 -21.7234 -21.7199 -21.7145 -21.7137 -21.7096 -21.6991
   -21.6921 -21.6756 -21.6529 -21.6510 -21.6315 -21.6306 -21.6153 -21.6144
   -21.6123 -21.6117 -21.6087 -21.6077 -21.6074 -21.6071 -21.6061 -21.6058
   -21.5995 -21.5962 -21.5887 -21.5882 -21.5701 -21.5671  -9.3461  -8.0324
    -7.1282  -7.0848  -6.6329  -6.4893  -4.4708  -4.4353  -4.2611  -4.2178
    -4.1736  -4.0291  -4.0155  -4.0114  -3.8398  -3.7985  -3.7732  -3.7049
    -3.6108  -3.5559  -3.4890  -3.4601  -3.4309  -3.3794  -3.3074  -3.2858
    -3.2801  -3.1582  -3.1457  -3.0590  -3.0442  -2.9504  -2.8513  -2.7860
    -2.7229  -2.5502  -2.1611  -1.8822  -1.7400  -1.6302  -1.4884  -1.2759
    -0.9819  -0.9196  -0.5741  -0.0728   0.2687   0.5625   0.6291   1.1952
     1.8211   2.1421   2.1862   2.2835   3.0843   3.2650   3.5839   3.8988
     4.0316   4.1364   4.4416   4.8130   5.1188   5.2400   5.4225   6.1747
     6.3466   6.6203   6.9187   7.0015   7.1789   7.3301   7.4209   7.6093
     7.7259

          k = 0.0000 0.0573 0.0000 ( 23145 PWs)   bands (ev):

   -21.7341 -21.7214 -21.7198 -21.7160 -21.7135 -21.7122 -21.7106 -21.7045
   -21.6971 -21.6895 -21.6384 -21.6368 -21.6264 -21.6256 -21.6148 -21.6137
   -21.6124 -21.6120 -21.6088 -21.6082 -21.6077 -21.6052 -21.6051 -21.6039
   -21.6010 -21.5975 -21.5935 -21.5930 -21.5836 -21.5813  -8.9710  -7.7141
    -7.6889  -6.8920  -6.8652  -6.5691  -4.4605  -4.4445  -4.3738  -4.3391
    -4.2700  -4.1952  -4.0621  -4.0230  -3.8282  -3.7925  -3.7341  -3.7163
    -3.6320  -3.5968  -3.5779  -3.5503  -3.5220  -3.5119  -3.4543  -3.3880
    -3.3650  -3.2791  -3.2485  -3.1574  -3.1500  -3.1324  -3.0741  -3.0091
    -2.6594  -2.6585  -2.3490  -2.1588  -1.8314  -1.7269  -1.3198  -0.5411
    -0.4224  -0.4133  -0.2156   0.3632   0.6876   1.1173   1.2749   1.5291
     2.0958   2.4328   2.4863   2.6117   3.1073   3.4588   3.5451   3.9279
     4.1864   4.2493   4.4019   4.8608   5.2671   5.3622   5.4975   5.7669
     6.0247   6.1708   6.4242   6.4368   6.8214   7.0269   7.0293   7.1631
     7.2896

          k = 0.0000-0.0859 0.0000 ( 23152 PWs)   bands (ev):

   -21.7195 -21.7195 -21.7156 -21.7156 -21.7121 -21.7121 -21.7067 -21.7067
   -21.7045 -21.7045 -21.6227 -21.6227 -21.6212 -21.6212 -21.6194 -21.6194
   -21.6186 -21.6186 -21.6062 -21.6062 -21.6014 -21.6014 -21.6007 -21.6007
   -21.6001 -21.6001 -21.5973 -21.5973 -21.5959 -21.5959  -8.3853  -8.3853
    -7.2681  -7.2681  -6.6914  -6.6914  -4.5285  -4.5285  -4.4299  -4.4299
    -4.1463  -4.1463  -4.0924  -4.0924  -3.8391  -3.8391  -3.7620  -3.7620
    -3.6936  -3.6936  -3.5685  -3.5685  -3.4866  -3.4866  -3.4389  -3.4389
    -3.3644  -3.3644  -3.3168  -3.3168  -3.2233  -3.2233  -3.0720  -3.0720
    -2.6406  -2.6406  -2.3409  -2.3409  -1.8424  -1.8424  -0.8770  -0.8770
     0.1450   0.1450   0.2761   0.2761   0.8742   0.8742   1.2407   1.2407
     2.8167   2.8167   2.8635   2.8635   3.0718   3.0718   4.0374   4.0375
     4.6738   4.6738   4.8025   4.8025   5.3807   5.3807   5.4912   5.4912
     5.6502   5.6502   6.0897   6.0897   6.4506   6.4506   6.6044   6.6044
     7.3149

          k = 0.0267-0.0103 0.0000 ( 23178 PWs)   bands (ev):

   -21.7494 -21.7255 -21.7234 -21.7199 -21.7145 -21.7137 -21.7096 -21.6991
   -21.6921 -21.6756 -21.6529 -21.6510 -21.6315 -21.6306 -21.6153 -21.6144
   -21.6123 -21.6117 -21.6087 -21.6077 -21.6074 -21.6071 -21.6061 -21.6058
[...]
    -7.3900  -7.0340  -6.8885  -6.7813  -4.4702  -4.3117  -4.2472  -4.2099
    -4.1770  -4.1022  -4.0992  -4.0667  -3.9591  -3.8554  -3.7776  -3.7773
    -3.6169  -3.5671  -3.5612  -3.4897  -3.4768  -3.4487  -3.4298  -3.4013
    -3.3969  -3.3898  -3.3393  -3.1874  -3.1749  -3.1701  -3.0842  -3.0608
    -3.0196  -2.6926  -2.4745  -1.8026  -1.2942  -1.1863  -1.1844  -1.0806
    -0.4677  -0.2614  -0.1759  -0.0702  -0.0180   0.3800   1.6175   1.7589
     1.8004   2.0351   2.3689   2.4817   2.8533   3.0667   3.1015   3.6476
     3.7863   4.1882   4.2535   4.6570   5.3331   5.6236   5.7543   5.9925
     6.4911   6.5817   6.8661   6.8862   7.1745   7.2854   7.2956   7.4243
     7.6449

          k = 0.0535-0.0205 0.0000 ( 23145 PWs)   bands (ev):

   -21.7287 -21.7159 -21.7151 -21.7104 -21.7101 -21.7080 -21.7048 -21.6995
   -21.6942 -21.6857 -21.6301 -21.6285 -21.6185 -21.6168 -21.6059 -21.6048
   -21.6045 -21.6035 -21.6031 -21.6006 -21.5993 -21.5987 -21.5966 -21.5961
   -21.5930 -21.5890 -21.5884 -21.5854 -21.5776 -21.5742  -9.0267  -7.7416
    -7.7273  -6.9164  -6.8827  -6.6124  -4.5131  -4.4932  -4.4270  -4.3742
    -4.3092  -4.2340  -4.0904  -4.0667  -3.8752  -3.8276  -3.7922  -3.7463
    -3.6613  -3.6199  -3.6193  -3.6002  -3.5367  -3.5353  -3.4841  -3.4212
    -3.4018  -3.3262  -3.3098  -3.2216  -3.1613  -3.1355  -3.1004  -3.0409
    -2.6787  -2.6786  -2.3520  -2.1414  -1.8415  -1.7346  -1.3182  -0.5172
    -0.4332  -0.3859  -0.1783   0.3653   0.6813   1.1240   1.3036   1.5329
     2.1143   2.4432   2.5079   2.6356   3.1476   3.4700   3.5686   3.9532
     4.2086   4.2836   4.4122   4.8637   5.2915   5.3769   5.5114   5.7651
     6.0470   6.1865   6.4360   6.4675   6.8309   7.0393   7.0516   7.1624
     7.2891

          k = 0.0535 0.0081 0.0000 ( 23118 PWs)   bands (ev):

   -21.7446 -21.7205 -21.7153 -21.7152 -21.7112 -21.7075 -21.7049 -21.6939
   -21.6885 -21.6698 -21.6446 -21.6418 -21.6240 -21.6216 -21.6085 -21.6055
   -21.6034 -21.6017 -21.6003 -21.5995 -21.5993 -21.5982 -21.5975 -21.5956
   -21.5924 -21.5903 -21.5829 -21.5799 -21.5634 -21.5608  -9.0771  -7.7738
    -7.4145  -7.1815  -6.6472  -6.0834  -4.9240  -4.8540  -4.6831  -4.5604
    -4.2741  -4.2211  -4.2128  -4.0286  -3.9516  -3.8915  -3.8877  -3.8459
    -3.7391  -3.7081  -3.6549  -3.5070  -3.5044  -3.4821  -3.4190  -3.4038
    -3.3379  -3.2412  -3.2198  -3.2067  -3.1387  -3.0848  -3.0385  -3.0115
    -2.9175  -2.5625  -2.4718  -2.3305  -2.1212  -1.6097  -1.3798  -1.0936
    -0.5967  -0.5216  -0.1392   0.6745   1.4111   1.5273   1.5966   2.1694
     2.1801   2.6451   2.7135   3.1063   3.1152   3.8501   4.0811   4.3169
     4.4137   4.5138   4.5269   4.7683   4.9635   5.1835   5.5591   5.7184
     5.9117   6.1034   6.2967   6.6293   6.8526   7.0137   7.0389   7.1124
     7.4058

          k = 0.0535 0.0367 0.0000 ( 23097 PWs)   bands (ev):

   -21.7505 -21.7223 -21.7161 -21.7143 -21.7127 -21.7062 -21.7051 -21.6918
   -21.6861 -21.6631 -21.6504 -21.6455 -21.6262 -21.6231 -21.6094 -21.6064
   -21.6028 -21.6004 -21.6004 -21.5995 -21.5980 -21.5977 -21.5962 -21.5957
   -21.5955 -21.5874 -21.5805 -21.5775 -21.5582 -21.5558  -8.8824  -7.6420
    -7.4181  -7.1924  -6.4843  -5.6282  -5.4011  -5.1111  -5.0242  -4.6768
    -4.3065  -4.2757  -4.2685  -4.2330  -4.0531  -3.9974  -3.9602  -3.7972
    -3.7934  -3.7906  -3.7737  -3.6740  -3.5770  -3.5490  -3.4527  -3.3950
    -3.3546  -3.3543  -3.3392  -3.2447  -3.1576  -3.1458  -3.0113  -2.9812
    -2.8661  -2.7295  -2.5561  -2.3665  -2.3459  -1.8775  -1.6035  -0.3734
    -0.0935  -0.0110   0.2684   0.6843   1.5977   1.7688   2.3416   2.4063
     2.4645   3.3121   3.5657   3.5989   3.6317   4.0650   4.1998   4.2272
     4.5741   4.6444   4.9308   5.0445   5.2333   5.2792   5.5267   5.5456
     5.7838   5.9007   6.0865   6.3601   6.3625   6.5978   6.7719   6.8184
     7.1157

          k = 0.0535-0.1064 0.0000 ( 23121 PWs)   bands (ev):

   -21.7448 -21.7202 -21.7144 -21.7134 -21.7126 -21.7058 -21.7050 -21.6939
   -21.6881 -21.6681 -21.6451 -21.6390 -21.6244 -21.6212 -21.6070 -21.6039
   -21.6032 -21.6005 -21.6003 -21.5998 -21.5995 -21.5976 -21.5975 -21.5971
   -21.5967 -21.5855 -21.5823 -21.5794 -21.5641 -21.5613  -8.4712  -7.7059
    -7.5677  -7.3555  -6.6340  -5.6072  -5.3047  -5.1554  -4.9632  -4.7830
    -4.4218  -4.2624  -4.2410  -4.2036  -4.1214  -4.0253  -3.9822  -3.8977
    -3.8655  -3.8470  -3.7959  -3.7480  -3.6443  -3.5755  -3.5575  -3.3920
    -3.3594  -3.3581  -3.3226  -3.2584  -3.1822  -3.1367  -3.0544  -3.0227
    -2.9339  -2.7631  -2.6387  -2.2506  -2.2203  -1.8215  -1.7514  -0.6312
     0.1078   0.5551   0.8111   1.4658   1.5625   1.7858   2.1995   2.7495
     3.1892   3.2432   3.3167   3.4516   4.0162   4.1278   4.2570   4.3461
     4.5082   4.6065   4.8276   4.9114   4.9148   5.4094   5.5371   5.7164
     5.8817   5.9372   5.9822   6.1644   6.3381   6.3973   6.5403   6.6277
     6.6967

          k = 0.0535-0.0778 0.0000 ( 23171 PWs)   bands (ev):

   -21.7293 -21.7156 -21.7146 -21.7108 -21.7081 -21.7069 -21.7043 -21.6996
   -21.6942 -21.6839 -21.6307 -21.6252 -21.6191 -21.6164 -21.6057 -21.6046
   -21.6031 -21.6030 -21.6018 -21.6002 -21.5988 -21.5984 -21.5981 -21.5960
   -21.5953 -21.5882 -21.5853 -21.5852 -21.5785 -21.5754  -8.2086  -7.9891
    -7.7839  -7.1526  -7.0598  -6.0648  -5.1715  -4.6881  -4.6879  -4.5998
    -4.3832  -4.1852  -4.1171  -4.0410  -3.9809  -3.9322  -3.8919  -3.8862
    -3.8757  -3.8584  -3.8426  -3.6394  -3.6083  -3.5424  -3.5206  -3.3914
    -3.3629  -3.3543  -3.3212  -3.2850  -3.2699  -3.2396  -3.1656  -3.1576
    -2.9770  -2.7308  -2.6764  -2.1130  -1.8414  -1.7887  -1.4397  -1.0225
     0.5228   0.5716   0.7267   1.3453   1.4795   1.5780   1.8645   2.1818
     2.2480   2.3256   3.0087   3.2409   3.2710   3.8768   4.4591   4.5588
     4.6671   4.7966   4.8031   5.0792   5.3390   5.4720   5.4898   5.5876
     5.6008   5.6897   5.8701   6.1706   6.3187   6.4517   6.6795   6.8746
     6.9566

          k = 0.0535-0.0492 0.0000 ( 23169 PWs)   bands (ev):

   -21.7163 -21.7107 -21.7091 -21.7082 -21.7074 -21.7071 -21.7048 -21.7033
   -21.7022 -21.7012 -21.6141 -21.6140 -21.6120 -21.6120 -21.6115 -21.6108
   -21.6097 -21.6097 -21.5990 -21.5988 -21.5962 -21.5954 -21.5950 -21.5932
   -21.5932 -21.5924 -21.5918 -21.5898 -21.5887 -21.5862  -8.7288  -7.9239
    -7.4755  -7.2425  -7.0068  -6.5516  -4.7644  -4.5005  -4.4151  -4.2870
    -4.2328  -4.2086  -4.1060  -3.9825  -3.9601  -3.8265  -3.8171  -3.7425
    -3.7248  -3.7101  -3.6945  -3.6122  -3.5896  -3.5118  -3.4467  -3.4367
    -3.4230  -3.3976  -3.3714  -3.3373  -3.2745  -3.2321  -3.2208  -3.1144
    -3.0159  -2.6434  -2.5649  -2.0829  -1.5943  -1.3555  -1.1940  -0.9935
     0.0173   0.2226   0.4567   0.6799   0.7347   1.2032   1.4981   1.5026
     1.9747   2.2785   2.4410   2.7511   3.2304   3.5120   3.5688   3.8836
     4.3534   4.6734   4.7420   5.0343   5.3118   5.4090   5.4740   5.9161
     6.0394   6.0399   6.2284   6.3083   6.3371   6.8158   6.8654   7.0887
     7.1186

          k =-0.0802 0.0308 0.0000 ( 23152 PWs)   bands (ev):

   -21.7134 -21.7134 -21.7087 -21.7087 -21.7072 -21.7072 -21.7044 -21.7044
   -21.7016 -21.7016 -21.6136 -21.6136 -21.6124 -21.6124 -21.6113 -21.6113
   -21.6098 -21.6098 -21.5978 -21.5978 -21.5960 -21.5960 -21.5939 -21.5939
   -21.5929 -21.5929 -21.5906 -21.5906 -21.5883 -21.5883  -8.4399  -8.4398
    -7.2818  -7.2817  -6.7276  -6.7276  -4.5778  -4.5778  -4.4699  -4.4699
    -4.1984  -4.1983  -4.1190  -4.1190  -3.8789  -3.8789  -3.7952  -3.7952
    -3.7130  -3.7129  -3.6181  -3.6181  -3.5208  -3.5208  -3.4760  -3.4760
    -3.4199  -3.4199  -3.3509  -3.3509  -3.2376  -3.2376  -3.1036  -3.1036
    -2.6590  -2.6590  -2.3317  -2.3317  -1.8484  -1.8483  -0.8535  -0.8535
     0.1543   0.1544   0.2809   0.2809   0.8968   0.8970   1.2556   1.2556
     2.8068   2.8069   2.8893   2.8894   3.1055   3.1055   4.0478   4.0479
     4.6802   4.6802   4.8204   4.8204   5.3876   5.3877   5.4977   5.4977
     5.6326   5.6327   6.0990   6.0991   6.4459   6.4460   6.6596   6.6596
     7.3377

          k =-0.0802 0.0594 0.0000 ( 23185 PWs)   bands (ev):

   -21.7291 -21.7148 -21.7138 -21.7125 -21.7091 -21.7060 -21.7056 -21.6996
   -21.6942 -21.6845 -21.6304 -21.6268 -21.6189 -21.6166 -21.6058 -21.6045
   -21.6039 -21.6031 -21.6023 -21.5994 -21.5989 -21.5981 -21.5974 -21.5959
   -21.5942 -21.5886 -21.5882 -21.5853 -21.5777 -21.5751  -8.5704  -8.0836
    -7.4133  -7.1873  -6.9990  -6.2144  -4.8607  -4.7253  -4.7098  -4.4965
    -4.3368  -4.2368  -4.1769  -3.9759  -3.9512  -3.9310  -3.8966  -3.8796
    -3.8071  -3.7106  -3.6922  -3.6079  -3.5966  -3.5518  -3.4617  -3.3984
    -3.3756  -3.3105  -3.3013  -3.2507  -3.2205  -3.1882  -3.1605  -3.0723
    -3.0053  -2.5900  -2.5589  -2.2815  -1.7557  -1.5784  -1.3168  -1.3128
    -0.1293   0.0752   0.4717   0.9361   1.1305   1.5175   2.1322   2.2963
     2.3933   2.5227   2.7761   3.2699   3.3861   3.4991   3.6583   4.2148
     4.6427   4.6902   4.7980   4.8765   5.0241   5.3945   5.5599   5.6328
     5.9893   6.0682   6.0940   6.2963   6.4002   6.4622   6.6276   6.8013
     6.9623

          k =-0.0802 0.0881 0.0000 ( 23121 PWs)   bands (ev):

   -21.7448 -21.7202 -21.7144 -21.7134 -21.7126 -21.7058 -21.7050 -21.6939
   -21.6881 -21.6681 -21.6451 -21.6390 -21.6244 -21.6212 -21.6070 -21.6039
   -21.6032 -21.6005 -21.6003 -21.5998 -21.5995 -21.5976 -21.5975 -21.5971
   -21.5967 -21.5855 -21.5823 -21.5794 -21.5641 -21.5613  -8.4712  -7.7059
    -7.5677  -7.3555  -6.6340  -5.6072  -5.3047  -5.1554  -4.9632  -4.7830
    -4.4218  -4.2624  -4.2410  -4.2036  -4.1214  -4.0253  -3.9822  -3.8977
    -3.8655  -3.8470  -3.7959  -3.7480  -3.6443  -3.5755  -3.5575  -3.3920
    -3.3594  -3.3581  -3.3226  -3.2584  -3.1822  -3.1367  -3.0544  -3.0228
    -2.9339  -2.7631  -2.6387  -2.2506  -2.2203  -1.8215  -1.7514  -0.6312
     0.1078   0.5551   0.8112   1.4658   1.5625   1.7858   2.1995   2.7495
     3.1892   3.2433   3.3167   3.4516   4.0163   4.1277   4.2570   4.3461
     4.5081   4.6065   4.8276   4.9114   4.9148   5.4094   5.5371   5.7164
     5.8817   5.9372   5.9822   6.1644   6.3381   6.3973   6.5403   6.6277
     6.6966

          k =-0.0802-0.0551 0.0000 ( 23102 PWs)   bands (ev):

   -21.7505 -21.7222 -21.7149 -21.7147 -21.7128 -21.7056 -21.7047 -21.6918
   -21.6857 -21.6620 -21.6506 -21.6435 -21.6265 -21.6230 -21.6085 -21.6054
   -21.6027 -21.6010 -21.6002 -21.5997 -21.5978 -21.5978 -21.5975 -21.5973
   -21.5955 -21.5845 -21.5800 -21.5771 -21.5589 -21.5559  -8.2346  -8.0751
    -7.3203  -7.2238  -6.4361  -5.5896  -5.5177  -5.0048  -4.9681  -4.8614
    -4.7823  -4.4424  -4.3470  -4.2214  -4.2114  -4.0558  -4.0307  -4.0189
    -3.9128  -3.8358  -3.8271  -3.8125  -3.6867  -3.6138  -3.5968  -3.4594
    -3.3865  -3.3380  -3.3237  -3.2528  -3.1403  -3.1085  -3.0095  -2.9880
    -2.8665  -2.8049  -2.6554  -2.3460  -2.1996  -2.0106  -1.8614  -0.1958
     0.2136   0.7062   1.1165   1.3217   1.7722   2.3581   2.8272   2.8812
     2.9451   3.1393   3.3207   3.3879   4.1120   4.1929   4.6241   4.6616
     4.8854   4.9954   5.0059   5.1352   5.3284   5.4876   5.6497   5.7388
     5.7848   5.8482   5.8989   5.9520   6.2502   6.4361   6.6114   6.6558
     6.6833

     the Fermi energy is     0.3781 ev

!    total energy              =   -1664.49185867 Ry
     Harris-Foulkes estimate   =   -1664.49185783 Ry
     estimated scf accuracy    <       0.00000048 Ry

     The total energy is the sum of the following terms:

     one-electron contribution =   -8961.66187465 Ry
     hartree contribution      =    4558.73117707 Ry
     xc contribution           =    -650.72955157 Ry
     ewald contribution        =    3389.20096285 Ry
     electric field correction =       0.00000036 Ry
     smearing contrib. (-TS)   =      -0.03257272 Ry

     convergence has been achieved in  15 iterations
 
 BEEF-vdW xc energy contributions
           1 :   -577.689377060513     
           2 :    533.542388036109     
           3 :   -456.483787750926     
           4 :    364.412479050639     
           5 :   -275.384225755279     
           6 :    202.030708295867     
           7 :   -148.985452380343     
           8 :    113.805314316690     
           9 :   -90.3757885515628     
          10 :    72.8065599479556     
          11 :   -57.9452241522122     
          12 :    45.6288104041948     
          13 :   -37.1440091893995     
          14 :    33.2155653595158     
          15 :   -32.8534435920017     
          16 :    33.6186225842300     
          17 :   -32.9328846774127     
          18 :    29.4709941175039     
          19 :   -23.7596342214973     
          20 :    17.6832980496341     
          21 :   -13.2936583996576     
          22 :    11.6790262742408     
          23 :   -12.5315752247575     
          24 :    14.5521645023279     
          25 :   -16.3304160995358     
          26 :    17.1079087325946     
          27 :   -17.0011605267840     
          28 :    16.6522758956944     
          29 :   -16.6345363385334     
          30 :    17.0344731019086     
          31 :   -47.5444929606379     
          32 :   -34.5651858348008     

     Forces acting on atoms (Ry/au):


     negative rho (up, down):  3.348E-04 0.000E+00
     atom    1 type  1   force =    -0.00140847   -0.00096547    0.00139033
     atom    2 type  1   force =    -0.00140562   -0.00096566    0.00139329
     atom    3 type  2   force =     0.00004348    0.00002672    0.00362523
     atom    4 type  2   force =     0.00004148    0.00002890    0.00362507
     atom    5 type  1   force =     0.00098510    0.00067877   -0.00397834
     atom    6 type  1   force =     0.00098819    0.00067594   -0.00397606
     atom    7 type  2   force =    -0.00034126   -0.00023485   -0.00193782
     atom    8 type  2   force =    -0.00034206   -0.00023666   -0.00194193
     atom    9 type  1   force =    -0.00004739   -0.00002876    0.00091797
     atom   10 type  1   force =    -0.00004005   -0.00002856    0.00091587
     atom   11 type  2   force =     0.00076488    0.00052322   -0.00001584
     atom   12 type  2   force =     0.00076173    0.00052641   -0.00001778

     Total force =     0.009042     Total SCF correction =     0.001506
     SCF correction compared to forces is large: reduce conv_thr to get better values


     entering subroutine stress ...


     negative rho (up, down):  3.348E-04 0.000E+00
          total   stress  (Ry/bohr**3)                   (kbar)     P=   -9.12
  -0.00009042  -0.00000615   0.00000317        -13.30     -0.91      0.47
  -0.00000615  -0.00008570   0.00000218         -0.91    -12.61      0.32
   0.00000317   0.00000218  -0.00000992          0.47      0.32     -1.46

 !ASE

     Writing output data file calc.save
 
     init_run     :     10.77s CPU     20.33s WALL (       1 calls)
     electrons    :    448.22s CPU    845.35s WALL (       1 calls)
     forces       :      4.49s CPU      6.19s WALL (       1 calls)
     stress       :     13.44s CPU     17.09s WALL (       1 calls)

     Called by init_run:
     wfcinit      :      7.35s CPU     14.98s WALL (       1 calls)
     potinit      :      1.68s CPU      3.30s WALL (       1 calls)

     Called by electrons:
     c_bands      :    311.81s CPU    582.44s WALL (      15 calls)
     sum_band     :     60.63s CPU    115.83s WALL (      15 calls)
     v_of_rho     :     21.70s CPU     44.54s WALL (      16 calls)
     newd         :     10.92s CPU     11.84s WALL (      16 calls)
     mix_rho      :      0.69s CPU      1.46s WALL (      15 calls)
     vdW_energy   :      3.51s CPU      3.98s WALL (      52 calls)
     vdW_ffts     :     43.05s CPU     94.56s WALL (     106 calls)
     vdW_v        :      7.46s CPU     15.07s WALL (      52 calls)

     Called by c_bands:
     init_us_2    :      1.15s CPU      1.23s WALL (     660 calls)
     cegterg      :    302.47s CPU    570.61s WALL (     300 calls)

     Called by *egterg:
     h_psi        :    229.85s CPU    482.27s WALL (    1279 calls)
     s_psi        :      7.07s CPU      7.22s WALL (    1279 calls)
     g_psi        :      0.56s CPU      0.54s WALL (     959 calls)
     cdiaghg      :     38.42s CPU     40.92s WALL (    1259 calls)

     Called by h_psi:
     add_vuspsi   :      7.33s CPU      7.36s WALL (    1279 calls)

     General routines
     calbec       :     15.46s CPU     21.16s WALL (    1619 calls)
     fft          :     64.38s CPU    141.47s WALL (    3159 calls)
     ffts         :      0.12s CPU      0.34s WALL (      31 calls)
     fftw         :    248.55s CPU    548.39s WALL (  182690 calls)
     interpolate  :      0.74s CPU      1.73s WALL (      31 calls)
     davcio       :      0.00s CPU      0.08s WALL (      20 calls)
 
     Parallel routines
     fft_scatter  :    289.74s CPU    662.94s WALL (  185880 calls)
 
     PWSCF        :  7m57.56s CPU    14m50.45s WALL

 
   This run was terminated on:   6:51:17  19Dec2018            

=------------------------------------------------------------------------------=
   JOB DONE.
=------------------------------------------------------------------------------=
Job  /afs/slac/g/suncat/bin/suncat-tsmpirun -x LD_LIBRARY_PATH -wdir /scratch/qe530599_P3yX5 pw.x -in pw.inp

TID   HOST_NAME   COMMAND_LINE            STATUS            TERMINATION_TIME
===== ========== ================  =======================  ===================
00000 suncat2071 pw.x -in pw.inp   Done                     12/19/2018 06:51:17
00001 suncat2071 pw.x -in pw.inp   Done                     12/19/2018 06:51:17
00002 suncat2071 pw.x -in pw.inp   Done                     12/19/2018 06:51:17
00003 suncat2071 pw.x -in pw.inp   Done                     12/19/2018 06:51:17
00004 suncat2071 pw.x -in pw.inp   Done                     12/19/2018 06:51:17
00005 suncat2071 pw.x -in pw.inp   Done                     12/19/2018 06:51:17
00006 suncat2071 pw.x -in pw.inp   Done                     12/19/2018 06:51:17
00007 suncat2071 pw.x -in pw.inp   Done                     12/19/2018 06:51:17
00008 suncat2071 pw.x -in pw.inp   Done                     12/19/2018 06:51:17
00009 suncat2071 pw.x -in pw.inp   Done                     12/19/2018 06:51:17
00010 suncat2071 pw.x -in pw.inp   Done                     12/19/2018 06:51:17
00011 suncat2071 pw.x -in pw.inp   Done                     12/19/2018 06:51:17
00012 suncat2071 pw.x -in pw.inp   Done                     12/19/2018 06:51:17
00013 suncat2071 pw.x -in pw.inp   Done                     12/19/2018 06:51:17
00014 suncat2071 pw.x -in pw.inp   Done                     12/19/2018 06:51:17
00015 suncat2071 pw.x -in pw.inp   Done                     12/19/2018 06:51:17
00016 suncat2070 pw.x -in pw.inp   Done                     12/19/2018 06:51:17
00017 suncat2070 pw.x -in pw.inp   Done                     12/19/2018 06:51:17
00018 suncat2070 pw.x -in pw.inp   Done                     12/19/2018 06:51:17
00019 suncat2070 pw.x -in pw.inp   Done                     12/19/2018 06:51:17
00020 suncat2070 pw.x -in pw.inp   Done                     12/19/2018 06:51:17
00021 suncat2070 pw.x -in pw.inp   Done                     12/19/2018 06:51:17
00022 suncat2070 pw.x -in pw.inp   Done                     12/19/2018 06:51:17
00023 suncat2070 pw.x -in pw.inp   Done                     12/19/2018 06:51:17
00024 suncat2070 pw.x -in pw.inp   Done                     12/19/2018 06:51:17
00025 suncat2070 pw.x -in pw.inp   Done                     12/19/2018 06:51:17
00026 suncat2070 pw.x -in pw.inp   Done                     12/19/2018 06:51:17
00027 suncat2070 pw.x -in pw.inp   Done                     12/19/2018 06:51:17
00028 suncat2070 pw.x -in pw.inp   Done                     12/19/2018 06:51:17
00029 suncat2070 pw.x -in pw.inp   Done                     12/19/2018 06:51:17
00030 suncat2070 pw.x -in pw.inp   Done                     12/19/2018 06:51:17
00031 suncat2070 pw.x -in pw.inp   Done                     12/19/2018 06:51:17
