  python dir          : /u/if/mamunm/src/espresso
  espresso dir        : /nfs/slac/g/suncatfs/sw/espv18/espresso-dynpy-beef/bin
  pseudo dir          : /afs/slac.stanford.edu/u/if/mamunm/psp/gbrv1.5pbe
  ase-espresso py git : GITVERSION



     Program PWSCF v.5.1rc2 (svn rev. 11289) starts on 25Dec2018 at  7: 8:39 

     This program is part of the open-source Quantum ESPRESSO suite
     for quantum simulation of materials; please cite
         "P. Giannozzi et al., J. Phys.:Condens. Matter 21 395502 (2009);
          URL http://www.quantum-espresso.org", 
     in publications or presentations arising from this work. More details at
     http://www.quantum-espresso.org/quote

     Parallel version (MPI), running on    64 processors
     R & G space division:  proc/nbgrp/npool/nimage =      64
     Reading input from pw.inp
     Message from routine read_cards :
     DEPRECATED: no units specified in CELL_PARAMETERS card

     Current dimensions of program PWSCF are:
     Max number of different atomic species (ntypx) = 10
     Max number of k-points (npk) =  40000
     Max angular momentum in pseudopotentials (lmaxx) =  3
     Presently stress not available with electric field


     **************************************************************************
     Initializing libbeef V0.1.1 with the BEEF-vdW functional.
     Citation: Wellendorff et al., PRB 85, 235149 (2012).
     **************************************************************************


     IMPORTANT: XC functional enforced from input :
     Exchange-correlation      = BEEF-VDW ( 1  4 27 13 2)
     Any further DFT definition will be discarded
     Please, verify this is what you really want


     Subspace diagonalization in iterative solution of the eigenvalue problem:
     a serial algorithm will be used

     Found symmetry operation: I + (  0.5000 -0.5000  0.0000)
     This is a supercell, fractional translations are disabled
 
     Parallelization info
     --------------------
     sticks:   dense  smooth     PW     G-vecs:    dense   smooth      PW
     Min          56      22      6                10934     2752     418
     Max          57      23      7                10959     2783     435
     Sum        3631    1445    421               700577   176835   27375
 


     bravais-lattice index     =            0
     lattice parameter (alat)  =       1.8897  a.u.
     unit-cell volume          =    5886.8069 (a.u.)^3
     number of atoms/cell      =           12
     number of atomic types    =            2
     number of electrons       =       150.00
     number of Kohn-Sham states=          105
     kinetic-energy cutoff     =      36.7493  Ry
     charge density cutoff     =     367.4932  Ry
     convergence threshold     =      1.0E-06
     mixing beta               =       0.1000
     number of iterations used =           10  plain     mixing
     Exchange-correlation      = BEEF-VDW ( 1  4 27 13 2)
     nstep                     =           50


     celldm(1)=   1.889726  celldm(2)=   0.000000  celldm(3)=   0.000000
     celldm(4)=   0.000000  celldm(5)=   0.000000  celldm(6)=   0.000000

     crystal axes: (cart. coord. in units of alat)
               a(1) = (   6.319448   0.000000   0.000000 )  
               a(2) = (   3.138058   5.485255   0.000000 )  
               a(3) = (   0.000000   0.000000  25.165594 )  

     reciprocal axes: (cart. coord. in units 2 pi/alat)
               b(1) = (  0.158242 -0.090528  0.000000 )  
               b(2) = (  0.000000  0.182307  0.000000 )  
               b(3) = (  0.000000  0.000000  0.039737 )  


     PseudoPot. # 1 for Zr read from file:
     /afs/slac.stanford.edu/u/if/mamunm/psp/gbrv1.5pbe/Zr.UPF
     MD5 check sum: 5db81b1e868ab7776c4564c113de050b
     Pseudo is Ultrasoft + core correction, Zval = 12.0
     Generated by new atomic code, or converted to UPF format
     Using radial grid of  887 points,  6 beta functions with: 
                l(1) =   0
                l(2) =   0
                l(3) =   1
                l(4) =   1
                l(5) =   2
                l(6) =   2
     Q(r) pseudized with  6 coefficients,  rinner =    1.200   1.200   1.200
                                                       1.200   1.200

     PseudoPot. # 2 for In read from file:
     /afs/slac.stanford.edu/u/if/mamunm/psp/gbrv1.5pbe/In.UPF
     MD5 check sum: 90777abd96fbb83f2e67db2a40c566b9
     Pseudo is Ultrasoft + core correction, Zval = 13.0
     Generated by new atomic code, or converted to UPF format
     Using radial grid of  889 points,  6 beta functions with: 
                l(1) =   0
                l(2) =   0
                l(3) =   1
                l(4) =   1
                l(5) =   2
                l(6) =   2
     Q(r) pseudized with  6 coefficients,  rinner =    1.400   1.400   1.400
                                                       1.400   1.400

     vdW kernel table read from file vdW_kernel_table
     MD5 check sum: 095c7af220d748ca6e76c0b4c6cfb241

     atomic species   valence    mass     pseudopotential
        Zr1           12.00    91.22400     Zr( 1.00)
        In1           13.00   114.81800     In( 1.00)

     No symmetry found



   Cartesian axes

     site n.     atom                  positions (alat units)
         1           Zr1 tau(   1) = (   0.0000000   0.0000000  10.0000000  )
         2           Zr1 tau(   2) = (   4.7287530   2.7426276  10.0000000  )
         3           In1 tau(   3) = (   3.1597242   0.0000000  10.0000000  )
         4           In1 tau(   4) = (   1.5690288   2.7426276  10.0000000  )
         5           Zr1 tau(   5) = (   6.3194485   3.6652144  12.5827968  )
         6           Zr1 tau(   6) = (   1.5906955   0.9225868  12.5827968  )
         7           In1 tau(   7) = (   3.1597242   3.6652144  12.5827968  )
         8           In1 tau(   8) = (   4.7504197   0.9225868  12.5827968  )
         9           Zr1 tau(   9) = (   3.1813910   1.8451737  15.1655937  )
        10           Zr1 tau(  10) = (   7.9101440   4.5878013  15.1655937  )
        11           In1 tau(  11) = (   6.3411152   1.8451737  15.1655937  )
        12           In1 tau(  12) = (   4.7504197   4.5878013  15.1655937  )

     number of k points=    20  Fermi-Dirac smearing, width (Ry)=  0.0110
                       cart. coord. in units 2pi/alat
        k(    1) = (   0.0000000   0.0000000   0.0000000), wk =   0.0555556
        k(    2) = (   0.0000000   0.0303845   0.0000000), wk =   0.1111111
        k(    3) = (   0.0000000   0.0607690   0.0000000), wk =   0.1111111
        k(    4) = (   0.0000000  -0.0911535   0.0000000), wk =   0.0555556
        k(    5) = (   0.0263736  -0.0150881   0.0000000), wk =   0.1111111
        k(    6) = (   0.0263736   0.0152964   0.0000000), wk =   0.1111111
        k(    7) = (   0.0263736   0.0456809   0.0000000), wk =   0.1111111
        k(    8) = (   0.0263736  -0.1062415   0.0000000), wk =   0.1111111
        k(    9) = (   0.0263736  -0.0758570   0.0000000), wk =   0.1111111
        k(   10) = (   0.0263736  -0.0454726   0.0000000), wk =   0.1111111
        k(   11) = (   0.0527472  -0.0301761   0.0000000), wk =   0.1111111
        k(   12) = (   0.0527472   0.0002084   0.0000000), wk =   0.1111111
        k(   13) = (   0.0527472   0.0305928   0.0000000), wk =   0.1111111
        k(   14) = (   0.0527472  -0.1213296   0.0000000), wk =   0.1111111
        k(   15) = (   0.0527472  -0.0909451   0.0000000), wk =   0.1111111
        k(   16) = (   0.0527472  -0.0605606   0.0000000), wk =   0.1111111
        k(   17) = (  -0.0791208   0.0452642   0.0000000), wk =   0.0555556
        k(   18) = (  -0.0791208   0.0756487   0.0000000), wk =   0.1111111
        k(   19) = (  -0.0791208   0.1060332   0.0000000), wk =   0.1111111
        k(   20) = (  -0.0791208  -0.0458893   0.0000000), wk =   0.0555556

     Dense  grid:   700577 G-vectors     FFT dimensions: (  75,  75, 300)

     Smooth grid:   176835 G-vectors     FFT dimensions: (  48,  48, 192)

     Largest allocated arrays     est. size (Mb)     dimensions
        Kohn-Sham Wavefunctions         0.59 Mb     (     371,  105)
        NL pseudopotentials             1.22 Mb     (     371,  216)
        Each V/rho on FFT grid          0.43 Mb     (   28125)
        Each G-vector array             0.08 Mb     (   10955)
        G-vector shells                 0.04 Mb     (    5137)
     Largest temporary arrays     est. size (Mb)     dimensions
        Auxiliary wavefunctions         2.38 Mb     (     371,  420)
        Each subspace H/S matrix        2.69 Mb     (     420,  420)
        Each <psi_i|beta_j> matrix      0.35 Mb     (     216,  105)
        Arrays for rho mixing           4.29 Mb     (   28125,   10)

     Initial potential from superposition of free atoms
     Check: negative starting charge=   -0.368331

     starting charge  140.98710, renormalised to  150.00000

     negative rho (up, down):  3.919E-01 0.000E+00


     ************************************************************************
     *
     * You are using vdW-DF for exchange-correlation in this calculation.
     * Please cite the following three references that made this development
     * possible:
     *
     *   M. Dion, H. Rydberg, E. Schroder, D. C. Langreth, and
     *   B. I. Lundqvist, Phys. Rev. Lett. 92, 246401 (2004).
     *
     *   T. Thonhauser, V. R. Cooper, S. Li, A. Puzder, P. Hyldgaard, and
     *   D. C. Langreth, Phys. Rev. B 76, 125112 (2007).
     *
     *   G. Roman-Perez and J. M. Soler, Phys. Rev. Lett. 103, 096102 (2009).
     *
     *
     * If you are using vdW-DF2, please also cite:
     *
     *   K. Lee, E. D. Murray, L. Kong, B. I. Lundqvist, and
     *   D. C. Langreth, Phys. Rev. B 82, 081101(R) (2010).
     *
     *
     * If you are calculating the stress with vdW-DF, please also cite:
     *
     *   R. Sabatini, E. Kucukbenli, B. Kolb, T. Thonhauser, and
     *   S. de Gironcoli, J. Phys.: Condens. Matter 24, 424209 (2012).
     *
     ************************************************************************

     Carrying out vdW-DF run using the following parameters:

     Nqs =      20    Nr_points =    1024   r_max =   100.000
     q_mesh =
               0.00001000     0.04494208     0.09755937     0.15916263
               0.23128650     0.31572767     0.41458969     0.53033537
               0.66584808     0.82450364     1.01025438     1.22772762
               1.48234092     1.78043706     2.12944203     2.53805004
               3.01644009     3.57652955     4.23227104     5.00000000

     Gradients computed in reciprocal space

     ************************************************************************


 
     Adding external electric field

     Computed dipole along edir(3) : 
        Dipole               -0.0000 Ry au,         -0.0000 Debye
        Dipole field         -0.0000 Ry au
 
        Potential amp.        0.0000 Ry
        Total length         46.3672 bohr
 
     Starting wfc are  132 randomized atomic wfcs

     total cpu time spent up to now is       31.0 secs

     per-process dynamical memory:    42.4 Mb

     Self-consistent Calculation

     iteration #  1     ecut=    36.75 Ry     beta=0.10
     Davidson diagonalization with overlap
     ethr =  1.00E-02,  avg # of iterations =  5.0

     negative rho (up, down):  3.885E-01 0.000E+00
 
     Adding external electric field

     Computed dipole along edir(3) : 
        Dipole               -0.0000 Ry au,         -0.0001 Debye
        Dipole field         -0.0000 Ry au
 
        Potential amp.        0.0000 Ry
        Total length         46.3672 bohr
 

     total cpu time spent up to now is      121.7 secs

     total energy              =   -1408.89394356 Ry
     Harris-Foulkes estimate   =   -1410.11145452 Ry
     estimated scf accuracy    <       7.77134739 Ry

     iteration #  2     ecut=    36.75 Ry     beta=0.10
     Davidson diagonalization with overlap
     ethr =  5.18E-03,  avg # of iterations =  1.0

     negative rho (up, down):  3.802E-01 0.000E+00
 
     Adding external electric field

     Computed dipole along edir(3) : 
        Dipole               -0.0005 Ry au,         -0.0012 Debye
        Dipole field         -0.0000 Ry au
 
        Potential amp.        0.0001 Ry
        Total length         46.3672 bohr
 

     total cpu time spent up to now is      171.6 secs

     total energy              =   -1406.90026746 Ry
     Harris-Foulkes estimate   =   -1408.99171090 Ry
     estimated scf accuracy    <       4.70572307 Ry

     iteration #  3     ecut=    36.75 Ry     beta=0.10
     Davidson diagonalization with overlap
     ethr =  3.14E-03,  avg # of iterations =  2.0

     negative rho (up, down):  3.773E-01 0.000E+00
 
     Adding external electric field

     Computed dipole along edir(3) : 
        Dipole                0.0024 Ry au,          0.0062 Debye
        Dipole field          0.0000 Ry au
 
        Potential amp.       -0.0005 Ry
        Total length         46.3672 bohr
 

     total cpu time spent up to now is      235.4 secs

     total energy              =   -1407.22499452 Ry
     Harris-Foulkes estimate   =   -1407.42721275 Ry
     estimated scf accuracy    <       0.55993276 Ry

     iteration #  4     ecut=    36.75 Ry     beta=0.10
     Davidson diagonalization with overlap
     ethr =  3.73E-04,  avg # of iterations =  5.4

     negative rho (up, down):  3.761E-01 0.000E+00
 
     Adding external electric field

     Computed dipole along edir(3) : 
        Dipole               -0.0374 Ry au,         -0.0950 Debye
        Dipole field         -0.0001 Ry au
 
        Potential amp.        0.0074 Ry
        Total length         46.3672 bohr
 

     total cpu time spent up to now is      312.5 secs

     total energy              =   -1407.23941827 Ry
     Harris-Foulkes estimate   =   -1407.28950017 Ry
     estimated scf accuracy    <       0.17749487 Ry

     iteration #  5     ecut=    36.75 Ry     beta=0.10
     Davidson diagonalization with overlap
     ethr =  1.18E-04,  avg # of iterations =  3.3

     negative rho (up, down):  3.755E-01 0.000E+00
 
     Adding external electric field

     Computed dipole along edir(3) : 
        Dipole                0.0893 Ry au,          0.2269 Debye
        Dipole field          0.0002 Ry au
 
        Potential amp.       -0.0177 Ry
        Total length         46.3672 bohr
 

     total cpu time spent up to now is      377.8 secs

     total energy              =   -1407.24975003 Ry
     Harris-Foulkes estimate   =   -1407.26108712 Ry
     estimated scf accuracy    <       0.13274209 Ry

     iteration #  6     ecut=    36.75 Ry     beta=0.10
     Davidson diagonalization with overlap
     ethr =  8.85E-05,  avg # of iterations =  3.6

     negative rho (up, down):  3.751E-01 0.000E+00
 
     Adding external electric field

     Computed dipole along edir(3) : 
        Dipole               -0.0064 Ry au,         -0.0162 Debye
        Dipole field         -0.0000 Ry au
 
        Potential amp.        0.0013 Ry
        Total length         46.3672 bohr
 

     total cpu time spent up to now is      443.1 secs

     total energy              =   -1407.24861136 Ry
     Harris-Foulkes estimate   =   -1407.25979562 Ry
     estimated scf accuracy    <       0.32664271 Ry

     iteration #  7     ecut=    36.75 Ry     beta=0.10
     Davidson diagonalization with overlap
     ethr =  8.85E-05,  avg # of iterations =  1.0

     negative rho (up, down):  3.735E-01 0.000E+00
 
     Adding external electric field

     Computed dipole along edir(3) : 
        Dipole                0.0006 Ry au,          0.0016 Debye
        Dipole field          0.0000 Ry au
 
        Potential amp.       -0.0001 Ry
        Total length         46.3672 bohr
 

     total cpu time spent up to now is      503.8 secs

     total energy              =   -1407.24777826 Ry
     Harris-Foulkes estimate   =   -1407.25404290 Ry
     estimated scf accuracy    <       0.03103757 Ry

     iteration #  8     ecut=    36.75 Ry     beta=0.10
     Davidson diagonalization with overlap
     ethr =  2.07E-05,  avg # of iterations =  5.5

     negative rho (up, down):  3.728E-01 0.000E+00
 
     Adding external electric field

     Computed dipole along edir(3) : 
        Dipole                0.0001 Ry au,          0.0003 Debye
        Dipole field          0.0000 Ry au
 
        Potential amp.       -0.0000 Ry
        Total length         46.3672 bohr
 

     total cpu time spent up to now is      571.7 secs

     total energy              =   -1407.24696177 Ry
     Harris-Foulkes estimate   =   -1407.25060340 Ry
     estimated scf accuracy    <       0.02408989 Ry

     iteration #  9     ecut=    36.75 Ry     beta=0.10
     Davidson diagonalization with overlap
     ethr =  1.61E-05,  avg # of iterations =  1.8

     negative rho (up, down):  3.725E-01 0.000E+00
 
     Adding external electric field

     Computed dipole along edir(3) : 
        Dipole               -0.0001 Ry au,         -0.0002 Debye
        Dipole field         -0.0000 Ry au
 
        Potential amp.        0.0000 Ry
        Total length         46.3672 bohr
 

     total cpu time spent up to now is      630.7 secs

     total energy              =   -1407.24858899 Ry
     Harris-Foulkes estimate   =   -1407.24921875 Ry
     estimated scf accuracy    <       0.00427112 Ry

     iteration # 10     ecut=    36.75 Ry     beta=0.10
     Davidson diagonalization with overlap
     ethr =  2.85E-06,  avg # of iterations =  5.3

     negative rho (up, down):  3.724E-01 0.000E+00
 
     Adding external electric field

     Computed dipole along edir(3) : 
        Dipole                0.0005 Ry au,          0.0012 Debye
        Dipole field          0.0000 Ry au
 
        Potential amp.       -0.0001 Ry
        Total length         46.3672 bohr
 

     total cpu time spent up to now is      699.8 secs

     total energy              =   -1407.24893175 Ry
     Harris-Foulkes estimate   =   -1407.24896887 Ry
     estimated scf accuracy    <       0.00107935 Ry

     iteration # 11     ecut=    36.75 Ry     beta=0.10
     Davidson diagonalization with overlap
     ethr =  7.20E-07,  avg # of iterations =  1.2

     negative rho (up, down):  3.723E-01 0.000E+00
 
     Adding external electric field

     Computed dipole along edir(3) : 
        Dipole               -0.0008 Ry au,         -0.0019 Debye
        Dipole field         -0.0000 Ry au
 
        Potential amp.        0.0002 Ry
        Total length         46.3672 bohr
 

     total cpu time spent up to now is      758.7 secs

     total energy              =   -1407.24871375 Ry
     Harris-Foulkes estimate   =   -1407.24898646 Ry
     estimated scf accuracy    <       0.00097299 Ry

     iteration # 12     ecut=    36.75 Ry     beta=0.10
     Davidson diagonalization with overlap
     ethr =  6.49E-07,  avg # of iterations =  2.0

     negative rho (up, down):  3.723E-01 0.000E+00
 
     Adding external electric field

     Computed dipole along edir(3) : 
        Dipole               -0.0002 Ry au,         -0.0006 Debye
        Dipole field         -0.0000 Ry au
 
        Potential amp.        0.0000 Ry
        Total length         46.3672 bohr
 

     total cpu time spent up to now is      822.6 secs

     total energy              =   -1407.24888213 Ry
     Harris-Foulkes estimate   =   -1407.24891475 Ry
     estimated scf accuracy    <       0.00021022 Ry

     iteration # 13     ecut=    36.75 Ry     beta=0.10
     Davidson diagonalization with overlap
     ethr =  1.40E-07,  avg # of iterations =  1.1

     negative rho (up, down):  3.723E-01 0.000E+00
 
     Adding external electric field

     Computed dipole along edir(3) : 
        Dipole                0.0002 Ry au,          0.0005 Debye
        Dipole field          0.0000 Ry au
 
        Potential amp.       -0.0000 Ry
        Total length         46.3672 bohr
 

     total cpu time spent up to now is      879.3 secs

     total energy              =   -1407.24887404 Ry
     Harris-Foulkes estimate   =   -1407.24889090 Ry
     estimated scf accuracy    <       0.00006370 Ry

     iteration # 14     ecut=    36.75 Ry     beta=0.10
     Davidson diagonalization with overlap
     ethr =  4.25E-08,  avg # of iterations =  2.5

     negative rho (up, down):  3.723E-01 0.000E+00
 
     Adding external electric field

     Computed dipole along edir(3) : 
        Dipole               -0.0001 Ry au,         -0.0004 Debye
        Dipole field         -0.0000 Ry au
 
        Potential amp.        0.0000 Ry
        Total length         46.3672 bohr
 

     total cpu time spent up to now is      946.0 secs

     total energy              =   -1407.24888577 Ry
     Harris-Foulkes estimate   =   -1407.24888545 Ry
     estimated scf accuracy    <       0.00000519 Ry

     iteration # 15     ecut=    36.75 Ry     beta=0.10
     Davidson diagonalization with overlap
     ethr =  3.46E-09,  avg # of iterations =  2.4

     negative rho (up, down):  3.723E-01 0.000E+00
 
     Adding external electric field

     Computed dipole along edir(3) : 
        Dipole               -0.0002 Ry au,         -0.0004 Debye
        Dipole field         -0.0000 Ry au
 
        Potential amp.        0.0000 Ry
        Total length         46.3672 bohr
 

     total cpu time spent up to now is     1014.0 secs

     total energy              =   -1407.24888756 Ry
     Harris-Foulkes estimate   =   -1407.24888705 Ry
     estimated scf accuracy    <       0.00000590 Ry

     iteration # 16     ecut=    36.75 Ry     beta=0.10
     Davidson diagonalization with overlap
     ethr =  3.46E-09,  avg # of iterations =  2.0

     negative rho (up, down):  3.723E-01 0.000E+00

     negative rho (up, down):  3.723E-01 0.000E+00

     negative rho (up, down):  3.723E-01 0.000E+00

     negative rho (up, down):  3.723E-01 0.000E+00

     negative rho (up, down):  3.723E-01 0.000E+00

     negative rho (up, down):  3.723E-01 0.000E+00

     negative rho (up, down):  3.723E-01 0.000E+00

     negative rho (up, down):  3.723E-01 0.000E+00

     negative rho (up, down):  3.723E-01 0.000E+00

     negative rho (up, down):  3.723E-01 0.000E+00

     negative rho (up, down):  3.723E-01 0.000E+00

     negative rho (up, down):  3.723E-01 0.000E+00

     negative rho (up, down):  3.723E-01 0.000E+00

     negative rho (up, down):  3.723E-01 0.000E+00

     negative rho (up, down):  3.723E-01 0.000E+00

     negative rho (up, down):  3.723E-01 0.000E+00

     negative rho (up, down):  3.723E-01 0.000E+00

     negative rho (up, down):  3.723E-01 0.000E+00

     negative rho (up, down):  3.723E-01 0.000E+00

     negative rho (up, down):  3.723E-01 0.000E+00

     negative rho (up, down):  3.723E-01 0.000E+00

     negative rho (up, down):  3.723E-01 0.000E+00

     negative rho (up, down):  3.723E-01 0.000E+00

     negative rho (up, down):  3.723E-01 0.000E+00

     negative rho (up, down):  3.723E-01 0.000E+00

     negative rho (up, down):  3.723E-01 0.000E+00

     negative rho (up, down):  3.723E-01 0.000E+00

     negative rho (up, down):  3.723E-01 0.000E+00

     negative rho (up, down):  3.723E-01 0.000E+00

     negative rho (up, down):  3.723E-01 0.000E+00

     negative rho (up, down):  3.723E-01 0.000E+00

     negative rho (up, down):  3.723E-01 0.000E+00

     negative rho (up, down):  3.723E-01 0.000E+00

     negative rho (up, down):  3.723E-01 0.000E+00

     negative rho (up, down):  3.723E-01 0.000E+00
 
     Adding external electric field

     Computed dipole along edir(3) : 
        Dipole                0.0005 Ry au,          0.0013 Debye
        Dipole field          0.0000 Ry au
 
        Potential amp.       -0.0001 Ry
        Total length         46.3672 bohr
 

     total cpu time spent up to now is     1143.8 secs

     End of self-consistent calculation

          k = 0.0000 0.0000 0.0000 ( 22167 PWs)   bands (ev):

   -48.2782 -48.2774 -48.2290 -48.2283 -47.8234 -47.7726 -26.4084 -26.3921
   -26.3492 -26.3387 -26.3377 -26.3321 -26.2669 -26.2232 -26.2048 -26.1639
   -26.0073 -25.9427 -25.8767 -25.8174 -25.8168 -25.6937 -25.6362 -25.4695
   -13.5432 -13.4429 -13.3834 -13.3367 -13.3192 -13.3158 -13.2961 -13.2882
   -13.2437 -13.2306 -13.1807 -13.1717 -13.1530 -13.1448 -13.1369 -13.0815
   -13.0457 -13.0297 -13.0286 -13.0182 -13.0122 -13.0010 -12.9811 -12.9703
   -12.9627 -12.9494 -12.9474 -12.9289 -12.8317 -12.8125  -6.8809  -5.5122
    -4.3509  -3.7692  -2.7454  -2.3101  -1.2924  -0.8294  -0.7726  -0.7008
    -0.4147  -0.2771  -0.1884   0.2977   0.3567   0.6575   0.7154   0.9099
     0.9897   1.0493   1.4248   1.5343   1.6433   1.6460   1.8389   1.8506
     2.2569   2.3632   2.4789   2.7179   2.7223   3.0268   3.2711   3.5378
     3.5575   3.7747   3.8382   3.9236   3.9557   4.0427   4.0903   4.0947
     4.1007   4.5897   4.7140   4.9727   5.0936   5.3108   5.3261   5.4305
     5.5504

          k = 0.0000 0.0304 0.0000 ( 22186 PWs)   bands (ev):

   -48.2749 -48.2742 -48.2323 -48.2316 -47.8200 -47.7760 -26.4047 -26.3880
   -26.3535 -26.3361 -26.3053 -26.3041 -26.2632 -26.2196 -26.2094 -26.1682
   -25.9728 -25.9386 -25.8814 -25.8540 -25.8532 -25.6899 -25.6402 -25.5071
   -13.5168 -13.4273 -13.3689 -13.3238 -13.3211 -13.3148 -13.2948 -13.2595
   -13.2430 -13.2199 -13.1931 -13.1580 -13.1376 -13.1335 -13.1239 -13.1016
   -13.0430 -13.0291 -13.0265 -13.0159 -13.0116 -13.0034 -12.9936 -12.9815
   -12.9621 -12.9603 -12.9586 -12.9349 -12.8600 -12.8421  -6.7271  -5.3815
    -4.2423  -4.0853  -3.1571  -2.4995  -1.0996  -0.9757  -0.6583  -0.3857
    -0.2856  -0.2512   0.0006   0.1676   0.4392   0.6541   0.6598   0.8927
     0.9488   1.0681   1.1251   1.4360   1.4806   1.6373   1.6796   1.9627
     2.2477   2.4555   2.5203   2.6366   2.7220   3.2585   3.3497   3.3671
     3.5006   3.7195   3.7955   3.9938   4.0243   4.0300   4.1029   4.2811
     4.3871   4.6965   4.7149   4.9087   5.0954   5.3298   5.3435   5.4699
     5.7203

          k = 0.0000 0.0608 0.0000 ( 22178 PWs)   bands (ev):

   -48.2659 -48.2652 -48.2413 -48.2407 -47.8107 -47.7853 -26.3945 -26.3768
   -26.3649 -26.3469 -26.2526 -26.2217 -26.2130 -26.2115 -26.2095 -26.1798
   -25.9525 -25.9514 -25.9271 -25.8941 -25.8775 -25.6795 -25.6508 -25.6088
   -13.4499 -13.3862 -13.3392 -13.3302 -13.3062 -13.2926 -13.2925 -13.2788
   -13.2278 -13.1800 -13.1632 -13.1469 -13.1204 -13.1014 -13.0969 -13.0889
   -13.0377 -13.0328 -13.0284 -13.0196 -13.0125 -13.0121 -13.0113 -13.0086
   -12.9932 -12.9916 -12.9564 -12.9463 -12.9329 -12.9210  -6.2816  -5.0121
    -4.7949  -3.9336  -3.8457  -2.9442  -1.2425  -0.8868  -0.7843  -0.3053
    -0.0997   0.0253   0.1962   0.3208   0.3608   0.6097   0.7776   0.8307
     0.9037   1.1292   1.3537   1.4428   1.4756   1.5947   1.7866   1.9617
     2.1947   2.2564   2.6340   2.7121   2.8473   3.1371   3.2896   3.3457
     3.3799   3.5713   3.5738   3.7231   3.9274   4.0119   4.2027   4.4624
     4.5575   4.6971   4.7409   5.0262   5.2416   5.3320   5.6187   5.6480
     5.8027

          k = 0.0000-0.0912 0.0000 ( 22084 PWs)   bands (ev):

   -48.2536 -48.2536 -48.2530 -48.2529 -47.7981 -47.7980 -26.3800 -26.3800
   -26.3618 -26.3617 -26.2376 -26.2375 -26.1950 -26.1950 -26.0843 -26.0843
   -26.0829 -26.0829 -25.9110 -25.9109 -25.7447 -25.7447 -25.6653 -25.6653
   -13.3796 -13.3796 -13.3332 -13.3332 -13.2962 -13.2962 -13.2761 -13.2761
   -13.2385 -13.2385 -13.0811 -13.0811 -13.0753 -13.0753 -13.0568 -13.0568
   -13.0490 -13.0490 -13.0414 -13.0414 -13.0398 -13.0398 -13.0233 -13.0233
   -13.0054 -13.0054 -12.9925 -12.9925 -12.9506 -12.9506  -5.5983  -5.5983
    -4.4743  -4.4743  -3.4727  -3.4727  -1.1537  -1.1537  -0.7127  -0.7127
     0.0577   0.0577   0.3367   0.3367   0.6350   0.6350   0.8635   0.8635
     1.1193   1.1193   1.4292   1.4292   1.5969   1.5969   1.9327   1.9327
     2.3612   2.3612   2.6145   2.6145   2.9293   2.9294   3.1122   3.1122
     3.3918   3.3918   3.7177   3.7177   3.7480   3.7480   4.1198   4.1198
     4.7765   4.7765   5.0989   5.0989   5.3287   5.3287   5.5990   5.5991
     5.9686

          k = 0.0264-0.0151 0.0000 ( 22186 PWs)   bands (ev):

   -48.2749 -48.2742 -48.2323 -48.2316 -47.8200 -47.7760 -26.4047 -26.3880
   -26.3535 -26.3361 -26.3053 -26.3041 -26.2632 -26.2196 -26.2094 -26.1682
   -25.9728 -25.9386 -25.8814 -25.8540 -25.8532 -25.6899 -25.6402 -25.5071
   -13.5168 -13.4273 -13.3689 -13.3238 -13.3211 -13.3148 -13.2948 -13.2595
   -13.2430 -13.2199 -13.1931 -13.1580 -13.1376 -13.1335 -13.1239 -13.1016
   -13.0430 -13.0291 -13.0265 -13.0159 -13.0116 -13.0034 -12.9936 -12.9815
   -12.9621 -12.9603 -12.9586 -12.9349 -12.8600 -12.8421  -6.7271  -5.3815
    -4.2423  -4.0853  -3.1571  -2.4995  -1.0996  -0.9757  -0.6583  -0.3857
    -0.2856  -0.2512   0.0006   0.1676   0.4392   0.6541   0.6598   0.8927
     0.9488   1.0681   1.1251   1.4360   1.4806   1.6373   1.6796   1.9627
     2.2477   2.4555   2.5203   2.6366   2.7220   3.2585   3.3497   3.3671
     3.5006   3.7195   3.7955   3.9938   4.0243   4.0300   4.1029   4.2811
     4.3871   4.6965   4.7149   4.9087   5.0954   5.3298   5.3435   5.4699
     5.7203

          k = 0.0264 0.0153 0.0000 ( 22184 PWs)   bands (ev):

   -48.2781 -48.2774 -48.2290 -48.2283 -47.8234 -47.7725 -26.4094 -26.3916
   -26.3492 -26.3395 -26.3378 -26.3320 -26.2683 -26.2242 -26.2049 -26.1642
   -26.0077 -25.9432 -25.8772 -25.8176 -25.8168 -25.6937 -25.6364 -25.4696
   -13.5427 -13.4370 -13.3787 -13.3365 -13.3167 -13.3130 -13.2915 -13.2879
   -13.2399 -13.2293 -13.1795 -13.1680 -13.1470 -13.1431 -13.1327 -13.0788
   -13.0432 -13.0270 -13.0255 -13.0178 -13.0088 -13.0004 -12.9811 -12.9697
   -12.9636 -12.9478 -12.9458 -12.9274 -12.8307 -12.8117  -6.7287  -5.4058
    -4.3007  -3.6906  -2.7269  -2.1453  -1.7038  -1.6503  -1.1479  -0.7628
    -0.3316  -0.1887  -0.1849   0.0618   0.3602   0.4628   0.4731   0.8438
     0.9488   1.0148   1.0396   1.2198   1.5346   1.7405   1.9602   2.1690
     2.2589   2.5029   2.5839   2.7663   2.9630   3.1786   3.4634   3.5867
     3.5946   3.6137   3.8594   3.9222   4.0132   4.0351   4.1351   4.3656
     4.5357   4.7241   4.8695   4.9740   5.2423   5.3265   5.4846   5.5201
     5.8082

          k = 0.0264 0.0457 0.0000 ( 22143 PWs)   bands (ev):

   -48.2748 -48.2741 -48.2323 -48.2316 -47.8200 -47.7760 -26.4064 -26.3873
   -26.3534 -26.3360 -26.3065 -26.3044 -26.2654 -26.2211 -26.2095 -26.1686
   -25.9734 -25.9394 -25.8823 -25.8541 -25.8532 -25.6900 -25.6405 -25.5073
   -13.5161 -13.4184 -13.3611 -13.3227 -13.3227 -13.3055 -13.2879 -13.2588
   -13.2415 -13.2143 -13.1918 -13.1545 -13.1312 -13.1250 -13.1171 -13.0979
   -13.0398 -13.0269 -13.0200 -13.0151 -13.0068 -13.0029 -12.9936 -12.9808
   -12.9637 -12.9585 -12.9568 -12.9313 -12.8584 -12.8410  -6.4394  -5.2111
    -4.1738  -4.1036  -3.1626  -2.2795  -1.9246  -1.4180  -1.3386  -0.6032
    -0.4498  -0.3796  -0.2223   0.1157   0.2450   0.4292   0.5367   0.7226
     0.8047   0.9251   1.0032   1.2660   1.6163   1.8298   1.8509   2.2421
     2.3346   2.5895   2.7280   2.7850   3.1921   3.2946   3.3224   3.4152
     3.5720   3.7441   3.7728   3.8040   3.8713   4.0375   4.4429   4.5316
     4.7073   4.7118   4.9505   5.1403   5.2537   5.3735   5.4398   5.7935
     5.9699

          k = 0.0264-0.1062 0.0000 ( 22119 PWs)   bands (ev):

   -48.2659 -48.2652 -48.2413 -48.2407 -47.8107 -47.7853 -26.3960 -26.3763
   -26.3644 -26.3469 -26.2547 -26.2213 -26.2140 -26.2118 -26.2108 -26.1797
   -25.9523 -25.9514 -25.9276 -25.8947 -25.8780 -25.6795 -25.6511 -25.6087
   -13.4495 -13.3787 -13.3407 -13.3228 -13.2998 -13.2900 -13.2885 -13.2791
   -13.2288 -13.1795 -13.1617 -13.1430 -13.1196 -13.0968 -13.0872 -13.0811
   -13.0362 -13.0328 -13.0279 -13.0169 -13.0121 -13.0103 -13.0095 -13.0082
   -12.9941 -12.9928 -12.9595 -12.9411 -12.9310 -12.9210  -5.9166  -4.9984
    -4.8850  -3.8884  -3.8828  -2.8489  -1.8952  -1.2832  -0.8032  -0.5422
    -0.2369  -0.2355  -0.1763   0.1441   0.2733   0.6404   0.8160   0.8435
     1.0056   1.0541   1.3262   1.3501   1.6154   1.7951   1.8081   2.1906
     2.2066   2.6543   2.6705   2.9430   2.9951   3.0169   3.1206   3.2565
     3.3815   3.5144   3.5169   3.8677   3.8909   4.1045   4.2109   4.2387
     4.6496   4.8510   4.8897   4.9563   5.2469   5.4262   5.6640   5.7165
     6.2358

          k = 0.0264-0.0759 0.0000 ( 22117 PWs)   bands (ev):

   -48.2537 -48.2536 -48.2530 -48.2529 -47.7981 -47.7980 -26.3808 -26.3791
   -26.3620 -26.3615 -26.2386 -26.2365 -26.1956 -26.1944 -26.0848 -26.0838
   -26.0831 -26.0828 -25.9110 -25.9109 -25.7450 -25.7444 -25.6654 -25.6652
   -13.3803 -13.3791 -13.3359 -13.3285 -13.2974 -13.2950 -13.2809 -13.2735
   -13.2398 -13.2372 -13.0823 -13.0797 -13.0758 -13.0753 -13.0586 -13.0537
   -13.0505 -13.0465 -13.0451 -13.0399 -13.0374 -13.0351 -13.0261 -13.0256
   -13.0059 -13.0059 -12.9931 -12.9926 -12.9542 -12.9472  -5.8261  -5.2827
    -4.5818  -4.4591  -3.4831  -3.4620  -1.5570  -0.7232  -0.6876  -0.3612
    -0.0999  -0.0628   0.2943   0.3929   0.4855   0.7766   0.8504   0.9137
     1.0771   1.1639   1.3854   1.5203   1.5475   1.7676   1.7926   2.0817
     2.1100   2.3237   2.3272   2.3987   2.5012   2.8052   3.1672   3.2647
     3.4160   3.4350   3.4527   3.7542   3.7599   4.2934   4.3516   4.4911
     4.6422   4.9114   4.9501   5.0221   5.4444   5.6496   5.7237   5.8494
     6.0240

          k = 0.0264-0.0455 0.0000 ( 22163 PWs)   bands (ev):

   -48.2659 -48.2652 -48.2413 -48.2407 -47.8107 -47.7853 -26.3937 -26.3771
   -26.3652 -26.3468 -26.2517 -26.2219 -26.2124 -26.2114 -26.2088 -26.1798
   -25.9526 -25.9514 -25.9269 -25.8938 -25.8772 -25.6795 -25.6507 -25.6088
   -13.4501 -13.3900 -13.3385 -13.3332 -13.3082 -13.2953 -13.2937 -13.2796
   -13.2275 -13.1804 -13.1638 -13.1488 -13.1222 -13.1024 -13.1017 -13.0918
   -13.0373 -13.0336 -13.0288 -13.0199 -13.0136 -13.0129 -13.0125 -13.0090
   -12.9931 -12.9917 -12.9550 -12.9485 -12.9341 -12.9210  -6.4208  -5.1021
    -4.6728  -3.9694  -3.8529  -2.9906  -0.9375  -0.5973  -0.3033  -0.3001
     0.0119   0.1317   0.1865   0.3204   0.4940   0.5375   0.6877   0.8574
     0.9199   1.1918   1.2885   1.3930   1.4186   1.6413   1.6727   1.6793
     2.0080   2.1544   2.4673   2.5290   2.7367   3.0783   3.1344   3.3575
     3.4408   3.5671   3.6721   3.7059   4.0306   4.1675   4.6544   4.6610
     4.7093   4.7440   4.7569   5.0033   5.2471   5.4709   5.4999   5.5085
     5.6536

          k = 0.0527-0.0302 0.0000 ( 22178 PWs)   bands (ev):

   -48.2659 -48.2652 -48.2413 -48.2407 -47.8107 -47.7853 -26.3945 -26.3768
   -26.3649 -26.3469 -26.2526 -26.2217 -26.2130 -26.2115 -26.2095 -26.1798
   -25.9525 -25.9514 -25.9271 -25.8941 -25.8775 -25.6795 -25.6508 -25.6088
   -13.4499 -13.3862 -13.3392 -13.3302 -13.3062 -13.2926 -13.2925 -13.2788
   -13.2278 -13.1800 -13.1632 -13.1469 -13.1204 -13.1014 -13.0969 -13.0889
   -13.0377 -13.0328 -13.0284 -13.0196 -13.0125 -13.0121 -13.0113 -13.0086
   -12.9932 -12.9916 -12.9564 -12.9463 -12.9329 -12.9210  -6.2816  -5.0121
    -4.7949  -3.9336  -3.8457  -2.9442  -1.2425  -0.8868  -0.7843  -0.3053
    -0.0997   0.0253   0.1962   0.3208   0.3608   0.6097   0.7776   0.8307
     0.9037   1.1292   1.3537   1.4428   1.4756   1.5947   1.7866   1.9617
     2.1947   2.2564   2.6340   2.7121   2.8473   3.1371   3.2896   3.3457
     3.3799   3.5713   3.5738   3.7231   3.9274   4.0119   4.2027   4.4624
     4.5575   4.6971   4.7409   5.0262   5.2416   5.3320   5.6187   5.6480
     5.8027

          k = 0.0527 0.0002 0.0000 ( 22143 PWs)   bands (ev):

   -48.2748 -48.2741 -48.2323 -48.2316 -47.8200 -47.7760 -26.4064 -26.3873
   -26.3534 -26.3360 -26.3065 -26.3044 -26.2654 -26.2211 -26.2095 -26.1686
   -25.9734 -25.9394 -25.8823 -25.8541 -25.8532 -25.6900 -25.6405 -25.5073
   -13.5161 -13.4184 -13.3611 -13.3227 -13.3227 -13.3055 -13.2879 -13.2588
   -13.2415 -13.2143 -13.1918 -13.1545 -13.1312 -13.1250 -13.1171 -13.0979
   -13.0398 -13.0269 -13.0200 -13.0151 -13.0068 -13.0029 -12.9936 -12.9808
   -12.9637 -12.9585 -12.9568 -12.9313 -12.8584 -12.8410  -6.4394  -5.2111
    -4.1738  -4.1036  -3.1626  -2.2795  -1.9246  -1.4180  -1.3386  -0.6032
    -0.4498  -0.3796  -0.2223   0.1157   0.2450   0.4292   0.5367   0.7226
     0.8047   0.9251   1.0032   1.2660   1.6163   1.8298   1.8509   2.2421
     2.3346   2.5895   2.7280   2.7850   3.1921   3.2946   3.3224   3.4152
     3.5720   3.7441   3.7728   3.8040   3.8713   4.0375   4.4429   4.5316
     4.7073   4.7118   4.9505   5.1403   5.2537   5.3735   5.4398   5.7935
     5.9699

          k = 0.0527 0.0306 0.0000 ( 22184 PWs)   bands (ev):

   -48.2781 -48.2774 -48.2290 -48.2283 -47.8234 -47.7725 -26.4115 -26.3909
   -26.3493 -26.3409 -26.3383 -26.3318 -26.2711 -26.2261 -26.2053 -26.1648
   -26.0085 -25.9443 -25.8784 -25.8179 -25.8169 -25.6938 -25.6368 -25.4699
   -13.5418 -13.4264 -13.3680 -13.3360 -13.3185 -13.3004 -13.2873 -13.2824
   -13.2319 -13.2267 -13.1771 -13.1663 -13.1386 -13.1308 -13.1233 -13.0728
   -13.0390 -13.0241 -13.0173 -13.0162 -13.0024 -13.0002 -12.9813 -12.9685
   -12.9653 -12.9446 -12.9423 -12.9234 -12.8288 -12.8100  -6.3170  -5.2421
    -4.2270  -3.5076  -2.6771  -2.3913  -2.1963  -1.7949  -1.6912  -0.9950
    -0.7486  -0.6970  -0.5212  -0.1719  -0.0899   0.2345   0.3826   0.4607
     0.6499   0.6696   0.9032   1.1280   1.7042   1.9744   2.2995   2.3240
     2.3714   2.4163   2.8524   2.8731   3.0462   3.3215   3.3909   3.5417
     3.7633   4.0241   4.0307   4.0535   4.1383   4.1580   4.5363   4.8303
     4.9868   5.1290   5.1590   5.2103   5.3561   5.8446   5.8998   6.0615
     6.1925

          k = 0.0527-0.1213 0.0000 ( 22105 PWs)   bands (ev):

   -48.2748 -48.2741 -48.2323 -48.2316 -47.8200 -47.7759 -26.4080 -26.3867
   -26.3534 -26.3358 -26.3075 -26.3048 -26.2677 -26.2226 -26.2097 -26.1689
   -25.9741 -25.9402 -25.8832 -25.8543 -25.8533 -25.6900 -25.6408 -25.5075
   -13.5155 -13.4105 -13.3518 -13.3242 -13.3217 -13.2956 -13.2814 -13.2583
   -13.2405 -13.2082 -13.1906 -13.1549 -13.1246 -13.1152 -13.1073 -13.0936
   -13.0369 -13.0252 -13.0144 -13.0130 -13.0035 -13.0018 -12.9938 -12.9803
   -12.9648 -12.9572 -12.9554 -12.9270 -12.8568 -12.8398  -5.9874  -5.1881
    -4.1416  -4.0841  -3.1496  -2.5406  -2.0177  -1.6773  -1.4738  -0.9660
    -0.9505  -0.6882  -0.4086  -0.1716  -0.1087   0.2491   0.4880   0.5649
     0.6760   0.7653   1.0202   1.1214   1.7875   2.0063   2.2361   2.3528
     2.3752   2.7038   2.8280   2.8866   2.9583   3.0534   3.1680   3.5125
     3.5408   3.6191   3.9729   4.0074   4.2074   4.4135   4.7566   4.8121
     5.0925   5.1091   5.3081   5.4973   5.5272   5.6659   5.7143   5.8825
     6.1706

          k = 0.0527-0.0909 0.0000 ( 22056 PWs)   bands (ev):

   -48.2658 -48.2652 -48.2414 -48.2407 -47.8107 -47.7853 -26.3968 -26.3760
   -26.3642 -26.3469 -26.2557 -26.2211 -26.2145 -26.2120 -26.2114 -26.1797
   -25.9523 -25.9513 -25.9279 -25.8950 -25.8783 -25.6795 -25.6512 -25.6087
   -13.4492 -13.3750 -13.3415 -13.3179 -13.2942 -13.2888 -13.2876 -13.2814
   -13.2296 -13.1792 -13.1609 -13.1408 -13.1200 -13.0943 -13.0821 -13.0757
   -13.0344 -13.0338 -13.0277 -13.0132 -13.0121 -13.0113 -13.0084 -13.0080
   -12.9949 -12.9944 -12.9613 -12.9377 -12.9306 -12.9211  -5.6225  -5.0878
    -4.9517  -3.9252  -3.8180  -2.8091  -2.2409  -1.2144  -0.8328  -0.7477
    -0.3823  -0.3366  -0.1325  -0.0472   0.1203   0.6512   0.8157   0.8167
     1.0312   1.1238   1.2244   1.3835   1.7174   1.9366   2.0444   2.1487
     2.2618   2.3639   2.4539   2.6463   2.8430   3.2084   3.2275   3.2324
     3.3077   3.4520   3.5570   3.8829   3.8957   4.1886   4.2193   4.7035
     4.7341   4.7701   5.2300   5.5287   5.7121   5.7321   5.7902   5.8792
     6.1829

          k = 0.0527-0.0606 0.0000 ( 22117 PWs)   bands (ev):

   -48.2537 -48.2536 -48.2530 -48.2529 -47.7981 -47.7980 -26.3808 -26.3791
   -26.3620 -26.3615 -26.2386 -26.2365 -26.1956 -26.1944 -26.0848 -26.0838
   -26.0831 -26.0828 -25.9110 -25.9109 -25.7450 -25.7444 -25.6654 -25.6652
   -13.3803 -13.3791 -13.3359 -13.3285 -13.2974 -13.2950 -13.2809 -13.2735
   -13.2398 -13.2372 -13.0823 -13.0797 -13.0758 -13.0753 -13.0586 -13.0537
   -13.0505 -13.0465 -13.0451 -13.0399 -13.0374 -13.0351 -13.0261 -13.0256
   -13.0059 -13.0059 -12.9931 -12.9926 -12.9542 -12.9472  -5.8261  -5.2827
    -4.5818  -4.4591  -3.4831  -3.4620  -1.5570  -0.7232  -0.6876  -0.3612
    -0.0999  -0.0628   0.2943   0.3929   0.4855   0.7766   0.8504   0.9137
     1.0771   1.1639   1.3854   1.5203   1.5475   1.7676   1.7926   2.0817
     2.1100   2.3237   2.3272   2.3987   2.5012   2.8052   3.1672   3.2647
     3.4160   3.4350   3.4527   3.7542   3.7599   4.2934   4.3516   4.4911
     4.6422   4.9114   4.9501   5.0221   5.4444   5.6496   5.7237   5.8494
     6.0240

          k =-0.0791 0.0453 0.0000 ( 22084 PWs)   bands (ev):

   -48.2536 -48.2536 -48.2530 -48.2529 -47.7981 -47.7980 -26.3800 -26.3800
   -26.3618 -26.3617 -26.2376 -26.2375 -26.1950 -26.1950 -26.0843 -26.0843
   -26.0829 -26.0829 -25.9110 -25.9109 -25.7447 -25.7447 -25.6653 -25.6653
   -13.3796 -13.3796 -13.3332 -13.3332 -13.2962 -13.2962 -13.2761 -13.2761
   -13.2385 -13.2385 -13.0811 -13.0811 -13.0753 -13.0753 -13.0568 -13.0568
   -13.0490 -13.0490 -13.0414 -13.0414 -13.0398 -13.0398 -13.0233 -13.0233
   -13.0054 -13.0054 -12.9925 -12.9925 -12.9506 -12.9506  -5.5983  -5.5983
    -4.4743  -4.4743  -3.4727  -3.4727  -1.1537  -1.1537  -0.7127  -0.7127
     0.0577   0.0577   0.3367   0.3367   0.6350   0.6350   0.8635   0.8635
     1.1193   1.1193   1.4292   1.4292   1.5969   1.5969   1.9327   1.9327
     2.3612   2.3612   2.6145   2.6145   2.9293   2.9294   3.1122   3.1122
     3.3918   3.3918   3.7177   3.7177   3.7480   3.7480   4.1198   4.1198
     4.7765   4.7765   5.0989   5.0989   5.3287   5.3287   5.5990   5.5991
     5.9686

          k =-0.0791 0.0756 0.0000 ( 22119 PWs)   bands (ev):

   -48.2659 -48.2652 -48.2413 -48.2407 -47.8107 -47.7853 -26.3960 -26.3763
   -26.3644 -26.3469 -26.2547 -26.2213 -26.2140 -26.2118 -26.2108 -26.1797
   -25.9523 -25.9514 -25.9276 -25.8947 -25.8780 -25.6795 -25.6511 -25.6087
   -13.4495 -13.3787 -13.3407 -13.3228 -13.2998 -13.2900 -13.2885 -13.2791
   -13.2288 -13.1795 -13.1617 -13.1430 -13.1196 -13.0968 -13.0872 -13.0811
   -13.0362 -13.0328 -13.0279 -13.0169 -13.0121 -13.0103 -13.0095 -13.0082
   -12.9941 -12.9928 -12.9595 -12.9411 -12.9310 -12.9210  -5.9166  -4.9984
    -4.8850  -3.8884  -3.8828  -2.8489  -1.8952  -1.2832  -0.8032  -0.5422
    -0.2369  -0.2355  -0.1763   0.1441   0.2733   0.6404   0.8160   0.8435
     1.0056   1.0541   1.3262   1.3501   1.6154   1.7951   1.8081   2.1906
     2.2066   2.6543   2.6705   2.9430   2.9951   3.0169   3.1206   3.2565
     3.3815   3.5144   3.5169   3.8677   3.8909   4.1045   4.2109   4.2387
     4.6496   4.8510   4.8897   4.9563   5.2469   5.4262   5.6640   5.7164
     6.2358

          k =-0.0791 0.1060 0.0000 ( 22105 PWs)   bands (ev):

   -48.2748 -48.2741 -48.2323 -48.2316 -47.8200 -47.7759 -26.4080 -26.3867
   -26.3534 -26.3358 -26.3075 -26.3048 -26.2677 -26.2226 -26.2097 -26.1689
   -25.9741 -25.9402 -25.8832 -25.8543 -25.8533 -25.6900 -25.6408 -25.5075
   -13.5155 -13.4105 -13.3518 -13.3242 -13.3217 -13.2956 -13.2814 -13.2583
   -13.2405 -13.2082 -13.1906 -13.1549 -13.1246 -13.1152 -13.1073 -13.0936
   -13.0369 -13.0252 -13.0144 -13.0130 -13.0035 -13.0018 -12.9938 -12.9803
   -12.9648 -12.9572 -12.9554 -12.9270 -12.8568 -12.8398  -5.9874  -5.1881
    -4.1416  -4.0841  -3.1496  -2.5406  -2.0177  -1.6773  -1.4738  -0.9660
    -0.9505  -0.6882  -0.4086  -0.1716  -0.1087   0.2491   0.4880   0.5649
     0.6760   0.7653   1.0202   1.1214   1.7875   2.0063   2.2361   2.3528
     2.3752   2.7038   2.8280   2.8866   2.9583   3.0534   3.1680   3.5125
     3.5408   3.6191   3.9729   4.0074   4.2074   4.4135   4.7566   4.8121
     5.0925   5.1091   5.3081   5.4973   5.5272   5.6659   5.7143   5.8825
     6.1706

          k =-0.0791-0.0459 0.0000 ( 22080 PWs)   bands (ev):

   -48.2781 -48.2774 -48.2290 -48.2283 -47.8233 -47.7725 -26.4125 -26.3905
   -26.3494 -26.3415 -26.3385 -26.3317 -26.2726 -26.2270 -26.2056 -26.1650
   -26.0089 -25.9448 -25.8790 -25.8181 -25.8170 -25.6939 -25.6370 -25.4700
   -13.5412 -13.4218 -13.3619 -13.3358 -13.3194 -13.2940 -13.2871 -13.2778
   -13.2277 -13.2255 -13.1759 -13.1671 -13.1344 -13.1251 -13.1163 -13.0693
   -13.0375 -13.0228 -13.0161 -13.0122 -13.0011 -12.9988 -12.9814 -12.9679
   -12.9660 -12.9430 -12.9405 -12.9210 -12.8279 -12.8090  -5.9531  -5.3423
    -4.1226  -3.3971  -2.8101  -2.6513  -2.3845  -1.7334  -1.3102  -1.1292
    -1.0842  -0.9511  -0.9336  -0.4641  -0.2300  -0.2015   0.4140   0.4355
     0.4697   0.6134   0.8825   1.1534   1.7475   2.1276   2.3945   2.4315
     2.4843   2.4993   2.7529   2.9491   3.0617   3.2468   3.3078   3.6199
     3.6812   3.9426   4.0442   4.1591   4.2734   4.3368   4.9939   5.1755
     5.2730   5.2885   5.6179   5.7294   5.7797   5.8197   5.9520   6.0323
     6.3408

     the Fermi energy is     1.3044 ev

!    total energy              =   -1407.24889394 Ry
     Harris-Foulkes estimate   =   -1407.24888846 Ry
     estimated scf accuracy    <       0.00000029 Ry

     The total energy is the sum of the following terms:

     one-electron contribution =   -9266.67962056 Ry
     hartree contribution      =    4670.58491978 Ry
     xc contribution           =    -345.38826444 Ry
     ewald contribution        =    3534.29895982 Ry
     electric field correction =       0.00000000 Ry
     smearing contrib. (-TS)   =      -0.06488854 Ry

     convergence has been achieved in  16 iterations
 
 BEEF-vdW xc energy contributions
           1 :   -300.584242356365     
           2 :    274.361185990148     
           3 :   -229.940493322927     
           4 :    179.601641803146     
           5 :   -134.638116297055     
           6 :    101.334390299416     
           7 :   -79.8332504100500     
           8 :    65.9014749446638     
           9 :   -54.2317903956708     
          10 :    41.4121874253918     
          11 :   -27.1850980754506     
          12 :    13.7017104374862     
          13 :   -3.57531559744820     
          14 :   -1.94347249963272     
          15 :    3.62961516678547     
          16 :   -3.60212429767631     
          17 :    3.94556965789110     
          18 :   -5.58949326664123     
          19 :    8.06866709582272     
          20 :   -10.1489853573520     
          21 :    10.7905568671219     
          22 :   -9.81490260440120     
          23 :    7.92420283040173     
          24 :   -6.17053952103646     
          25 :    5.29204728981716     
          26 :   -5.34974515707944     
          27 :    5.83551252326566     
          28 :   -6.09761840788235     
          29 :    5.76171628742259     
          30 :   -4.89550823739893     
          31 :   -29.5980705720906     
          32 :   -21.8142090690977     

     Forces acting on atoms (Ry/au):


     negative rho (up, down):  3.723E-01 0.000E+00
     atom    1 type  1   force =     0.00132062    0.00076617    0.02115313
     atom    2 type  1   force =     0.00131745    0.00076412    0.02115332
     atom    3 type  2   force =     0.00162915    0.00093902   -0.02003132
     atom    4 type  2   force =     0.00162457    0.00094759   -0.02003126
     atom    5 type  1   force =     0.00001984    0.00001177    0.00002863
     atom    6 type  1   force =     0.00002022    0.00001147    0.00002809
     atom    7 type  2   force =     0.00002184    0.00001043   -0.00004711
     atom    8 type  2   force =     0.00002004    0.00001401   -0.00004682
     atom    9 type  1   force =    -0.00133531   -0.00077409   -0.02125647
     atom   10 type  1   force =    -0.00133304   -0.00077349   -0.02125525
     atom   11 type  2   force =    -0.00165273   -0.00095880    0.02015250
     atom   12 type  2   force =    -0.00165265   -0.00095820    0.02015257

     Total force =     0.058627     Total SCF correction =     0.001754


     entering subroutine stress ...


     negative rho (up, down):  3.723E-01 0.000E+00
          total   stress  (Ry/bohr**3)                   (kbar)     P=   -7.58
  -0.00008892  -0.00002661  -0.00001031        -13.08     -3.91     -1.52
  -0.00002661  -0.00005848  -0.00000598         -3.91     -8.60     -0.88
  -0.00001031  -0.00000598  -0.00000716         -1.52     -0.88     -1.05

 !ASE

     Writing output data file calc.save
 
     init_run     :     16.86s CPU     30.37s WALL (       1 calls)
     electrons    :    733.27s CPU   1113.04s WALL (       1 calls)
     forces       :      2.82s CPU      3.76s WALL (       1 calls)
     stress       :      6.43s CPU      8.06s WALL (       1 calls)

     Called by init_run:
     wfcinit      :     14.37s CPU     26.95s WALL (       1 calls)
     potinit      :      1.35s CPU      2.05s WALL (       1 calls)

     Called by electrons:
     c_bands      :    557.60s CPU    844.12s WALL (      16 calls)
     sum_band     :    107.83s CPU    169.47s WALL (      16 calls)
     v_of_rho     :     21.07s CPU     32.28s WALL (      17 calls)
     newd         :      4.81s CPU      5.06s WALL (      17 calls)
     mix_rho      :      0.83s CPU      1.32s WALL (      16 calls)
     vdW_energy   :      1.71s CPU      1.72s WALL (      53 calls)
     vdW_ffts     :     43.40s CPU     66.30s WALL (     108 calls)
     vdW_v        :      7.39s CPU     10.79s WALL (      53 calls)

     Called by c_bands:
     init_us_2    :      0.40s CPU      0.45s WALL (     700 calls)
     cegterg      :    552.03s CPU    837.51s WALL (     320 calls)

     Called by *egterg:
     h_psi        :    465.72s CPU    746.05s WALL (    1244 calls)
     s_psi        :      5.29s CPU      5.35s WALL (    1244 calls)
     g_psi        :      0.30s CPU      0.29s WALL (     904 calls)
     cdiaghg      :     50.70s CPU     53.44s WALL (    1224 calls)

     Called by h_psi:
     add_vuspsi   :      5.53s CPU      5.58s WALL (    1244 calls)

     General routines
     calbec       :     16.92s CPU     22.13s WALL (    1604 calls)
     fft          :     64.35s CPU     99.28s WALL (    3225 calls)
     ffts         :      0.20s CPU      0.30s WALL (      33 calls)
     fftw         :    538.47s CPU    873.54s WALL (  186812 calls)
     interpolate  :      0.80s CPU      1.31s WALL (      33 calls)
     davcio       :      0.00s CPU      0.02s WALL (      20 calls)
 
     Parallel routines
     fft_scatter  :    585.21s CPU    953.42s WALL (  190070 calls)
 
     PWSCF        : 12m40.53s CPU    19m17.17s WALL

 
   This run was terminated on:   7:27:56  25Dec2018            

=------------------------------------------------------------------------------=
   JOB DONE.
=------------------------------------------------------------------------------=
Job  /afs/slac/g/suncat/bin/suncat-tsmpirun -x LD_LIBRARY_PATH -wdir /scratch/qe109273_cydF9 pw.x -in pw.inp

TID   HOST_NAME   COMMAND_LINE            STATUS            TERMINATION_TIME
===== ========== ================  =======================  ===================
00000 suncat0068 pw.x -in pw.inp   Done                     12/25/2018 07:27:56
00001 suncat0068 pw.x -in pw.inp   Done                     12/25/2018 07:27:56
00002 suncat0068 pw.x -in pw.inp   Done                     12/25/2018 07:27:56
00003 suncat0068 pw.x -in pw.inp   Done                     12/25/2018 07:27:56
00004 suncat0068 pw.x -in pw.inp   Done                     12/25/2018 07:27:56
00005 suncat0068 pw.x -in pw.inp   Done                     12/25/2018 07:27:56
00006 suncat0068 pw.x -in pw.inp   Done                     12/25/2018 07:27:56
00007 suncat0068 pw.x -in pw.inp   Done                     12/25/2018 07:27:56
00008 suncat0066 pw.x -in pw.inp   Done                     12/25/2018 07:27:56
00009 suncat0066 pw.x -in pw.inp   Done                     12/25/2018 07:27:56
00010 suncat0066 pw.x -in pw.inp   Done                     12/25/2018 07:27:56
00011 suncat0066 pw.x -in pw.inp   Done                     12/25/2018 07:27:56
00012 suncat0066 pw.x -in pw.inp   Done                     12/25/2018 07:27:56
00013 suncat0066 pw.x -in pw.inp   Done                     12/25/2018 07:27:56
00014 suncat0066 pw.x -in pw.inp   Done                     12/25/2018 07:27:56
00015 suncat0066 pw.x -in pw.inp   Done                     12/25/2018 07:27:56
00016 suncat0061 pw.x -in pw.inp   Done                     12/25/2018 07:27:56
00017 suncat0061 pw.x -in pw.inp   Done                     12/25/2018 07:27:56
00018 suncat0061 pw.x -in pw.inp   Done                     12/25/2018 07:27:56
00019 suncat0061 pw.x -in pw.inp   Done                     12/25/2018 07:27:56
00020 suncat0061 pw.x -in pw.inp   Done                     12/25/2018 07:27:56
00021 suncat0061 pw.x -in pw.inp   Done                     12/25/2018 07:27:56
00022 suncat0061 pw.x -in pw.inp   Done                     12/25/2018 07:27:56
00023 suncat0061 pw.x -in pw.inp   Done                     12/25/2018 07:27:56
00024 suncat0053 pw.x -in pw.inp   Done                     12/25/2018 07:27:56
00025 suncat0053 pw.x -in pw.inp   Done                     12/25/2018 07:27:56
00026 suncat0053 pw.x -in pw.inp   Done                     12/25/2018 07:27:56
00027 suncat0053 pw.x -in pw.inp   Done                     12/25/2018 07:27:56
00028 suncat0053 pw.x -in pw.inp   Done                     12/25/2018 07:27:56
00029 suncat0053 pw.x -in pw.inp   Done                     12/25/2018 07:27:56
00030 suncat0053 pw.x -in pw.inp   Done                     12/25/2018 07:27:56
00031 suncat0053 pw.x -in pw.inp   Done                     12/25/2018 07:27:56
00032 suncat0052 pw.x -in pw.inp   Done                     12/25/2018 07:27:56
00033 suncat0052 pw.x -in pw.inp   Done                     12/25/2018 07:27:56
00034 suncat0052 pw.x -in pw.inp   Done                     12/25/2018 07:27:56
00035 suncat0052 pw.x -in pw.inp   Done                     12/25/2018 07:27:56
00036 suncat0052 pw.x -in pw.inp   Done                     12/25/2018 07:27:56
00037 suncat0052 pw.x -in pw.inp   Done                     12/25/2018 07:27:56
00038 suncat0052 pw.x -in pw.inp   Done                     12/25/2018 07:27:56
00039 suncat0052 pw.x -in pw.inp   Done                     12/25/2018 07:27:56
00040 suncat0046 pw.x -in pw.inp   Done                     12/25/2018 07:27:56
00041 suncat0046 pw.x -in pw.inp   Done                     12/25/2018 07:27:56
00042 suncat0046 pw.x -in pw.inp   Done                     12/25/2018 07:27:56
00043 suncat0046 pw.x -in pw.inp   Done                     12/25/2018 07:27:56
00044 suncat0046 pw.x -in pw.inp   Done                     12/25/2018 07:27:56
00045 suncat0046 pw.x -in pw.inp   Done                     12/25/2018 07:27:56
00046 suncat0046 pw.x -in pw.inp   Done                     12/25/2018 07:27:56
00047 suncat0046 pw.x -in pw.inp   Done                     12/25/2018 07:27:56
00048 suncat0141 pw.x -in pw.inp   Done                     12/25/2018 07:27:56
00049 suncat0141 pw.x -in pw.inp   Done                     12/25/2018 07:27:56
00050 suncat0141 pw.x -in pw.inp   Done                     12/25/2018 07:27:56
00051 suncat0141 pw.x -in pw.inp   Done                     12/25/2018 07:27:56
00052 suncat0141 pw.x -in pw.inp   Done                     12/25/2018 07:27:56
00053 suncat0141 pw.x -in pw.inp   Done                     12/25/2018 07:27:56
00054 suncat0141 pw.x -in pw.inp   Done                     12/25/2018 07:27:56
00055 suncat0141 pw.x -in pw.inp   Done                     12/25/2018 07:27:56
00056 suncat0140 pw.x -in pw.inp   Done                     12/25/2018 07:27:56
00057 suncat0140 pw.x -in pw.inp   Done                     12/25/2018 07:27:56
00058 suncat0140 pw.x -in pw.inp   Done                     12/25/2018 07:27:56
00059 suncat0140 pw.x -in pw.inp   Done                     12/25/2018 07:27:56
00060 suncat0140 pw.x -in pw.inp   Done                     12/25/2018 07:27:56
00061 suncat0140 pw.x -in pw.inp   Done                     12/25/2018 07:27:56
00062 suncat0140 pw.x -in pw.inp   Done                     12/25/2018 07:27:56
00063 suncat0140 pw.x -in pw.inp   Done                     12/25/2018 07:27:56

     Program PWSCF v.5.1rc2 (svn rev. 11289) starts on 25Dec2018 at  7:28: 3 

     This program is part of the open-source Quantum ESPRESSO suite
     for quantum simulation of materials; please cite
         "P. Giannozzi et al., J. Phys.:Condens. Matter 21 395502 (2009);
          URL http://www.quantum-espresso.org", 
     in publications or presentations arising from this work. More details at
     http://www.quantum-espresso.org/quote

     Parallel version (MPI), running on    64 processors
     R & G space division:  proc/nbgrp/npool/nimage =      64
     Reading input from pw.inp
     Message from routine read_cards :
     DEPRECATED: no units specified in CELL_PARAMETERS card

     Current dimensions of program PWSCF are:
     Max number of different atomic species (ntypx) = 10
     Max number of k-points (npk) =  40000
     Max angular momentum in pseudopotentials (lmaxx) =  3
     Presently stress not available with electric field


     **************************************************************************
     Initializing libbeef V0.1.1 with the BEEF-vdW functional.
     Citation: Wellendorff et al., PRB 85, 235149 (2012).
     **************************************************************************


     IMPORTANT: XC functional enforced from input :
     Exchange-correlation      = BEEF-VDW ( 1  4 27 13 2)
     Any further DFT definition will be discarded
     Please, verify this is what you really want


     Subspace diagonalization in iterative solution of the eigenvalue problem:
     a serial algorithm will be used

     Found symmetry operation: I + (  0.5000 -0.5000  0.0000)
     This is a supercell, fractional translations are disabled
 
     Parallelization info
     --------------------
     sticks:   dense  smooth     PW     G-vecs:    dense   smooth      PW
     Min          56      22      6                10934     2752     418
     Max          57      23      7                10959     2783     435
     Sum        3631    1445    421               700577   176835   27375
 


     bravais-lattice index     =            0
     lattice parameter (alat)  =       1.8897  a.u.
     unit-cell volume          =    5886.8069 (a.u.)^3
     number of atoms/cell      =           12
     number of atomic types    =            2
     number of electrons       =       150.00
     number of Kohn-Sham states=          105
     kinetic-energy cutoff     =      36.7493  Ry
     charge density cutoff     =     367.4932  Ry
     convergence threshold     =      1.0E-06
     mixing beta               =       0.1000
     number of iterations used =           10  plain     mixing
     Exchange-correlation      = BEEF-VDW ( 1  4 27 13 2)
     nstep                     =           50


     celldm(1)=   1.889726  celldm(2)=   0.000000  celldm(3)=   0.000000
     celldm(4)=   0.000000  celldm(5)=   0.000000  celldm(6)=   0.000000

     crystal axes: (cart. coord. in units of alat)
               a(1) = (   6.319448   0.000000   0.000000 )  
               a(2) = (   3.138058   5.485255   0.000000 )  
               a(3) = (   0.000000   0.000000  25.165594 )  

     reciprocal axes: (cart. coord. in units 2 pi/alat)
               b(1) = (  0.158242 -0.090528  0.000000 )  
               b(2) = (  0.000000  0.182307  0.000000 )  
               b(3) = (  0.000000  0.000000  0.039737 )  


     PseudoPot. # 1 for Zr read from file:
     /afs/slac.stanford.edu/u/if/mamunm/psp/gbrv1.5pbe/Zr.UPF
     MD5 check sum: 5db81b1e868ab7776c4564c113de050b
     Pseudo is Ultrasoft + core correction, Zval = 12.0
     Generated by new atomic code, or converted to UPF format
     Using radial grid of  887 points,  6 beta functions with: 
                l(1) =   0
                l(2) =   0
                l(3) =   1
                l(4) =   1
                l(5) =   2
                l(6) =   2
     Q(r) pseudized with  6 coefficients,  rinner =    1.200   1.200   1.200
                                                       1.200   1.200

     PseudoPot. # 2 for In read from file:
     /afs/slac.stanford.edu/u/if/mamunm/psp/gbrv1.5pbe/In.UPF
     MD5 check sum: 90777abd96fbb83f2e67db2a40c566b9
     Pseudo is Ultrasoft + core correction, Zval = 13.0
     Generated by new atomic code, or converted to UPF format
     Using radial grid of  889 points,  6 beta functions with: 
                l(1) =   0
                l(2) =   0
                l(3) =   1
                l(4) =   1
                l(5) =   2
                l(6) =   2
     Q(r) pseudized with  6 coefficients,  rinner =    1.400   1.400   1.400
                                                       1.400   1.400

     vdW kernel table read from file vdW_kernel_table
     MD5 check sum: 095c7af220d748ca6e76c0b4c6cfb241

     atomic species   valence    mass     pseudopotential
        Zr1           12.00    91.22400     Zr( 1.00)
        In1           13.00   114.81800     In( 1.00)

     No symmetry found



   Cartesian axes

     site n.     atom                  positions (alat units)
         1           Zr1 tau(   1) = (   0.0000000   0.0000000  10.0000000  )
         2           Zr1 tau(   2) = (   4.7287530   2.7426276  10.0000000  )
         3           In1 tau(   3) = (   3.1597242   0.0000000  10.0000000  )
         4           In1 tau(   4) = (   1.5690288   2.7426276  10.0000000  )
         5           Zr1 tau(   5) = (   6.3194485   3.6652144  12.5827968  )
         6           Zr1 tau(   6) = (   1.5906955   0.9225868  12.5827968  )
         7           In1 tau(   7) = (   3.1597242   3.6652144  12.5827968  )
         8           In1 tau(   8) = (   4.7504197   0.9225868  12.5827968  )
         9           Zr1 tau(   9) = (   3.1779577   1.8431834  15.1109411  )
        10           Zr1 tau(  10) = (   7.9067166   4.5858125  15.1109442  )
        11           In1 tau(  11) = (   6.3368659   1.8427085  15.2174078  )
        12           In1 tau(  12) = (   4.7461706   4.5853376  15.2174080  )

     number of k points=    20  Fermi-Dirac smearing, width (Ry)=  0.0110
                       cart. coord. in units 2pi/alat
        k(    1) = (   0.0000000   0.0000000   0.0000000), wk =   0.0555556
        k(    2) = (   0.0000000   0.0303845   0.0000000), wk =   0.1111111
        k(    3) = (   0.0000000   0.0607690   0.0000000), wk =   0.1111111
        k(    4) = (   0.0000000  -0.0911535   0.0000000), wk =   0.0555556
        k(    5) = (   0.0263736  -0.0150881   0.0000000), wk =   0.1111111
        k(    6) = (   0.0263736   0.0152964   0.0000000), wk =   0.1111111
        k(    7) = (   0.0263736   0.0456809   0.0000000), wk =   0.1111111
        k(    8) = (   0.0263736  -0.1062415   0.0000000), wk =   0.1111111
        k(    9) = (   0.0263736  -0.0758570   0.0000000), wk =   0.1111111
        k(   10) = (   0.0263736  -0.0454726   0.0000000), wk =   0.1111111
        k(   11) = (   0.0527472  -0.0301761   0.0000000), wk =   0.1111111
        k(   12) = (   0.0527472   0.0002084   0.0000000), wk =   0.1111111
        k(   13) = (   0.0527472   0.0305928   0.0000000), wk =   0.1111111
        k(   14) = (   0.0527472  -0.1213296   0.0000000), wk =   0.1111111
        k(   15) = (   0.0527472  -0.0909451   0.0000000), wk =   0.1111111
        k(   16) = (   0.0527472  -0.0605606   0.0000000), wk =   0.1111111
        k(   17) = (  -0.0791208   0.0452642   0.0000000), wk =   0.0555556
        k(   18) = (  -0.0791208   0.0756487   0.0000000), wk =   0.1111111
        k(   19) = (  -0.0791208   0.1060332   0.0000000), wk =   0.1111111
        k(   20) = (  -0.0791208  -0.0458893   0.0000000), wk =   0.0555556

     Dense  grid:   700577 G-vectors     FFT dimensions: (  75,  75, 300)

     Smooth grid:   176835 G-vectors     FFT dimensions: (  48,  48, 192)

     Largest allocated arrays     est. size (Mb)     dimensions
        Kohn-Sham Wavefunctions         0.59 Mb     (     371,  105)
        NL pseudopotentials             1.22 Mb     (     371,  216)
        Each V/rho on FFT grid          0.43 Mb     (   28125)
        Each G-vector array             0.08 Mb     (   10955)
        G-vector shells                 0.04 Mb     (    5137)
     Largest temporary arrays     est. size (Mb)     dimensions
        Auxiliary wavefunctions         2.38 Mb     (     371,  420)
        Each subspace H/S matrix        2.69 Mb     (     420,  420)
        Each <psi_i|beta_j> matrix      0.35 Mb     (     216,  105)
        Arrays for rho mixing           4.29 Mb     (   28125,   10)

     Initial potential from superposition of free atoms
     Check: negative starting charge=   -0.368289

     starting charge  140.98710, renormalised to  150.00000

     negative rho (up, down):  3.918E-01 0.000E+00


     ************************************************************************
     *
     * You are using vdW-DF for exchange-correlation in this calculation.
     * Please cite the following three references that made this development
     * possible:
     *
     *   M. Dion, H. Rydberg, E. Schroder, D. C. Langreth, and
     *   B. I. Lundqvist, Phys. Rev. Lett. 92, 246401 (2004).
     *
     *   T. Thonhauser, V. R. Cooper, S. Li, A. Puzder, P. Hyldgaard, and
     *   D. C. Langreth, Phys. Rev. B 76, 125112 (2007).
     *
     *   G. Roman-Perez and J. M. Soler, Phys. Rev. Lett. 103, 096102 (2009).
     *
     *
     * If you are using vdW-DF2, please also cite:
     *
     *   K. Lee, E. D. Murray, L. Kong, B. I. Lundqvist, and
     *   D. C. Langreth, Phys. Rev. B 82, 081101(R) (2010).
     *
     *
     * If you are calculating the stress with vdW-DF, please also cite:
     *
     *   R. Sabatini, E. Kucukbenli, B. Kolb, T. Thonhauser, and
     *   S. de Gironcoli, J. Phys.: Condens. Matter 24, 424209 (2012).
     *
     ************************************************************************

     Carrying out vdW-DF run using the following parameters:

     Nqs =      20    Nr_points =    1024   r_max =   100.000
     q_mesh =
               0.00001000     0.04494208     0.09755937     0.15916263
               0.23128650     0.31572767     0.41458969     0.53033537
               0.66584808     0.82450364     1.01025438     1.22772762
               1.48234092     1.78043706     2.12944203     2.53805004
               3.01644009     3.57652955     4.23227104     5.00000000

     Gradients computed in reciprocal space

     ************************************************************************


 
     Adding external electric field

     Computed dipole along edir(3) : 
        Dipole                0.3078 Ry au,          0.7822 Debye
        Dipole field          0.0007 Ry au
 
        Potential amp.       -0.0609 Ry
        Total length         46.3672 bohr
 
     Starting wfc are  132 randomized atomic wfcs

     total cpu time spent up to now is       31.6 secs

     per-process dynamical memory:    41.7 Mb

     Self-consistent Calculation

     iteration #  1     ecut=    36.75 Ry     beta=0.10
     Davidson diagonalization with overlap
     ethr =  1.00E-02,  avg # of iterations =  5.3

     negative rho (up, down):  3.885E-01 0.000E+00
 
     Adding external electric field

     Computed dipole along edir(3) : 
        Dipole               -1.0958 Ry au,         -2.7852 Debye
        Dipole field         -0.0023 Ry au
 
        Potential amp.        0.2169 Ry
        Total length         46.3672 bohr
 

     total cpu time spent up to now is      121.1 secs

     total energy              =   -1408.66859527 Ry
     Harris-Foulkes estimate   =   -1410.13465065 Ry
     estimated scf accuracy    <       9.08657339 Ry

     iteration #  2     ecut=    36.75 Ry     beta=0.10
     Davidson diagonalization with overlap
     ethr =  6.06E-03,  avg # of iterations =  1.4

     negative rho (up, down):  3.878E-01 0.000E+00
 
     Adding external electric field

     Computed dipole along edir(3) : 
        Dipole                0.2554 Ry au,          0.6492 Debye
        Dipole field          0.0005 Ry au
 
        Potential amp.       -0.0506 Ry
        Total length         46.3672 bohr
 

     total cpu time spent up to now is      181.2 secs

     total energy              =   -1408.20688064 Ry
     Harris-Foulkes estimate   =   -1409.46817391 Ry
     estimated scf accuracy    <      26.76617876 Ry

     iteration #  3     ecut=    36.75 Ry     beta=0.10
     Davidson diagonalization with overlap
     ethr =  6.06E-03,  avg # of iterations =  1.0

     negative rho (up, down):  3.788E-01 0.000E+00
 
     Adding external electric field

     Computed dipole along edir(3) : 
        Dipole                0.0670 Ry au,          0.1702 Debye
        Dipole field          0.0001 Ry au
 
        Potential amp.       -0.0133 Ry
        Total length         46.3672 bohr
 

     total cpu time spent up to now is      237.5 secs

     total energy              =   -1406.73578739 Ry
     Harris-Foulkes estimate   =   -1408.84170884 Ry
     estimated scf accuracy    <       5.53450350 Ry

     iteration #  4     ecut=    36.75 Ry     beta=0.10
     Davidson diagonalization with overlap
     ethr =  3.69E-03,  avg # of iterations =  2.0

     negative rho (up, down):  3.775E-01 0.000E+00
 
     Adding external electric field

     Computed dipole along edir(3) : 
        Dipole                0.0283 Ry au,          0.0719 Debye
        Dipole field          0.0001 Ry au
 
        Potential amp.       -0.0056 Ry
        Total length         46.3672 bohr
 

     total cpu time spent up to now is      301.6 secs

     total energy              =   -1407.26779416 Ry
     Harris-Foulkes estimate   =   -1407.35402613 Ry
     estimated scf accuracy    <       0.48387011 Ry

     iteration #  5     ecut=    36.75 Ry     beta=0.10
     Davidson diagonalization with overlap
     ethr =  3.23E-04,  avg # of iterations =  6.2

     negative rho (up, down):  3.760E-01 0.000E+00
 
     Adding external electric field

     Computed dipole along edir(3) : 
        Dipole                0.0181 Ry au,          0.0459 Debye
        Dipole field          0.0000 Ry au
 
        Potential amp.       -0.0036 Ry
        Total length         46.3672 bohr
 

     total cpu time spent up to now is      375.9 secs

     total energy              =   -1407.25758420 Ry
     Harris-Foulkes estimate   =   -1407.30068894 Ry
     estimated scf accuracy    <       0.18653386 Ry

     iteration #  6     ecut=    36.75 Ry     beta=0.10
     Davidson diagonalization with overlap
     ethr =  1.24E-04,  avg # of iterations =  1.7

     negative rho (up, down):  3.749E-01 0.000E+00
 
     Adding external electric field

     Computed dipole along edir(3) : 
        Dipole               -0.0072 Ry au,         -0.0183 Debye
        Dipole field         -0.0000 Ry au
 
        Potential amp.        0.0014 Ry
        Total length         46.3672 bohr
 

     total cpu time spent up to now is      439.3 secs

     total energy              =   -1407.25653115 Ry
     Harris-Foulkes estimate   =   -1407.26819391 Ry
     estimated scf accuracy    <       0.07269277 Ry

     iteration #  7     ecut=    36.75 Ry     beta=0.10
     Davidson diagonalization with overlap
     ethr =  4.85E-05,  avg # of iterations =  4.7

     negative rho (up, down):  3.734E-01 0.000E+00
 
     Adding external electric field

     Computed dipole along edir(3) : 
        Dipole                0.0093 Ry au,          0.0236 Debye
        Dipole field          0.0000 Ry au
 
        Potential amp.       -0.0018 Ry
        Total length         46.3672 bohr
 

     total cpu time spent up to now is      498.8 secs

     total energy              =   -1407.25316770 Ry
     Harris-Foulkes estimate   =   -1407.26046354 Ry
     estimated scf accuracy    <       0.03054623 Ry

     iteration #  8     ecut=    36.75 Ry     beta=0.10
     Davidson diagonalization with overlap
     ethr =  2.04E-05,  avg # of iterations =  4.4

     negative rho (up, down):  3.732E-01 0.000E+00
 
     Adding external electric field

     Computed dipole along edir(3) : 
        Dipole               -0.0260 Ry au,         -0.0661 Debye
        Dipole field         -0.0001 Ry au
 
        Potential amp.        0.0051 Ry
        Total length         46.3672 bohr
 

     total cpu time spent up to now is      562.6 secs

     total energy              =   -1407.25479995 Ry
     Harris-Foulkes estimate   =   -1407.25690051 Ry
     estimated scf accuracy    <       0.05966777 Ry

     iteration #  9     ecut=    36.75 Ry     beta=0.10
     Davidson diagonalization with overlap
     ethr =  2.04E-05,  avg # of iterations =  1.0

     negative rho (up, down):  3.728E-01 0.000E+00
 
     Adding external electric field

     Computed dipole along edir(3) : 
        Dipole               -0.0233 Ry au,         -0.0593 Debye
        Dipole field         -0.0000 Ry au
 
        Potential amp.        0.0046 Ry
        Total length         46.3672 bohr
 

     total cpu time spent up to now is      621.6 secs

     total energy              =   -1407.25549920 Ry
     Harris-Foulkes estimate   =   -1407.25601700 Ry
     estimated scf accuracy    <       0.00514040 Ry

     iteration # 10     ecut=    36.75 Ry     beta=0.10
     Davidson diagonalization with overlap
     ethr =  3.43E-06,  avg # of iterations =  5.5

     negative rho (up, down):  3.725E-01 0.000E+00
 
     Adding external electric field

     Computed dipole along edir(3) : 
        Dipole               -0.0187 Ry au,         -0.0474 Debye
        Dipole field         -0.0000 Ry au
 
        Potential amp.        0.0037 Ry
        Total length         46.3672 bohr
 

     total cpu time spent up to now is      693.4 secs

     total energy              =   -1407.25567070 Ry
     Harris-Foulkes estimate   =   -1407.25575920 Ry
     estimated scf accuracy    <       0.00099838 Ry

     iteration # 11     ecut=    36.75 Ry     beta=0.10
     Davidson diagonalization with overlap
     ethr =  6.66E-07,  avg # of iterations =  2.5

     negative rho (up, down):  3.724E-01 0.000E+00
 
     Adding external electric field

     Computed dipole along edir(3) : 
        Dipole               -0.0217 Ry au,         -0.0553 Debye
        Dipole field         -0.0000 Ry au
 
        Potential amp.        0.0043 Ry
        Total length         46.3672 bohr
 

     total cpu time spent up to now is      757.2 secs

     total energy              =   -1407.25562554 Ry
     Harris-Foulkes estimate   =   -1407.25576799 Ry
     estimated scf accuracy    <       0.00109885 Ry

     iteration # 12     ecut=    36.75 Ry     beta=0.10
     Davidson diagonalization with overlap
     ethr =  6.66E-07,  avg # of iterations =  2.0

     negative rho (up, down):  3.723E-01 0.000E+00
 
     Adding external electric field

     Computed dipole along edir(3) : 
        Dipole               -0.0210 Ry au,         -0.0534 Debye
        Dipole field         -0.0000 Ry au
 
        Potential amp.        0.0042 Ry
        Total length         46.3672 bohr
 

     total cpu time spent up to now is      822.8 secs

     total energy              =   -1407.25570151 Ry
     Harris-Foulkes estimate   =   -1407.25573724 Ry
     estimated scf accuracy    <       0.00020401 Ry

     iteration # 13     ecut=    36.75 Ry     beta=0.10
     Davidson diagonalization with overlap
     ethr =  1.36E-07,  avg # of iterations =  2.0

     negative rho (up, down):  3.723E-01 0.000E+00
 
     Adding external electric field

     Computed dipole along edir(3) : 
        Dipole               -0.0210 Ry au,         -0.0535 Debye
        Dipole field         -0.0000 Ry au
 
        Potential amp.        0.0042 Ry
        Total length         46.3672 bohr
 

     total cpu time spent up to now is      890.4 secs

     total energy              =   -1407.25571601 Ry
     Harris-Foulkes estimate   =   -1407.25571909 Ry
     estimated scf accuracy    <       0.00003364 Ry

     iteration # 14     ecut=    36.75 Ry     beta=0.10
     Davidson diagonalization with overlap
     ethr =  2.24E-08,  avg # of iterations =  2.0

     negative rho (up, down):  3.723E-01 0.000E+00
 
     Adding external electric field

     Computed dipole along edir(3) : 
        Dipole               -0.0211 Ry au,         -0.0536 Debye
        Dipole field         -0.0000 Ry au
 
        Potential amp.        0.0042 Ry
        Total length         46.3672 bohr
 

     total cpu time spent up to now is      956.3 secs

     total energy              =   -1407.25572279 Ry
     Harris-Foulkes estimate   =   -1407.25572172 Ry
     estimated scf accuracy    <       0.00001508 Ry

     iteration # 15     ecut=    36.75 Ry     beta=0.10
     Davidson diagonalization with overlap
     ethr =  1.01E-08,  avg # of iterations =  1.5

     negative rho (up, down):  3.723E-01 0.000E+00
 
     Adding external electric field

     Computed dipole along edir(3) : 
        Dipole               -0.0214 Ry au,         -0.0544 Debye
        Dipole field         -0.0000 Ry au
 
        Potential amp.        0.0042 Ry
        Total length         46.3672 bohr
 

     total cpu time spent up to now is     1016.1 secs

     total energy              =   -1407.25572556 Ry
     Harris-Foulkes estimate   =   -1407.25572361 Ry
     estimated scf accuracy    <       0.00000276 Ry

     iteration # 16     ecut=    36.75 Ry     beta=0.10
     Davidson diagonalization with overlap
     ethr =  1.84E-09,  avg # of iterations =  2.1

     negative rho (up, down):  3.722E-01 0.000E+00
 
     Adding external electric field

     Computed dipole along edir(3) : 
        Dipole               -0.0212 Ry au,         -0.0540 Debye
        Dipole field         -0.0000 Ry au
 
        Potential amp.        0.0042 Ry
        Total length         46.3672 bohr
 

     total cpu time spent up to now is     1081.1 secs

     total energy              =   -1407.25572709 Ry
     Harris-Foulkes estimate   =   -1407.25572606 Ry
     estimated scf accuracy    <       0.00000116 Ry

     iteration # 17     ecut=    36.75 Ry     beta=0.10
     Davidson diagonalization with overlap
     ethr =  7.71E-10,  avg # of iterations =  2.7

     negative rho (up, down):  3.723E-01 0.000E+00

     negative rho (up, down):  3.723E-01 0.000E+00

     negative rho (up, down):  3.723E-01 0.000E+00

     negative rho (up, down):  3.723E-01 0.000E+00

     negative rho (up, down):  3.723E-01 0.000E+00

     negative rho (up, down):  3.723E-01 0.000E+00

     negative rho (up, down):  3.723E-01 0.000E+00

     negative rho (up, down):  3.723E-01 0.000E+00

     negative rho (up, down):  3.723E-01 0.000E+00

     negative rho (up, down):  3.723E-01 0.000E+00

     negative rho (up, down):  3.723E-01 0.000E+00

     negative rho (up, down):  3.723E-01 0.000E+00

     negative rho (up, down):  3.723E-01 0.000E+00

     negative rho (up, down):  3.723E-01 0.000E+00

     negative rho (up, down):  3.723E-01 0.000E+00

     negative rho (up, down):  3.723E-01 0.000E+00

     negative rho (up, down):  3.723E-01 0.000E+00

     negative rho (up, down):  3.723E-01 0.000E+00

     negative rho (up, down):  3.723E-01 0.000E+00

     negative rho (up, down):  3.723E-01 0.000E+00

     negative rho (up, down):  3.723E-01 0.000E+00

     negative rho (up, down):  3.723E-01 0.000E+00

     negative rho (up, down):  3.723E-01 0.000E+00

     negative rho (up, down):  3.723E-01 0.000E+00

     negative rho (up, down):  3.723E-01 0.000E+00

     negative rho (up, down):  3.723E-01 0.000E+00

     negative rho (up, down):  3.723E-01 0.000E+00

     negative rho (up, down):  3.723E-01 0.000E+00

     negative rho (up, down):  3.723E-01 0.000E+00

     negative rho (up, down):  3.723E-01 0.000E+00

     negative rho (up, down):  3.723E-01 0.000E+00

     negative rho (up, down):  3.723E-01 0.000E+00

     negative rho (up, down):  3.723E-01 0.000E+00

[...]
     0.7179   0.8599   1.0167   1.1820   1.5097   1.7591   1.8252   2.2369
     2.3566   2.5844   2.6675   2.8580   3.2134   3.2363   3.3154   3.4061
     3.5881   3.7112   3.7637   3.8090   3.8346   4.0737   4.4353   4.5316
     4.6469   4.7484   4.9126   5.1087   5.2164   5.3272   5.4057   5.8005
     5.9178

          k = 0.0527 0.0306 0.0000 ( 22184 PWs)   bands (ev):

   -48.3397 -48.2906 -48.2152 -48.1657 -47.8781 -47.8274 -26.4656 -26.4047
   -26.3993 -26.3510 -26.3110 -26.3063 -26.2872 -26.2431 -26.2024 -26.1385
   -26.0633 -25.9900 -25.9255 -25.8774 -25.7845 -25.7152 -25.6602 -25.5278
   -13.5618 -13.4474 -13.4005 -13.3631 -13.3245 -13.3243 -13.3156 -13.3065
   -13.2641 -13.2491 -13.2099 -13.2026 -13.1797 -13.1679 -13.1388 -13.0998
   -13.0766 -13.0614 -13.0481 -13.0407 -13.0342 -13.0233 -13.0209 -13.0021
   -12.9954 -12.9937 -12.9640 -12.9556 -12.8706 -12.8415  -6.2942  -5.2006
    -4.2999  -3.4969  -2.5955  -2.4308  -2.2068  -1.7833  -1.7527  -0.9943
    -0.8082  -0.7941  -0.6118  -0.1828  -0.1517   0.1554   0.3399   0.4670
     0.5923   0.6049   0.8955   1.0633   1.6271   1.9259   2.2687   2.3645
     2.3907   2.4078   2.9032   2.9808   3.0251   3.2220   3.3726   3.5753
     3.7542   3.9341   3.9951   4.0432   4.0989   4.1616   4.5243   4.7673
     5.0197   5.1076   5.1450   5.2280   5.3828   5.8952   5.9017   5.9573
     6.0372

          k = 0.0527-0.1213 0.0000 ( 22105 PWs)   bands (ev):

   -48.3364 -48.2939 -48.2119 -48.1691 -47.8747 -47.8308 -26.4619 -26.4087
   -26.3659 -26.3470 -26.3029 -26.2915 -26.2772 -26.2472 -26.1988 -26.1427
   -26.0291 -25.9858 -25.9302 -25.9137 -25.8212 -25.7115 -25.6640 -25.5652
   -13.5343 -13.4321 -13.3838 -13.3461 -13.3298 -13.3194 -13.3056 -13.2889
   -13.2628 -13.2425 -13.2233 -13.1910 -13.1626 -13.1561 -13.1230 -13.1207
   -13.0739 -13.0621 -13.0459 -13.0377 -13.0365 -13.0354 -13.0227 -13.0076
   -13.0065 -13.0011 -12.9684 -12.9683 -12.8991 -12.8701  -5.9744  -5.1233
    -4.1603  -4.1272  -3.0831  -2.5633  -2.0998  -1.7207  -1.4998  -1.0277
    -1.0247  -0.6658  -0.4404  -0.1749  -0.1707   0.1511   0.4494   0.5438
     0.6023   0.7412   1.0055   1.0510   1.7276   1.9748   2.2068   2.3564
     2.3885   2.7543   2.8343   2.8760   3.0381   3.0438   3.1004   3.5096
     3.5627   3.6249   3.9026   3.9743   4.2059   4.3104   4.7420   4.8391
     5.0456   5.0806   5.2319   5.4739   5.5208   5.7291   5.7420   5.8554
     6.0690

          k = 0.0527-0.0909 0.0000 ( 22056 PWs)   bands (ev):

   -48.3275 -48.3030 -48.2029 -48.1782 -47.8655 -47.8401 -26.4509 -26.4196
   -26.3354 -26.3029 -26.2915 -26.2731 -26.2582 -26.1872 -26.1837 -26.1539
   -26.0117 -25.9737 -25.9420 -25.9338 -25.9200 -25.7014 -25.6742 -25.6659
   -13.4639 -13.3968 -13.3502 -13.3465 -13.3179 -13.3114 -13.3114 -13.3029
   -13.2627 -13.2137 -13.1885 -13.1773 -13.1573 -13.1296 -13.1254 -13.0906
   -13.0720 -13.0695 -13.0684 -13.0479 -13.0465 -13.0412 -13.0396 -13.0334
   -13.0290 -13.0065 -12.9973 -12.9834 -12.9717 -12.9465  -5.6180  -5.0673
    -4.8793  -3.8911  -3.8862  -2.8985  -2.2520  -1.2957  -0.8839  -0.7942
    -0.4179  -0.3676  -0.1414  -0.0043   0.0444   0.6142   0.7470   0.7699
     0.9523   1.0662   1.1939   1.3504   1.6806   1.8784   2.0160   2.1473
     2.2527   2.3743   2.4461   2.6939   2.8257   3.1778   3.2150   3.2857
     3.3500   3.5056   3.5826   3.7350   3.9186   4.1765   4.2210   4.5899
     4.6881   4.7196   5.1941   5.4277   5.6679   5.7950   5.8329   5.9530
     6.0783

          k = 0.0527-0.0606 0.0000 ( 22117 PWs)   bands (ev):

   -48.3153 -48.3152 -48.1906 -48.1905 -47.8529 -47.8528 -26.4355 -26.4346
   -26.3194 -26.3187 -26.2753 -26.2733 -26.1707 -26.1692 -26.1437 -26.1431
   -26.0533 -26.0526 -25.9577 -25.9570 -25.8013 -25.8008 -25.6878 -25.6875
   -13.3876 -13.3868 -13.3564 -13.3501 -13.3212 -13.3198 -13.3131 -13.3057
   -13.2663 -13.2642 -13.1187 -13.1172 -13.1126 -13.1121 -13.0976 -13.0885
   -13.0869 -13.0857 -13.0811 -13.0796 -13.0652 -13.0642 -13.0563 -13.0486
   -13.0316 -13.0310 -13.0218 -13.0209 -12.9903 -12.9853  -5.8021  -5.2736
    -4.5578  -4.4030  -3.5675  -3.5260  -1.5683  -0.7593  -0.7408  -0.3608
    -0.1294  -0.1115   0.2740   0.3029   0.4478   0.6955   0.8136   0.8732
     0.9677   1.1282   1.3646   1.4686   1.5097   1.7106   1.8265   2.0738
     2.0970   2.3341   2.3352   2.3786   2.4564   2.8462   3.1720   3.2411
     3.3669   3.4494   3.4780   3.7073   3.8350   4.2727   4.2968   4.4844
     4.6305   4.8629   4.9152   4.9860   5.4153   5.5997   5.7201   5.8860
     5.9886

          k =-0.0791 0.0453 0.0000 ( 22084 PWs)   bands (ev):

   -48.3153 -48.3152 -48.1906 -48.1905 -47.8529 -47.8528 -26.4351 -26.4350
   -26.3191 -26.3190 -26.2743 -26.2742 -26.1700 -26.1700 -26.1434 -26.1434
   -26.0530 -26.0529 -25.9574 -25.9573 -25.8011 -25.8010 -25.6877 -25.6876
   -13.3872 -13.3872 -13.3541 -13.3541 -13.3216 -13.3216 -13.3074 -13.3074
   -13.2652 -13.2652 -13.1178 -13.1178 -13.1126 -13.1126 -13.0944 -13.0944
   -13.0863 -13.0863 -13.0803 -13.0803 -13.0639 -13.0639 -13.0530 -13.0530
   -13.0308 -13.0308 -13.0208 -13.0208 -12.9877 -12.9877  -5.5779  -5.5779
    -4.4404  -4.4404  -3.5469  -3.5469  -1.1880  -1.1880  -0.6973  -0.6973
    -0.0059  -0.0059   0.2724   0.2724   0.5807   0.5807   0.8265   0.8266
     1.0615   1.0615   1.3991   1.3992   1.5498   1.5498   1.9213   1.9214
     2.3701   2.3701   2.5996   2.5996   2.9050   2.9050   3.0525   3.0526
     3.4187   3.4188   3.6951   3.6951   3.7873   3.7873   4.0980   4.0980
     4.7501   4.7501   5.0821   5.0821   5.3874   5.3874   5.5461   5.5461
     5.9600

          k =-0.0791 0.0756 0.0000 ( 22119 PWs)   bands (ev):

   -48.3275 -48.3030 -48.2029 -48.1782 -47.8655 -47.8401 -26.4505 -26.4198
   -26.3352 -26.3031 -26.2906 -26.2728 -26.2584 -26.1864 -26.1834 -26.1541
   -26.0117 -25.9736 -25.9416 -25.9335 -25.9201 -25.7014 -25.6740 -25.6659
   -13.4641 -13.3998 -13.3554 -13.3458 -13.3229 -13.3124 -13.3124 -13.3011
   -13.2617 -13.2143 -13.1895 -13.1791 -13.1574 -13.1357 -13.1261 -13.0955
   -13.0746 -13.0692 -13.0682 -13.0482 -13.0455 -13.0414 -13.0390 -13.0350
   -13.0292 -13.0057 -12.9959 -12.9856 -12.9719 -12.9474  -5.8969  -4.9800
    -4.8421  -3.9548  -3.8481  -2.9287  -1.9251  -1.2820  -0.8690  -0.5460
    -0.3421  -0.2572  -0.2002   0.0858   0.2659   0.5904   0.7835   0.7976
     0.9678   1.0145   1.2415   1.3489   1.5694   1.7449   1.7462   2.1925
     2.1997   2.6552   2.6813   2.9166   3.0050   3.0148   3.0925   3.2727
     3.3931   3.5003   3.5088   3.8404   3.8584   4.0355   4.2616   4.2692
     4.6114   4.7939   4.8508   4.9796   5.1918   5.3956   5.6452   5.7316
     6.1900

          k =-0.0791 0.1060 0.0000 ( 22105 PWs)   bands (ev):

   -48.3364 -48.2939 -48.2119 -48.1691 -47.8747 -47.8308 -26.4619 -26.4087
   -26.3659 -26.3470 -26.3029 -26.2915 -26.2772 -26.2472 -26.1988 -26.1427
   -26.0291 -25.9858 -25.9302 -25.9137 -25.8212 -25.7115 -25.6640 -25.5652
   -13.5343 -13.4321 -13.3838 -13.3461 -13.3298 -13.3194 -13.3056 -13.2889
   -13.2628 -13.2425 -13.2233 -13.1910 -13.1626 -13.1561 -13.1230 -13.1207
   -13.0739 -13.0621 -13.0459 -13.0377 -13.0365 -13.0354 -13.0227 -13.0076
   -13.0065 -13.0011 -12.9684 -12.9683 -12.8991 -12.8701  -5.9744  -5.1233
    -4.1603  -4.1272  -3.0831  -2.5633  -2.0998  -1.7207  -1.4998  -1.0277
    -1.0247  -0.6658  -0.4404  -0.1749  -0.1707   0.1511   0.4494   0.5438
     0.6023   0.7412   1.0055   1.0510   1.7276   1.9748   2.2068   2.3564
     2.3885   2.7543   2.8343   2.8760   3.0381   3.0438   3.1004   3.5096
     3.5627   3.6249   3.9026   3.9743   4.2059   4.3104   4.7420   4.8391
     5.0456   5.0806   5.2319   5.4739   5.5208   5.7291   5.7420   5.8554
     6.0690

          k =-0.0791-0.0459 0.0000 ( 22080 PWs)   bands (ev):

   -48.3397 -48.2906 -48.2152 -48.1657 -47.8781 -47.8274 -26.4662 -26.4046
   -26.3998 -26.3514 -26.3115 -26.3075 -26.2872 -26.2432 -26.2034 -26.1387
   -26.0637 -25.9903 -25.9262 -25.8775 -25.7846 -25.7153 -25.6604 -25.5280
   -13.5613 -13.4437 -13.3937 -13.3633 -13.3253 -13.3189 -13.3146 -13.3022
   -13.2602 -13.2481 -13.2085 -13.2028 -13.1716 -13.1671 -13.1325 -13.0964
   -13.0740 -13.0594 -13.0478 -13.0374 -13.0331 -13.0232 -13.0201 -13.0027
   -12.9946 -12.9925 -12.9624 -12.9541 -12.8696 -12.8403  -5.9494  -5.2608
    -4.2034  -3.3860  -2.8259  -2.5384  -2.3945  -1.8192  -1.3481  -1.1711
    -1.1367  -1.0413  -0.9890  -0.5210  -0.2958  -0.2341   0.3687   0.3711
     0.4569   0.5966   0.8624   1.0848   1.7041   2.1074   2.3776   2.4650
     2.5015   2.5770   2.8197   2.9179   3.0444   3.1513   3.2863   3.6727
     3.6769   3.8209   4.0116   4.1665   4.1761   4.3452   5.0269   5.0738
     5.2776   5.3480   5.5832   5.7483   5.7585   5.8861   5.9169   6.0304
     6.2018

     the Fermi energy is     1.2435 ev

!    total energy              =   -1407.26060472 Ry
     Harris-Foulkes estimate   =   -1407.26059964 Ry
     estimated scf accuracy    <       0.00000065 Ry

     The total energy is the sum of the following terms:

     one-electron contribution =   -9211.79909131 Ry
     hartree contribution      =    4643.00147957 Ry
     xc contribution           =    -345.37597495 Ry
     ewald contribution        =    3506.97892812 Ry
     electric field correction =       0.00000556 Ry
     smearing contrib. (-TS)   =      -0.06595172 Ry

     convergence has been achieved in  17 iterations
 
 BEEF-vdW xc energy contributions
           1 :   -300.569797985524     
           2 :    274.329623977660     
           3 :   -229.887965325869     
           4 :    179.539975574820     
           5 :   -134.587446966284     
           6 :    101.309913523445     
           7 :   -79.8331140765681     
           8 :    65.9060583656690     
           9 :   -54.2183262685092     
          10 :    41.3737311918334     
          11 :   -27.1365534495474     
          12 :    13.6664883651345     
          13 :   -3.56420637866671     
          14 :   -1.94263271449188     
          15 :    3.64261331365662     
          16 :   -3.64716721995887     
          17 :    4.01710353990575     
          18 :   -5.66018782013714     
          19 :    8.10882518012363     
          20 :   -10.1488105600604     
          21 :    10.7680648173031     
          22 :   -9.80310340260337     
          23 :    7.94695420235701     
          24 :   -6.22529064736966     
          25 :    5.35236891762611     
          26 :   -5.38531728634155     
          27 :    5.83409125168339     
          28 :   -6.07304466968384     
          29 :    5.74287825711758     
          30 :   -4.90493057416097     
          31 :   -29.5965923122257     
          32 :   -21.8080012768795     

     Forces acting on atoms (Ry/au):


     negative rho (up, down):  3.711E-01 0.000E+00
     atom    1 type  1   force =     0.00145617    0.00084454    0.02102729
     atom    2 type  1   force =     0.00145170    0.00084206    0.02102541
     atom    3 type  2   force =     0.00194639    0.00111832   -0.01925735
     atom    4 type  2   force =     0.00193721    0.00113359   -0.01925736
     atom    5 type  1   force =    -0.00769777   -0.00446466    0.00267862
     atom    6 type  1   force =    -0.00770019   -0.00446596    0.00267684
     atom    7 type  2   force =     0.00434859    0.00251541   -0.00575355
     atom    8 type  2   force =     0.00434316    0.00252577   -0.00575379
     atom    9 type  1   force =    -0.00026391   -0.00015314   -0.00026333
     atom   10 type  1   force =    -0.00025879   -0.00015008   -0.00026162
     atom   11 type  2   force =     0.00021630    0.00013129    0.00156954
     atom   12 type  2   force =     0.00022113    0.00012286    0.00156932

     Total force =     0.044005     Total SCF correction =     0.002909


     entering subroutine stress ...


     negative rho (up, down):  3.711E-01 0.000E+00
          total   stress  (Ry/bohr**3)                   (kbar)     P=   -7.85
  -0.00009277  -0.00002583  -0.00000678        -13.65     -3.80     -1.00
  -0.00002583  -0.00006321  -0.00000393         -3.80     -9.30     -0.58
  -0.00000678  -0.00000393  -0.00000406         -1.00     -0.58     -0.60

 !ASE

     Writing output data file calc.save
 
     init_run     :     19.62s CPU     33.59s WALL (       1 calls)
     electrons    :    798.61s CPU   1210.24s WALL (       1 calls)
     forces       :      3.00s CPU      3.77s WALL (       1 calls)
     stress       :      6.68s CPU      7.86s WALL (       1 calls)

     Called by init_run:
     wfcinit      :     16.94s CPU     29.99s WALL (       1 calls)
     potinit      :      1.38s CPU      2.09s WALL (       1 calls)

     Called by electrons:
     c_bands      :    608.85s CPU    921.14s WALL (      17 calls)
     sum_band     :    121.15s CPU    189.14s WALL (      17 calls)
     v_of_rho     :     21.47s CPU     32.84s WALL (      18 calls)
     newd         :      5.32s CPU      5.71s WALL (      18 calls)
     mix_rho      :      0.94s CPU      1.52s WALL (      17 calls)
     vdW_energy   :      2.02s CPU      2.03s WALL (      54 calls)
     vdW_ffts     :     42.26s CPU     64.39s WALL (     110 calls)
     vdW_v        :      7.65s CPU     11.15s WALL (      54 calls)

     Called by c_bands:
     init_us_2    :      0.47s CPU      0.51s WALL (     740 calls)
     cegterg      :    602.98s CPU    914.30s WALL (     340 calls)

     Called by *egterg:
     h_psi        :    507.59s CPU    812.78s WALL (    1387 calls)
     s_psi        :      5.70s CPU      5.75s WALL (    1387 calls)
     g_psi        :      0.32s CPU      0.31s WALL (    1027 calls)
     cdiaghg      :     57.90s CPU     61.08s WALL (    1367 calls)

     Called by h_psi:
     add_vuspsi   :      5.89s CPU      5.92s WALL (    1387 calls)

     General routines
     calbec       :     18.51s CPU     24.35s WALL (    1767 calls)
     fft          :     63.48s CPU     97.22s WALL (    3291 calls)
     ffts         :      0.20s CPU      0.34s WALL (      35 calls)
     fftw         :    590.89s CPU    956.34s WALL (  197320 calls)
     interpolate  :      0.82s CPU      1.36s WALL (      35 calls)
     davcio       :      0.00s CPU      0.01s WALL (      20 calls)
 
     Parallel routines
     fft_scatter  :    635.84s CPU   1033.10s WALL (  200646 calls)
 
     PWSCF        : 13m49.03s CPU    20m57.28s WALL

 
   This run was terminated on:   8:51:39  25Dec2018            

=------------------------------------------------------------------------------=
   JOB DONE.
=------------------------------------------------------------------------------=
Job  /afs/slac/g/suncat/bin/suncat-tsmpirun -x LD_LIBRARY_PATH -wdir /scratch/qe109273_cydF9 pw.x -in pw.inp

TID   HOST_NAME   COMMAND_LINE            STATUS            TERMINATION_TIME
===== ========== ================  =======================  ===================
00000 suncat0068 pw.x -in pw.inp   Done                     12/25/2018 08:51:39
00001 suncat0068 pw.x -in pw.inp   Done                     12/25/2018 08:51:39
00002 suncat0068 pw.x -in pw.inp   Done                     12/25/2018 08:51:39
00003 suncat0068 pw.x -in pw.inp   Done                     12/25/2018 08:51:39
00004 suncat0068 pw.x -in pw.inp   Done                     12/25/2018 08:51:39
00005 suncat0068 pw.x -in pw.inp   Done                     12/25/2018 08:51:39
00006 suncat0068 pw.x -in pw.inp   Done                     12/25/2018 08:51:39
00007 suncat0068 pw.x -in pw.inp   Done                     12/25/2018 08:51:39
00008 suncat0066 pw.x -in pw.inp   Done                     12/25/2018 08:51:39
00009 suncat0066 pw.x -in pw.inp   Done                     12/25/2018 08:51:39
00010 suncat0066 pw.x -in pw.inp   Done                     12/25/2018 08:51:39
00011 suncat0066 pw.x -in pw.inp   Done                     12/25/2018 08:51:39
00012 suncat0066 pw.x -in pw.inp   Done                     12/25/2018 08:51:39
00013 suncat0066 pw.x -in pw.inp   Done                     12/25/2018 08:51:39
00014 suncat0066 pw.x -in pw.inp   Done                     12/25/2018 08:51:39
00015 suncat0066 pw.x -in pw.inp   Done                     12/25/2018 08:51:39
00016 suncat0061 pw.x -in pw.inp   Done                     12/25/2018 08:51:39
00017 suncat0061 pw.x -in pw.inp   Done                     12/25/2018 08:51:39
00018 suncat0061 pw.x -in pw.inp   Done                     12/25/2018 08:51:39
00019 suncat0061 pw.x -in pw.inp   Done                     12/25/2018 08:51:39
00020 suncat0061 pw.x -in pw.inp   Done                     12/25/2018 08:51:39
00021 suncat0061 pw.x -in pw.inp   Done                     12/25/2018 08:51:39
00022 suncat0061 pw.x -in pw.inp   Done                     12/25/2018 08:51:39
00023 suncat0061 pw.x -in pw.inp   Done                     12/25/2018 08:51:39
00024 suncat0053 pw.x -in pw.inp   Done                     12/25/2018 08:51:39
00025 suncat0053 pw.x -in pw.inp   Done                     12/25/2018 08:51:39
00026 suncat0053 pw.x -in pw.inp   Done                     12/25/2018 08:51:39
00027 suncat0053 pw.x -in pw.inp   Done                     12/25/2018 08:51:39
00028 suncat0053 pw.x -in pw.inp   Done                     12/25/2018 08:51:39
00029 suncat0053 pw.x -in pw.inp   Done                     12/25/2018 08:51:39
00030 suncat0053 pw.x -in pw.inp   Done                     12/25/2018 08:51:39
00031 suncat0053 pw.x -in pw.inp   Done                     12/25/2018 08:51:39
00032 suncat0052 pw.x -in pw.inp   Done                     12/25/2018 08:51:39
00033 suncat0052 pw.x -in pw.inp   Done                     12/25/2018 08:51:39
00034 suncat0052 pw.x -in pw.inp   Done                     12/25/2018 08:51:39
00035 suncat0052 pw.x -in pw.inp   Done                     12/25/2018 08:51:39
00036 suncat0052 pw.x -in pw.inp   Done                     12/25/2018 08:51:39
00037 suncat0052 pw.x -in pw.inp   Done                     12/25/2018 08:51:39
00038 suncat0052 pw.x -in pw.inp   Done                     12/25/2018 08:51:39
00039 suncat0052 pw.x -in pw.inp   Done                     12/25/2018 08:51:39
00040 suncat0046 pw.x -in pw.inp   Done                     12/25/2018 08:51:39
00041 suncat0046 pw.x -in pw.inp   Done                     12/25/2018 08:51:39
00042 suncat0046 pw.x -in pw.inp   Done                     12/25/2018 08:51:39
00043 suncat0046 pw.x -in pw.inp   Done                     12/25/2018 08:51:39
00044 suncat0046 pw.x -in pw.inp   Done                     12/25/2018 08:51:39
00045 suncat0046 pw.x -in pw.inp   Done                     12/25/2018 08:51:39
00046 suncat0046 pw.x -in pw.inp   Done                     12/25/2018 08:51:39
00047 suncat0046 pw.x -in pw.inp   Done                     12/25/2018 08:51:39
00048 suncat0141 pw.x -in pw.inp   Done                     12/25/2018 08:51:39
00049 suncat0141 pw.x -in pw.inp   Done                     12/25/2018 08:51:39
00050 suncat0141 pw.x -in pw.inp   Done                     12/25/2018 08:51:39
00051 suncat0141 pw.x -in pw.inp   Done                     12/25/2018 08:51:39
00052 suncat0141 pw.x -in pw.inp   Done                     12/25/2018 08:51:39
00053 suncat0141 pw.x -in pw.inp   Done                     12/25/2018 08:51:39
00054 suncat0141 pw.x -in pw.inp   Done                     12/25/2018 08:51:39
00055 suncat0141 pw.x -in pw.inp   Done                     12/25/2018 08:51:39
00056 suncat0140 pw.x -in pw.inp   Done                     12/25/2018 08:51:39
00057 suncat0140 pw.x -in pw.inp   Done                     12/25/2018 08:51:39
00058 suncat0140 pw.x -in pw.inp   Done                     12/25/2018 08:51:39
00059 suncat0140 pw.x -in pw.inp   Done                     12/25/2018 08:51:39
00060 suncat0140 pw.x -in pw.inp   Done                     12/25/2018 08:51:39
00061 suncat0140 pw.x -in pw.inp   Done                     12/25/2018 08:51:39
00062 suncat0140 pw.x -in pw.inp   Done                     12/25/2018 08:51:39
00063 suncat0140 pw.x -in pw.inp   Done                     12/25/2018 08:51:39
