  python dir          : /u/if/mamunm/src/espresso
  espresso dir        : /nfs/slac/g/suncatfs/sw/espv18/espresso-dynpy-beef/bin
  pseudo dir          : /afs/slac.stanford.edu/u/if/mamunm/psp/gbrv1.5pbe
  ase-espresso py git : GITVERSION



     Program PWSCF v.5.1rc2 (svn rev. 11289) starts on 29Dec2018 at 18:26:58 

     This program is part of the open-source Quantum ESPRESSO suite
     for quantum simulation of materials; please cite
         "P. Giannozzi et al., J. Phys.:Condens. Matter 21 395502 (2009);
          URL http://www.quantum-espresso.org", 
     in publications or presentations arising from this work. More details at
     http://www.quantum-espresso.org/quote

     Parallel version (MPI), running on    64 processors
     R & G space division:  proc/nbgrp/npool/nimage =      64
     Reading input from pw.inp
     Message from routine read_cards :
     DEPRECATED: no units specified in CELL_PARAMETERS card

     Current dimensions of program PWSCF are:
     Max number of different atomic species (ntypx) = 10
     Max number of k-points (npk) =  40000
     Max angular momentum in pseudopotentials (lmaxx) =  3
     Presently stress not available with electric field


     **************************************************************************
     Initializing libbeef V0.1.1 with the BEEF-vdW functional.
     Citation: Wellendorff et al., PRB 85, 235149 (2012).
     **************************************************************************


     IMPORTANT: XC functional enforced from input :
     Exchange-correlation      = BEEF-VDW ( 1  4 27 13 2)
     Any further DFT definition will be discarded
     Please, verify this is what you really want


     Subspace diagonalization in iterative solution of the eigenvalue problem:
     a serial algorithm will be used

     Found symmetry operation: I + ( -0.5000  0.5000  0.0000)
     This is a supercell, fractional translations are disabled
 
     Parallelization info
     --------------------
     sticks:   dense  smooth     PW     G-vecs:    dense   smooth      PW
     Min          49      19      5                 9315     2335     349
     Max          50      20      6                 9330     2386     378
     Sum        3157    1263    359               596661   150893   23123
 


     bravais-lattice index     =            0
     lattice parameter (alat)  =       1.8897  a.u.
     unit-cell volume          =    5013.3267 (a.u.)^3
     number of atoms/cell      =           12
     number of atomic types    =            2
     number of electrons       =       162.00
     number of Kohn-Sham states=          111
     kinetic-energy cutoff     =      36.7493  Ry
     charge density cutoff     =     367.4932  Ry
     convergence threshold     =      1.0E-06
     mixing beta               =       0.1000
     number of iterations used =           10  plain     mixing
     Exchange-correlation      = BEEF-VDW ( 1  4 27 13 2)
     nstep                     =           50


     celldm(1)=   1.889726  celldm(2)=   0.000000  celldm(3)=   0.000000
     celldm(4)=   0.000000  celldm(5)=   0.000000  celldm(6)=   0.000000

     crystal axes: (cart. coord. in units of alat)
               a(1) = (   5.661067   0.000000   0.000000 )  
               a(2) = (   1.913025   5.328041   0.000000 )  
               a(3) = (   0.000000   0.000000  24.629951 )  

     reciprocal axes: (cart. coord. in units 2 pi/alat)
               b(1) = (  0.176645 -0.063424  0.000000 )  
               b(2) = (  0.000000  0.187686  0.000000 )  
               b(3) = (  0.000000  0.000000  0.040601 )  


     PseudoPot. # 1 for Tc read from file:
     /afs/slac.stanford.edu/u/if/mamunm/psp/gbrv1.5pbe/Tc.UPF
     MD5 check sum: 9eb49e5b028550b2339a02317eb7b844
     Pseudo is Ultrasoft + core correction, Zval = 15.0
     Generated by new atomic code, or converted to UPF format
     Using radial grid of  965 points,  6 beta functions with: 
                l(1) =   0
                l(2) =   0
                l(3) =   1
                l(4) =   1
                l(5) =   2
                l(6) =   2
     Q(r) pseudized with  8 coefficients,  rinner =    1.300   1.300   1.300
                                                       1.300   1.300

     PseudoPot. # 2 for Hf read from file:
     /afs/slac.stanford.edu/u/if/mamunm/psp/gbrv1.5pbe/Hf.UPF
     MD5 check sum: 8ee9378dfe14276e333edf04c5e4aa26
     Pseudo is Ultrasoft + core correction, Zval = 12.0
     Generated by new atomic code, or converted to UPF format
     Using radial grid of  921 points,  8 beta functions with: 
                l(1) =   0
                l(2) =   0
                l(3) =   0
                l(4) =   1
                l(5) =   1
                l(6) =   2
                l(7) =   2
                l(8) =   3
     Q(r) pseudized with  6 coefficients,  rinner =    1.200   1.200   1.200
                                                       1.200   1.200   1.200
                                                       1.200

     vdW kernel table read from file vdW_kernel_table
     MD5 check sum: 095c7af220d748ca6e76c0b4c6cfb241

     atomic species   valence    mass     pseudopotential
        Tc1           15.00    97.90721     Tc( 1.00)
        Hf1           12.00   178.49000     Hf( 1.00)

     No symmetry found



   Cartesian axes

     site n.     atom                  positions (alat units)
         1           Tc1 tau(   1) = (   0.0000000   0.0000000  10.0000000  )
         2           Tc1 tau(   2) = (   3.7870459   2.6640204  10.0000000  )
         3           Hf1 tau(   3) = (   2.8305336   0.0000000  10.0000000  )
         4           Hf1 tau(   4) = (   0.9565123   2.6640204  10.0000000  )
         5           Tc1 tau(   5) = (   5.6610672   3.9823121  12.3149756  )
         6           Tc1 tau(   6) = (   1.8740213   1.3182916  12.3149756  )
         7           Hf1 tau(   7) = (   2.8305336   3.9823121  12.3149756  )
         8           Hf1 tau(   8) = (   4.7045549   1.3182916  12.3149756  )
         9           Tc1 tau(   9) = (   3.7480426   2.6365833  14.6299511  )
        10           Tc1 tau(  10) = (   7.5350885   5.3006037  14.6299511  )
        11           Hf1 tau(  11) = (   6.5785762   2.6365833  14.6299511  )
        12           Hf1 tau(  12) = (   4.7045549   5.3006037  14.6299511  )

     number of k points=    20  Fermi-Dirac smearing, width (Ry)=  0.0110
                       cart. coord. in units 2pi/alat
        k(    1) = (   0.0000000   0.0000000   0.0000000), wk =   0.0555556
        k(    2) = (   0.0000000   0.0312810   0.0000000), wk =   0.1111111
        k(    3) = (   0.0000000   0.0625621   0.0000000), wk =   0.1111111
        k(    4) = (   0.0000000  -0.0938431   0.0000000), wk =   0.0555556
        k(    5) = (   0.0294409  -0.0105707   0.0000000), wk =   0.1111111
        k(    6) = (   0.0294409   0.0207103   0.0000000), wk =   0.1111111
        k(    7) = (   0.0294409   0.0519914   0.0000000), wk =   0.1111111
        k(    8) = (   0.0294409  -0.1044138   0.0000000), wk =   0.1111111
        k(    9) = (   0.0294409  -0.0731328   0.0000000), wk =   0.1111111
        k(   10) = (   0.0294409  -0.0418517   0.0000000), wk =   0.1111111
        k(   11) = (   0.0588817  -0.0211414   0.0000000), wk =   0.1111111
        k(   12) = (   0.0588817   0.0101397   0.0000000), wk =   0.1111111
        k(   13) = (   0.0588817   0.0414207   0.0000000), wk =   0.1111111
        k(   14) = (   0.0588817  -0.1149845   0.0000000), wk =   0.1111111
        k(   15) = (   0.0588817  -0.0837035   0.0000000), wk =   0.1111111
        k(   16) = (   0.0588817  -0.0524224   0.0000000), wk =   0.1111111
        k(   17) = (  -0.0883226   0.0317121   0.0000000), wk =   0.0555556
        k(   18) = (  -0.0883226   0.0629931   0.0000000), wk =   0.1111111
        k(   19) = (  -0.0883226   0.0942742   0.0000000), wk =   0.1111111
        k(   20) = (  -0.0883226  -0.0621310   0.0000000), wk =   0.0555556

     Dense  grid:   596661 G-vectors     FFT dimensions: (  72,  72, 288)

     Smooth grid:   150893 G-vectors     FFT dimensions: (  45,  45, 180)

     Largest allocated arrays     est. size (Mb)     dimensions
        Kohn-Sham Wavefunctions         0.53 Mb     (     311,  111)
        NL pseudopotentials             1.25 Mb     (     311,  264)
        Each V/rho on FFT grid          0.40 Mb     (   25920)
        Each G-vector array             0.07 Mb     (    9325)
        G-vector shells                 0.03 Mb     (    4526)
     Largest temporary arrays     est. size (Mb)     dimensions
        Auxiliary wavefunctions         2.11 Mb     (     311,  444)
        Each subspace H/S matrix        3.01 Mb     (     444,  444)
        Each <psi_i|beta_j> matrix      0.45 Mb     (     264,  111)
        Arrays for rho mixing           3.96 Mb     (   25920,   10)

     Check: negative/imaginary core charge=   -0.000010    0.000000

     Initial potential from superposition of free atoms
     Check: negative starting charge=   -1.404043

     starting charge  143.99982, renormalised to  162.00000

     negative rho (up, down):  1.580E+00 0.000E+00


     ************************************************************************
     *
     * You are using vdW-DF for exchange-correlation in this calculation.
     * Please cite the following three references that made this development
     * possible:
     *
     *   M. Dion, H. Rydberg, E. Schroder, D. C. Langreth, and
     *   B. I. Lundqvist, Phys. Rev. Lett. 92, 246401 (2004).
     *
     *   T. Thonhauser, V. R. Cooper, S. Li, A. Puzder, P. Hyldgaard, and
     *   D. C. Langreth, Phys. Rev. B 76, 125112 (2007).
     *
     *   G. Roman-Perez and J. M. Soler, Phys. Rev. Lett. 103, 096102 (2009).
     *
     *
     * If you are using vdW-DF2, please also cite:
     *
     *   K. Lee, E. D. Murray, L. Kong, B. I. Lundqvist, and
     *   D. C. Langreth, Phys. Rev. B 82, 081101(R) (2010).
     *
     *
     * If you are calculating the stress with vdW-DF, please also cite:
     *
     *   R. Sabatini, E. Kucukbenli, B. Kolb, T. Thonhauser, and
     *   S. de Gironcoli, J. Phys.: Condens. Matter 24, 424209 (2012).
     *
     ************************************************************************

     Carrying out vdW-DF run using the following parameters:

     Nqs =      20    Nr_points =    1024   r_max =   100.000
     q_mesh =
               0.00001000     0.04494208     0.09755937     0.15916263
               0.23128650     0.31572767     0.41458969     0.53033537
               0.66584808     0.82450364     1.01025438     1.22772762
               1.48234092     1.78043706     2.12944203     2.53805004
               3.01644009     3.57652955     4.23227104     5.00000000

     Gradients computed in reciprocal space

     ************************************************************************


 
     Adding external electric field

     Computed dipole along edir(3) : 
        Dipole                0.0000 Ry au,          0.0000 Debye
        Dipole field          0.0000 Ry au
 
        Potential amp.       -0.0000 Ry
        Total length         45.3803 bohr
 
     Starting wfc are  156 randomized atomic wfcs

     total cpu time spent up to now is       26.5 secs

     per-process dynamical memory:    41.4 Mb

     Self-consistent Calculation

     iteration #  1     ecut=    36.75 Ry     beta=0.10
     Davidson diagonalization with overlap
     ethr =  1.00E-02,  avg # of iterations =  8.4

     negative rho (up, down):  1.567E+00 0.000E+00
 
     Adding external electric field

     Computed dipole along edir(3) : 
        Dipole               -1.1672 Ry au,         -2.9666 Debye
        Dipole field         -0.0029 Ry au
 
        Potential amp.        0.2655 Ry
        Total length         45.3803 bohr
 

     total cpu time spent up to now is      124.0 secs

     total energy              =   -1998.50981918 Ry
     Harris-Foulkes estimate   =   -2028.94443587 Ry
     estimated scf accuracy    <     172.75563329 Ry

     iteration #  2     ecut=    36.75 Ry     beta=0.10
     Davidson diagonalization with overlap
     ethr =  1.00E-02,  avg # of iterations =  5.6

     negative rho (up, down):  1.556E+00 0.000E+00
 
     Adding external electric field

     Computed dipole along edir(3) : 
        Dipole                0.0696 Ry au,          0.1769 Debye
        Dipole field          0.0002 Ry au
 
        Potential amp.       -0.0158 Ry
        Total length         45.3803 bohr
 

     total cpu time spent up to now is      200.6 secs

     total energy              =   -2017.13102262 Ry
     Harris-Foulkes estimate   =   -2023.43731157 Ry
     estimated scf accuracy    <      48.24842792 Ry

     iteration #  3     ecut=    36.75 Ry     beta=0.10
     Davidson diagonalization with overlap
     ethr =  1.00E-02,  avg # of iterations =  2.1

     negative rho (up, down):  1.551E+00 0.000E+00
 
     Adding external electric field

     Computed dipole along edir(3) : 
        Dipole               -2.2264 Ry au,         -5.6589 Debye
        Dipole field         -0.0056 Ry au
 
        Potential amp.        0.5065 Ry
        Total length         45.3803 bohr
 

     total cpu time spent up to now is      249.2 secs

     total energy              =   -2016.84908125 Ry
     Harris-Foulkes estimate   =   -2020.10177456 Ry
     estimated scf accuracy    <      42.48503170 Ry

     iteration #  4     ecut=    36.75 Ry     beta=0.10
     Davidson diagonalization with overlap
     ethr =  1.00E-02,  avg # of iterations =  1.5

     negative rho (up, down):  1.541E+00 0.000E+00
 
     Adding external electric field

     Computed dipole along edir(3) : 
        Dipole               -0.7082 Ry au,         -1.7999 Debye
        Dipole field         -0.0018 Ry au
 
        Potential amp.        0.1611 Ry
        Total length         45.3803 bohr
 

     total cpu time spent up to now is      299.2 secs

     total energy              =   -2016.76586540 Ry
     Harris-Foulkes estimate   =   -2020.23098391 Ry
     estimated scf accuracy    <      73.92376040 Ry

     iteration #  5     ecut=    36.75 Ry     beta=0.10
     Davidson diagonalization with overlap
     ethr =  1.00E-02,  avg # of iterations =  1.1

     negative rho (up, down):  1.512E+00 0.000E+00
 
     Adding external electric field

     Computed dipole along edir(3) : 
        Dipole               -0.2927 Ry au,         -0.7439 Debye
        Dipole field         -0.0007 Ry au
 
        Potential amp.        0.0666 Ry
        Total length         45.3803 bohr
 

     total cpu time spent up to now is      345.6 secs

     total energy              =   -2015.82987112 Ry
     Harris-Foulkes estimate   =   -2017.89352960 Ry
     estimated scf accuracy    <       5.90781117 Ry

     iteration #  6     ecut=    36.75 Ry     beta=0.10
     Davidson diagonalization with overlap
     ethr =  3.65E-03,  avg # of iterations =  2.3

     negative rho (up, down):  1.501E+00 0.000E+00
 
     Adding external electric field

     Computed dipole along edir(3) : 
        Dipole               -0.3734 Ry au,         -0.9491 Debye
        Dipole field         -0.0009 Ry au
 
        Potential amp.        0.0850 Ry
        Total length         45.3803 bohr
 

     total cpu time spent up to now is      395.7 secs

     total energy              =   -2015.71556377 Ry
     Harris-Foulkes estimate   =   -2016.29996619 Ry
     estimated scf accuracy    <       4.17676786 Ry

     iteration #  7     ecut=    36.75 Ry     beta=0.10
     Davidson diagonalization with overlap
     ethr =  2.58E-03,  avg # of iterations =  1.2

     negative rho (up, down):  1.475E+00 0.000E+00
 
     Adding external electric field

     Computed dipole along edir(3) : 
        Dipole               -0.1053 Ry au,         -0.2676 Debye
        Dipole field         -0.0003 Ry au
 
        Potential amp.        0.0240 Ry
        Total length         45.3803 bohr
 

     total cpu time spent up to now is      442.1 secs

     total energy              =   -2015.18660285 Ry
     Harris-Foulkes estimate   =   -2015.81902794 Ry
     estimated scf accuracy    <       1.20734761 Ry

     iteration #  8     ecut=    36.75 Ry     beta=0.10
     Davidson diagonalization with overlap
     ethr =  7.45E-04,  avg # of iterations =  4.8

     negative rho (up, down):  1.472E+00 0.000E+00
 
     Adding external electric field

     Computed dipole along edir(3) : 
        Dipole               -0.1665 Ry au,         -0.4231 Debye
        Dipole field         -0.0004 Ry au
 
        Potential amp.        0.0379 Ry
        Total length         45.3803 bohr
 

     total cpu time spent up to now is      498.0 secs

     total energy              =   -2015.32678513 Ry
     Harris-Foulkes estimate   =   -2015.38956653 Ry
     estimated scf accuracy    <       1.12036099 Ry

     iteration #  9     ecut=    36.75 Ry     beta=0.10
     Davidson diagonalization with overlap
     ethr =  6.92E-04,  avg # of iterations =  1.1

     negative rho (up, down):  1.470E+00 0.000E+00
 
     Adding external electric field

     Computed dipole along edir(3) : 
        Dipole               -0.0759 Ry au,         -0.1928 Debye
        Dipole field         -0.0002 Ry au
 
        Potential amp.        0.0173 Ry
        Total length         45.3803 bohr
 

     total cpu time spent up to now is      533.1 secs

     total energy              =   -2015.34408986 Ry
     Harris-Foulkes estimate   =   -2015.35701959 Ry
     estimated scf accuracy    <       0.08370227 Ry

     iteration # 10     ecut=    36.75 Ry     beta=0.10
     Davidson diagonalization with overlap
     ethr =  5.17E-05,  avg # of iterations =  6.8

     negative rho (up, down):  1.469E+00 0.000E+00
 
     Adding external electric field

     Computed dipole along edir(3) : 
        Dipole               -0.1327 Ry au,         -0.3372 Debye
        Dipole field         -0.0003 Ry au
 
        Potential amp.        0.0302 Ry
        Total length         45.3803 bohr
 

     total cpu time spent up to now is      584.8 secs

     total energy              =   -2015.33259340 Ry
     Harris-Foulkes estimate   =   -2015.34844353 Ry
     estimated scf accuracy    <       0.12663493 Ry

     iteration # 11     ecut=    36.75 Ry     beta=0.10
     Davidson diagonalization with overlap
     ethr =  5.17E-05,  avg # of iterations =  4.7

     negative rho (up, down):  1.468E+00 0.000E+00
 
     Adding external electric field

     Computed dipole along edir(3) : 
        Dipole               -0.0560 Ry au,         -0.1423 Debye
        Dipole field         -0.0001 Ry au
 
        Potential amp.        0.0127 Ry
        Total length         45.3803 bohr
 

     total cpu time spent up to now is      632.6 secs

     total energy              =   -2015.33663928 Ry
     Harris-Foulkes estimate   =   -2015.34250622 Ry
     estimated scf accuracy    <       0.22980186 Ry

     iteration # 12     ecut=    36.75 Ry     beta=0.10
     Davidson diagonalization with overlap
     ethr =  5.17E-05,  avg # of iterations =  1.2

     negative rho (up, down):  1.467E+00 0.000E+00
 
     Adding external electric field

     Computed dipole along edir(3) : 
        Dipole                0.0182 Ry au,          0.0463 Debye
        Dipole field          0.0000 Ry au
 
        Potential amp.       -0.0041 Ry
        Total length         45.3803 bohr
 

     total cpu time spent up to now is      675.7 secs

     total energy              =   -2015.33827671 Ry
     Harris-Foulkes estimate   =   -2015.33937772 Ry
     estimated scf accuracy    <       0.00622261 Ry

     iteration # 13     ecut=    36.75 Ry     beta=0.10
     Davidson diagonalization with overlap
     ethr =  3.84E-06,  avg # of iterations =  6.7

     negative rho (up, down):  1.467E+00 0.000E+00
 
     Adding external electric field

     Computed dipole along edir(3) : 
        Dipole                0.0022 Ry au,          0.0056 Debye
        Dipole field          0.0000 Ry au
 
        Potential amp.       -0.0005 Ry
        Total length         45.3803 bohr
 

     total cpu time spent up to now is      736.5 secs

     total energy              =   -2015.33836516 Ry
     Harris-Foulkes estimate   =   -2015.33953630 Ry
     estimated scf accuracy    <       0.04176602 Ry

     iteration # 14     ecut=    36.75 Ry     beta=0.10
     Davidson diagonalization with overlap
     ethr =  3.84E-06,  avg # of iterations =  1.4

     negative rho (up, down):  1.467E+00 0.000E+00
 
     Adding external electric field

     Computed dipole along edir(3) : 
        Dipole               -0.0040 Ry au,         -0.0101 Debye
        Dipole field         -0.0000 Ry au
 
        Potential amp.        0.0009 Ry
        Total length         45.3803 bohr
 

     total cpu time spent up to now is      783.0 secs

     total energy              =   -2015.33869781 Ry
     Harris-Foulkes estimate   =   -2015.33888631 Ry
     estimated scf accuracy    <       0.00304510 Ry

     iteration # 15     ecut=    36.75 Ry     beta=0.10
     Davidson diagonalization with overlap
     ethr =  1.88E-06,  avg # of iterations =  2.9

     negative rho (up, down):  1.467E+00 0.000E+00
 
     Adding external electric field

     Computed dipole along edir(3) : 
        Dipole               -0.0015 Ry au,         -0.0039 Debye
        Dipole field         -0.0000 Ry au
 
        Potential amp.        0.0003 Ry
        Total length         45.3803 bohr
 

     total cpu time spent up to now is      833.6 secs

     total energy              =   -2015.33873275 Ry
     Harris-Foulkes estimate   =   -2015.33878217 Ry
     estimated scf accuracy    <       0.00021408 Ry

     iteration # 16     ecut=    36.75 Ry     beta=0.10
     Davidson diagonalization with overlap
     ethr =  1.32E-07,  avg # of iterations =  3.4

     negative rho (up, down):  1.467E+00 0.000E+00
 
     Adding external electric field

     Computed dipole along edir(3) : 
        Dipole               -0.0019 Ry au,         -0.0048 Debye
        Dipole field         -0.0000 Ry au
 
        Potential amp.        0.0004 Ry
        Total length         45.3803 bohr
 

     total cpu time spent up to now is      887.0 secs

     total energy              =   -2015.33872242 Ry
     Harris-Foulkes estimate   =   -2015.33876764 Ry
     estimated scf accuracy    <       0.00039777 Ry

     iteration # 17     ecut=    36.75 Ry     beta=0.10
     Davidson diagonalization with overlap
     ethr =  1.32E-07,  avg # of iterations =  1.5

     negative rho (up, down):  1.467E+00 0.000E+00
 
     Adding external electric field

     Computed dipole along edir(3) : 
        Dipole               -0.0010 Ry au,         -0.0025 Debye
        Dipole field         -0.0000 Ry au
 
        Potential amp.        0.0002 Ry
        Total length         45.3803 bohr
 

     total cpu time spent up to now is      934.2 secs

     total energy              =   -2015.33873908 Ry
     Harris-Foulkes estimate   =   -2015.33874178 Ry
     estimated scf accuracy    <       0.00001993 Ry

     iteration # 18     ecut=    36.75 Ry     beta=0.10
     Davidson diagonalization with overlap
     ethr =  1.23E-08,  avg # of iterations =  3.2

     negative rho (up, down):  1.467E+00 0.000E+00
 
     Adding external electric field

     Computed dipole along edir(3) : 
        Dipole                0.0001 Ry au,          0.0002 Debye
        Dipole field          0.0000 Ry au
 
        Potential amp.       -0.0000 Ry
        Total length         45.3803 bohr
 

     total cpu time spent up to now is      987.7 secs

     total energy              =   -2015.33874220 Ry
     Harris-Foulkes estimate   =   -2015.33874220 Ry
     estimated scf accuracy    <       0.00000767 Ry

     iteration # 19     ecut=    36.75 Ry     beta=0.10
     Davidson diagonalization with overlap
     ethr =  4.73E-09,  avg # of iterations =  1.6

     negative rho (up, down):  1.467E+00 0.000E+00
 
     Adding external electric field

     Computed dipole along edir(3) : 
        Dipole                0.0004 Ry au,          0.0009 Debye
        Dipole field          0.0000 Ry au
 
        Potential amp.       -0.0001 Ry
        Total length         45.3803 bohr
 

     total cpu time spent up to now is     1032.5 secs

     total energy              =   -2015.33874350 Ry
     Harris-Foulkes estimate   =   -2015.33874278 Ry
     estimated scf accuracy    <       0.00000292 Ry

     iteration # 20     ecut=    36.75 Ry     beta=0.10
     Davidson diagonalization with overlap
     ethr =  1.80E-09,  avg # of iterations =  2.0

     negative rho (up, down):  1.467E+00 0.000E+00
 
     Adding external electric field

     Computed dipole along edir(3) : 
        Dipole                0.0001 Ry au,          0.0004 Debye
        Dipole field          0.0000 Ry au
 
        Potential amp.       -0.0000 Ry
        Total length         45.3803 bohr
 

     total cpu time spent up to now is     1080.0 secs

     total energy              =   -2015.33874426 Ry
     Harris-Foulkes estimate   =   -2015.33874362 Ry
     estimated scf accuracy    <       0.00000153 Ry

     iteration # 21     ecut=    36.75 Ry     beta=0.10
     Davidson diagonalization with overlap
     ethr =  9.42E-10,  avg # of iterations =  2.0

     negative rho (up, down):  1.467E+00 0.000E+00

     negative rho (up, down):  1.467E+00 0.000E+00

     negative rho (up, down):  1.467E+00 0.000E+00

     negative rho (up, down):  1.467E+00 0.000E+00

     negative rho (up, down):  1.467E+00 0.000E+00

     negative rho (up, down):  1.467E+00 0.000E+00

     negative rho (up, down):  1.467E+00 0.000E+00

     negative rho (up, down):  1.467E+00 0.000E+00

     negative rho (up, down):  1.467E+00 0.000E+00

     negative rho (up, down):  1.467E+00 0.000E+00

     negative rho (up, down):  1.467E+00 0.000E+00

     negative rho (up, down):  1.467E+00 0.000E+00

     negative rho (up, down):  1.467E+00 0.000E+00

     negative rho (up, down):  1.467E+00 0.000E+00

     negative rho (up, down):  1.467E+00 0.000E+00

     negative rho (up, down):  1.467E+00 0.000E+00

     negative rho (up, down):  1.467E+00 0.000E+00

     negative rho (up, down):  1.467E+00 0.000E+00

     negative rho (up, down):  1.467E+00 0.000E+00

     negative rho (up, down):  1.467E+00 0.000E+00

     negative rho (up, down):  1.467E+00 0.000E+00

     negative rho (up, down):  1.467E+00 0.000E+00

     negative rho (up, down):  1.467E+00 0.000E+00

     negative rho (up, down):  1.467E+00 0.000E+00

     negative rho (up, down):  1.467E+00 0.000E+00

     negative rho (up, down):  1.467E+00 0.000E+00

     negative rho (up, down):  1.467E+00 0.000E+00

     negative rho (up, down):  1.467E+00 0.000E+00

     negative rho (up, down):  1.467E+00 0.000E+00

     negative rho (up, down):  1.467E+00 0.000E+00

     negative rho (up, down):  1.467E+00 0.000E+00

     negative rho (up, down):  1.467E+00 0.000E+00

     negative rho (up, down):  1.467E+00 0.000E+00

     negative rho (up, down):  1.467E+00 0.000E+00

     negative rho (up, down):  1.467E+00 0.000E+00
 
     Adding external electric field

     Computed dipole along edir(3) : 
        Dipole                0.0016 Ry au,          0.0041 Debye
        Dipole field          0.0000 Ry au
 
        Potential amp.       -0.0004 Ry
        Total length         45.3803 bohr
 

     total cpu time spent up to now is     1178.3 secs

     End of self-consistent calculation

          k = 0.0000 0.0000 0.0000 ( 18851 PWs)   bands (ev):

   -64.5071 -64.4983 -64.3174 -64.3173 -64.3091 -64.3089 -60.3556 -60.3550
   -60.3431 -60.3429 -59.7127 -59.7001 -36.5949 -36.5794 -36.5686 -36.5677
   -36.5613 -36.4659 -36.4233 -36.4176 -36.4017 -36.4001 -36.3915 -36.3805
   -36.3420 -36.3349 -36.3263 -36.3149 -36.2948 -36.2945 -29.0008 -28.9928
   -28.9887 -28.9783 -28.9701 -28.9685 -28.8182 -28.8054 -28.8048 -28.7884
   -28.6974 -28.6934 -28.4236 -28.2817 -28.2794 -28.2617 -28.2488 -28.1245
    -4.4316  -2.9439  -2.2898  -1.9614  -1.8299  -1.7269  -1.6483  -1.5831
    -1.5648  -1.5227  -1.0780  -1.0595  -0.6960  -0.1276  -0.0963   0.0282
     0.0629   0.0757   0.0796   0.1706   0.1762   0.4762   0.6846   1.0097
     1.1925   1.2617   1.3140   1.6295   1.9640   1.9738   2.0049   2.0961
     2.2537   2.8602   2.8763   2.9147   3.7546   3.8237   3.8430   3.8758
     3.9749   4.0212   4.1243   4.3070   4.3726   4.4761   4.5634   4.5676
     4.9869   5.0320   5.2087   5.3462   5.3877   5.4211   5.4279   5.4955
     5.5634   5.6607   5.6738   5.7077   5.8472   5.9655   6.2099

          k = 0.0000 0.0313 0.0000 ( 18865 PWs)   bands (ev):

   -64.5065 -64.4989 -64.3168 -64.3167 -64.3096 -64.3095 -60.3548 -60.3543
   -60.3440 -60.3439 -59.7120 -59.7011 -36.5856 -36.5783 -36.5680 -36.5661
   -36.5598 -36.4737 -36.4141 -36.4087 -36.4007 -36.3997 -36.3921 -36.3822
   -36.3386 -36.3326 -36.3251 -36.3151 -36.3023 -36.3021 -28.9993 -28.9880
   -28.9772 -28.9730 -28.9700 -28.9612 -28.8211 -28.8102 -28.8101 -28.7950
   -28.7191 -28.7164 -28.4066 -28.2825 -28.2789 -28.2669 -28.2506 -28.1474
    -4.2176  -2.7335  -2.0870  -1.9284  -1.7344  -1.5630  -1.5606  -1.4465
    -1.4334  -1.4182  -0.9750  -0.8795  -0.5381  -0.0464  -0.0232   0.0820
     0.1162   0.1214   0.1310   0.2287   0.3026   0.4015   0.7090   0.9373
     1.0532   1.2212   1.3925   1.4912   1.5328   1.9249   1.9423   1.9533
     2.1209   2.2784   2.5542   2.8654   3.0136   3.4246   3.6781   3.8182
     3.9318   4.1169   4.2221   4.2670   4.3178   4.5260   4.5989   4.7069
     4.7718   4.8478   4.9455   5.1685   5.2906   5.3573   5.4386   5.4881
     5.5914   5.6233   5.6456   5.8024   6.0508   6.1486   6.2560

          k = 0.0000 0.0626 0.0000 ( 18893 PWs)   bands (ev):

   -64.5048 -64.5004 -64.3152 -64.3151 -64.3110 -64.3109 -60.3527 -60.3523
   -60.3464 -60.3463 -59.7098 -59.7035 -36.5753 -36.5693 -36.5626 -36.5610
   -36.5552 -36.4957 -36.3989 -36.3972 -36.3962 -36.3872 -36.3867 -36.3848
   -36.3319 -36.3295 -36.3229 -36.3226 -36.3210 -36.3167 -28.9946 -28.9852
   -28.9791 -28.9762 -28.9275 -28.9175 -28.8271 -28.8224 -28.8192 -28.8093
   -28.7754 -28.7742 -28.3587 -28.2884 -28.2772 -28.2719 -28.2559 -28.2071
    -3.6290  -2.1989  -2.1633  -1.5879  -1.5776  -1.2431  -1.1838  -1.1509
    -1.0945  -1.0087  -0.8350  -0.3669  -0.0637   0.0115   0.0643   0.0922
     0.1657   0.2004   0.2465   0.2884   0.5062   0.6522   0.7353   0.7744
     0.8106   1.0074   1.0375   1.1116   1.3945   1.5950   1.6477   1.6528
     1.6608   1.9531   2.0194   2.0275   2.7629   2.8901   2.9335   3.1938
     3.8915   4.1115   4.1516   4.2526   4.2879   4.4795   4.5342   4.5365
     4.6297   4.6374   4.7299   4.9280   5.0030   5.0564   5.1568   5.1670
     5.3636   5.4205   5.6731   5.7073   5.8384   6.0937   6.1411

          k = 0.0000-0.0938 0.0000 ( 18870 PWs)   bands (ev):

   -64.5026 -64.5026 -64.3132 -64.3131 -64.3130 -64.3129 -60.3497 -60.3497
   -60.3494 -60.3494 -59.7068 -59.7068 -36.5719 -36.5719 -36.5577 -36.5577
   -36.5268 -36.5268 -36.3972 -36.3970 -36.3924 -36.3922 -36.3560 -36.3559
   -36.3540 -36.3539 -36.3228 -36.3227 -36.3214 -36.3212 -28.9873 -28.9873
   -28.9809 -28.9809 -28.8596 -28.8596 -28.8555 -28.8555 -28.8193 -28.8193
   -28.8176 -28.8176 -28.2989 -28.2989 -28.2738 -28.2738 -28.2634 -28.2634
    -2.8375  -2.8375  -1.6883  -1.6883  -1.1279  -1.1279  -0.9936  -0.9936
    -0.7121  -0.7121  -0.4031  -0.4031   0.0026   0.0027   0.0525   0.0525
     0.2167   0.2167   0.3734   0.3735   0.4895   0.4895   0.7603   0.7603
     0.9853   0.9854   1.0032   1.0032   1.0860   1.0861   1.5026   1.5027
     1.7289   1.7289   1.7816   1.7816   2.5270   2.5270   2.7474   2.7474
     4.1089   4.1090   4.1468   4.1468   4.2087   4.2087   4.2811   4.2811
     4.4554   4.4554   4.7616   4.7616   4.8387   4.8387   5.0127   5.0128
     5.2812   5.2812   5.5316   5.5316   6.0976   6.0976   6.7912

          k = 0.0294-0.0106 0.0000 ( 18865 PWs)   bands (ev):

   -64.5065 -64.4989 -64.3168 -64.3167 -64.3096 -64.3095 -60.3548 -60.3543
   -60.3440 -60.3439 -59.7120 -59.7011 -36.5856 -36.5783 -36.5680 -36.5661
   -36.5598 -36.4737 -36.4141 -36.4087 -36.4007 -36.3997 -36.3921 -36.3822
   -36.3386 -36.3326 -36.3251 -36.3151 -36.3023 -36.3021 -28.9993 -28.9880
   -28.9772 -28.9730 -28.9700 -28.9612 -28.8211 -28.8102 -28.8101 -28.7950
   -28.7191 -28.7164 -28.4066 -28.2825 -28.2789 -28.2669 -28.2506 -28.1474
    -4.2176  -2.7335  -2.0870  -1.9284  -1.7344  -1.5630  -1.5606  -1.4465
    -1.4334  -1.4182  -0.9750  -0.8795  -0.5381  -0.0464  -0.0232   0.0820
     0.1162   0.1214   0.1310   0.2287   0.3026   0.4015   0.7090   0.9373
     1.0532   1.2212   1.3925   1.4912   1.5328   1.9249   1.9423   1.9533
     2.1209   2.2784   2.5542   2.8654   3.0136   3.4246   3.6781   3.8182
     3.9318   4.1169   4.2221   4.2670   4.3178   4.5260   4.5989   4.7069
     4.7718   4.8478   4.9455   5.1685   5.2906   5.3573   5.4386   5.4881
     5.5914   5.6233   5.6456   5.8024   6.0508   6.1486   6.2560

          k = 0.0294 0.0207 0.0000 ( 18881 PWs)   bands (ev):

   -64.5069 -64.4984 -64.3173 -64.3171 -64.3091 -64.3089 -60.3559 -60.3554
   -60.3431 -60.3430 -59.7130 -59.7002 -36.5922 -36.5788 -36.5668 -36.5655
   -36.5567 -36.4652 -36.4204 -36.4146 -36.4027 -36.3990 -36.3899 -36.3844
   -36.3356 -36.3322 -36.3219 -36.3148 -36.2944 -36.2940 -29.0062 -29.0006
   -28.9869 -28.9859 -28.9735 -28.9657 -28.8262 -28.8222 -28.8082 -28.7997
   -28.6995 -28.6955 -28.4308 -28.2895 -28.2782 -28.2681 -28.2504 -28.1267
    -4.1462  -2.6705  -2.0725  -1.8231  -1.6332  -1.6144  -1.4926  -1.4407
    -1.3798  -1.3628  -0.8994  -0.8822  -0.5524  -0.0450  -0.0026   0.0640
     0.1060   0.1702   0.2831   0.3219   0.3268   0.5518   0.9125   1.0603
     1.1519   1.3417   1.4440   1.5891   1.7312   1.8045   1.8911   2.0570
     2.1637   2.3876   2.6609   2.8744   3.2723   3.2759   3.5204   3.5598
     3.5952   3.8400   3.9637   4.0064   4.0266   4.2088   4.2205   4.3285
     4.4737   4.5945   5.0762   5.2354   5.2799   5.3264   5.4413   5.4979
     5.6490   5.6798   5.9131   5.9174   6.0223   6.0351   6.2562

          k = 0.0294 0.0520 0.0000 ( 18848 PWs)   bands (ev):

   -64.5062 -64.4990 -64.3166 -64.3164 -64.3096 -64.3095 -60.3553 -60.3548
   -60.3440 -60.3439 -59.7125 -59.7010 -36.5814 -36.5773 -36.5667 -36.5618
   -36.5524 -36.4730 -36.4095 -36.4039 -36.4039 -36.3957 -36.3896 -36.3883
   -36.3291 -36.3283 -36.3183 -36.3156 -36.3018 -36.3016 -29.0083 -28.9886
   -28.9842 -28.9797 -28.9723 -28.9655 -28.8382 -28.8323 -28.8134 -28.8117
   -28.7213 -28.7186 -28.4180 -28.2979 -28.2758 -28.2734 -28.2534 -28.1499
    -3.6832  -2.2453  -1.8773  -1.7577  -1.4313  -1.3527  -1.1966  -1.1804
    -1.1453  -1.0789  -0.7486  -0.5782  -0.2025  -0.0044   0.0519   0.1278
     0.2420   0.2606   0.4799   0.4900   0.5080   0.6099   0.9334   1.0740
     1.1078   1.1948   1.3095   1.3912   1.4201   1.7627   1.8994   1.9451
     1.9554   2.0676   2.1032   2.2235   2.5823   2.5997   2.9784   3.0506
     3.3411   3.7664   3.8252   3.9616   3.9643   4.0466   4.1088   4.3436
     4.4398   4.6580   4.8413   4.9364   5.0070   5.1007   5.1963   5.2145
     5.2359   5.4811   5.8551   5.9321   5.9733   6.0036   6.2026

          k = 0.0294-0.1044 0.0000 ( 18867 PWs)   bands (ev):

   -64.5045 -64.5006 -64.3150 -64.3148 -64.3111 -64.3110 -60.3532 -60.3527
   -60.3463 -60.3463 -59.7103 -59.7034 -36.5746 -36.5684 -36.5589 -36.5583
   -36.5499 -36.4962 -36.4030 -36.3943 -36.3921 -36.3910 -36.3828 -36.3805
   -36.3287 -36.3270 -36.3211 -36.3199 -36.3190 -36.3178 -29.0040 -28.9823
   -28.9802 -28.9715 -28.9380 -28.9275 -28.8460 -28.8328 -28.8229 -28.8151
   -28.7749 -28.7745 -28.3683 -28.2997 -28.2820 -28.2666 -28.2595 -28.2069
    -2.9471  -2.4081  -1.6977  -1.4171  -1.3759  -0.9734  -0.8861  -0.8386
    -0.7907  -0.6605  -0.6268  -0.1160  -0.0316   0.0042   0.0373   0.1517
     0.2877   0.3044   0.3254   0.3824   0.6095   0.6881   0.7633   0.8733
     0.9859   1.0233   1.0927   1.1193   1.1371   1.2009   1.3355   1.4734
     1.6293   1.7533   1.7745   2.0268   2.4768   2.4840   2.5204   2.6567
     3.4575   3.7554   3.8699   4.0417   4.1327   4.1557   4.2707   4.3177
     4.3830   4.3888   4.4724   4.6112   4.9367   4.9470   5.1040   5.1468
     5.2353   5.4328   5.7305   5.7653   5.7738   6.5239   6.6266

          k = 0.0294-0.0731 0.0000 ( 18847 PWs)   bands (ev):

   -64.5028 -64.5024 -64.3132 -64.3131 -64.3130 -64.3128 -60.3499 -60.3496
   -60.3494 -60.3492 -59.7070 -59.7065 -36.5719 -36.5718 -36.5588 -36.5556
   -36.5291 -36.5254 -36.4003 -36.3983 -36.3932 -36.3862 -36.3578 -36.3557
   -36.3533 -36.3510 -36.3274 -36.3248 -36.3220 -36.3167 -28.9942 -28.9857
   -28.9797 -28.9760 -28.8612 -28.8552 -28.8514 -28.8488 -28.8335 -28.8247
   -28.8179 -28.8117 -28.2940 -28.2931 -28.2799 -28.2781 -28.2674 -28.2596
    -3.1949  -2.1793  -1.7757  -1.4679  -1.4336  -1.1368  -1.0552  -0.9837
    -0.7788  -0.5303  -0.5277  -0.1001  -0.0900   0.0034   0.1222   0.1851
     0.1981   0.2284   0.2863   0.4720   0.5437   0.5626   0.5943   0.5951
     0.6079   0.7375   0.7661   0.9974   1.0564   1.0591   1.3160   1.3259
     1.5115   1.5144   1.9418   2.0468   2.5663   2.6808   2.8973   3.2259
     3.9477   4.0740   4.0768   4.1231   4.1428   4.3220   4.3367   4.5115
     4.5219   4.9081   4.9294   4.9341   5.0051   5.0292   5.2453   5.2501
     5.3229   5.5714   5.6355   5.6649   6.0494   6.3398   6.4228

          k = 0.0294-0.0419 0.0000 ( 18884 PWs)   bands (ev):

   -64.5050 -64.5003 -64.3153 -64.3152 -64.3110 -64.3109 -60.3525 -60.3521
   -60.3465 -60.3463 -59.7096 -59.7036 -36.5756 -36.5697 -36.5624 -36.5619
   -36.5600 -36.4956 -36.4004 -36.3977 -36.3963 -36.3892 -36.3869 -36.3829
   -36.3353 -36.3286 -36.3258 -36.3238 -36.3227 -36.3155 -28.9897 -28.9876
   -28.9821 -28.9731 -28.9213 -28.9113 -28.8225 -28.8223 -28.8080 -28.8035
   -28.7778 -28.7768 -28.3529 -28.2815 -28.2759 -28.2749 -28.2539 -28.2084
    -3.8729  -2.3852  -1.8481  -1.7220  -1.6098  -1.6047  -1.3201  -1.2767
    -1.2358  -1.1033  -0.7458  -0.5296  -0.3395  -0.0000   0.0739   0.1432
     0.1678   0.1903   0.2464   0.2889   0.3313   0.4188   0.5778   0.7471
     0.7551   0.8627   1.1087   1.1723   1.3969   1.4683   1.5069   1.7373
     1.8331   1.8993   2.2307   2.4174   2.6062   2.8793   3.7494   3.9891
     3.9974   4.0587   4.0890   4.3739   4.4799   4.5511   4.5520   4.6915
     4.8074   4.8537   5.0402   5.1483   5.2030   5.2513   5.2808   5.3690
     5.6137   5.6395   5.9088   5.9123   5.9617   6.0137   6.3612

          k = 0.0589-0.0211 0.0000 ( 18893 PWs)   bands (ev):

   -64.5048 -64.5004 -64.3152 -64.3151 -64.3110 -64.3109 -60.3527 -60.3523
   -60.3464 -60.3463 -59.7098 -59.7035 -36.5753 -36.5693 -36.5625 -36.5610
   -36.5552 -36.4957 -36.3989 -36.3972 -36.3962 -36.3872 -36.3867 -36.3848
   -36.3319 -36.3295 -36.3229 -36.3226 -36.3210 -36.3167 -28.9946 -28.9852
   -28.9791 -28.9762 -28.9275 -28.9175 -28.8271 -28.8224 -28.8192 -28.8093
   -28.7754 -28.7742 -28.3587 -28.2884 -28.2772 -28.2719 -28.2559 -28.2071
    -3.6290  -2.1989  -2.1633  -1.5879  -1.5776  -1.2431  -1.1838  -1.1509
    -1.0945  -1.0087  -0.8350  -0.3669  -0.0637   0.0115   0.0643   0.0922
     0.1657   0.2004   0.2465   0.2884   0.5062   0.6522   0.7353   0.7744
     0.8106   1.0074   1.0375   1.1116   1.3945   1.5950   1.6477   1.6528
     1.6608   1.9531   2.0194   2.0275   2.7629   2.8901   2.9335   3.1938
     3.8915   4.1115   4.1516   4.2526   4.2879   4.4795   4.5342   4.5365
     4.6297   4.6374   4.7299   4.9280   5.0030   5.0564   5.1568   5.1670
     5.3636   5.4205   5.6731   5.7073   5.8384   6.0937   6.1411

          k = 0.0589 0.0101 0.0000 ( 18848 PWs)   bands (ev):

   -64.5062 -64.4990 -64.3166 -64.3164 -64.3096 -64.3095 -60.3553 -60.3548
   -60.3440 -60.3439 -59.7125 -59.7010 -36.5814 -36.5773 -36.5667 -36.5618
   -36.5524 -36.4730 -36.4095 -36.4039 -36.4039 -36.3957 -36.3896 -36.3883
   -36.3291 -36.3283 -36.3183 -36.3156 -36.3018 -36.3016 -29.0083 -28.9886
   -28.9842 -28.9797 -28.9723 -28.9655 -28.8382 -28.8323 -28.8134 -28.8117
   -28.7213 -28.7186 -28.4180 -28.2979 -28.2758 -28.2734 -28.2534 -28.1499
    -3.6832  -2.2453  -1.8773  -1.7577  -1.4313  -1.3527  -1.1966  -1.1804
    -1.1453  -1.0789  -0.7486  -0.5782  -0.2025  -0.0044   0.0519   0.1278
     0.2420   0.2606   0.4799   0.4900   0.5080   0.6099   0.9334   1.0740
     1.1078   1.1948   1.3095   1.3912   1.4201   1.7627   1.8994   1.9451
     1.9554   2.0676   2.1032   2.2235   2.5823   2.5997   2.9784   3.0506
     3.3411   3.7664   3.8252   3.9616   3.9643   4.0466   4.1088   4.3436
     4.4398   4.6580   4.8413   4.9364   5.0070   5.1007   5.1963   5.2145
     5.2359   5.4811   5.8551   5.9321   5.9733   6.0036   6.2026

          k = 0.0589 0.0414 0.0000 ( 18825 PWs)   bands (ev):

   -64.5066 -64.4984 -64.3170 -64.3168 -64.3091 -64.3089 -60.3565 -60.3559
   -60.3433 -60.3431 -59.7137 -59.7002 -36.5868 -36.5774 -36.5651 -36.5595
   -36.5469 -36.4639 -36.4144 -36.4086 -36.4072 -36.3931 -36.3925 -36.3861
   -36.3270 -36.3231 -36.3148 -36.3133 -36.2937 -36.2929 -29.0169 -29.0161
   -29.0007 -28.9824 -28.9800 -28.9593 -28.8567 -28.8415 -28.8230 -28.8141
   -28.7037 -28.6996 -28.4448 -28.3088 -28.2809 -28.2720 -28.2533 -28.1310
    -3.3698  -1.9555  -1.8336  -1.4978  -1.2789  -1.1531  -1.1380  -1.0402
    -1.0222  -0.8128  -0.4969  -0.3870  -0.1775   0.1054   0.1101   0.2359
     0.2834   0.3145   0.5791   0.6873   0.7629   0.8649   0.9708   1.1738
     1.2767   1.2994   1.3832   1.3868   1.4465   1.7240   1.7738   1.8016
     2.0188   2.0798   2.1422   2.1496   2.1630   2.2501   2.6910   2.7275
     2.7340   3.2149   3.4629   3.7837   3.8083   3.8591   3.9561   4.0302
     4.1951   4.4546   4.7745   4.8024   4.8694   4.9008   4.9873   5.1292
     5.3828   5.4107   5.4193   5.4357   5.7720   6.1922   6.2081

          k = 0.0589-0.1150 0.0000 ( 18841 PWs)   bands (ev):

   -64.5059 -64.4991 -64.3164 -64.3161 -64.3096 -64.3095 -60.3559 -60.3553
   -60.3441 -60.3440 -59.7130 -59.7010 -36.5770 -36.5761 -36.5655 -36.5576
   -36.5448 -36.4723 -36.4076 -36.4047 -36.3990 -36.3959 -36.3901 -36.3855
   -36.3252 -36.3186 -36.3166 -36.3119 -36.3018 -36.3012 -29.0172 -29.0006
   -28.9884 -28.9805 -28.9799 -28.9597 -28.8652 -28.8437 -28.8308 -28.8161
   -28.7242 -28.7213 -28.4290 -28.3123 -28.2854 -28.2687 -28.2560 -28.1528
    -2.7712  -1.9059  -1.7648  -1.5010  -0.9497  -0.9162  -0.8771  -0.8237
    -0.6772  -0.5140  -0.2387  -0.1515  -0.0297   0.0320   0.0948   0.3245
     0.3432   0.4139   0.4936   0.6515   0.7406   0.7858   0.8945   0.9772
     1.0818   1.1121   1.1493   1.3526   1.3610   1.4167   1.4444   1.5739
     1.6902   1.7254   1.9629   2.0530   2.1149   2.2924   2.3022   2.4597
     2.6673   3.0267   3.4867   3.7023   3.9171   3.9898   4.0130   4.1127
     4.3337   4.3430   4.3559   4.5605   4.7163   4.7789   4.9420   5.1240
     5.1699   5.2219   5.3916   5.4611   5.5100   6.2589   6.4459

          k = 0.0589-0.0837 0.0000 ( 18820 PWs)   bands (ev):

   -64.5044 -64.5007 -64.3150 -64.3147 -64.3111 -64.3110 -60.3534 -60.3529
   -60.3463 -60.3462 -59.7105 -59.7033 -36.5742 -36.5680 -36.5578 -36.5548
   -36.5484 -36.4966 -36.4050 -36.3979 -36.3898 -36.3875 -36.3806 -36.3781
   -36.3253 -36.3249 -36.3247 -36.3218 -36.3166 -36.3157 -29.0086 -28.9851
   -28.9774 -28.9678 -28.9423 -28.9316 -28.8567 -28.8342 -28.8307 -28.8143
   -28.7761 -28.7754 -28.3720 -28.3041 -28.2854 -28.2641 -28.2612 -28.2076
    -2.4819  -2.0327  -2.0301  -1.2781  -1.1622  -0.8984  -0.7022  -0.6225
    -0.4160  -0.3713  -0.2145  -0.1523  -0.0966  -0.0759   0.1376   0.3066
     0.3473   0.3774   0.3813   0.4177   0.5015   0.5842   0.6839   0.7062
     0.7183   0.7207   0.7809   1.0502   1.0688   1.0992   1.2103   1.2282
     1.3839   1.4240   2.0625   2.1421   2.1834   2.3688   2.5310   2.8228
     3.2084   3.4268   3.8210   3.8759   4.0661   4.2299   4.2338   4.3831
     4.3936   4.6682   4.6751   4.9347   4.9540   5.0006   5.1930   5.2232
     5.3503   5.4192   5.4684   5.5142   5.6311   6.0140   6.4901

          k = 0.0589-0.0524 0.0000 ( 18847 PWs)   bands (ev):

   -64.5028 -64.5024 -64.3132 -64.3131 -64.3130 -64.3128 -60.3499 -60.3496
   -60.3494 -60.3492 -59.7070 -59.7065 -36.5719 -36.5718 -36.5588 -36.5556
   -36.5291 -36.5254 -36.4003 -36.3983 -36.3932 -36.3862 -36.3578 -36.3557
   -36.3533 -36.3510 -36.3274 -36.3248 -36.3220 -36.3167 -28.9942 -28.9857
   -28.9797 -28.9760 -28.8612 -28.8552 -28.8514 -28.8488 -28.8335 -28.8247
   -28.8179 -28.8117 -28.2940 -28.2931 -28.2799 -28.2781 -28.2674 -28.2596
    -3.1949  -2.1793  -1.7757  -1.4679  -1.4336  -1.1368  -1.0552  -0.9837
    -0.7788  -0.5303  -0.5277  -0.1001  -0.0900   0.0034   0.1222   0.1851
     0.1981   0.2284   0.2863   0.4720   0.5437   0.5626   0.5943   0.5951
     0.6079   0.7375   0.7661   0.9974   1.0564   1.0591   1.3160   1.3259
     1.5115   1.5144   1.9418   2.0468   2.5663   2.6808   2.8973   3.2259
     3.9477   4.0740   4.0768   4.1231   4.1428   4.3220   4.3367   4.5115
     4.5219   4.9081   4.9294   4.9341   5.0051   5.0292   5.2453   5.2501
     5.3229   5.5714   5.6355   5.6649   6.0494   6.3398   6.4226

          k =-0.0883 0.0317 0.0000 ( 18870 PWs)   bands (ev):

   -64.5026 -64.5026 -64.3132 -64.3131 -64.3130 -64.3129 -60.3497 -60.3497
   -60.3494 -60.3494 -59.7068 -59.7068 -36.5719 -36.5719 -36.5577 -36.5577
   -36.5268 -36.5268 -36.3972 -36.3970 -36.3924 -36.3922 -36.3560 -36.3559
   -36.3540 -36.3539 -36.3228 -36.3227 -36.3214 -36.3212 -28.9873 -28.9873
   -28.9809 -28.9809 -28.8596 -28.8596 -28.8555 -28.8555 -28.8193 -28.8193
   -28.8176 -28.8176 -28.2989 -28.2989 -28.2738 -28.2738 -28.2634 -28.2634
    -2.8375  -2.8375  -1.6883  -1.6883  -1.1279  -1.1279  -0.9936  -0.9936
    -0.7121  -0.7121  -0.4031  -0.4031   0.0026   0.0027   0.0525   0.0525
     0.2167   0.2167   0.3734   0.3735   0.4895   0.4895   0.7603   0.7603
     0.9853   0.9854   1.0032   1.0032   1.0860   1.0861   1.5026   1.5027
     1.7289   1.7289   1.7816   1.7816   2.5270   2.5270   2.7474   2.7474
     4.1089   4.1090   4.1468   4.1468   4.2087   4.2087   4.2811   4.2811
     4.4554   4.4554   4.7616   4.7616   4.8387   4.8387   5.0127   5.0128
     5.2812   5.2812   5.5316   5.5316   6.0976   6.0976   6.7912

          k =-0.0883 0.0630 0.0000 ( 18867 PWs)   bands (ev):

   -64.5045 -64.5006 -64.3150 -64.3148 -64.3111 -64.3110 -60.3532 -60.3527
   -60.3463 -60.3463 -59.7103 -59.7034 -36.5746 -36.5684 -36.5589 -36.5583
   -36.5499 -36.4962 -36.4030 -36.3943 -36.3921 -36.3910 -36.3828 -36.3805
   -36.3287 -36.3270 -36.3211 -36.3199 -36.3190 -36.3178 -29.0040 -28.9823
   -28.9802 -28.9715 -28.9380 -28.9275 -28.8460 -28.8328 -28.8229 -28.8151
   -28.7749 -28.7745 -28.3683 -28.2997 -28.2820 -28.2666 -28.2595 -28.2069
    -2.9471  -2.4081  -1.6977  -1.4171  -1.3759  -0.9734  -0.8861  -0.8386
    -0.7907  -0.6605  -0.6268  -0.1160  -0.0316   0.0042   0.0373   0.1517
     0.2877   0.3044   0.3254   0.3824   0.6095   0.6881   0.7633   0.8733
     0.9859   1.0233   1.0927   1.1193   1.1371   1.2009   1.3355   1.4734
     1.6293   1.7533   1.7745   2.0268   2.4768   2.4840   2.5204   2.6567
     3.4575   3.7554   3.8699   4.0417   4.1327   4.1557   4.2707   4.3177
     4.3830   4.3888   4.4724   4.6112   4.9367   4.9470   5.1040   5.1468
     5.2353   5.4328   5.7305   5.7653   5.7738   6.5240   6.6266

          k =-0.0883 0.0943 0.0000 ( 18841 PWs)   bands (ev):

   -64.5059 -64.4991 -64.3164 -64.3161 -64.3096 -64.3095 -60.3559 -60.3553
   -60.3441 -60.3440 -59.7130 -59.7010 -36.5770 -36.5761 -36.5655 -36.5576
   -36.5448 -36.4723 -36.4076 -36.4047 -36.3990 -36.3959 -36.3901 -36.3855
   -36.3252 -36.3186 -36.3166 -36.3119 -36.3018 -36.3012 -29.0172 -29.0006
   -28.9884 -28.9805 -28.9799 -28.9597 -28.8652 -28.8437 -28.8308 -28.8161
   -28.7242 -28.7213 -28.4290 -28.3123 -28.2854 -28.2687 -28.2560 -28.1528
    -2.7712  -1.9059  -1.7648  -1.5010  -0.9497  -0.9162  -0.8771  -0.8237
    -0.6772  -0.5140  -0.2387  -0.1515  -0.0297   0.0320   0.0948   0.3245
     0.3432   0.4139   0.4936   0.6515   0.7406   0.7858   0.8945   0.9772
     1.0818   1.1121   1.1493   1.3526   1.3610   1.4167   1.4444   1.5739
     1.6902   1.7254   1.9629   2.0530   2.1149   2.2924   2.3022   2.4597
     2.6673   3.0267   3.4867   3.7023   3.9171   3.9898   4.0130   4.1127
     4.3337   4.3430   4.3559   4.5605   4.7163   4.7789   4.9420   5.1240
     5.1699   5.2219   5.3916   5.4611   5.5100   6.2589   6.4459

          k =-0.0883-0.0621 0.0000 ( 18844 PWs)   bands (ev):

   -64.5064 -64.4985 -64.3169 -64.3166 -64.3091 -64.3089 -60.3569 -60.3562
   -60.3433 -60.3431 -59.7140 -59.7002 -36.5841 -36.5766 -36.5643 -36.5567
   -36.5417 -36.4633 -36.4114 -36.4093 -36.4056 -36.3966 -36.3898 -36.3840
   -36.3245 -36.3172 -36.3150 -36.3092 -36.2933 -36.2924 -29.0240 -29.0222
   -29.0083 -28.9829 -28.9798 -28.9557 -28.8741 -28.8496 -28.8350 -28.8176
   -28.7060 -28.7016 -28.4520 -28.3183 -28.2875 -28.2694 -28.2546 -28.1332
    -2.4345  -2.3566  -1.3603  -1.2965  -0.9728  -0.9582  -0.8803  -0.8005
    -0.7029  -0.1068  -0.1031  -0.0893  -0.0429   0.1218   0.1917   0.2848
     0.3329   0.3990   0.5013   0.7311   0.7909   0.9452   1.0599   1.0708
     1.1034   1.3494   1.3961   1.4640   1.4783   1.5134   1.5248   1.5779
     1.7279   1.8546   1.8821   1.9148   2.0484   2.0816   2.1937   2.3844
     2.4916   2.6795   3.3338   3.4907   3.7158   3.8031   3.8053   3.9386
     4.1093   4.1805   4.2430   4.4582   4.6030   4.6964   4.7226   4.7510
     4.9555   5.0800   5.1663   5.3793   5.4697   6.1891   6.2612

     the Fermi energy is     1.9028 ev

!    total energy              =   -2015.33874698 Ry
     Harris-Foulkes estimate   =   -2015.33874439 Ry
     estimated scf accuracy    <       0.00000053 Ry

     The total energy is the sum of the following terms:

     one-electron contribution =  -12883.83101708 Ry
     hartree contribution      =    6435.36704986 Ry
     xc contribution           =    -663.12906436 Ry
     ewald contribution        =    5096.33545975 Ry
     electric field correction =       0.00000001 Ry
     smearing contrib. (-TS)   =      -0.08117516 Ry

     convergence has been achieved in  21 iterations
 
 BEEF-vdW xc energy contributions
           1 :   -594.232839430307     
           2 :    550.703422761071     
           3 :   -473.312688250134     
           4 :    377.734582143424     
           5 :   -280.541987761557     
           6 :    194.566921624061     
           7 :   -126.578103963245     
           8 :    77.5258420132205     
           9 :   -44.5927535047530     
          10 :    23.6161137884809     
          11 :   -10.8478256348626     
          12 :    3.59957183244705     
          13 :  -6.679980042667921E-002
          14 :   -1.14503292005486     
          15 :    1.29118605605049     
          16 :   -1.42028309007605     
          17 :    2.09840442441816     
          18 :   -3.23878651912685     
          19 :    4.22338512653573     
          20 :   -4.31039581579194     
          21 :    3.09518490455412     
          22 :  -0.783479350679727     
          23 :   -1.85991622242796     
          24 :    3.81143904819942     
          25 :   -4.16742170472628     
          26 :    2.41808432881669     
          27 :    1.44361740525790     
          28 :   -6.94851854684316     
          29 :    13.2363457216221     
          30 :   -19.1717638176370     
          31 :   -46.6363193359997     
          32 :   -33.7627434492849     

     Forces acting on atoms (Ry/au):


     negative rho (up, down):  1.467E+00 0.000E+00
     atom    1 type  1   force =    -0.00085999   -0.00060459    0.01301122
     atom    2 type  1   force =    -0.00086027   -0.00060548    0.01300733
     atom    3 type  2   force =    -0.00229424   -0.00161330    0.01187980
     atom    4 type  2   force =    -0.00229394   -0.00161442    0.01187945
     atom    5 type  1   force =     0.00000543    0.00000431    0.00001431
     atom    6 type  1   force =     0.00001410    0.00000954    0.00001447
     atom    7 type  2   force =     0.00000054   -0.00004821   -0.00018281
     atom    8 type  2   force =    -0.00004575    0.00001660   -0.00018262
     atom    9 type  1   force =     0.00082542    0.00058032   -0.01287237
     atom   10 type  1   force =     0.00082534    0.00058096   -0.01287337
     atom   11 type  2   force =     0.00234145    0.00164668   -0.01184771
     atom   12 type  2   force =     0.00234189    0.00164759   -0.01184772

     Total force =     0.035628     Total SCF correction =     0.001486


     entering subroutine stress ...


     negative rho (up, down):  1.467E+00 0.000E+00
          total   stress  (Ry/bohr**3)                   (kbar)     P=  -25.66
  -0.00022536  -0.00004093   0.00001016        -33.15     -6.02      1.50
  -0.00004093  -0.00019597   0.00000715         -6.02    -28.83      1.05
   0.00001016   0.00000715  -0.00010203          1.50      1.05    -15.01

 !ASE

     Writing output data file calc.save
 
     init_run     :     15.74s CPU     25.84s WALL (       1 calls)
     electrons    :    709.52s CPU   1152.03s WALL (       1 calls)
     forces       :      2.94s CPU      3.70s WALL (       1 calls)
     stress       :      6.56s CPU      7.96s WALL (       1 calls)

     Called by init_run:
     wfcinit      :     13.40s CPU     22.78s WALL (       1 calls)
     potinit      :      1.30s CPU      1.86s WALL (       1 calls)

     Called by electrons:
     c_bands      :    550.24s CPU    890.57s WALL (      21 calls)
     sum_band     :     98.51s CPU    168.89s WALL (      21 calls)
     v_of_rho     :     21.84s CPU     33.87s WALL (      22 calls)
     newd         :      7.85s CPU      8.21s WALL (      22 calls)
     mix_rho      :      1.04s CPU      1.64s WALL (      21 calls)
     vdW_energy   :      1.84s CPU      1.85s WALL (      58 calls)
     vdW_ffts     :     34.21s CPU     57.12s WALL (     118 calls)
     vdW_v        :      6.27s CPU      9.49s WALL (      58 calls)

     Called by c_bands:
     init_us_2    :      0.61s CPU      0.65s WALL (     900 calls)
     cegterg      :    542.21s CPU    880.87s WALL (     420 calls)

     Called by *egterg:
     h_psi        :    401.03s CPU    719.86s WALL (    1750 calls)
     s_psi        :      7.90s CPU      8.02s WALL (    1750 calls)
     g_psi        :      0.34s CPU      0.36s WALL (    1310 calls)
     cdiaghg      :     85.28s CPU     89.97s WALL (    1730 calls)

     Called by h_psi:
     add_vuspsi   :      8.21s CPU      8.25s WALL (    1750 calls)

     General routines
     calbec       :     24.98s CPU     34.04s WALL (    2210 calls)
     fft          :     52.06s CPU     86.38s WALL (    3555 calls)
     ffts         :      0.17s CPU      0.28s WALL (      43 calls)
     fftw         :    448.43s CPU    826.63s WALL (  261866 calls)
     interpolate  :      0.79s CPU      1.33s WALL (      43 calls)
     davcio       :      0.00s CPU      0.02s WALL (      20 calls)
 
     Parallel routines
     fft_scatter  :    476.52s CPU    886.30s WALL (  265464 calls)
 
     PWSCF        : 12m15.76s CPU    19m51.35s WALL

 
   This run was terminated on:  18:46:49  29Dec2018            

=------------------------------------------------------------------------------=
   JOB DONE.
=------------------------------------------------------------------------------=
Job  /afs/slac/g/suncat/bin/suncat-tsmpirun -x LD_LIBRARY_PATH -wdir /scratch/qe387712_m45ZN pw.x -in pw.inp

TID   HOST_NAME   COMMAND_LINE            STATUS            TERMINATION_TIME
===== ========== ================  =======================  ===================
00000 suncat0020 pw.x -in pw.inp   Done                     12/29/2018 18:46:49
00001 suncat0020 pw.x -in pw.inp   Done                     12/29/2018 18:46:49
00002 suncat0020 pw.x -in pw.inp   Done                     12/29/2018 18:46:49
00003 suncat0020 pw.x -in pw.inp   Done                     12/29/2018 18:46:49
00004 suncat0020 pw.x -in pw.inp   Done                     12/29/2018 18:46:49
00005 suncat0020 pw.x -in pw.inp   Done                     12/29/2018 18:46:49
00006 suncat0020 pw.x -in pw.inp   Done                     12/29/2018 18:46:49
00007 suncat0020 pw.x -in pw.inp   Done                     12/29/2018 18:46:49
00008 suncat0014 pw.x -in pw.inp   Done                     12/29/2018 18:46:49
00009 suncat0014 pw.x -in pw.inp   Done                     12/29/2018 18:46:49
00010 suncat0014 pw.x -in pw.inp   Done                     12/29/2018 18:46:49
00011 suncat0014 pw.x -in pw.inp   Done                     12/29/2018 18:46:49
00012 suncat0014 pw.x -in pw.inp   Done                     12/29/2018 18:46:49
00013 suncat0014 pw.x -in pw.inp   Done                     12/29/2018 18:46:49
00014 suncat0014 pw.x -in pw.inp   Done                     12/29/2018 18:46:49
00015 suncat0014 pw.x -in pw.inp   Done                     12/29/2018 18:46:49
00016 suncat0199 pw.x -in pw.inp   Done                     12/29/2018 18:46:49
00017 suncat0199 pw.x -in pw.inp   Done                     12/29/2018 18:46:49
00018 suncat0199 pw.x -in pw.inp   Done                     12/29/2018 18:46:49
00019 suncat0199 pw.x -in pw.inp   Done                     12/29/2018 18:46:49
00020 suncat0199 pw.x -in pw.inp   Done                     12/29/2018 18:46:49
00021 suncat0199 pw.x -in pw.inp   Done                     12/29/2018 18:46:49
00022 suncat0199 pw.x -in pw.inp   Done                     12/29/2018 18:46:49
00023 suncat0199 pw.x -in pw.inp   Done                     12/29/2018 18:46:49
00024 suncat0006 pw.x -in pw.inp   Done                     12/29/2018 18:46:49
00025 suncat0006 pw.x -in pw.inp   Done                     12/29/2018 18:46:49
00026 suncat0006 pw.x -in pw.inp   Done                     12/29/2018 18:46:49
00027 suncat0006 pw.x -in pw.inp   Done                     12/29/2018 18:46:49
00028 suncat0006 pw.x -in pw.inp   Done                     12/29/2018 18:46:49
00029 suncat0006 pw.x -in pw.inp   Done                     12/29/2018 18:46:49
00030 suncat0006 pw.x -in pw.inp   Done                     12/29/2018 18:46:49
00031 suncat0006 pw.x -in pw.inp   Done                     12/29/2018 18:46:49
00032 suncat0005 pw.x -in pw.inp   Done                     12/29/2018 18:46:49
00033 suncat0005 pw.x -in pw.inp   Done                     12/29/2018 18:46:49
00034 suncat0005 pw.x -in pw.inp   Done                     12/29/2018 18:46:49
00035 suncat0005 pw.x -in pw.inp   Done                     12/29/2018 18:46:49
00036 suncat0005 pw.x -in pw.inp   Done                     12/29/2018 18:46:49
00037 suncat0005 pw.x -in pw.inp   Done                     12/29/2018 18:46:49
00038 suncat0005 pw.x -in pw.inp   Done                     12/29/2018 18:46:49
00039 suncat0005 pw.x -in pw.inp   Done                     12/29/2018 18:46:49
00040 suncat0004 pw.x -in pw.inp   Done                     12/29/2018 18:46:49
00041 suncat0004 pw.x -in pw.inp   Done                     12/29/2018 18:46:49
00042 suncat0004 pw.x -in pw.inp   Done                     12/29/2018 18:46:49
00043 suncat0004 pw.x -in pw.inp   Done                     12/29/2018 18:46:49
00044 suncat0004 pw.x -in pw.inp   Done                     12/29/2018 18:46:49
00045 suncat0004 pw.x -in pw.inp   Done                     12/29/2018 18:46:49
00046 suncat0004 pw.x -in pw.inp   Done                     12/29/2018 18:46:49
00047 suncat0004 pw.x -in pw.inp   Done                     12/29/2018 18:46:49
00048 suncat0187 pw.x -in pw.inp   Done                     12/29/2018 18:46:49
00049 suncat0187 pw.x -in pw.inp   Done                     12/29/2018 18:46:49
00050 suncat0187 pw.x -in pw.inp   Done                     12/29/2018 18:46:49
00051 suncat0187 pw.x -in pw.inp   Done                     12/29/2018 18:46:49
00052 suncat0187 pw.x -in pw.inp   Done                     12/29/2018 18:46:49
00053 suncat0187 pw.x -in pw.inp   Done                     12/29/2018 18:46:49
00054 suncat0187 pw.x -in pw.inp   Done                     12/29/2018 18:46:49
00055 suncat0187 pw.x -in pw.inp   Done                     12/29/2018 18:46:49
00056 suncat0186 pw.x -in pw.inp   Done                     12/29/2018 18:46:49
00057 suncat0186 pw.x -in pw.inp   Done                     12/29/2018 18:46:49
00058 suncat0186 pw.x -in pw.inp   Done                     12/29/2018 18:46:49
00059 suncat0186 pw.x -in pw.inp   Done                     12/29/2018 18:46:49
00060 suncat0186 pw.x -in pw.inp   Done                     12/29/2018 18:46:49
00061 suncat0186 pw.x -in pw.inp   Done                     12/29/2018 18:46:49
00062 suncat0186 pw.x -in pw.inp   Done                     12/29/2018 18:46:49
00063 suncat0186 pw.x -in pw.inp   Done                     12/29/2018 18:46:49

     Program PWSCF v.5.1rc2 (svn rev. 11289) starts on 29Dec2018 at 18:46:58 

     This program is part of the open-source Quantum ESPRESSO suite
     for quantum simulation of materials; please cite
         "P. Giannozzi et al., J. Phys.:Condens. Matter 21 395502 (2009);
          URL http://www.quantum-espresso.org", 
     in publications or presentations arising from this work. More details at
     http://www.quantum-espresso.org/quote

     Parallel version (MPI), running on    64 processors
     R & G space division:  proc/nbgrp/npool/nimage =      64
     Reading input from pw.inp
     Message from routine read_cards :
     DEPRECATED: no units specified in CELL_PARAMETERS card

     Current dimensions of program PWSCF are:
     Max number of different atomic species (ntypx) = 10
     Max number of k-points (npk) =  40000
     Max angular momentum in pseudopotentials (lmaxx) =  3
     Presently stress not available with electric field


     **************************************************************************
     Initializing libbeef V0.1.1 with the BEEF-vdW functional.
     Citation: Wellendorff et al., PRB 85, 235149 (2012).
     **************************************************************************


     IMPORTANT: XC functional enforced from input :
     Exchange-correlation      = BEEF-VDW ( 1  4 27 13 2)
     Any further DFT definition will be discarded
     Please, verify this is what you really want


     Subspace diagonalization in iterative solution of the eigenvalue problem:
     a serial algorithm will be used

     Found symmetry operation: I + ( -0.5000  0.5000  0.0000)
     This is a supercell, fractional translations are disabled
 
     Parallelization info
     --------------------
     sticks:   dense  smooth     PW     G-vecs:    dense   smooth      PW
     Min          49      19      5                 9315     2335     349
     Max          50      20      6                 9330     2386     378
     Sum        3157    1263    359               596661   150893   23123
 


     bravais-lattice index     =            0
     lattice parameter (alat)  =       1.8897  a.u.
     unit-cell volume          =    5013.3267 (a.u.)^3
     number of atoms/cell      =           12
     number of atomic types    =            2
     number of electrons       =       162.00
     number of Kohn-Sham states=          111
     kinetic-energy cutoff     =      36.7493  Ry
     charge density cutoff     =     367.4932  Ry
     convergence threshold     =      1.0E-06
     mixing beta               =       0.1000
     number of iterations used =           10  plain     mixing
     Exchange-correlation      = BEEF-VDW ( 1  4 27 13 2)
     nstep                     =           50


     celldm(1)=   1.889726  celldm(2)=   0.000000  celldm(3)=   0.000000
     celldm(4)=   0.000000  celldm(5)=   0.000000  celldm(6)=   0.000000

     crystal axes: (cart. coord. in units of alat)
               a(1) = (   5.661067   0.000000   0.000000 )  
               a(2) = (   1.913025   5.328041   0.000000 )  
               a(3) = (   0.000000   0.000000  24.629951 )  

     reciprocal axes: (cart. coord. in units 2 pi/alat)
               b(1) = (  0.176645 -0.063424  0.000000 )  
               b(2) = (  0.000000  0.187686  0.000000 )  
               b(3) = (  0.000000  0.000000  0.040601 )  


     PseudoPot. # 1 for Tc read from file:
     /afs/slac.stanford.edu/u/if/mamunm/psp/gbrv1.5pbe/Tc.UPF
     MD5 check sum: 9eb49e5b028550b2339a02317eb7b844
     Pseudo is Ultrasoft + core correction, Zval = 15.0
     Generated by new atomic code, or converted to UPF format
     Using radial grid of  965 points,  6 beta functions with: 
                l(1) =   0
                l(2) =   0
                l(3) =   1
                l(4) =   1
                l(5) =   2
                l(6) =   2
     Q(r) pseudized with  8 coefficients,  rinner =    1.300   1.300   1.300
                                                       1.300   1.300

     PseudoPot. # 2 for Hf read from file:
     /afs/slac.stanford.edu/u/if/mamunm/psp/gbrv1.5pbe/Hf.UPF
     MD5 check sum: 8ee9378dfe14276e333edf04c5e4aa26
     Pseudo is Ultrasoft + core correction, Zval = 12.0
     Generated by new atomic code, or converted to UPF format
     Using radial grid of  921 points,  8 beta functions with: 
                l(1) =   0
                l(2) =   0
                l(3) =   0
                l(4) =   1
                l(5) =   1
                l(6) =   2
                l(7) =   2
                l(8) =   3
     Q(r) pseudized with  6 coefficients,  rinner =    1.200   1.200   1.200
                                                       1.200   1.200   1.200
                                                       1.200

     vdW kernel table read from file vdW_kernel_table
     MD5 check sum: 095c7af220d748ca6e76c0b4c6cfb241

     atomic species   valence    mass     pseudopotential
        Tc1           15.00    97.90721     Tc( 1.00)
        Hf1           12.00   178.49000     Hf( 1.00)

     No symmetry found



   Cartesian axes

     site n.     atom                  positions (alat units)
         1           Tc1 tau(   1) = (   0.0000000   0.0000000  10.0000000  )
         2           Tc1 tau(   2) = (   3.7870459   2.6640204  10.0000000  )
         3           Hf1 tau(   3) = (   2.8305336   0.0000000  10.0000000  )
         4           Hf1 tau(   4) = (   0.9565123   2.6640204  10.0000000  )
         5           Tc1 tau(   5) = (   5.6610672   3.9823121  12.3149756  )
         6           Tc1 tau(   6) = (   1.8740213   1.3182916  12.3149756  )
         7           Hf1 tau(   7) = (   2.8305336   3.9823121  12.3149756  )
         8           Hf1 tau(   8) = (   4.7045549   1.3182916  12.3149756  )
         9           Tc1 tau(   9) = (   3.7501649   2.6380754  14.5968549  )
        10           Tc1 tau(  10) = (   7.5372106   5.3020974  14.5968524  )
        11           Hf1 tau(  11) = (   6.5845963   2.6408171  14.5994895  )
        12           Hf1 tau(  12) = (   4.7105762   5.3048398  14.5994894  )

     number of k points=    20  Fermi-Dirac smearing, width (Ry)=  0.0110
                       cart. coord. in units 2pi/alat
        k(    1) = (   0.0000000   0.0000000   0.0000000), wk =   0.0555556
        k(    2) = (   0.0000000   0.0312810   0.0000000), wk =   0.1111111
        k(    3) = (   0.0000000   0.0625621   0.0000000), wk =   0.1111111
        k(    4) = (   0.0000000  -0.0938431   0.0000000), wk =   0.0555556
        k(    5) = (   0.0294409  -0.0105707   0.0000000), wk =   0.1111111
        k(    6) = (   0.0294409   0.0207103   0.0000000), wk =   0.1111111
        k(    7) = (   0.0294409   0.0519914   0.0000000), wk =   0.1111111
        k(    8) = (   0.0294409  -0.1044138   0.0000000), wk =   0.1111111
        k(    9) = (   0.0294409  -0.0731328   0.0000000), wk =   0.1111111
        k(   10) = (   0.0294409  -0.0418517   0.0000000), wk =   0.1111111
        k(   11) = (   0.0588817  -0.0211414   0.0000000), wk =   0.1111111
        k(   12) = (   0.0588817   0.0101397   0.0000000), wk =   0.1111111
        k(   13) = (   0.0588817   0.0414207   0.0000000), wk =   0.1111111
        k(   14) = (   0.0588817  -0.1149845   0.0000000), wk =   0.1111111
        k(   15) = (   0.0588817  -0.0837035   0.0000000), wk =   0.1111111
        k(   16) = (   0.0588817  -0.0524224   0.0000000), wk =   0.1111111
        k(   17) = (  -0.0883226   0.0317121   0.0000000), wk =   0.0555556
        k(   18) = (  -0.0883226   0.0629931   0.0000000), wk =   0.1111111
        k(   19) = (  -0.0883226   0.0942742   0.0000000), wk =   0.1111111
        k(   20) = (  -0.0883226  -0.0621310   0.0000000), wk =   0.0555556

     Dense  grid:   596661 G-vectors     FFT dimensions: (  72,  72, 288)

     Smooth grid:   150893 G-vectors     FFT dimensions: (  45,  45, 180)

     Largest allocated arrays     est. size (Mb)     dimensions
        Kohn-Sham Wavefunctions         0.53 Mb     (     311,  111)
        NL pseudopotentials             1.25 Mb     (     311,  264)
        Each V/rho on FFT grid          0.40 Mb     (   25920)
        Each G-vector array             0.07 Mb     (    9325)
        G-vector shells                 0.03 Mb     (    4526)
     Largest temporary arrays     est. size (Mb)     dimensions
        Auxiliary wavefunctions         2.11 Mb     (     311,  444)
        Each subspace H/S matrix        3.01 Mb     (     444,  444)
        Each <psi_i|beta_j> matrix      0.45 Mb     (     264,  111)
        Arrays for rho mixing           3.96 Mb     (   25920,   10)

     Check: negative/imaginary core charge=   -0.000010    0.000000

     Initial potential from superposition of free atoms
     Check: negative starting charge=   -1.403224

     starting charge  143.99982, renormalised to  162.00000

     negative rho (up, down):  1.579E+00 0.000E+00


     ************************************************************************
     *
     * You are using vdW-DF for exchange-correlation in this calculation.
     * Please cite the following three references that made this development
     * possible:
     *
     *   M. Dion, H. Rydberg, E. Schroder, D. C. Langreth, and
     *   B. I. Lundqvist, Phys. Rev. Lett. 92, 246401 (2004).
     *
     *   T. Thonhauser, V. R. Cooper, S. Li, A. Puzder, P. Hyldgaard, and
     *   D. C. Langreth, Phys. Rev. B 76, 125112 (2007).
     *
     *   G. Roman-Perez and J. M. Soler, Phys. Rev. Lett. 103, 096102 (2009).
     *
     *
     * If you are using vdW-DF2, please also cite:
     *
     *   K. Lee, E. D. Murray, L. Kong, B. I. Lundqvist, and
     *   D. C. Langreth, Phys. Rev. B 82, 081101(R) (2010).
     *
     *
     * If you are calculating the stress with vdW-DF, please also cite:
     *
     *   R. Sabatini, E. Kucukbenli, B. Kolb, T. Thonhauser, and
     *   S. de Gironcoli, J. Phys.: Condens. Matter 24, 424209 (2012).
     *
     ************************************************************************

     Carrying out vdW-DF run using the following parameters:

     Nqs =      20    Nr_points =    1024   r_max =   100.000
     q_mesh =
               0.00001000     0.04494208     0.09755937     0.15916263
               0.23128650     0.31572767     0.41458969     0.53033537
               0.66584808     0.82450364     1.01025438     1.22772762
               1.48234092     1.78043706     2.12944203     2.53805004
               3.01644009     3.57652955     4.23227104     5.00000000

     Gradients computed in reciprocal space

     ************************************************************************


 
     Adding external electric field

     Computed dipole along edir(3) : 
        Dipole                0.0075 Ry au,          0.0190 Debye
        Dipole field          0.0000 Ry au
 
        Potential amp.       -0.0017 Ry
        Total length         45.3803 bohr
 
     Starting wfc are  156 randomized atomic wfcs

     total cpu time spent up to now is       26.7 secs

     per-process dynamical memory:    41.4 Mb

     Self-consistent Calculation

     iteration #  1     ecut=    36.75 Ry     beta=0.10
     Davidson diagonalization with overlap
     ethr =  1.00E-02,  avg # of iterations =  8.2

     negative rho (up, down):  1.566E+00 0.000E+00
 
     Adding external electric field

     Computed dipole along edir(3) : 
        Dipole               -1.2659 Ry au,         -3.2175 Debye
        Dipole field         -0.0032 Ry au
 
        Potential amp.        0.2880 Ry
        Total length         45.3803 bohr
 

     total cpu time spent up to now is      126.0 secs

     total energy              =   -1998.20480860 Ry
     Harris-Foulkes estimate   =   -2028.90947129 Ry
     estimated scf accuracy    <     174.19197362 Ry

     iteration #  2     ecut=    36.75 Ry     beta=0.10
     Davidson diagonalization with overlap
     ethr =  1.00E-02,  avg # of iterations =  5.6

     negative rho (up, down):  1.555E+00 0.000E+00
 
     Adding external electric field

     Computed dipole along edir(3) : 
        Dipole                0.0577 Ry au,          0.1466 Debye
        Dipole field          0.0001 Ry au
 
        Potential amp.       -0.0131 Ry
        Total length         45.3803 bohr
 

     total cpu time spent up to now is      202.1 secs

     total energy              =   -2017.13017712 Ry
     Harris-Foulkes estimate   =   -2023.42588626 Ry
     estimated scf accuracy    <      48.08771276 Ry

     iteration #  3     ecut=    36.75 Ry     beta=0.10
     Davidson diagonalization with overlap
     ethr =  1.00E-02,  avg # of iterations =  2.1

     negative rho (up, down):  1.550E+00 0.000E+00
 
     Adding external electric field

     Computed dipole along edir(3) : 
        Dipole               -2.2298 Ry au,         -5.6676 Debye
        Dipole field         -0.0056 Ry au
 
        Potential amp.        0.5073 Ry
        Total length         45.3803 bohr
 

     total cpu time spent up to now is      252.1 secs

     total energy              =   -2016.80625328 Ry
     Harris-Foulkes estimate   =   -2020.15879794 Ry
     estimated scf accuracy    <      45.62385389 Ry

     iteration #  4     ecut=    36.75 Ry     beta=0.10
     Davidson diagonalization with overlap
     ethr =  1.00E-02,  avg # of iterations =  1.4

     negative rho (up, down):  1.540E+00 0.000E+00
 
     Adding external electric field

     Computed dipole along edir(3) : 
        Dipole               -0.7527 Ry au,         -1.9132 Debye
        Dipole field         -0.0019 Ry au
 
        Potential amp.        0.1712 Ry
        Total length         45.3803 bohr
 

     total cpu time spent up to now is      297.7 secs

     total energy              =   -2016.82694342 Ry
     Harris-Foulkes estimate   =   -2020.15867988 Ry
     estimated scf accuracy    <      69.30710665 Ry

     iteration #  5     ecut=    36.75 Ry     beta=0.10
     Davidson diagonalization with overlap
     ethr =  1.00E-02,  avg # of iterations =  1.0

     negative rho (up, down):  1.511E+00 0.000E+00
 
     Adding external electric field

     Computed dipole along edir(3) : 
        Dipole               -0.3395 Ry au,         -0.8630 Debye
        Dipole field         -0.0009 Ry au
 
        Potential amp.        0.0772 Ry
        Total length         45.3803 bohr
 

     total cpu time spent up to now is      342.3 secs

     total energy              =   -2015.81391223 Ry
     Harris-Foulkes estimate   =   -2017.88834098 Ry
     estimated scf accuracy    <       5.89439007 Ry

     iteration #  6     ecut=    36.75 Ry     beta=0.10
     Davidson diagonalization with overlap
     ethr =  3.64E-03,  avg # of iterations =  2.2

     negative rho (up, down):  1.499E+00 0.000E+00
 
     Adding external electric field

     Computed dipole along edir(3) : 
        Dipole               -0.3859 Ry au,         -0.9810 Debye
        Dipole field         -0.0010 Ry au
 
        Potential amp.        0.0878 Ry
        Total length         45.3803 bohr
 

     total cpu time spent up to now is      386.6 secs

     total energy              =   -2015.72568836 Ry
     Harris-Foulkes estimate   =   -2016.29466302 Ry
     estimated scf accuracy    <       3.97623510 Ry

     iteration #  7     ecut=    36.75 Ry     beta=0.10
     Davidson diagonalization with overlap
     ethr =  2.45E-03,  avg # of iterations =  1.0

     negative rho (up, down):  1.473E+00 0.000E+00
 
     Adding external electric field

     Computed dipole along edir(3) : 
        Dipole               -0.1223 Ry au,         -0.3108 Debye
        Dipole field         -0.0003 Ry au
 
        Potential amp.        0.0278 Ry
        Total length         45.3803 bohr
 

     total cpu time spent up to now is      428.2 secs

     total energy              =   -2015.18651389 Ry
     Harris-Foulkes estimate   =   -2015.82130162 Ry
     estimated scf accuracy    <       1.22830885 Ry

     iteration #  8     ecut=    36.75 Ry     beta=0.10
     Davidson diagonalization with overlap
     ethr =  7.58E-04,  avg # of iterations =  4.8

     negative rho (up, down):  1.470E+00 0.000E+00
 
     Adding external electric field

     Computed dipole along edir(3) : 
        Dipole               -0.1723 Ry au,         -0.4381 Debye
        Dipole field         -0.0004 Ry au
 
        Potential amp.        0.0392 Ry
        Total length         45.3803 bohr
 

     total cpu time spent up to now is      483.9 secs

     total energy              =   -2015.32686431 Ry
     Harris-Foulkes estimate   =   -2015.39101206 Ry
     estimated scf accuracy    <       0.93404163 Ry

     iteration #  9     ecut=    36.75 Ry     beta=0.10
     Davidson diagonalization with overlap
     ethr =  5.77E-04,  avg # of iterations =  1.1

     negative rho (up, down):  1.469E+00 0.000E+00
 
     Adding external electric field

     Computed dipole along edir(3) : 
        Dipole               -0.0778 Ry au,         -0.1976 Debye
        Dipole field         -0.0002 Ry au
 
        Potential amp.        0.0177 Ry
        Total length         45.3803 bohr
 

     total cpu time spent up to now is      528.3 secs

     total energy              =   -2015.34634480 Ry
     Harris-Foulkes estimate   =   -2015.35980541 Ry
     estimated scf accuracy    <       0.09612191 Ry

     iteration # 10     ecut=    36.75 Ry     beta=0.10
     Davidson diagonalization with overlap
     ethr =  5.93E-05,  avg # of iterations =  7.0

     negative rho (up, down):  1.467E+00 0.000E+00
 
     Adding external electric field

     Computed dipole along edir(3) : 
        Dipole               -0.1331 Ry au,         -0.3384 Debye
        Dipole field         -0.0003 Ry au
 
        Potential amp.        0.0303 Ry
        Total length         45.3803 bohr
 

     total cpu time spent up to now is      585.3 secs

     total energy              =   -2015.33536260 Ry
     Harris-Foulkes estimate   =   -2015.35081916 Ry
     estimated scf accuracy    <       0.12173663 Ry

     iteration # 11     ecut=    36.75 Ry     beta=0.10
     Davidson diagonalization with overlap
     ethr =  5.93E-05,  avg # of iterations =  3.8

     negative rho (up, down):  1.467E+00 0.000E+00
 
     Adding external electric field

     Computed dipole along edir(3) : 
        Dipole               -0.0568 Ry au,         -0.1445 Debye
        Dipole field         -0.0001 Ry au
 
        Potential amp.        0.0129 Ry
        Total length         45.3803 bohr
 

     total cpu time spent up to now is      636.8 secs

     total energy              =   -2015.33888389 Ry
     Harris-Foulkes estimate   =   -2015.34533035 Ry
     estimated scf accuracy    <       0.26258650 Ry

     iteration # 12     ecut=    36.75 Ry     beta=0.10
     Davidson diagonalization with overlap
     ethr =  5.93E-05,  avg # of iterations =  1.0

     negative rho (up, down):  1.466E+00 0.000E+00
 
     Adding external electric field

     Computed dipole along edir(3) : 
        Dipole                0.0237 Ry au,          0.0602 Debye
        Dipole field          0.0001 Ry au
 
        Potential amp.       -0.0054 Ry
[...]
   -60.2962 -60.2832 -59.6460 -59.6325 -36.5927 -36.5822 -36.5697 -36.5609
   -36.5483 -36.4683 -36.4093 -36.4003 -36.3957 -36.3874 -36.3747 -36.3663
   -36.3243 -36.3130 -36.3110 -36.3001 -36.2902 -36.2767 -29.0151 -29.0134
   -28.9798 -28.9580 -28.9446 -28.9182 -28.8532 -28.8220 -28.8066 -28.7766
   -28.7071 -28.6521 -28.3857 -28.2554 -28.2274 -28.2135 -28.1965 -28.0717
    -3.3837  -1.9487  -1.8546  -1.5252  -1.3346  -1.1817  -1.1613  -1.0863
    -1.0560  -0.8493  -0.5090  -0.4200  -0.2139   0.0838   0.0914   0.2164
     0.2798   0.2993   0.5797   0.6744   0.7036   0.8770   0.9246   1.1745
     1.2704   1.2741   1.3438   1.3748   1.4655   1.7199   1.7479   1.7987
     2.0065   2.0789   2.1390   2.1611   2.1856   2.2582   2.7155   2.7324
     2.7384   3.2182   3.5204   3.7689   3.8479   3.9234   3.9866   4.0683
     4.2222   4.4794   4.7812   4.8131   4.8883   4.9934   5.0608   5.1823
     5.4108   5.4409   5.4435   5.4740   5.7832   6.1849   6.2712

          k = 0.0589-0.1150 0.0000 ( 18841 PWs)   bands (ev):

   -64.5034 -64.4964 -64.3138 -64.3071 -64.2922 -64.2853 -60.3616 -60.3500
   -60.2956 -60.2841 -59.6453 -59.6333 -36.5828 -36.5811 -36.5699 -36.5589
   -36.5461 -36.4768 -36.4001 -36.3996 -36.3899 -36.3857 -36.3721 -36.3670
   -36.3219 -36.3138 -36.3073 -36.2999 -36.2984 -36.2851 -29.0131 -28.9999
   -28.9821 -28.9429 -28.9428 -28.9189 -28.8600 -28.8280 -28.8106 -28.7809
   -28.7280 -28.6733 -28.3699 -28.2589 -28.2318 -28.2100 -28.1993 -28.0936
    -2.7840  -1.9206  -1.7810  -1.4985  -0.9795  -0.9612  -0.8925  -0.8549
    -0.7305  -0.5570  -0.2784  -0.1688  -0.0642   0.0046   0.0594   0.2932
     0.3243   0.3897   0.4791   0.6436   0.6781   0.7395   0.9102   0.9712
     1.0472   1.0905   1.1536   1.3422   1.3662   1.4130   1.4567   1.5742
     1.6799   1.7267   1.9704   2.0397   2.1116   2.2859   2.3103   2.4826
     2.6676   3.0293   3.5693   3.7900   3.9156   4.0149   4.0502   4.1341
     4.3424   4.3573   4.4451   4.6215   4.7557   4.8266   4.9628   5.1455
     5.2066   5.2546   5.4191   5.5167   5.5304   6.3109   6.4826

          k = 0.0589-0.0837 0.0000 ( 18820 PWs)   bands (ev):

   -64.5018 -64.4981 -64.3124 -64.3086 -64.2907 -64.2869 -60.3592 -60.3522
   -60.2932 -60.2863 -59.6428 -59.6356 -36.5792 -36.5724 -36.5603 -36.5591
   -36.5498 -36.5013 -36.3974 -36.3919 -36.3786 -36.3694 -36.3691 -36.3637
   -36.3218 -36.3213 -36.3186 -36.3089 -36.3055 -36.3041 -29.0056 -28.9856
   -28.9452 -28.9395 -28.9226 -28.8875 -28.8513 -28.8274 -28.8011 -28.7809
   -28.7795 -28.7264 -28.3129 -28.2508 -28.2319 -28.2056 -28.2044 -28.1484
    -2.4958  -2.0482  -2.0433  -1.2923  -1.1605  -0.9198  -0.7440  -0.6860
    -0.4862  -0.3970  -0.2343  -0.2056  -0.1375  -0.1288   0.0991   0.2964
     0.3241   0.3330   0.3443   0.3908   0.4852   0.5937   0.6551   0.6822
     0.7009   0.7105   0.7670   1.0773   1.0799   1.1103   1.2278   1.2450
     1.4019   1.4353   2.0608   2.1597   2.2096   2.3602   2.5307   2.8241
     3.2056   3.4259   3.9000   3.9579   4.0878   4.2449   4.2945   4.3926
     4.4387   4.6637   4.7611   4.9526   4.9890   5.0103   5.2042   5.2710
     5.3636   5.4744   5.4776   5.5397   5.6629   6.0516   6.5627

          k = 0.0589-0.0524 0.0000 ( 18847 PWs)   bands (ev):

   -64.5002 -64.4998 -64.3107 -64.3105 -64.2890 -64.2887 -60.3557 -60.3553
   -60.2898 -60.2893 -59.6394 -59.6388 -36.5771 -36.5763 -36.5602 -36.5570
   -36.5343 -36.5306 -36.3935 -36.3932 -36.3734 -36.3679 -36.3534 -36.3489
   -36.3409 -36.3362 -36.3244 -36.3212 -36.3102 -36.3055 -28.9946 -28.9908
   -28.9349 -28.9329 -28.8632 -28.8545 -28.8314 -28.8224 -28.8090 -28.8004
   -28.7822 -28.7754 -28.2388 -28.2370 -28.2244 -28.2200 -28.2103 -28.2015
    -3.2101  -2.1980  -1.7716  -1.4929  -1.4596  -1.1674  -1.0918  -1.0412
    -0.8258  -0.5674  -0.5614  -0.1427  -0.1236  -0.0487   0.1048   0.1386
     0.1745   0.1971   0.2515   0.4561   0.5288   0.5396   0.5694   0.5752
     0.6327   0.7614   0.7787   0.9963   1.0625   1.0718   1.3297   1.3412
     1.5158   1.5564   1.9556   2.0555   2.5949   2.6905   2.9013   3.2447
     3.9458   4.0764   4.1199   4.1220   4.1844   4.3659   4.3705   4.5613
     4.5782   4.9298   4.9494   4.9511   5.0236   5.0452   5.2624   5.2710
     5.3402   5.6133   5.6568   5.7117   6.1004   6.3781   6.4316

          k =-0.0883 0.0317 0.0000 ( 18870 PWs)   bands (ev):

   -64.5000 -64.5000 -64.3106 -64.3105 -64.2889 -64.2888 -60.3555 -60.3555
   -60.2895 -60.2895 -59.6391 -59.6391 -36.5767 -36.5767 -36.5592 -36.5592
   -36.5319 -36.5319 -36.3925 -36.3925 -36.3722 -36.3721 -36.3516 -36.3516
   -36.3392 -36.3391 -36.3209 -36.3208 -36.3082 -36.3080 -28.9922 -28.9922
   -28.9349 -28.9349 -28.8625 -28.8625 -28.8218 -28.8217 -28.8092 -28.8091
   -28.7757 -28.7757 -28.2432 -28.2432 -28.2172 -28.2172 -28.2057 -28.2057
    -2.8531  -2.8530  -1.6974  -1.6974  -1.1584  -1.1584  -1.0403  -1.0403
    -0.7518  -0.7518  -0.4419  -0.4419  -0.0420  -0.0420   0.0185   0.0185
     0.1691   0.1691   0.3698   0.3699   0.4853   0.4854   0.7705   0.7705
     0.9797   0.9798   1.0004   1.0004   1.1136   1.1136   1.5010   1.5011
     1.7332   1.7332   1.7822   1.7822   2.5484   2.5484   2.7627   2.7627
     4.1244   4.1244   4.1687   4.1687   4.2757   4.2757   4.3242   4.3242
     4.4636   4.4636   4.7867   4.7867   4.8485   4.8485   5.0279   5.0279
     5.3100   5.3100   5.5776   5.5776   6.1472   6.1472   6.7863

          k =-0.0883 0.0630 0.0000 ( 18867 PWs)   bands (ev):

   -64.5020 -64.4980 -64.3125 -64.3086 -64.2908 -64.2868 -60.3590 -60.3523
   -60.2930 -60.2863 -59.6426 -59.6357 -36.5795 -36.5731 -36.5633 -36.5603
   -36.5518 -36.5010 -36.3965 -36.3904 -36.3805 -36.3723 -36.3695 -36.3659
   -36.3256 -36.3186 -36.3178 -36.3122 -36.3052 -36.3048 -29.0029 -28.9852
   -28.9412 -28.9402 -28.9244 -28.8832 -28.8433 -28.8223 -28.7969 -28.7796
   -28.7771 -28.7255 -28.3092 -28.2463 -28.2285 -28.2084 -28.2024 -28.1477
    -2.9612  -2.4242  -1.7017  -1.4397  -1.3879  -1.0091  -0.9245  -0.8888
    -0.8348  -0.7144  -0.6589  -0.1467  -0.0675  -0.0359   0.0352   0.1150
     0.2367   0.2732   0.2734   0.3867   0.6030   0.6816   0.7565   0.8652
     0.9835   1.0568   1.0794   1.1221   1.1394   1.2100   1.3373   1.4690
     1.6298   1.7561   1.7857   2.0213   2.4844   2.5002   2.5292   2.6724
     3.4545   3.7589   3.9373   4.0947   4.1525   4.2092   4.2888   4.3553
     4.4226   4.4358   4.4940   4.6320   4.9596   4.9670   5.1269   5.1697
     5.2790   5.4713   5.7738   5.7864   5.8186   6.5496   6.6214

          k =-0.0883 0.0943 0.0000 ( 18841 PWs)   bands (ev):

   -64.5034 -64.4964 -64.3138 -64.3071 -64.2922 -64.2853 -60.3616 -60.3500
   -60.2956 -60.2841 -59.6453 -59.6333 -36.5828 -36.5811 -36.5699 -36.5589
   -36.5461 -36.4768 -36.4001 -36.3996 -36.3899 -36.3857 -36.3721 -36.3670
   -36.3219 -36.3138 -36.3073 -36.2999 -36.2984 -36.2851 -29.0131 -28.9999
   -28.9821 -28.9429 -28.9428 -28.9189 -28.8600 -28.8280 -28.8106 -28.7809
   -28.7280 -28.6733 -28.3699 -28.2589 -28.2318 -28.2100 -28.1993 -28.0936
    -2.7840  -1.9206  -1.7810  -1.4985  -0.9795  -0.9612  -0.8925  -0.8549
    -0.7305  -0.5570  -0.2784  -0.1688  -0.0642   0.0046   0.0594   0.2932
     0.3243   0.3897   0.4791   0.6436   0.6781   0.7395   0.9102   0.9712
     1.0472   1.0905   1.1536   1.3422   1.3662   1.4130   1.4567   1.5742
     1.6799   1.7267   1.9704   2.0397   2.1116   2.2859   2.3103   2.4826
     2.6676   3.0293   3.5693   3.7900   3.9156   4.0149   4.0502   4.1341
     4.3424   4.3573   4.4451   4.6215   4.7557   4.8266   4.9628   5.1455
     5.2066   5.2546   5.4191   5.5167   5.5304   6.3109   6.4826

          k =-0.0883-0.0621 0.0000 ( 18844 PWs)   bands (ev):

   -64.5039 -64.4959 -64.3143 -64.3065 -64.2927 -64.2847 -60.3625 -60.3492
   -60.2965 -60.2833 -59.6463 -59.6325 -36.5901 -36.5815 -36.5686 -36.5580
   -36.5430 -36.4677 -36.4063 -36.4016 -36.3927 -36.3899 -36.3719 -36.3660
   -36.3211 -36.3119 -36.3061 -36.2976 -36.2898 -36.2763 -29.0229 -29.0172
   -28.9810 -28.9657 -28.9436 -28.9159 -28.8682 -28.8314 -28.8173 -28.7832
   -28.7092 -28.6542 -28.3929 -28.2648 -28.2338 -28.2105 -28.1979 -28.0739
    -2.4529  -2.3626  -1.3543  -1.3149  -1.0265  -0.9934  -0.8807  -0.8076
    -0.7573  -0.1801  -0.1139  -0.0977  -0.0845   0.0932   0.1499   0.2774
     0.2939   0.3455   0.4750   0.7263   0.7991   0.8560   1.0581   1.0699
     1.0746   1.2682   1.4050   1.4549   1.4828   1.4977   1.5228   1.5807
     1.7330   1.8646   1.8650   1.9079   2.0455   2.0778   2.1933   2.3847
     2.5144   2.6856   3.4281   3.5565   3.7223   3.7896   3.8527   3.9978
     4.1083   4.3019   4.3113   4.4486   4.6487   4.6965   4.7242   4.8682
     4.9993   5.1007   5.1905   5.4131   5.5434   6.2292   6.3241

     the Fermi energy is     1.9031 ev

!    total energy              =   -2015.34173183 Ry
     Harris-Foulkes estimate   =   -2015.34172957 Ry
     estimated scf accuracy    <       0.00000015 Ry

     The total energy is the sum of the following terms:

     one-electron contribution =  -12998.69561361 Ry
     hartree contribution      =    6492.90155573 Ry
     xc contribution           =    -663.26111493 Ry
     ewald contribution        =    5153.79472144 Ry
     electric field correction =       0.00000040 Ry
     smearing contrib. (-TS)   =      -0.08128086 Ry

     convergence has been achieved in  22 iterations
 
 BEEF-vdW xc energy contributions
           1 :   -594.366486673406     
           2 :    550.881718150211     
           3 :   -473.543434611546     
           4 :    377.976316810184     
           5 :   -280.727218320821     
           6 :    194.643789676366     
           7 :   -126.543464454128     
           8 :    77.4281774259158     
           9 :   -44.5040429261276     
          10 :    23.5924708561703     
          11 :   -10.9014227323941     
          12 :    3.69766281371392     
          13 :  -0.157039697672644     
          14 :   -1.10239320529706     
          15 :    1.30364751138711     
          16 :   -1.46619138218080     
          17 :    2.14720686005876     
          18 :   -3.27232678577661     
          19 :    4.24315680092195     
          20 :   -4.32813062283572     
          21 :    3.11838303632544     
          22 :  -0.807731396581744     
          23 :   -1.84669906914576     
          24 :    3.81844938777488     
          25 :   -4.19227056319710     
          26 :    2.44748056301921     
          27 :    1.42352523793090     
          28 :   -6.94128167611518     
          29 :    13.2336993335177     
          30 :   -19.1631079762285     
          31 :   -46.6455186713330     
          32 :   -33.7807751811170     

     Forces acting on atoms (Ry/au):


     negative rho (up, down):  1.465E+00 0.000E+00
     atom    1 type  1   force =    -0.00104729   -0.00073693    0.01146795
     atom    2 type  1   force =    -0.00104810   -0.00073728    0.01146659
     atom    3 type  2   force =    -0.00222865   -0.00156749    0.01050404
     atom    4 type  2   force =    -0.00222816   -0.00156788    0.01050390
     atom    5 type  1   force =     0.00067157    0.00047236   -0.01057891
     atom    6 type  1   force =     0.00066613    0.00046897   -0.01057939
     atom    7 type  2   force =     0.00071300    0.00052813   -0.01218350
     atom    8 type  2   force =     0.00073798    0.00049288   -0.01218393
     atom    9 type  1   force =     0.00145596    0.00102518    0.00008610
     atom   10 type  1   force =     0.00145689    0.00102349    0.00008284
     atom   11 type  2   force =     0.00042561    0.00030035    0.00070743
     atom   12 type  2   force =     0.00042505    0.00029821    0.00070691

     Total force =     0.032145     Total SCF correction =     0.000660


     entering subroutine stress ...


     negative rho (up, down):  1.465E+00 0.000E+00
          total   stress  (Ry/bohr**3)                   (kbar)     P=  -21.02
  -0.00019968  -0.00003726   0.00000787        -29.37     -5.48      1.16
  -0.00003726  -0.00017292   0.00000554         -5.48    -25.44      0.81
   0.00000787   0.00000554  -0.00005597          1.16      0.81     -8.23

 !ASE

     Writing output data file calc.save
 
     init_run     :     14.61s CPU     27.13s WALL (       1 calls)
     electrons    :    788.07s CPU   1200.48s WALL (       1 calls)
     forces       :      2.99s CPU      3.67s WALL (       1 calls)
     stress       :      6.87s CPU      8.38s WALL (       1 calls)

     Called by init_run:
     wfcinit      :     12.54s CPU     24.33s WALL (       1 calls)
     potinit      :      1.11s CPU      1.67s WALL (       1 calls)

     Called by electrons:
     c_bands      :    608.41s CPU    925.27s WALL (      22 calls)
     sum_band     :    112.88s CPU    178.94s WALL (      22 calls)
     v_of_rho     :     23.31s CPU     35.17s WALL (      23 calls)
     newd         :      8.28s CPU      8.65s WALL (      23 calls)
     mix_rho      :      1.08s CPU      1.70s WALL (      22 calls)
     vdW_energy   :      1.72s CPU      1.73s WALL (      59 calls)
     vdW_ffts     :     38.96s CPU     60.05s WALL (     120 calls)
     vdW_v        :      6.54s CPU      9.64s WALL (      59 calls)

     Called by c_bands:
     init_us_2    :      0.56s CPU      0.62s WALL (     940 calls)
     cegterg      :    600.54s CPU    915.26s WALL (     440 calls)

     Called by *egterg:
     h_psi        :    453.63s CPU    752.39s WALL (    1767 calls)
     s_psi        :      8.09s CPU      8.21s WALL (    1767 calls)
     g_psi        :      0.35s CPU      0.37s WALL (    1307 calls)
     cdiaghg      :     85.39s CPU     89.82s WALL (    1747 calls)

     Called by h_psi:
     add_vuspsi   :      8.48s CPU      8.54s WALL (    1767 calls)

     General routines
     calbec       :     26.57s CPU     35.97s WALL (    2247 calls)
     fft          :     58.61s CPU     90.61s WALL (    3621 calls)
     ffts         :      0.21s CPU      0.37s WALL (      45 calls)
     fftw         :    513.07s CPU    866.12s WALL (  272300 calls)
     interpolate  :      0.81s CPU      1.43s WALL (      45 calls)
     davcio       :      0.00s CPU      0.01s WALL (      20 calls)
 
     Parallel routines
     fft_scatter  :    546.67s CPU    929.10s WALL (  275966 calls)
 
     PWSCF        : 13m33.60s CPU    20m41.29s WALL

 
   This run was terminated on:  19:28:50  29Dec2018            

=------------------------------------------------------------------------------=
   JOB DONE.
=------------------------------------------------------------------------------=
Job  /afs/slac/g/suncat/bin/suncat-tsmpirun -x LD_LIBRARY_PATH -wdir /scratch/qe387712_m45ZN pw.x -in pw.inp

TID   HOST_NAME   COMMAND_LINE            STATUS            TERMINATION_TIME
===== ========== ================  =======================  ===================
00000 suncat0020 pw.x -in pw.inp   Done                     12/29/2018 19:28:50
00001 suncat0020 pw.x -in pw.inp   Done                     12/29/2018 19:28:50
00002 suncat0020 pw.x -in pw.inp   Done                     12/29/2018 19:28:50
00003 suncat0020 pw.x -in pw.inp   Done                     12/29/2018 19:28:50
00004 suncat0020 pw.x -in pw.inp   Done                     12/29/2018 19:28:50
00005 suncat0020 pw.x -in pw.inp   Done                     12/29/2018 19:28:50
00006 suncat0020 pw.x -in pw.inp   Done                     12/29/2018 19:28:50
00007 suncat0020 pw.x -in pw.inp   Done                     12/29/2018 19:28:50
00008 suncat0014 pw.x -in pw.inp   Done                     12/29/2018 19:28:50
00009 suncat0014 pw.x -in pw.inp   Done                     12/29/2018 19:28:50
00010 suncat0014 pw.x -in pw.inp   Done                     12/29/2018 19:28:50
00011 suncat0014 pw.x -in pw.inp   Done                     12/29/2018 19:28:50
00012 suncat0014 pw.x -in pw.inp   Done                     12/29/2018 19:28:50
00013 suncat0014 pw.x -in pw.inp   Done                     12/29/2018 19:28:50
00014 suncat0014 pw.x -in pw.inp   Done                     12/29/2018 19:28:50
00015 suncat0014 pw.x -in pw.inp   Done                     12/29/2018 19:28:50
00016 suncat0199 pw.x -in pw.inp   Done                     12/29/2018 19:28:50
00017 suncat0199 pw.x -in pw.inp   Done                     12/29/2018 19:28:50
00018 suncat0199 pw.x -in pw.inp   Done                     12/29/2018 19:28:50
00019 suncat0199 pw.x -in pw.inp   Done                     12/29/2018 19:28:50
00020 suncat0199 pw.x -in pw.inp   Done                     12/29/2018 19:28:50
00021 suncat0199 pw.x -in pw.inp   Done                     12/29/2018 19:28:50
00022 suncat0199 pw.x -in pw.inp   Done                     12/29/2018 19:28:50
00023 suncat0199 pw.x -in pw.inp   Done                     12/29/2018 19:28:50
00024 suncat0006 pw.x -in pw.inp   Done                     12/29/2018 19:28:50
00025 suncat0006 pw.x -in pw.inp   Done                     12/29/2018 19:28:50
00026 suncat0006 pw.x -in pw.inp   Done                     12/29/2018 19:28:50
00027 suncat0006 pw.x -in pw.inp   Done                     12/29/2018 19:28:50
00028 suncat0006 pw.x -in pw.inp   Done                     12/29/2018 19:28:50
00029 suncat0006 pw.x -in pw.inp   Done                     12/29/2018 19:28:50
00030 suncat0006 pw.x -in pw.inp   Done                     12/29/2018 19:28:50
00031 suncat0006 pw.x -in pw.inp   Done                     12/29/2018 19:28:50
00032 suncat0005 pw.x -in pw.inp   Done                     12/29/2018 19:28:50
00033 suncat0005 pw.x -in pw.inp   Done                     12/29/2018 19:28:50
00034 suncat0005 pw.x -in pw.inp   Done                     12/29/2018 19:28:50
00035 suncat0005 pw.x -in pw.inp   Done                     12/29/2018 19:28:50
00036 suncat0005 pw.x -in pw.inp   Done                     12/29/2018 19:28:50
00037 suncat0005 pw.x -in pw.inp   Done                     12/29/2018 19:28:50
00038 suncat0005 pw.x -in pw.inp   Done                     12/29/2018 19:28:50
00039 suncat0005 pw.x -in pw.inp   Done                     12/29/2018 19:28:50
00040 suncat0004 pw.x -in pw.inp   Done                     12/29/2018 19:28:50
00041 suncat0004 pw.x -in pw.inp   Done                     12/29/2018 19:28:50
00042 suncat0004 pw.x -in pw.inp   Done                     12/29/2018 19:28:50
00043 suncat0004 pw.x -in pw.inp   Done                     12/29/2018 19:28:50
00044 suncat0004 pw.x -in pw.inp   Done                     12/29/2018 19:28:50
00045 suncat0004 pw.x -in pw.inp   Done                     12/29/2018 19:28:50
00046 suncat0004 pw.x -in pw.inp   Done                     12/29/2018 19:28:50
00047 suncat0004 pw.x -in pw.inp   Done                     12/29/2018 19:28:50
00048 suncat0187 pw.x -in pw.inp   Done                     12/29/2018 19:28:50
00049 suncat0187 pw.x -in pw.inp   Done                     12/29/2018 19:28:50
00050 suncat0187 pw.x -in pw.inp   Done                     12/29/2018 19:28:50
00051 suncat0187 pw.x -in pw.inp   Done                     12/29/2018 19:28:50
00052 suncat0187 pw.x -in pw.inp   Done                     12/29/2018 19:28:50
00053 suncat0187 pw.x -in pw.inp   Done                     12/29/2018 19:28:50
00054 suncat0187 pw.x -in pw.inp   Done                     12/29/2018 19:28:50
00055 suncat0187 pw.x -in pw.inp   Done                     12/29/2018 19:28:50
00056 suncat0186 pw.x -in pw.inp   Done                     12/29/2018 19:28:50
00057 suncat0186 pw.x -in pw.inp   Done                     12/29/2018 19:28:50
00058 suncat0186 pw.x -in pw.inp   Done                     12/29/2018 19:28:50
00059 suncat0186 pw.x -in pw.inp   Done                     12/29/2018 19:28:50
00060 suncat0186 pw.x -in pw.inp   Done                     12/29/2018 19:28:50
00061 suncat0186 pw.x -in pw.inp   Done                     12/29/2018 19:28:50
00062 suncat0186 pw.x -in pw.inp   Done                     12/29/2018 19:28:50
00063 suncat0186 pw.x -in pw.inp   Done                     12/29/2018 19:28:50
