  python dir          : /u/if/mamunm/src/espresso
  espresso dir        : /nfs/slac/g/suncatfs/sw/espv18/espresso-dynpy-beef/bin
  pseudo dir          : /afs/slac.stanford.edu/u/if/mamunm/psp/gbrv1.5pbe
  ase-espresso py git : GITVERSION



     Program PWSCF v.5.1rc2 (svn rev. 11289) starts on 19Dec2018 at  5:45:59 

     This program is part of the open-source Quantum ESPRESSO suite
     for quantum simulation of materials; please cite
         "P. Giannozzi et al., J. Phys.:Condens. Matter 21 395502 (2009);
          URL http://www.quantum-espresso.org", 
     in publications or presentations arising from this work. More details at
     http://www.quantum-espresso.org/quote

     Parallel version (MPI), running on    32 processors
     R & G space division:  proc/nbgrp/npool/nimage =      32
     Reading input from pw.inp
     Message from routine read_cards :
     DEPRECATED: no units specified in CELL_PARAMETERS card

     Current dimensions of program PWSCF are:
     Max number of different atomic species (ntypx) = 10
     Max number of k-points (npk) =  40000
     Max angular momentum in pseudopotentials (lmaxx) =  3
     Presently stress not available with electric field


     **************************************************************************
     Initializing libbeef V0.1.1 with the BEEF-vdW functional.
     Citation: Wellendorff et al., PRB 85, 235149 (2012).
     **************************************************************************


     IMPORTANT: XC functional enforced from input :
     Exchange-correlation      = BEEF-VDW ( 1  4 27 13 2)
     Any further DFT definition will be discarded
     Please, verify this is what you really want


     Subspace diagonalization in iterative solution of the eigenvalue problem:
     a serial algorithm will be used

     Found symmetry operation: I + ( -0.5000 -0.5000  0.0000)
     This is a supercell, fractional translations are disabled
 
     Parallelization info
     --------------------
     sticks:   dense  smooth     PW     G-vecs:    dense   smooth      PW
     Min         103      41     11                19517     4923     745
     Max         104      42     12                19537     4963     760
     Sum        3297    1315    375               624881   157927   24123
 
     Generating pointlists ...
     new r_m :   0.4125 (alat units)  0.7795 (a.u.) for type    1
     new r_m :   0.4125 (alat units)  0.7795 (a.u.) for type    2


     bravais-lattice index     =            0
     lattice parameter (alat)  =       1.8897  a.u.
     unit-cell volume          =    5251.5911 (a.u.)^3
     number of atoms/cell      =           12
     number of atomic types    =            2
     number of electrons       =       186.00
     number of Kohn-Sham states=          123
     kinetic-energy cutoff     =      36.7493  Ry
     charge density cutoff     =     367.4932  Ry
     convergence threshold     =      1.0E-06
     mixing beta               =       0.1000
     number of iterations used =           10  plain     mixing
     Exchange-correlation      = BEEF-VDW ( 1  4 27 13 2)
     nstep                     =           50


     celldm(1)=   1.889726  celldm(2)=   0.000000  celldm(3)=   0.000000
     celldm(4)=   0.000000  celldm(5)=   0.000000  celldm(6)=   0.000000

     crystal axes: (cart. coord. in units of alat)
               a(1) = (   5.780105   0.000000   0.000000 )  
               a(2) = (   1.937127   5.445838   0.000000 )  
               a(3) = (   0.000000   0.000000  24.722588 )  

     reciprocal axes: (cart. coord. in units 2 pi/alat)
               b(1) = (  0.173007 -0.061540  0.000000 )  
               b(2) = (  0.000000  0.183626  0.000000 )  
               b(3) = (  0.000000  0.000000  0.040449 )  


     PseudoPot. # 1 for Co read from file:
     /afs/slac.stanford.edu/u/if/mamunm/psp/gbrv1.5pbe/Co.UPF
     MD5 check sum: 5f91765df6ddd3222702df6e7b74a16d
     Pseudo is Ultrasoft + core correction, Zval = 17.0
     Generated by new atomic code, or converted to UPF format
     Using radial grid of  863 points,  6 beta functions with: 
                l(1) =   0
                l(2) =   0
                l(3) =   1
                l(4) =   1
                l(5) =   2
                l(6) =   2
     Q(r) pseudized with  8 coefficients,  rinner =    1.200   1.200   1.200
                                                       1.200   1.200

     PseudoPot. # 2 for Pb read from file:
     /afs/slac.stanford.edu/u/if/mamunm/psp/gbrv1.5pbe/Pb.UPF
     MD5 check sum: 3d1c1779aa92214d1e8f3a7db79003e2
     Pseudo is Ultrasoft + core correction, Zval = 14.0
     Generated by new atomic code, or converted to UPF format
     Using radial grid of  899 points,  6 beta functions with: 
                l(1) =   0
                l(2) =   0
                l(3) =   1
                l(4) =   1
                l(5) =   2
                l(6) =   2
     Q(r) pseudized with  6 coefficients,  rinner =    1.000   1.000   1.000
                                                       1.000   1.000

     vdW kernel table read from file vdW_kernel_table
     MD5 check sum: 095c7af220d748ca6e76c0b4c6cfb241

     atomic species   valence    mass     pseudopotential
        Co1           17.00    58.93319     Co( 1.00)
        Pb1           14.00   207.20000     Pb( 1.00)

     Starting magnetic structure 
     atomic species   magnetization
        Co1          0.118
        Pb1          0.143

     No symmetry found



   Cartesian axes

     site n.     atom                  positions (alat units)
         1           Co1 tau(   1) = (   0.0000000   0.0000000  10.0000000  )
         2           Co1 tau(   2) = (   3.8586160   2.7229188  10.0000000  )
         3           Pb1 tau(   3) = (   2.8900523   0.0000000  10.0000000  )
         4           Pb1 tau(   4) = (   0.9685637   2.7229188  10.0000000  )
         5           Co1 tau(   5) = (   5.7801045   4.0788602  12.3612940  )
         6           Co1 tau(   6) = (   1.9214886   1.3559414  12.3612940  )
         7           Pb1 tau(   7) = (   2.8900523   4.0788602  12.3612940  )
         8           Pb1 tau(   8) = (   4.8115409   1.3559414  12.3612940  )
         9           Co1 tau(   9) = (   3.8429772   2.7118829  14.7225880  )
        10           Co1 tau(  10) = (   7.7015931   5.4348016  14.7225880  )
        11           Pb1 tau(  11) = (   6.7330294   2.7118829  14.7225880  )
        12           Pb1 tau(  12) = (   4.8115409   5.4348016  14.7225880  )

     number of k points=    40  Fermi-Dirac smearing, width (Ry)=  0.0110
                       cart. coord. in units 2pi/alat
        k(    1) = (   0.0000000   0.0000000   0.0000000), wk =   0.0277778
        k(    2) = (   0.0000000   0.0306044   0.0000000), wk =   0.0555556
        k(    3) = (   0.0000000   0.0612088   0.0000000), wk =   0.0555556
        k(    4) = (   0.0000000  -0.0918132   0.0000000), wk =   0.0277778
        k(    5) = (   0.0288345  -0.0102567   0.0000000), wk =   0.0555556
        k(    6) = (   0.0288345   0.0203477   0.0000000), wk =   0.0555556
        k(    7) = (   0.0288345   0.0509522   0.0000000), wk =   0.0555556
        k(    8) = (   0.0288345  -0.1020699   0.0000000), wk =   0.0555556
        k(    9) = (   0.0288345  -0.0714655   0.0000000), wk =   0.0555556
        k(   10) = (   0.0288345  -0.0408611   0.0000000), wk =   0.0555556
        k(   11) = (   0.0576691  -0.0205133   0.0000000), wk =   0.0555556
        k(   12) = (   0.0576691   0.0100911   0.0000000), wk =   0.0555556
        k(   13) = (   0.0576691   0.0406955   0.0000000), wk =   0.0555556
        k(   14) = (   0.0576691  -0.1123266   0.0000000), wk =   0.0555556
        k(   15) = (   0.0576691  -0.0817222   0.0000000), wk =   0.0555556
        k(   16) = (   0.0576691  -0.0511178   0.0000000), wk =   0.0555556
        k(   17) = (  -0.0865036   0.0307700   0.0000000), wk =   0.0277778
        k(   18) = (  -0.0865036   0.0613744   0.0000000), wk =   0.0555556
        k(   19) = (  -0.0865036   0.0919789   0.0000000), wk =   0.0555556
        k(   20) = (  -0.0865036  -0.0610432   0.0000000), wk =   0.0277778
        k(   21) = (   0.0000000   0.0000000   0.0000000), wk =   0.0277778
        k(   22) = (   0.0000000   0.0306044   0.0000000), wk =   0.0555556
        k(   23) = (   0.0000000   0.0612088   0.0000000), wk =   0.0555556
        k(   24) = (   0.0000000  -0.0918132   0.0000000), wk =   0.0277778
        k(   25) = (   0.0288345  -0.0102567   0.0000000), wk =   0.0555556
        k(   26) = (   0.0288345   0.0203477   0.0000000), wk =   0.0555556
        k(   27) = (   0.0288345   0.0509522   0.0000000), wk =   0.0555556
        k(   28) = (   0.0288345  -0.1020699   0.0000000), wk =   0.0555556
        k(   29) = (   0.0288345  -0.0714655   0.0000000), wk =   0.0555556
        k(   30) = (   0.0288345  -0.0408611   0.0000000), wk =   0.0555556
        k(   31) = (   0.0576691  -0.0205133   0.0000000), wk =   0.0555556
        k(   32) = (   0.0576691   0.0100911   0.0000000), wk =   0.0555556
        k(   33) = (   0.0576691   0.0406955   0.0000000), wk =   0.0555556
        k(   34) = (   0.0576691  -0.1123266   0.0000000), wk =   0.0555556
        k(   35) = (   0.0576691  -0.0817222   0.0000000), wk =   0.0555556
        k(   36) = (   0.0576691  -0.0511178   0.0000000), wk =   0.0555556
        k(   37) = (  -0.0865036   0.0307700   0.0000000), wk =   0.0277778
        k(   38) = (  -0.0865036   0.0613744   0.0000000), wk =   0.0555556
        k(   39) = (  -0.0865036   0.0919789   0.0000000), wk =   0.0555556
        k(   40) = (  -0.0865036  -0.0610432   0.0000000), wk =   0.0277778

     Dense  grid:   624881 G-vectors     FFT dimensions: (  72,  72, 288)

     Smooth grid:   157927 G-vectors     FFT dimensions: (  45,  45, 192)

     Largest allocated arrays     est. size (Mb)     dimensions
        Kohn-Sham Wavefunctions         1.22 Mb     (     651,  123)
        NL pseudopotentials             2.15 Mb     (     651,  216)
        Each V/rho on FFT grid          1.42 Mb     (   46656,   2)
        Each G-vector array             0.15 Mb     (   19537)
        G-vector shells                 0.07 Mb     (    9370)
     Largest temporary arrays     est. size (Mb)     dimensions
        Auxiliary wavefunctions         4.89 Mb     (     651,  492)
        Each subspace H/S matrix        3.69 Mb     (     492,  492)
        Each <psi_i|beta_j> matrix      0.41 Mb     (     216,  123)
        Arrays for rho mixing           7.12 Mb     (   46656,   10)

     Check: negative/imaginary core charge=   -0.000003    0.000000

     Initial potential from superposition of free atoms
     Check: negative starting charge=(component1):   -0.055760
     Check: negative starting charge=(component2):   -0.041816

     starting charge  179.98585, renormalised to  186.00000

     negative rho (up, down):  5.762E-02 4.321E-02


     ************************************************************************
     *
     * You are using vdW-DF for exchange-correlation in this calculation.
     * Please cite the following three references that made this development
     * possible:
     *
     *   M. Dion, H. Rydberg, E. Schroder, D. C. Langreth, and
     *   B. I. Lundqvist, Phys. Rev. Lett. 92, 246401 (2004).
     *
     *   T. Thonhauser, V. R. Cooper, S. Li, A. Puzder, P. Hyldgaard, and
     *   D. C. Langreth, Phys. Rev. B 76, 125112 (2007).
     *
     *   G. Roman-Perez and J. M. Soler, Phys. Rev. Lett. 103, 096102 (2009).
     *
     *
     * If you are using vdW-DF2, please also cite:
     *
     *   K. Lee, E. D. Murray, L. Kong, B. I. Lundqvist, and
     *   D. C. Langreth, Phys. Rev. B 82, 081101(R) (2010).
     *
     *
     * If you are calculating the stress with vdW-DF, please also cite:
     *
     *   R. Sabatini, E. Kucukbenli, B. Kolb, T. Thonhauser, and
     *   S. de Gironcoli, J. Phys.: Condens. Matter 24, 424209 (2012).
     *
     ************************************************************************

     Carrying out vdW-DF run using the following parameters:

     Nqs =      20    Nr_points =    1024   r_max =   100.000
     q_mesh =
               0.00001000     0.04494208     0.09755937     0.15916263
               0.23128650     0.31572767     0.41458969     0.53033537
               0.66584808     0.82450364     1.01025438     1.22772762
               1.48234092     1.78043706     2.12944203     2.53805004
               3.01644009     3.57652955     4.23227104     5.00000000

     Gradients computed in reciprocal space

     ************************************************************************


 
     Adding external electric field

     Computed dipole along edir(3) : 
        Dipole               -0.0000 Ry au,         -0.0000 Debye
        Dipole field         -0.0000 Ry au
 
        Potential amp.        0.0000 Ry
        Total length         45.5509 bohr
 
 
     Adding external electric field

     Computed dipole along edir(3) : 
        Dipole               -0.0000 Ry au,         -0.0000 Debye
        Dipole field         -0.0000 Ry au
 
        Potential amp.        0.0000 Ry
        Total length         45.5509 bohr
 
     Starting wfc are  132 randomized atomic wfcs

     total cpu time spent up to now is       34.8 secs

     per-process dynamical memory:    85.6 Mb

     Self-consistent Calculation

     iteration #  1     ecut=    36.75 Ry     beta=0.10
     Davidson diagonalization with overlap
     ethr =  1.00E-02,  avg # of iterations =  8.0

     negative rho (up, down):  5.682E-02 4.362E-02
 
     Adding external electric field

     Computed dipole along edir(3) : 
        Dipole                0.0001 Ry au,          0.0004 Debye
        Dipole field          0.0000 Ry au
 
        Potential amp.       -0.0000 Ry
        Total length         45.5509 bohr
 
 
     Adding external electric field

     Computed dipole along edir(3) : 
        Dipole                0.0001 Ry au,          0.0004 Debye
        Dipole field          0.0000 Ry au
 
        Potential amp.       -0.0000 Ry
        Total length         45.5509 bohr
 
 
     Magnetic moment per site:
     atom:    1    charge:    8.3944    magn:    1.0170    constr:    0.0000
     atom:    2    charge:    8.3944    magn:    1.0170    constr:    0.0000
     atom:    3    charge:    1.7891    magn:    0.2319    constr:    0.0000
     atom:    4    charge:    1.7891    magn:    0.2319    constr:    0.0000
     atom:    5    charge:    8.4011    magn:    1.0040    constr:    0.0000
     atom:    6    charge:    8.4011    magn:    1.0040    constr:    0.0000
     atom:    7    charge:    1.7984    magn:    0.2329    constr:    0.0000
     atom:    8    charge:    1.7984    magn:    0.2329    constr:    0.0000
     atom:    9    charge:    8.3912    magn:    1.0167    constr:    0.0000
     atom:   10    charge:    8.3912    magn:    1.0167    constr:    0.0000
     atom:   11    charge:    1.7880    magn:    0.2318    constr:    0.0000
     atom:   12    charge:    1.7880    magn:    0.2318    constr:    0.0000

     total cpu time spent up to now is      180.0 secs

     total energy              =   -2790.97489761 Ry
     Harris-Foulkes estimate   =   -2795.61635542 Ry
     estimated scf accuracy    <      27.05605614 Ry

     total magnetization       =    15.31 Bohr mag/cell
     absolute magnetization    =    15.75 Bohr mag/cell

     iteration #  2     ecut=    36.75 Ry     beta=0.10
     Davidson diagonalization with overlap
     ethr =  1.00E-02,  avg # of iterations =  2.0

     negative rho (up, down):  5.573E-02 4.367E-02
 
     Adding external electric field

     Computed dipole along edir(3) : 
        Dipole               -0.0008 Ry au,         -0.0021 Debye
        Dipole field         -0.0000 Ry au
 
        Potential amp.        0.0002 Ry
        Total length         45.5509 bohr
 
 
     Adding external electric field

     Computed dipole along edir(3) : 
        Dipole               -0.0008 Ry au,         -0.0021 Debye
        Dipole field         -0.0000 Ry au
 
        Potential amp.        0.0002 Ry
        Total length         45.5509 bohr
 
 
     Magnetic moment per site:
     atom:    1    charge:    8.3701    magn:    1.0013    constr:    0.0000
     atom:    2    charge:    8.3701    magn:    1.0013    constr:    0.0000
     atom:    3    charge:    1.7785    magn:    0.2109    constr:    0.0000
     atom:    4    charge:    1.7785    magn:    0.2109    constr:    0.0000
     atom:    5    charge:    8.4081    magn:    0.9564    constr:    0.0000
     atom:    6    charge:    8.4081    magn:    0.9564    constr:    0.0000
     atom:    7    charge:    1.7885    magn:    0.2119    constr:    0.0000
     atom:    8    charge:    1.7885    magn:    0.2119    constr:    0.0000
     atom:    9    charge:    8.3669    magn:    1.0009    constr:    0.0000
     atom:   10    charge:    8.3669    magn:    1.0009    constr:    0.0000
     atom:   11    charge:    1.7774    magn:    0.2108    constr:    0.0000
     atom:   12    charge:    1.7774    magn:    0.2108    constr:    0.0000

     total cpu time spent up to now is      267.6 secs

     total energy              =   -2792.80809801 Ry
     Harris-Foulkes estimate   =   -2793.15639374 Ry
     estimated scf accuracy    <       2.69583123 Ry

     total magnetization       =     8.92 Bohr mag/cell
     absolute magnetization    =     9.27 Bohr mag/cell

     iteration #  3     ecut=    36.75 Ry     beta=0.10
     Davidson diagonalization with overlap
     ethr =  1.45E-03,  avg # of iterations =  2.1

     negative rho (up, down):  5.535E-02 4.367E-02
 
     Adding external electric field

     Computed dipole along edir(3) : 
        Dipole                0.0004 Ry au,          0.0011 Debye
        Dipole field          0.0000 Ry au
 
        Potential amp.       -0.0001 Ry
        Total length         45.5509 bohr
 
 
     Adding external electric field

     Computed dipole along edir(3) : 
        Dipole                0.0004 Ry au,          0.0011 Debye
        Dipole field          0.0000 Ry au
 
        Potential amp.       -0.0001 Ry
        Total length         45.5509 bohr
 
 
     Magnetic moment per site:
     atom:    1    charge:    8.3776    magn:    0.9862    constr:    0.0000
     atom:    2    charge:    8.3776    magn:    0.9862    constr:    0.0000
     atom:    3    charge:    1.7759    magn:    0.2048    constr:    0.0000
     atom:    4    charge:    1.7759    magn:    0.2048    constr:    0.0000
     atom:    5    charge:    8.3809    magn:    0.9629    constr:    0.0000
     atom:    6    charge:    8.3809    magn:    0.9629    constr:    0.0000
     atom:    7    charge:    1.7858    magn:    0.2058    constr:    0.0000
     atom:    8    charge:    1.7858    magn:    0.2058    constr:    0.0000
     atom:    9    charge:    8.3744    magn:    0.9858    constr:    0.0000
     atom:   10    charge:    8.3744    magn:    0.9858    constr:    0.0000
     atom:   11    charge:    1.7748    magn:    0.2047    constr:    0.0000
     atom:   12    charge:    1.7748    magn:    0.2047    constr:    0.0000

     total cpu time spent up to now is      355.1 secs

     total energy              =   -2792.74591723 Ry
     Harris-Foulkes estimate   =   -2793.19458923 Ry
     estimated scf accuracy    <       9.96052672 Ry

     total magnetization       =     8.94 Bohr mag/cell
     absolute magnetization    =     9.38 Bohr mag/cell

     iteration #  4     ecut=    36.75 Ry     beta=0.10
     Davidson diagonalization with overlap
     ethr =  1.45E-03,  avg # of iterations =  1.0

     negative rho (up, down):  5.295E-02 4.480E-02
 
     Adding external electric field

     Computed dipole along edir(3) : 
        Dipole               -0.0136 Ry au,         -0.0345 Debye
        Dipole field         -0.0000 Ry au
 
        Potential amp.        0.0030 Ry
        Total length         45.5509 bohr
 
 
     Adding external electric field

     Computed dipole along edir(3) : 
        Dipole               -0.0136 Ry au,         -0.0345 Debye
        Dipole field         -0.0000 Ry au
 
        Potential amp.        0.0030 Ry
        Total length         45.5509 bohr
 
 
     Magnetic moment per site:
     atom:    1    charge:    8.3333    magn:    0.9159    constr:    0.0000
     atom:    2    charge:    8.3333    magn:    0.9159    constr:    0.0000
     atom:    3    charge:    1.7465    magn:    0.1332    constr:    0.0000
     atom:    4    charge:    1.7465    magn:    0.1332    constr:    0.0000
     atom:    5    charge:    8.3331    magn:    0.8645    constr:    0.0000
     atom:    6    charge:    8.3332    magn:    0.8644    constr:    0.0000
     atom:    7    charge:    1.7559    magn:    0.1339    constr:    0.0000
     atom:    8    charge:    1.7559    magn:    0.1339    constr:    0.0000
     atom:    9    charge:    8.3306    magn:    0.9152    constr:    0.0000
     atom:   10    charge:    8.3307    magn:    0.9151    constr:    0.0000
     atom:   11    charge:    1.7454    magn:    0.1331    constr:    0.0000
     atom:   12    charge:    1.7454    magn:    0.1331    constr:    0.0000

     total cpu time spent up to now is      438.2 secs

     total energy              =   -2792.65370271 Ry
     Harris-Foulkes estimate   =   -2792.97945672 Ry
     estimated scf accuracy    <       1.18776881 Ry

     total magnetization       =     9.17 Bohr mag/cell
     absolute magnetization    =     9.59 Bohr mag/cell

     iteration #  5     ecut=    36.75 Ry     beta=0.10
     Davidson diagonalization with overlap
     ethr =  6.39E-04,  avg # of iterations =  2.2

     negative rho (up, down):  5.248E-02 4.578E-02
 
     Adding external electric field

     Computed dipole along edir(3) : 
        Dipole                0.1933 Ry au,          0.4912 Debye
        Dipole field          0.0005 Ry au
 
        Potential amp.       -0.0421 Ry
        Total length         45.5509 bohr
 
 
     Adding external electric field

     Computed dipole along edir(3) : 
        Dipole                0.1933 Ry au,          0.4912 Debye
        Dipole field          0.0005 Ry au
 
        Potential amp.       -0.0421 Ry
        Total length         45.5509 bohr
 
 
     Magnetic moment per site:
     atom:    1    charge:    8.3164    magn:    0.8945    constr:    0.0000
     atom:    2    charge:    8.3164    magn:    0.8946    constr:    0.0000
     atom:    3    charge:    1.7414    magn:    0.1059    constr:    0.0000
     atom:    4    charge:    1.7414    magn:    0.1059    constr:    0.0000
     atom:    5    charge:    8.3143    magn:    0.8354    constr:    0.0000
     atom:    6    charge:    8.3142    magn:    0.8354    constr:    0.0000
     atom:    7    charge:    1.7496    magn:    0.1065    constr:    0.0000
     atom:    8    charge:    1.7496    magn:    0.1065    constr:    0.0000
     atom:    9    charge:    8.3056    magn:    0.9007    constr:    0.0000
     atom:   10    charge:    8.3051    magn:    0.9011    constr:    0.0000
     atom:   11    charge:    1.7403    magn:    0.1058    constr:    0.0000
     atom:   12    charge:    1.7403    magn:    0.1058    constr:    0.0000

     total cpu time spent up to now is      528.7 secs

     total energy              =   -2792.74622371 Ry
     Harris-Foulkes estimate   =   -2792.77638844 Ry
     estimated scf accuracy    <       0.30788526 Ry

     total magnetization       =     9.78 Bohr mag/cell
     absolute magnetization    =    10.36 Bohr mag/cell

     iteration #  6     ecut=    36.75 Ry     beta=0.10
     Davidson diagonalization with overlap
     ethr =  1.66E-04,  avg # of iterations =  4.5

     negative rho (up, down):  5.216E-02 4.645E-02
 
     Adding external electric field

     Computed dipole along edir(3) : 
        Dipole                0.0000 Ry au,          0.0000 Debye
        Dipole field          0.0000 Ry au
 
        Potential amp.       -0.0000 Ry
        Total length         45.5509 bohr
 
 
     Adding external electric field

     Computed dipole along edir(3) : 
        Dipole                0.0000 Ry au,          0.0000 Debye
        Dipole field          0.0000 Ry au
 
        Potential amp.       -0.0000 Ry
        Total length         45.5509 bohr
 
 
     Magnetic moment per site:
     atom:    1    charge:    8.2993    magn:    0.8860    constr:    0.0000
     atom:    2    charge:    8.2994    magn:    0.8860    constr:    0.0000
     atom:    3    charge:    1.7384    magn:    0.0875    constr:    0.0000
     atom:    4    charge:    1.7384    magn:    0.0875    constr:    0.0000
     atom:    5    charge:    8.3031    magn:    0.8155    constr:    0.0000
     atom:    6    charge:    8.3030    magn:    0.8156    constr:    0.0000
     atom:    7    charge:    1.7457    magn:    0.0881    constr:    0.0000
     atom:    8    charge:    1.7457    magn:    0.0881    constr:    0.0000
     atom:    9    charge:    8.2966    magn:    0.8855    constr:    0.0000
     atom:   10    charge:    8.2959    magn:    0.8861    constr:    0.0000
     atom:   11    charge:    1.7373    magn:    0.0874    constr:    0.0000
     atom:   12    charge:    1.7373    magn:    0.0874    constr:    0.0000

     total cpu time spent up to now is      630.0 secs

     total energy              =   -2792.72862202 Ry
     Harris-Foulkes estimate   =   -2792.83365406 Ry
     estimated scf accuracy    <       6.73376072 Ry

     total magnetization       =     9.23 Bohr mag/cell
     absolute magnetization    =     9.95 Bohr mag/cell

     iteration #  7     ecut=    36.75 Ry     beta=0.10
     Davidson diagonalization with overlap
     ethr =  1.66E-04,  avg # of iterations =  3.0

     negative rho (up, down):  5.216E-02 4.748E-02
 
     Adding external electric field

     Computed dipole along edir(3) : 
        Dipole                0.0009 Ry au,          0.0023 Debye
        Dipole field          0.0000 Ry au
 
        Potential amp.       -0.0002 Ry
        Total length         45.5509 bohr
 
 
     Adding external electric field

     Computed dipole along edir(3) : 
        Dipole                0.0009 Ry au,          0.0023 Debye
        Dipole field          0.0000 Ry au
 
        Potential amp.       -0.0002 Ry
        Total length         45.5509 bohr
 
 
     Magnetic moment per site:
     atom:    1    charge:    8.3052    magn:    0.8717    constr:    0.0000
     atom:    2    charge:    8.3053    magn:    0.8716    constr:    0.0000
     atom:    3    charge:    1.7394    magn:    0.0698    constr:    0.0000
     atom:    4    charge:    1.7394    magn:    0.0698    constr:    0.0000
     atom:    5    charge:    8.3125    magn:    0.7906    constr:    0.0000
     atom:    6    charge:    8.3129    magn:    0.7904    constr:    0.0000
     atom:    7    charge:    1.7463    magn:    0.0704    constr:    0.0000
     atom:    8    charge:    1.7463    magn:    0.0704    constr:    0.0000
     atom:    9    charge:    8.3000    magn:    0.8733    constr:    0.0000
     atom:   10    charge:    8.3043    magn:    0.8698    constr:    0.0000
     atom:   11    charge:    1.7383    magn:    0.0697    constr:    0.0000
     atom:   12    charge:    1.7383    magn:    0.0697    constr:    0.0000

     total cpu time spent up to now is      721.9 secs

     total energy              =   -2792.78463893 Ry
     Harris-Foulkes estimate   =   -2792.79141106 Ry
     estimated scf accuracy    <       0.16772176 Ry

     total magnetization       =     8.61 Bohr mag/cell
     absolute magnetization    =     9.43 Bohr mag/cell

     iteration #  8     ecut=    36.75 Ry     beta=0.10
     Davidson diagonalization with overlap
     ethr =  9.02E-05,  avg # of iterations =  1.1

     negative rho (up, down):  5.216E-02 4.819E-02
 
     Adding external electric field

     Computed dipole along edir(3) : 
        Dipole                0.0001 Ry au,          0.0002 Debye
        Dipole field          0.0000 Ry au
 
        Potential amp.       -0.0000 Ry
        Total length         45.5509 bohr
 
 
     Adding external electric field

     Computed dipole along edir(3) : 
        Dipole                0.0001 Ry au,          0.0002 Debye
        Dipole field          0.0000 Ry au
 
        Potential amp.       -0.0000 Ry
        Total length         45.5509 bohr
 
 
     Magnetic moment per site:
     atom:    1    charge:    8.3088    magn:    0.8624    constr:    0.0000
     atom:    2    charge:    8.3086    magn:    0.8626    constr:    0.0000
     atom:    3    charge:    1.7403    magn:    0.0578    constr:    0.0000
     atom:    4    charge:    1.7403    magn:    0.0578    constr:    0.0000
     atom:    5    charge:    8.3176    magn:    0.7740    constr:    0.0000
     atom:    6    charge:    8.3177    magn:    0.7739    constr:    0.0000
     atom:    7    charge:    1.7471    magn:    0.0584    constr:    0.0000
     atom:    8    charge:    1.7471    magn:    0.0583    constr:    0.0000
     atom:    9    charge:    8.3060    magn:    0.8621    constr:    0.0000
     atom:   10    charge:    8.3051    magn:    0.8628    constr:    0.0000
     atom:   11    charge:    1.7392    magn:    0.0578    constr:    0.0000
     atom:   12    charge:    1.7392    magn:    0.0578    constr:    0.0000

     total cpu time spent up to now is      806.4 secs

     total energy              =   -2792.80044736 Ry
     Harris-Foulkes estimate   =   -2792.79628006 Ry
     estimated scf accuracy    <       0.11390060 Ry

     total magnetization       =     9.09 Bohr mag/cell
     absolute magnetization    =     9.97 Bohr mag/cell

     iteration #  9     ecut=    36.75 Ry     beta=0.10
     Davidson diagonalization with overlap
     ethr =  6.12E-05,  avg # of iterations =  1.0

     negative rho (up, down):  5.234E-02 4.925E-02
 
     Adding external electric field

     Computed dipole along edir(3) : 
        Dipole               -0.0001 Ry au,         -0.0003 Debye
        Dipole field         -0.0000 Ry au
 
        Potential amp.        0.0000 Ry
        Total length         45.5509 bohr
 
 
     Adding external electric field

     Computed dipole along edir(3) : 
        Dipole               -0.0001 Ry au,         -0.0003 Debye
        Dipole field         -0.0000 Ry au
 
        Potential amp.        0.0000 Ry
        Total length         45.5509 bohr
 
 
     Magnetic moment per site:
     atom:    1    charge:    8.3075    magn:    0.8552    constr:    0.0000
     atom:    2    charge:    8.3085    magn:    0.8544    constr:    0.0000
     atom:    3    charge:    1.7422    magn:    0.0438    constr:    0.0000
     atom:    4    charge:    1.7422    magn:    0.0437    constr:    0.0000
     atom:    5    charge:    8.3145    magn:    0.7561    constr:    0.0000
     atom:    6    charge:    8.3137    magn:    0.7565    constr:    0.0000
     atom:    7    charge:    1.7497    magn:    0.0442    constr:    0.0000
     atom:    8    charge:    1.7497    magn:    0.0442    constr:    0.0000
     atom:    9    charge:    8.3046    magn:    0.8550    constr:    0.0000
     atom:   10    charge:    8.3049    magn:    0.8548    constr:    0.0000
     atom:   11    charge:    1.7411    magn:    0.0437    constr:    0.0000
     atom:   12    charge:    1.7411    magn:    0.0437    constr:    0.0000

     total cpu time spent up to now is      890.0 secs

     total energy              =   -2792.80920899 Ry
     Harris-Foulkes estimate   =   -2792.80584096 Ry
     estimated scf accuracy    <       0.06830081 Ry

     total magnetization       =     9.31 Bohr mag/cell
     absolute magnetization    =    10.26 Bohr mag/cell

     iteration # 10     ecut=    36.75 Ry     beta=0.10
     Davidson diagonalization with overlap
     ethr =  3.67E-05,  avg # of iterations =  1.4

     negative rho (up, down):  5.248E-02 5.004E-02
 
     Adding external electric field

     Computed dipole along edir(3) : 
        Dipole               -0.0004 Ry au,         -0.0010 Debye
        Dipole field         -0.0000 Ry au
 
        Potential amp.        0.0001 Ry
        Total length         45.5509 bohr
 
 
     Adding external electric field

     Computed dipole along edir(3) : 
        Dipole               -0.0004 Ry au,         -0.0010 Debye
        Dipole field         -0.0000 Ry au
 
        Potential amp.        0.0001 Ry
        Total length         45.5509 bohr
 
 
     Magnetic moment per site:
     atom:    1    charge:    8.3090    magn:    0.8483    constr:    0.0000
     atom:    2    charge:    8.3067    magn:    0.8501    constr:    0.0000
     atom:    3    charge:    1.7439    magn:    0.0336    constr:    0.0000
     atom:    4    charge:    1.7439    magn:    0.0336    constr:    0.0000
     atom:    5    charge:    8.3118    magn:    0.7436    constr:    0.0000
     atom:    6    charge:    8.3128    magn:    0.7429    constr:    0.0000
     atom:    7    charge:    1.7518    magn:    0.0340    constr:    0.0000
     atom:    8    charge:    1.7518    magn:    0.0340    constr:    0.0000
     atom:    9    charge:    8.3043    magn:    0.8495    constr:    0.0000
     atom:   10    charge:    8.3047    magn:    0.8492    constr:    0.0000
     atom:   11    charge:    1.7428    magn:    0.0335    constr:    0.0000
     atom:   12    charge:    1.7428    magn:    0.0335    constr:    0.0000

     total cpu time spent up to now is      976.5 secs

     total energy              =   -2792.81192138 Ry
     Harris-Foulkes estimate   =   -2792.81028951 Ry
     estimated scf accuracy    <       0.04444751 Ry

     total magnetization       =     9.09 Bohr mag/cell
     absolute magnetization    =    10.13 Bohr mag/cell

     iteration # 11     ecut=    36.75 Ry     beta=0.10
     Davidson diagonalization with overlap
     ethr =  2.39E-05,  avg # of iterations =  1.6

     negative rho (up, down):  5.326E-02 5.283E-02
 
     Adding external electric field

     Computed dipole along edir(3) : 
        Dipole               -0.0012 Ry au,         -0.0030 Debye
        Dipole field         -0.0000 Ry au
 
        Potential amp.        0.0003 Ry
        Total length         45.5509 bohr
 
 
     Adding external electric field

     Computed dipole along edir(3) : 
        Dipole               -0.0012 Ry au,         -0.0030 Debye
        Dipole field         -0.0000 Ry au
 
        Potential amp.        0.0003 Ry
        Total length         45.5509 bohr
 
 
     Magnetic moment per site:
     atom:    1    charge:    8.3077    magn:    0.8318    constr:    0.0000
     atom:    2    charge:    8.3085    magn:    0.8313    constr:    0.0000
     atom:    3    charge:    1.7492    magn:    0.0021    constr:    0.0000
     atom:    4    charge:    1.7492    magn:    0.0021    constr:    0.0000
     atom:    5    charge:    8.3078    magn:    0.7027    constr:    0.0000
     atom:    6    charge:    8.3093    magn:    0.7016    constr:    0.0000
     atom:    7    charge:    1.7583    magn:    0.0023    constr:    0.0000
     atom:    8    charge:    1.7583    magn:    0.0023    constr:    0.0000
     atom:    9    charge:    8.3046    magn:    0.8318    constr:    0.0000
     atom:   10    charge:    8.3047    magn:    0.8317    constr:    0.0000
     atom:   11    charge:    1.7482    magn:    0.0021    constr:    0.0000
     atom:   12    charge:    1.7482    magn:    0.0021    constr:    0.0000

     total cpu time spent up to now is     1062.7 secs

     total energy              =   -2792.81609617 Ry
     Harris-Foulkes estimate   =   -2792.81334093 Ry
     estimated scf accuracy    <       0.04501838 Ry

     total magnetization       =     8.91 Bohr mag/cell
     absolute magnetization    =    10.04 Bohr mag/cell

     iteration # 12     ecut=    36.75 Ry     beta=0.10
     Davidson diagonalization with overlap
     ethr =  2.39E-05,  avg # of iterations =  2.6

     negative rho (up, down):  5.318E-02 5.288E-02
 
     Adding external electric field

     Computed dipole along edir(3) : 
        Dipole               -0.0010 Ry au,         -0.0025 Debye
        Dipole field         -0.0000 Ry au
 
        Potential amp.        0.0002 Ry
        Total length         45.5509 bohr
 
 
     Adding external electric field

     Computed dipole along edir(3) : 
        Dipole               -0.0010 Ry au,         -0.0025 Debye
        Dipole field         -0.0000 Ry au
 
        Potential amp.        0.0002 Ry
        Total length         45.5509 bohr
 
 
     Magnetic moment per site:
     atom:    1    charge:    8.3090    magn:    0.8296    constr:    0.0000
     atom:    2    charge:    8.3091    magn:    0.8297    constr:    0.0000
     atom:    3    charge:    1.7494    magn:    0.0002    constr:    0.0000
     atom:    4    charge:    1.7494    magn:    0.0002    constr:    0.0000
     atom:    5    charge:    8.3104    magn:    0.6987    constr:    0.0000
     atom:    6    charge:    8.3103    magn:    0.6986    constr:    0.0000
     atom:    7    charge:    1.7584    magn:    0.0004    constr:    0.0000
     atom:    8    charge:    1.7584    magn:    0.0004    constr:    0.0000
     atom:    9    charge:    8.3055    magn:    0.8300    constr:    0.0000
     atom:   10    charge:    8.3057    magn:    0.8298    constr:    0.0000
     atom:   11    charge:    1.7483    magn:    0.0002    constr:    0.0000
     atom:   12    charge:    1.7483    magn:    0.0002    constr:    0.0000

     total cpu time spent up to now is     1151.8 secs

     total energy              =   -2792.81872762 Ry
     Harris-Foulkes estimate   =   -2792.81913133 Ry
     estimated scf accuracy    <       0.01031217 Ry

     total magnetization       =     8.42 Bohr mag/cell
     absolute magnetization    =     9.81 Bohr mag/cell

     iteration # 13     ecut=    36.75 Ry     beta=0.10
     Davidson diagonalization with overlap
     ethr =  5.54E-06,  avg # of iterations =  5.6

     negative rho (up, down):  5.305E-02 5.315E-02
 
     Adding external electric field

     Computed dipole along edir(3) : 
        Dipole                0.0022 Ry au,          0.0056 Debye
        Dipole field          0.0000 Ry au
 
        Potential amp.       -0.0005 Ry
        Total length         45.5509 bohr
 
 
     Adding external electric field

     Computed dipole along edir(3) : 
        Dipole                0.0022 Ry au,          0.0056 Debye
        Dipole field          0.0000 Ry au
 
        Potential amp.       -0.0005 Ry
        Total length         45.5509 bohr
 
 
     Magnetic moment per site:
     atom:    1    charge:    8.3090    magn:    0.8261    constr:    0.0000
     atom:    2    charge:    8.3090    magn:    0.8261    constr:    0.0000
     atom:    3    charge:    1.7493    magn:   -0.0006    constr:    0.0000
     atom:    4    charge:    1.7493    magn:   -0.0006    constr:    0.0000
     atom:    5    charge:    8.3121    magn:    0.6889    constr:    0.0000
     atom:    6    charge:    8.3119    magn:    0.6887    constr:    0.0000
     atom:    7    charge:    1.7583    magn:   -0.0003    constr:    0.0000
     atom:    8    charge:    1.7583    magn:   -0.0003    constr:    0.0000
     atom:    9    charge:    8.3056    magn:    0.8264    constr:    0.0000
     atom:   10    charge:    8.3057    magn:    0.8262    constr:    0.0000
     atom:   11    charge:    1.7482    magn:   -0.0006    constr:    0.0000
     atom:   12    charge:    1.7482    magn:   -0.0006    constr:    0.0000

     total cpu time spent up to now is     1255.5 secs

     total energy              =   -2792.81952122 Ry
     Harris-Foulkes estimate   =   -2792.81925817 Ry
     estimated scf accuracy    <       0.00141347 Ry

     total magnetization       =     8.48 Bohr mag/cell
     absolute magnetization    =     9.88 Bohr mag/cell

     iteration # 14     ecut=    36.75 Ry     beta=0.10
     Davidson diagonalization with overlap
     ethr =  7.60E-07,  avg # of iterations =  5.3

     negative rho (up, down):  5.309E-02 5.377E-02
 
     Adding external electric field

     Computed dipole along edir(3) : 
        Dipole                0.0008 Ry au,          0.0021 Debye
        Dipole field          0.0000 Ry au
 
        Potential amp.       -0.0002 Ry
        Total length         45.5509 bohr
 
 
     Adding external electric field

     Computed dipole along edir(3) : 
        Dipole                0.0008 Ry au,          0.0021 Debye
        Dipole field          0.0000 Ry au
 
        Potential amp.       -0.0002 Ry
        Total length         45.5509 bohr
 
 
     Magnetic moment per site:
     atom:    1    charge:    8.3086    magn:    0.8206    constr:    0.0000
     atom:    2    charge:    8.3085    magn:    0.8204    constr:    0.0000
     atom:    3    charge:    1.7485    magn:   -0.0030    constr:    0.0000
     atom:    4    charge:    1.7485    magn:   -0.0030    constr:    0.0000
     atom:    5    charge:    8.3121    magn:    0.6746    constr:    0.0000
     atom:    6    charge:    8.3120    magn:    0.6742    constr:    0.0000
     atom:    7    charge:    1.7576    magn:   -0.0028    constr:    0.0000
     atom:    8    charge:    1.7576    magn:   -0.0029    constr:    0.0000
     atom:    9    charge:    8.3053    magn:    0.8207    constr:    0.0000
     atom:   10    charge:    8.3053    magn:    0.8205    constr:    0.0000
     atom:   11    charge:    1.7474    magn:   -0.0030    constr:    0.0000
     atom:   12    charge:    1.7474    magn:   -0.0030    constr:    0.0000

     total cpu time spent up to now is     1380.6 secs

     total energy              =   -2792.82033542 Ry
     Harris-Foulkes estimate   =   -2792.82001866 Ry
     estimated scf accuracy    <       0.00136840 Ry

     total magnetization       =     8.43 Bohr mag/cell
     absolute magnetization    =     9.86 Bohr mag/cell

     iteration # 15     ecut=    36.75 Ry     beta=0.10
     Davidson diagonalization with overlap
     ethr =  7.36E-07,  avg # of iterations =  1.2

     negative rho (up, down):  5.314E-02 5.410E-02
 
     Adding external electric field

     Computed dipole along edir(3) : 
        Dipole                0.0001 Ry au,          0.0004 Debye
        Dipole field          0.0000 Ry au
 
        Potential amp.       -0.0000 Ry
        Total length         45.5509 bohr
 
 
     Adding external electric field

     Computed dipole along edir(3) : 
        Dipole                0.0001 Ry au,          0.0004 Debye
        Dipole field          0.0000 Ry au
 
        Potential amp.       -0.0000 Ry
        Total length         45.5509 bohr
 
 
     Magnetic moment per site:
     atom:    1    charge:    8.3085    magn:    0.8179    constr:    0.0000
     atom:    2    charge:    8.3085    magn:    0.8176    constr:    0.0000
     atom:    3    charge:    1.7482    magn:   -0.0041    constr:    0.0000
     atom:    4    charge:    1.7482    magn:   -0.0041    constr:    0.0000
     atom:    5    charge:    8.3122    magn:    0.6666    constr:    0.0000
     atom:    6    charge:    8.3122    magn:    0.6662    constr:    0.0000
     atom:    7    charge:    1.7572    magn:   -0.0040    constr:    0.0000
     atom:    8    charge:    1.7572    magn:   -0.0040    constr:    0.0000
     atom:    9    charge:    8.3053    magn:    0.8179    constr:    0.0000
     atom:   10    charge:    8.3053    magn:    0.8177    constr:    0.0000
     atom:   11    charge:    1.7471    magn:   -0.0041    constr:    0.0000
     atom:   12    charge:    1.7471    magn:   -0.0041    constr:    0.0000

     total cpu time spent up to now is     1466.6 secs

     total energy              =   -2792.82062274 Ry
     Harris-Foulkes estimate   =   -2792.82045286 Ry
     estimated scf accuracy    <       0.00046927 Ry

     total magnetization       =     8.36 Bohr mag/cell
     absolute magnetization    =     9.83 Bohr mag/cell

     iteration # 16     ecut=    36.75 Ry     beta=0.10
     Davidson diagonalization with overlap
     ethr =  2.52E-07,  avg # of iterations =  1.4

     negative rho (up, down):  5.341E-02 5.465E-02
 
     Adding external electric field

     Computed dipole along edir(3) : 
        Dipole                0.0001 Ry au,          0.0003 Debye
        Dipole field          0.0000 Ry au
 
        Potential amp.       -0.0000 Ry
        Total length         45.5509 bohr
 
 
     Adding external electric field

     Computed dipole along edir(3) : 
        Dipole                0.0001 Ry au,          0.0003 Debye
        Dipole field          0.0000 Ry au
 
        Potential amp.       -0.0000 Ry
        Total length         45.5509 bohr
 
 
     Magnetic moment per site:
     atom:    1    charge:    8.3088    magn:    0.8142    constr:    0.0000
     atom:    2    charge:    8.3088    magn:    0.8141    constr:    0.0000
     atom:    3    charge:    1.7471    magn:   -0.0032    constr:    0.0000
     atom:    4    charge:    1.7471    magn:   -0.0032    constr:    0.0000
     atom:    5    charge:    8.3123    magn:    0.6524    constr:    0.0000
     atom:    6    charge:    8.3123    magn:    0.6522    constr:    0.0000
     atom:    7    charge:    1.7558    magn:   -0.0032    constr:    0.0000
     atom:    8    charge:    1.7558    magn:   -0.0033    constr:    0.0000
     atom:    9    charge:    8.3057    magn:    0.8142    constr:    0.0000
     atom:   10    charge:    8.3057    magn:    0.8141    constr:    0.0000
     atom:   11    charge:    1.7460    magn:   -0.0032    constr:    0.0000
     atom:   12    charge:    1.7460    magn:   -0.0032    constr:    0.0000

     total cpu time spent up to now is     1551.1 secs

     total energy              =   -2792.82084805 Ry
     Harris-Foulkes estimate   =   -2792.82065231 Ry
     estimated scf accuracy    <       0.00037189 Ry

     total magnetization       =     8.32 Bohr mag/cell
     absolute magnetization    =     9.81 Bohr mag/cell

     iteration # 17     ecut=    36.75 Ry     beta=0.10
     Davidson diagonalization with overlap
     ethr =  2.00E-07,  avg # of iterations =  2.0

     negative rho (up, down):  5.358E-02 5.504E-02
 
     Adding external electric field

     Computed dipole along edir(3) : 
        Dipole               -0.0016 Ry au,         -0.0041 Debye
        Dipole field         -0.0000 Ry au
 
        Potential amp.        0.0004 Ry
        Total length         45.5509 bohr
 
 
     Adding external electric field

     Computed dipole along edir(3) : 
        Dipole               -0.0016 Ry au,         -0.0041 Debye
        Dipole field         -0.0000 Ry au
 
        Potential amp.        0.0004 Ry
        Total length         45.5509 bohr
 
 
     Magnetic moment per site:
     atom:    1    charge:    8.3087    magn:    0.8111    constr:    0.0000
     atom:    2    charge:    8.3087    magn:    0.8110    constr:    0.0000
     atom:    3    charge:    1.7461    magn:   -0.0028    constr:    0.0000
     atom:    4    charge:    1.7461    magn:   -0.0028    constr:    0.0000
     atom:    5    charge:    8.3120    magn:    0.6405    constr:    0.0000
     atom:    6    charge:    8.3121    magn:    0.6403    constr:    0.0000
     atom:    7    charge:    1.7547    magn:   -0.0029    constr:    0.0000
     atom:    8    charge:    1.7547    magn:   -0.0029    constr:    0.0000
     atom:    9    charge:    8.3057    magn:    0.8109    constr:    0.0000
     atom:   10    charge:    8.3057    magn:    0.8108    constr:    0.0000
     atom:   11    charge:    1.7450    magn:   -0.0028    constr:    0.0000
     atom:   12    charge:    1.7450    magn:   -0.0028    constr:    0.0000

     total cpu time spent up to now is     1640.4 secs

     total energy              =   -2792.82103348 Ry
     Harris-Foulkes estimate   =   -2792.82093475 Ry
     estimated scf accuracy    <       0.00019497 Ry

     total magnetization       =     8.27 Bohr mag/cell
     absolute magnetization    =     9.78 Bohr mag/cell

     iteration # 18     ecut=    36.75 Ry     beta=0.10
     Davidson diagonalization with overlap
     ethr =  1.05E-07,  avg # of iterations =  2.1

     negative rho (up, down):  5.364E-02 5.523E-02
 
     Adding external electric field

     Computed dipole along edir(3) : 
        Dipole               -0.0002 Ry au,         -0.0004 Debye
        Dipole field         -0.0000 Ry au
 
        Potential amp.        0.0000 Ry
        Total length         45.5509 bohr
 
 
     Adding external electric field

     Computed dipole along edir(3) : 
        Dipole               -0.0002 Ry au,         -0.0004 Debye
        Dipole field         -0.0000 Ry au
 
        Potential amp.        0.0000 Ry
        Total length         45.5509 bohr
 
 
     Magnetic moment per site:
     atom:    1    charge:    8.3087    magn:    0.8090    constr:    0.0000
     atom:    2    charge:    8.3087    magn:    0.8089    constr:    0.0000
     atom:    3    charge:    1.7458    magn:   -0.0032    constr:    0.0000
     atom:    4    charge:    1.7458    magn:   -0.0032    constr:    0.0000
     atom:    5    charge:    8.3119    magn:    0.6335    constr:    0.0000
     atom:    6    charge:    8.3120    magn:    0.6333    constr:    0.0000
     atom:    7    charge:    1.7544    magn:   -0.0034    constr:    0.0000
     atom:    8    charge:    1.7544    magn:   -0.0034    constr:    0.0000
     atom:    9    charge:    8.3057    magn:    0.8088    constr:    0.0000
     atom:   10    charge:    8.3056    magn:    0.8088    constr:    0.0000
     atom:   11    charge:    1.7447    magn:   -0.0032    constr:    0.0000
     atom:   12    charge:    1.7447    magn:   -0.0032    constr:    0.0000

     total cpu time spent up to now is     1733.9 secs

     total energy              =   -2792.82111415 Ry
     Harris-Foulkes estimate   =   -2792.82109579 Ry
     estimated scf accuracy    <       0.00040129 Ry

     total magnetization       =     8.23 Bohr mag/cell
     absolute magnetization    =     9.76 Bohr mag/cell

     iteration # 19     ecut=    36.75 Ry     beta=0.10
     Davidson diagonalization with overlap
     ethr =  1.05E-07,  avg # of iterations =  1.4

     negative rho (up, down):  5.362E-02 5.518E-02
 
     Adding external electric field

     Computed dipole along edir(3) : 
        Dipole               -0.0002 Ry au,         -0.0006 Debye
        Dipole field         -0.0000 Ry au
 
        Potential amp.        0.0001 Ry
        Total length         45.5509 bohr
 
 
     Adding external electric field

     Computed dipole along edir(3) : 
        Dipole               -0.0002 Ry au,         -0.0006 Debye
        Dipole field         -0.0000 Ry au
 
        Potential amp.        0.0001 Ry
        Total length         45.5509 bohr
 
 
     Magnetic moment per site:
     atom:    1    charge:    8.3085    magn:    0.8083    constr:    0.0000
     atom:    2    charge:    8.3085    magn:    0.8083    constr:    0.0000
     atom:    3    charge:    1.7456    magn:   -0.0030    constr:    0.0000
     atom:    4    charge:    1.7456    magn:   -0.0030    constr:    0.0000
     atom:    5    charge:    8.3117    magn:    0.6296    constr:    0.0000
     atom:    6    charge:    8.3117    magn:    0.6295    constr:    0.0000
     atom:    7    charge:    1.7544    magn:   -0.0032    constr:    0.0000
     atom:    8    charge:    1.7544    magn:   -0.0032    constr:    0.0000
     atom:    9    charge:    8.3055    magn:    0.8081    constr:    0.0000
     atom:   10    charge:    8.3055    magn:    0.8081    constr:    0.0000
     atom:   11    charge:    1.7446    magn:   -0.0030    constr:    0.0000
     atom:   12    charge:    1.7446    magn:   -0.0030    constr:    0.0000

     total cpu time spent up to now is     1817.6 secs

     total energy              =   -2792.82115083 Ry
     Harris-Foulkes estimate   =   -2792.82113655 Ry
     estimated scf accuracy    <       0.00008532 Ry

     total magnetization       =     8.21 Bohr mag/cell
     absolute magnetization    =     9.75 Bohr mag/cell

     iteration # 20     ecut=    36.75 Ry     beta=0.10
     Davidson diagonalization with overlap
     ethr =  4.59E-08,  avg # of iterations =  2.5

     negative rho (up, down):  5.356E-02 5.502E-02
 
     Adding external electric field

     Computed dipole along edir(3) : 
        Dipole               -0.0002 Ry au,         -0.0004 Debye
        Dipole field         -0.0000 Ry au
 
        Potential amp.        0.0000 Ry
        Total length         45.5509 bohr
 
 
     Adding external electric field

     Computed dipole along edir(3) : 
        Dipole               -0.0002 Ry au,         -0.0004 Debye
        Dipole field         -0.0000 Ry au
 
        Potential amp.        0.0000 Ry
        Total length         45.5509 bohr
 
 
     Magnetic moment per site:
     atom:    1    charge:    8.3084    magn:    0.8085    constr:    0.0000
     atom:    2    charge:    8.3084    magn:    0.8084    constr:    0.0000
     atom:    3    charge:    1.7457    magn:   -0.0025    constr:    0.0000
     atom:    4    charge:    1.7457    magn:   -0.0025    constr:    0.0000
     atom:    5    charge:    8.3116    magn:    0.6282    constr:    0.0000
     atom:    6    charge:    8.3116    magn:    0.6281    constr:    0.0000
     atom:    7    charge:    1.7545    magn:   -0.0028    constr:    0.0000
     atom:    8    charge:    1.7545    magn:   -0.0028    constr:    0.0000
     atom:    9    charge:    8.3054    magn:    0.8081    constr:    0.0000
     atom:   10    charge:    8.3053    magn:    0.8082    constr:    0.0000
     atom:   11    charge:    1.7446    magn:   -0.0025    constr:    0.0000
     atom:   12    charge:    1.7446    magn:   -0.0025    constr:    0.0000

     total cpu time spent up to now is     1905.0 secs

     total energy              =   -2792.82117560 Ry
     Harris-Foulkes estimate   =   -2792.82116005 Ry
     estimated scf accuracy    <       0.00005159 Ry

     total magnetization       =     8.21 Bohr mag/cell
     absolute magnetization    =     9.74 Bohr mag/cell

     iteration # 21     ecut=    36.75 Ry     beta=0.10
     Davidson diagonalization with overlap
     ethr =  2.77E-08,  avg # of iterations =  4.5

     negative rho (up, down):  5.351E-02 5.489E-02
 
     Adding external electric field

     Computed dipole along edir(3) : 
        Dipole                0.0001 Ry au,          0.0001 Debye
        Dipole field          0.0000 Ry au
 
        Potential amp.       -0.0000 Ry
        Total length         45.5509 bohr
 
 
     Adding external electric field

     Computed dipole along edir(3) : 
        Dipole                0.0001 Ry au,          0.0001 Debye
        Dipole field          0.0000 Ry au
 
        Potential amp.       -0.0000 Ry
        Total length         45.5509 bohr
 
 
     Magnetic moment per site:
     atom:    1    charge:    8.3083    magn:    0.8086    constr:    0.0000
     atom:    2    charge:    8.3083    magn:    0.8085    constr:    0.0000
     atom:    3    charge:    1.7457    magn:   -0.0022    constr:    0.0000
     atom:    4    charge:    1.7458    magn:   -0.0022    constr:    0.0000
     atom:    5    charge:    8.3115    magn:    0.6272    constr:    0.0000
     atom:    6    charge:    8.3115    magn:    0.6271    constr:    0.0000
     atom:    7    charge:    1.7546    magn:   -0.0024    constr:    0.0000
     atom:    8    charge:    1.7546    magn:   -0.0024    constr:    0.0000
     atom:    9    charge:    8.3052    magn:    0.8083    constr:    0.0000
     atom:   10    charge:    8.3053    magn:    0.8083    constr:    0.0000
     atom:   11    charge:    1.7447    magn:   -0.0022    constr:    0.0000
     atom:   12    charge:    1.7447    magn:   -0.0022    constr:    0.0000

     total cpu time spent up to now is     2002.5 secs

     total energy              =   -2792.82119120 Ry
     Harris-Foulkes estimate   =   -2792.82118178 Ry
     estimated scf accuracy    <       0.00007092 Ry

     total magnetization       =     8.21 Bohr mag/cell
     absolute magnetization    =     9.73 Bohr mag/cell

     iteration # 22     ecut=    36.75 Ry     beta=0.10
     Davidson diagonalization with overlap
     ethr =  2.77E-08,  avg # of iterations =  1.0

     negative rho (up, down):  5.345E-02 5.480E-02
 
     Adding external electric field

     Computed dipole along edir(3) : 
        Dipole                0.0001 Ry au,          0.0002 Debye
        Dipole field          0.0000 Ry au
 
        Potential amp.       -0.0000 Ry
        Total length         45.5509 bohr
 
 
     Adding external electric field

     Computed dipole along edir(3) : 
        Dipole                0.0001 Ry au,          0.0002 Debye
        Dipole field          0.0000 Ry au
 
        Potential amp.       -0.0000 Ry
        Total length         45.5509 bohr
 
 
     Magnetic moment per site:
     atom:    1    charge:    8.3084    magn:    0.8087    constr:    0.0000
     atom:    2    charge:    8.3083    magn:    0.8087    constr:    0.0000
     atom:    3    charge:    1.7458    magn:   -0.0019    constr:    0.0000
     atom:    4    charge:    1.7458    magn:   -0.0019    constr:    0.0000
     atom:    5    charge:    8.3115    magn:    0.6268    constr:    0.0000
     atom:    6    charge:    8.3116    magn:    0.6267    constr:    0.0000
     atom:    7    charge:    1.7547    magn:   -0.0022    constr:    0.0000
     atom:    8    charge:    1.7547    magn:   -0.0022    constr:    0.0000
     atom:    9    charge:    8.3053    magn:    0.8084    constr:    0.0000
     atom:   10    charge:    8.3053    magn:    0.8084    constr:    0.0000
     atom:   11    charge:    1.7448    magn:   -0.0019    constr:    0.0000
     atom:   12    charge:    1.7448    magn:   -0.0019    constr:    0.0000

     total cpu time spent up to now is     2082.9 secs

     total energy              =   -2792.82119954 Ry
     Harris-Foulkes estimate   =   -2792.82119398 Ry
     estimated scf accuracy    <       0.00002484 Ry

     total magnetization       =     8.21 Bohr mag/cell
     absolute magnetization    =     9.73 Bohr mag/cell

     iteration # 23     ecut=    36.75 Ry     beta=0.10
     Davidson diagonalization with overlap
     ethr =  1.34E-08,  avg # of iterations =  1.8

     negative rho (up, down):  5.340E-02 5.470E-02
 
     Adding external electric field

     Computed dipole along edir(3) : 
        Dipole               -0.0000 Ry au,         -0.0001 Debye
        Dipole field         -0.0000 Ry au
 
        Potential amp.        0.0000 Ry
        Total length         45.5509 bohr
 
 
     Adding external electric field

     Computed dipole along edir(3) : 
        Dipole               -0.0000 Ry au,         -0.0001 Debye
        Dipole field         -0.0000 Ry au
 
        Potential amp.        0.0000 Ry
        Total length         45.5509 bohr
 
 
     Magnetic moment per site:
     atom:    1    charge:    8.3084    magn:    0.8090    constr:    0.0000
     atom:    2    charge:    8.3084    magn:    0.8089    constr:    0.0000
     atom:    3    charge:    1.7459    magn:   -0.0016    constr:    0.0000
     atom:    4    charge:    1.7459    magn:   -0.0016    constr:    0.0000
     atom:    5    charge:    8.3116    magn:    0.6264    constr:    0.0000
     atom:    6    charge:    8.3115    magn:    0.6264    constr:    0.0000
     atom:    7    charge:    1.7548    magn:   -0.0018    constr:    0.0000
     atom:    8    charge:    1.7548    magn:   -0.0018    constr:    0.0000
     atom:    9    charge:    8.3053    magn:    0.8086    constr:    0.0000
     atom:   10    charge:    8.3053    magn:    0.8086    constr:    0.0000
     atom:   11    charge:    1.7448    magn:   -0.0016    constr:    0.0000
     atom:   12    charge:    1.7448    magn:   -0.0016    constr:    0.0000

     total cpu time spent up to now is     2172.1 secs

     total energy              =   -2792.82120593 Ry
     Harris-Foulkes estimate   =   -2792.82120097 Ry
     estimated scf accuracy    <       0.00004493 Ry

     total magnetization       =     8.22 Bohr mag/cell
     absolute magnetization    =     9.73 Bohr mag/cell

     iteration # 24     ecut=    36.75 Ry     beta=0.10
     Davidson diagonalization with overlap
     ethr =  1.34E-08,  avg # of iterations =  1.0

     negative rho (up, down):  5.331E-02 5.455E-02
 
     Adding external electric field

     Computed dipole along edir(3) : 
        Dipole                0.0000 Ry au,          0.0000 Debye
        Dipole field          0.0000 Ry au
 
        Potential amp.       -0.0000 Ry
        Total length         45.5509 bohr
 
 
     Adding external electric field

     Computed dipole along edir(3) : 
        Dipole                0.0000 Ry au,          0.0000 Debye
        Dipole field          0.0000 Ry au
 
        Potential amp.       -0.0000 Ry
        Total length         45.5509 bohr
 
 
     Magnetic moment per site:
     atom:    1    charge:    8.3084    magn:    0.8093    constr:    0.0000
     atom:    2    charge:    8.3084    magn:    0.8093    constr:    0.0000
     atom:    3    charge:    1.7461    magn:   -0.0010    constr:    0.0000
     atom:    4    charge:    1.7461    magn:   -0.0010    constr:    0.0000
     atom:    5    charge:    8.3116    magn:    0.6254    constr:    0.0000
     atom:    6    charge:    8.3116    magn:    0.6254    constr:    0.0000
     atom:    7    charge:    1.7549    magn:   -0.0013    constr:    0.0000
     atom:    8    charge:    1.7549    magn:   -0.0013    constr:    0.0000
     atom:    9    charge:    8.3053    magn:    0.8090    constr:    0.0000
     atom:   10    charge:    8.3053    magn:    0.8090    constr:    0.0000
     atom:   11    charge:    1.7450    magn:   -0.0010    constr:    0.0000
     atom:   12    charge:    1.7450    magn:   -0.0010    constr:    0.0000

     total cpu time spent up to now is     2257.8 secs

     total energy              =   -2792.82121337 Ry
     Harris-Foulkes estimate   =   -2792.82120726 Ry
     estimated scf accuracy    <       0.00001820 Ry

     total magnetization       =     8.22 Bohr mag/cell
     absolute magnetization    =     9.72 Bohr mag/cell

     iteration # 25     ecut=    36.75 Ry     beta=0.10
     Davidson diagonalization with overlap
     ethr =  9.78E-09,  avg # of iterations =  1.8

     negative rho (up, down):  5.327E-02 5.448E-02
 
     Adding external electric field

     Computed dipole along edir(3) : 
        Dipole               -0.0000 Ry au,         -0.0000 Debye
        Dipole field         -0.0000 Ry au
 
        Potential amp.        0.0000 Ry
        Total length         45.5509 bohr
 
 
     Adding external electric field

     Computed dipole along edir(3) : 
        Dipole               -0.0000 Ry au,         -0.0000 Debye
        Dipole field         -0.0000 Ry au
 
        Potential amp.        0.0000 Ry
        Total length         45.5509 bohr
 
 
     Magnetic moment per site:
     atom:    1    charge:    8.3084    magn:    0.8095    constr:    0.0000
     atom:    2    charge:    8.3084    magn:    0.8095    constr:    0.0000
     atom:    3    charge:    1.7461    magn:   -0.0009    constr:    0.0000
     atom:    4    charge:    1.7461    magn:   -0.0009    constr:    0.0000
     atom:    5    charge:    8.3116    magn:    0.6252    constr:    0.0000
     atom:    6    charge:    8.3116    magn:    0.6251    constr:    0.0000
     atom:    7    charge:    1.7550    magn:   -0.0011    constr:    0.0000
     atom:    8    charge:    1.7550    magn:   -0.0011    constr:    0.0000
     atom:    9    charge:    8.3053    magn:    0.8091    constr:    0.0000
     atom:   10    charge:    8.3053    magn:    0.8091    constr:    0.0000
     atom:   11    charge:    1.7450    magn:   -0.0009    constr:    0.0000
     atom:   12    charge:    1.7450    magn:   -0.0009    constr:    0.0000

     total cpu time spent up to now is     2342.5 secs

     total energy              =   -2792.82121690 Ry
     Harris-Foulkes estimate   =   -2792.82121619 Ry
     estimated scf accuracy    <       0.00001455 Ry

     total magnetization       =     8.22 Bohr mag/cell
     absolute magnetization    =     9.72 Bohr mag/cell

     iteration # 26     ecut=    36.75 Ry     beta=0.10
     Davidson diagonalization with overlap
     ethr =  7.82E-09,  avg # of iterations =  1.0

     negative rho (up, down):  5.320E-02 5.437E-02
 
     Adding external electric field

     Computed dipole along edir(3) : 
        Dipole                0.0000 Ry au,          0.0000 Debye
        Dipole field          0.0000 Ry au
 
        Potential amp.       -0.0000 Ry
        Total length         45.5509 bohr
 
 
     Adding external electric field

     Computed dipole along edir(3) : 
        Dipole                0.0000 Ry au,          0.0000 Debye
        Dipole field          0.0000 Ry au
 
        Potential amp.       -0.0000 Ry
        Total length         45.5509 bohr
 
 
     Magnetic moment per site:
     atom:    1    charge:    8.3085    magn:    0.8099    constr:    0.0000
     atom:    2    charge:    8.3085    magn:    0.8099    constr:    0.0000
     atom:    3    charge:    1.7464    magn:   -0.0012    constr:    0.0000
     atom:    4    charge:    1.7464    magn:   -0.0012    constr:    0.0000
     atom:    5    charge:    8.3116    magn:    0.6242    constr:    0.0000
     atom:    6    charge:    8.3116    magn:    0.6242    constr:    0.0000
     atom:    7    charge:    1.7553    magn:   -0.0014    constr:    0.0000
     atom:    8    charge:    1.7553    magn:   -0.0014    constr:    0.0000
     atom:    9    charge:    8.3054    magn:    0.8095    constr:    0.0000
     atom:   10    charge:    8.3054    magn:    0.8095    constr:    0.0000
     atom:   11    charge:    1.7453    magn:   -0.0012    constr:    0.0000
     atom:   12    charge:    1.7453    magn:   -0.0012    constr:    0.0000

     total cpu time spent up to now is     2424.6 secs

     total energy              =   -2792.82122110 Ry
     Harris-Foulkes estimate   =   -2792.82121739 Ry
     estimated scf accuracy    <       0.00000709 Ry

     total magnetization       =     8.22 Bohr mag/cell
     absolute magnetization    =     9.72 Bohr mag/cell

     iteration # 27     ecut=    36.75 Ry     beta=0.10
     Davidson diagonalization with overlap
     ethr =  3.81E-09,  avg # of iterations =  3.6

     negative rho (up, down):  5.315E-02 5.429E-02
 
     Adding external electric field

     Computed dipole along edir(3) : 
        Dipole                0.0001 Ry au,          0.0001 Debye
        Dipole field          0.0000 Ry au
 
        Potential amp.       -0.0000 Ry
        Total length         45.5509 bohr
 
 
     Adding external electric field

     Computed dipole along edir(3) : 
        Dipole                0.0001 Ry au,          0.0001 Debye
        Dipole field          0.0000 Ry au
 
        Potential amp.       -0.0000 Ry
        Total length         45.5509 bohr
 
 
     Magnetic moment per site:
     atom:    1    charge:    8.3085    magn:    0.8101    constr:    0.0000
     atom:    2    charge:    8.3085    magn:    0.8101    constr:    0.0000
     atom:    3    charge:    1.7466    magn:   -0.0013    constr:    0.0000
     atom:    4    charge:    1.7466    magn:   -0.0013    constr:    0.0000
     atom:    5    charge:    8.3116    magn:    0.6233    constr:    0.0000
     atom:    6    charge:    8.3117    magn:    0.6233    constr:    0.0000
     atom:    7    charge:    1.7554    magn:   -0.0015    constr:    0.0000
     atom:    8    charge:    1.7554    magn:   -0.0015    constr:    0.0000
     atom:    9    charge:    8.3054    magn:    0.8097    constr:    0.0000
     atom:   10    charge:    8.3054    magn:    0.8097    constr:    0.0000
     atom:   11    charge:    1.7455    magn:   -0.0013    constr:    0.0000
     atom:   12    charge:    1.7455    magn:   -0.0013    constr:    0.0000

     total cpu time spent up to now is     2524.5 secs

     total energy              =   -2792.82122480 Ry
     Harris-Foulkes estimate   =   -2792.82122418 Ry
     estimated scf accuracy    <       0.00000385 Ry

     total magnetization       =     8.23 Bohr mag/cell
     absolute magnetization    =     9.71 Bohr mag/cell

     iteration # 28     ecut=    36.75 Ry     beta=0.10
     Davidson diagonalization with overlap
     ethr =  2.07E-09,  avg # of iterations =  4.1

     negative rho (up, down):  5.313E-02 5.427E-02
 
     Adding external electric field

     Computed dipole along edir(3) : 
        Dipole                0.0000 Ry au,          0.0001 Debye
        Dipole field          0.0000 Ry au
 
        Potential amp.       -0.0000 Ry
        Total length         45.5509 bohr
 
 
     Adding external electric field

     Computed dipole along edir(3) : 
        Dipole                0.0000 Ry au,          0.0001 Debye
        Dipole field          0.0000 Ry au
 
        Potential amp.       -0.0000 Ry
        Total length         45.5509 bohr
 
 
     Magnetic moment per site:
     atom:    1    charge:    8.3085    magn:    0.8102    constr:    0.0000
     atom:    2    charge:    8.3085    magn:    0.8102    constr:    0.0000
     atom:    3    charge:    1.7466    magn:   -0.0015    constr:    0.0000
     atom:    4    charge:    1.7466    magn:   -0.0015    constr:    0.0000
     atom:    5    charge:    8.3116    magn:    0.6229    constr:    0.0000
     atom:    6    charge:    8.3117    magn:    0.6229    constr:    0.0000
     atom:    7    charge:    1.7555    magn:   -0.0016    constr:    0.0000
     atom:    8    charge:    1.7555    magn:   -0.0016    constr:    0.0000
     atom:    9    charge:    8.3054    magn:    0.8098    constr:    0.0000
     atom:   10    charge:    8.3054    magn:    0.8098    constr:    0.0000
     atom:   11    charge:    1.7455    magn:   -0.0014    constr:    0.0000
     atom:   12    charge:    1.7455    magn:   -0.0014    constr:    0.0000

     total cpu time spent up to now is     2630.5 secs

     total energy              =   -2792.82122627 Ry
     Harris-Foulkes estimate   =   -2792.82122648 Ry
     estimated scf accuracy    <       0.00000133 Ry

     total magnetization       =     8.23 Bohr mag/cell
     absolute magnetization    =     9.71 Bohr mag/cell

     iteration # 29     ecut=    36.75 Ry     beta=0.10
     Davidson diagonalization with overlap
     ethr =  7.13E-10,  avg # of iterations =  4.2

     negative rho (up, down):  5.308E-02 5.425E-02

     negative rho (up, down):  5.308E-02 5.425E-02

     negative rho (up, down):  5.308E-02 5.425E-02

     negative rho (up, down):  5.308E-02 5.425E-02

     negative rho (up, down):  5.308E-02 5.425E-02

     negative rho (up, down):  5.308E-02 5.425E-02

     negative rho (up, down):  5.308E-02 5.425E-02

     negative rho (up, down):  5.308E-02 5.425E-02

     negative rho (up, down):  5.308E-02 5.425E-02

     negative rho (up, down):  5.308E-02 5.425E-02

     negative rho (up, down):  5.308E-02 5.425E-02

     negative rho (up, down):  5.308E-02 5.425E-02

     negative rho (up, down):  5.308E-02 5.425E-02

     negative rho (up, down):  5.308E-02 5.425E-02

     negative rho (up, down):  5.308E-02 5.425E-02

     negative rho (up, down):  5.308E-02 5.425E-02

     negative rho (up, down):  5.308E-02 5.425E-02

     negative rho (up, down):  5.308E-02 5.425E-02

     negative rho (up, down):  5.308E-02 5.425E-02

     negative rho (up, down):  5.308E-02 5.425E-02

     negative rho (up, down):  5.308E-02 5.425E-02

     negative rho (up, down):  5.308E-02 5.425E-02

     negative rho (up, down):  5.308E-02 5.425E-02

     negative rho (up, down):  5.308E-02 5.425E-02

     negative rho (up, down):  5.308E-02 5.425E-02

     negative rho (up, down):  5.308E-02 5.425E-02

     negative rho (up, down):  5.308E-02 5.425E-02

     negative rho (up, down):  5.308E-02 5.425E-02

     negative rho (up, down):  5.308E-02 5.425E-02

     negative rho (up, down):  5.308E-02 5.425E-02

     negative rho (up, down):  5.308E-02 5.425E-02

     negative rho (up, down):  5.308E-02 5.425E-02

     negative rho (up, down):  5.308E-02 5.425E-02

     negative rho (up, down):  5.308E-02 5.425E-02

     negative rho (up, down):  5.308E-02 5.425E-02
 
     Adding external electric field

     Computed dipole along edir(3) : 
        Dipole                0.0002 Ry au,          0.0005 Debye
        Dipole field          0.0000 Ry au
 
        Potential amp.       -0.0000 Ry
        Total length         45.5509 bohr
 
 
     Adding external electric field

     Computed dipole along edir(3) : 
        Dipole                0.0002 Ry au,          0.0005 Debye
        Dipole field          0.0000 Ry au
 
        Potential amp.       -0.0000 Ry
        Total length         45.5509 bohr
 
 
     Magnetic moment per site:
     atom:    1    charge:    8.3085    magn:    0.8104    constr:    0.0000
     atom:    2    charge:    8.3085    magn:    0.8104    constr:    0.0000
     atom:    3    charge:    1.7464    magn:   -0.0015    constr:    0.0000
     atom:    4    charge:    1.7464    magn:   -0.0015    constr:    0.0000
     atom:    5    charge:    8.3117    magn:    0.6232    constr:    0.0000
     atom:    6    charge:    8.3116    magn:    0.6232    constr:    0.0000
     atom:    7    charge:    1.7553    magn:   -0.0017    constr:    0.0000
     atom:    8    charge:    1.7553    magn:   -0.0017    constr:    0.0000
     atom:    9    charge:    8.3054    magn:    0.8101    constr:    0.0000
     atom:   10    charge:    8.3054    magn:    0.8101    constr:    0.0000
     atom:   11    charge:    1.7454    magn:   -0.0015    constr:    0.0000
     atom:   12    charge:    1.7454    magn:   -0.0015    constr:    0.0000

     total cpu time spent up to now is     2843.8 secs

     End of self-consistent calculation

 ------ SPIN UP ------------


          k = 0.0000 0.0000 0.0000 ( 19799 PWs)   bands (ev):

   -94.4467 -94.4466 -94.4465 -94.4464 -94.1439 -94.1437 -57.8226 -57.8225
   -57.8176 -57.8175 -57.7503 -57.7503 -57.7499 -57.7499 -57.6914 -57.6913
   -57.6911 -57.6910 -57.4825 -57.4773 -57.4528 -57.4524 -57.4353 -57.4348
   -16.2786 -16.1934 -16.1783 -16.1693 -16.1373 -16.1265 -16.1004 -16.0850
   -16.0385 -16.0159 -16.0066 -16.0055 -15.9961 -15.9939 -15.9830 -15.9815
   -15.9276 -15.9096 -15.9087 -15.9030 -15.8924 -15.8713 -15.8661 -15.8556
   -15.8554 -15.8435 -15.7540 -15.7522 -15.7395 -15.6918 -10.2204  -8.6901
    -7.0496  -6.7400  -6.4703  -6.1916  -2.7683  -2.4776  -1.7565  -1.7508
    -1.7399  -1.6600  -1.6482  -1.2905  -1.2597  -1.1510  -1.0346  -0.8548
    -0.8448  -0.7588  -0.7546  -0.7337  -0.7029  -0.6287  -0.6113  -0.5978
    -0.5894  -0.5748  -0.5420  -0.5222  -0.5204  -0.4755  -0.4602  -0.4548
    -0.3736  -0.3359  -0.3065  -0.2964  -0.2293  -0.0303  -0.0043   0.0326
     0.1134   0.9669   1.0058   1.4575   1.5219   2.2275   2.8094   3.2064
     3.5529   3.5786   3.6644   3.9474   4.4669   4.7327   5.0191   5.5437
     5.8704   5.9815   6.0436   6.0445   6.2479   6.5739   6.8572   7.5741
     7.9929   8.3770   8.5140

          k = 0.0000 0.0306 0.0000 ( 19775 PWs)   bands (ev):

   -94.4467 -94.4466 -94.4465 -94.4464 -94.1439 -94.1437 -57.8222 -57.8222
   -57.8179 -57.8179 -57.7503 -57.7503 -57.7500 -57.7499 -57.6914 -57.6913
   -57.6911 -57.6910 -57.4822 -57.4776 -57.4528 -57.4524 -57.4353 -57.4349
   -16.2538 -16.1901 -16.1647 -16.1570 -16.1295 -16.0974 -16.0958 -16.0768
   -16.0450 -16.0138 -16.0071 -16.0047 -16.0039 -15.9968 -15.9745 -15.9714
   -15.9246 -15.9062 -15.9061 -15.9046 -15.8828 -15.8760 -15.8717 -15.8684
   -15.8603 -15.8523 -15.7859 -15.7584 -15.7527 -15.7166 -10.0785  -8.5655
    -7.2401  -6.9972  -6.4405  -6.4202  -2.7008  -2.2264  -2.0096  -2.0022
    -1.8948  -1.5748  -1.3007  -1.2851  -1.2658  -1.2452  -1.1426  -1.0144
    -0.8532  -0.8404  -0.7726  -0.7718  -0.7537  -0.7413  -0.6911  -0.6794
    -0.6459  -0.5839  -0.5677  -0.5626  -0.4859  -0.4631  -0.4401  -0.4157
    -0.3817  -0.2312  -0.2094  -0.2001  -0.1290  -0.0977   0.1627   0.2990
     0.5118   0.5787   1.2783   1.3151   2.2515   2.3542   2.8100   3.5277
     3.5524   3.6263   3.7978   4.4672   4.5939   4.7614   5.1706   5.1713
     5.1847   5.8825   5.9517   6.0354   6.1209   6.7926   7.4076   7.5943
     7.7407   7.7711   7.9674

          k = 0.0000 0.0612 0.0000 ( 19777 PWs)   bands (ev):

   -94.4466 -94.4466 -94.4465 -94.4465 -94.1439 -94.1438 -57.8213 -57.8213
   -57.8189 -57.8188 -57.7502 -57.7502 -57.7500 -57.7500 -57.6914 -57.6913
   -57.6912 -57.6911 -57.4812 -57.4786 -57.4527 -57.4525 -57.4352 -57.4350
   -16.1880 -16.1753 -16.1287 -16.1258 -16.1197 -16.1107 -16.0619 -16.0419
   -16.0388 -16.0350 -16.0223 -16.0119 -15.9736 -15.9716 -15.9502 -15.9453
   -15.9171 -15.9099 -15.9021 -15.9006 -15.8968 -15.8956 -15.8807 -15.8793
   -15.8724 -15.8703 -15.8467 -15.8037 -15.7751 -15.7748  -9.6584  -8.2032
    -8.1228  -6.9934  -6.8635  -6.5432  -2.5492  -2.3335  -2.2352  -2.1828
    -1.9659  -1.4889  -1.4585  -1.3290  -1.3206  -1.1142  -1.0999  -1.0497
    -1.0204  -0.9697  -0.9256  -0.9201  -0.8184  -0.7670  -0.7428  -0.7038
    -0.6344  -0.5447  -0.5386  -0.5345  -0.5102  -0.5085  -0.4554  -0.4522
    -0.4231  -0.2168  -0.1444  -0.0948   0.0702   0.2766   0.4720   0.5577
     0.8659   1.2572   1.4117   1.5758   2.2913   2.4918   2.4995   3.2252
     4.1393   4.2930   4.3868   4.4030   4.9619   5.0033   5.0099   5.5087
     5.5421   5.7535   6.0318   6.4949   6.5416   6.5430   6.7427   6.7733
     7.3625   7.5439   7.7020

          k = 0.0000-0.0918 0.0000 ( 19778 PWs)   bands (ev):

   -94.4466 -94.4466 -94.4465 -94.4465 -94.1438 -94.1438 -57.8201 -57.8201
   -57.8201 -57.8201 -57.7501 -57.7501 -57.7501 -57.7501 -57.6912 -57.6912
   -57.6912 -57.6912 -57.4800 -57.4799 -57.4526 -57.4526 -57.4351 -57.4351
   -16.1513 -16.1513 -16.1051 -16.1051 -16.0904 -16.0903 -16.0804 -16.0804
   -16.0750 -16.0750 -15.9396 -15.9396 -15.9384 -15.9384 -15.9335 -15.9335
   -15.9316 -15.9316 -15.9145 -15.9145 -15.9117 -15.9117 -15.9001 -15.9001
   -15.8773 -15.8773 -15.8644 -15.8643 -15.7939 -15.7939  -8.9845  -8.9845
    -7.6464  -7.6464  -6.7003  -6.7003  -2.4728  -2.4728  -2.3884  -2.3884
    -1.6255  -1.6255  -1.3913  -1.3913  -1.2991  -1.2991  -1.0567  -1.0567
    -1.0216  -1.0216  -0.9928  -0.9928  -0.8254  -0.8254  -0.6791  -0.6791
    -0.6037  -0.6037  -0.5769  -0.5769  -0.4987  -0.4986  -0.4698  -0.4698
    -0.2947  -0.2947  -0.0922  -0.0921   0.2129   0.2129   1.0261   1.0262
     1.2392   1.2392   1.4707   1.4707   2.2337   2.2337   2.7005   2.7005
     4.4109   4.4109   4.5783   4.5783   5.2956   5.2956   5.5925   5.5925
     5.9844   5.9844   6.3381   6.3381   6.4543   6.4543   6.8858   6.8858
     7.0364   7.0364   7.2992

          k = 0.0288-0.0103 0.0000 ( 19775 PWs)   bands (ev):

   -94.4467 -94.4466 -94.4465 -94.4464 -94.1439 -94.1437 -57.8222 -57.8222
   -57.8179 -57.8179 -57.7503 -57.7503 -57.7500 -57.7499 -57.6914 -57.6913
   -57.6911 -57.6910 -57.4822 -57.4776 -57.4528 -57.4524 -57.4353 -57.4349
   -16.2538 -16.1901 -16.1647 -16.1570 -16.1295 -16.0974 -16.0958 -16.0768
   -16.0450 -16.0138 -16.0071 -16.0047 -16.0039 -15.9968 -15.9745 -15.9714
   -15.9246 -15.9062 -15.9061 -15.9046 -15.8828 -15.8760 -15.8717 -15.8684
   -15.8603 -15.8523 -15.7859 -15.7584 -15.7527 -15.7166 -10.0785  -8.5655
    -7.2401  -6.9972  -6.4405  -6.4202  -2.7008  -2.2264  -2.0096  -2.0022
    -1.8948  -1.5748  -1.3007  -1.2851  -1.2658  -1.2452  -1.1426  -1.0144
    -0.8532  -0.8404  -0.7726  -0.7718  -0.7537  -0.7413  -0.6911  -0.6794
    -0.6459  -0.5839  -0.5677  -0.5626  -0.4859  -0.4631  -0.4401  -0.4157
    -0.3817  -0.2312  -0.2094  -0.2001  -0.1290  -0.0977   0.1627   0.2990
     0.5118   0.5787   1.2783   1.3151   2.2515   2.3542   2.8100   3.5277
     3.5524   3.6263   3.7978   4.4672   4.5939   4.7614   5.1706   5.1713
     5.1847   5.8825   5.9517   6.0354   6.1209   6.7926   7.4076   7.5943
[...]
     4.1572   4.6020   4.6144   4.8396   4.9559   5.0502   5.2372   5.4476
     5.6992   6.0006   6.0813   6.5428   6.5528   6.7274   6.8311   6.9850
     7.4063   7.6656   7.8461

          k = 0.0577 0.0101 0.0000 ( 19752 PWs)   bands (ev):

   -92.4970 -92.4967 -92.4367 -92.4365 -92.4043 -92.4041 -55.8927 -55.8923
   -55.8619 -55.8570 -55.8493 -55.8489 -55.8401 -55.8351 -55.8150 -55.8146
   -55.8022 -55.8011 -55.8007 -55.7972 -55.7948 -55.7944 -55.7627 -55.7623
   -16.1790 -16.1078 -16.1015 -16.0784 -16.0584 -16.0399 -16.0258 -16.0042
   -16.0013 -15.9661 -15.9618 -15.9446 -15.9349 -15.9314 -15.9280 -15.9144
   -15.8779 -15.8773 -15.8686 -15.8483 -15.8461 -15.8412 -15.8181 -15.8160
   -15.8096 -15.8081 -15.7774 -15.7625 -15.7052 -15.6836  -9.6076  -8.2217
    -7.6894  -7.4042  -6.4517  -5.7048  -3.2375  -3.0206  -2.6763  -1.7934
    -1.4597  -1.2994  -1.0570  -0.7828  -0.4975  -0.2066   0.0555   0.2189
     0.2267   0.3054   0.3653   0.3823   0.4767   0.4780   0.5930   0.5933
     0.6739   0.8526   0.8698   0.9018   0.9498   0.9661   0.9872   1.0308
     1.0550   1.1173   1.2433   1.3560   1.4795   1.5130   1.6739   1.6854
     1.7726   1.8251   1.8850   2.8976   3.3203   3.3899   3.8133   3.8947
     4.4243   4.6492   4.7601   4.9116   5.0055   5.4970   5.6190   5.7227
     6.0239   6.3060   6.4404   6.4581   6.6954   6.8955   6.8977   7.2257
     7.4505   7.5702   7.7862

          k = 0.0577 0.0407 0.0000 ( 19721 PWs)   bands (ev):

   -92.4970 -92.4967 -92.4367 -92.4365 -92.4043 -92.4041 -55.8928 -55.8923
   -55.8623 -55.8566 -55.8494 -55.8488 -55.8405 -55.8347 -55.8150 -55.8146
   -55.8026 -55.8011 -55.8007 -55.7969 -55.7949 -55.7944 -55.7627 -55.7623
   -16.2010 -16.1199 -16.1168 -16.0845 -16.0813 -16.0527 -16.0139 -16.0096
   -15.9836 -15.9760 -15.9518 -15.9503 -15.9428 -15.9370 -15.9200 -15.8913
   -15.8752 -15.8751 -15.8708 -15.8568 -15.8369 -15.8321 -15.8113 -15.8067
   -15.8062 -15.7988 -15.7969 -15.7458 -15.6883 -15.6591  -9.4040  -8.1519
    -7.7636  -7.5498  -6.2570  -5.1832  -3.9583  -3.5087  -3.1505  -2.3671
    -1.7522  -1.3263  -1.2324  -0.9298  -0.4762  -0.3092   0.1850   0.2182
     0.2560   0.2811   0.3546   0.3818   0.4104   0.4951   0.5450   0.5505
     0.6814   0.7718   0.9108   0.9568   0.9741   0.9995   1.0157   1.0524
     1.1088   1.2349   1.2489   1.4865   1.6314   1.6684   1.6800   1.7370
     1.8586   1.9458   2.3326   3.1809   3.4239   3.7385   3.7684   4.2281
     4.5062   4.8893   5.0538   5.4535   5.4615   5.9747   6.1333   6.1769
     6.2858   6.4843   6.5768   6.7771   6.8007   7.0721   7.1255   7.3986
     7.5875   7.6203   7.8584

          k = 0.0577-0.1123 0.0000 ( 19694 PWs)   bands (ev):

   -92.4970 -92.4967 -92.4367 -92.4365 -92.4043 -92.4041 -55.8927 -55.8923
   -55.8619 -55.8570 -55.8494 -55.8488 -55.8401 -55.8351 -55.8149 -55.8146
   -55.8022 -55.8011 -55.8007 -55.7973 -55.7948 -55.7944 -55.7627 -55.7623
   -16.1749 -16.1047 -16.1039 -16.0656 -16.0635 -16.0627 -16.0237 -15.9925
   -15.9677 -15.9621 -15.9445 -15.9404 -15.9345 -15.9326 -15.9266 -15.8886
   -15.8733 -15.8731 -15.8688 -15.8612 -15.8462 -15.8401 -15.8399 -15.8243
   -15.8151 -15.8094 -15.8053 -15.7405 -15.7129 -15.6853  -8.9703  -8.0789
    -7.9756  -7.8943  -6.5956  -5.3129  -3.7263  -3.6081  -3.1567  -2.0560
    -1.6485  -1.4449  -1.2759  -0.9062  -0.3776  -0.3678   0.1909   0.1995
     0.2412   0.2743   0.3432   0.3534   0.3612   0.5066   0.5336   0.5533
     0.7093   0.7563   0.9168   0.9315   0.9770   1.0004   1.0100   1.0954
     1.1323   1.3209   1.3412   1.3998   1.5066   1.5714   1.6548   1.6560
     1.8962   2.4658   2.5399   2.9206   3.5265   3.6368   4.0065   4.8811
     5.0425   5.1961   5.3454   5.3946   5.5493   5.7372   5.7598   6.1241
     6.1997   6.5225   6.5549   6.6531   6.7642   6.8718   6.9263   7.1136
     7.1808   7.4084   7.4557

          k = 0.0577-0.0817 0.0000 ( 19726 PWs)   bands (ev):

   -92.4969 -92.4968 -92.4367 -92.4365 -92.4043 -92.4041 -55.8926 -55.8924
   -55.8609 -55.8580 -55.8493 -55.8489 -55.8390 -55.8361 -55.8148 -55.8147
   -55.8012 -55.8010 -55.8008 -55.7983 -55.7947 -55.7945 -55.7626 -55.7624
   -16.1108 -16.0748 -16.0725 -16.0634 -16.0351 -16.0326 -15.9986 -15.9943
   -15.9835 -15.9675 -15.9433 -15.9319 -15.9130 -15.9110 -15.9014 -15.8970
   -15.8852 -15.8712 -15.8709 -15.8658 -15.8602 -15.8599 -15.8462 -15.8387
   -15.8348 -15.8328 -15.8305 -15.7945 -15.7584 -15.7209  -8.6535  -8.4674
    -8.0659  -7.6200  -7.2081  -5.8645  -3.5288  -2.8474  -2.5037  -1.5280
    -1.3310  -1.2365  -0.8751  -0.6003  -0.3562  -0.2613  -0.0715   0.2148
     0.2424   0.2644   0.3674   0.3945   0.4140   0.4405   0.4673   0.6321
     0.6338   0.7307   0.7920   0.8489   0.9314   0.9361   0.9469   1.0448
     1.1747   1.2376   1.2634   1.3531   1.4225   1.4406   1.6211   1.6405
     2.1491   2.2841   2.6483   3.0717   3.3085   3.4929   3.6987   4.0591
     4.2059   4.5991   4.6631   4.8115   5.2210   5.5270   5.7976   6.0081
     6.3739   6.3845   6.4794   6.5937   6.8157   6.8514   7.0867   7.2003
     7.3431   7.4481   7.4694

          k = 0.0577-0.0511 0.0000 ( 19769 PWs)   bands (ev):

   -92.4969 -92.4968 -92.4366 -92.4366 -92.4042 -92.4041 -55.8925 -55.8925
   -55.8595 -55.8594 -55.8492 -55.8490 -55.8376 -55.8376 -55.8148 -55.8147
   -55.8009 -55.8009 -55.7998 -55.7997 -55.7947 -55.7946 -55.7625 -55.7625
   -16.0766 -16.0411 -16.0381 -16.0346 -16.0333 -16.0283 -16.0220 -16.0130
   -15.9980 -15.9836 -15.9209 -15.9198 -15.9073 -15.9058 -15.8851 -15.8805
   -15.8757 -15.8743 -15.8714 -15.8713 -15.8689 -15.8680 -15.8625 -15.8603
   -15.8563 -15.8462 -15.8256 -15.8230 -15.8054 -15.7285  -9.2197  -8.2882
    -7.7521  -7.4330  -7.2535  -6.4607  -2.9112  -2.3555  -1.5768  -1.3182
    -1.1775  -1.0233  -0.6309  -0.4848  -0.3739  -0.3002  -0.1106   0.0532
     0.2493   0.2594   0.3172   0.3976   0.4331   0.4788   0.5450   0.6194
     0.7117   0.7752   0.7891   0.8291   0.8381   0.8801   0.8896   0.9532
     1.0075   1.1995   1.3456   1.3823   1.4772   1.5932   1.6550   1.8328
     2.0808   2.1548   2.2197   2.6216   2.6292   3.0826   3.2724   3.5374
     3.8471   3.9605   4.4046   4.4925   4.6768   5.3994   5.5819   6.0041
     6.0051   6.1580   6.3575   6.4779   6.5962   6.8590   6.9289   6.9326
     7.4043   7.4581   7.6570

          k =-0.0865 0.0308 0.0000 ( 19778 PWs)   bands (ev):

   -92.4969 -92.4968 -92.4366 -92.4366 -92.4042 -92.4041 -55.8925 -55.8925
   -55.8595 -55.8594 -55.8492 -55.8491 -55.8376 -55.8376 -55.8148 -55.8147
   -55.8009 -55.8009 -55.7998 -55.7997 -55.7947 -55.7946 -55.7625 -55.7625
   -16.0585 -16.0585 -16.0357 -16.0357 -16.0264 -16.0264 -16.0159 -16.0159
   -16.0023 -16.0023 -15.9203 -15.9202 -15.9062 -15.9061 -15.8844 -15.8843
   -15.8777 -15.8777 -15.8736 -15.8736 -15.8687 -15.8687 -15.8569 -15.8569
   -15.8455 -15.8455 -15.8286 -15.8286 -15.7623 -15.7623  -8.8853  -8.8853
    -7.5450  -7.5449  -6.7621  -6.7620  -2.3170  -2.3170  -2.0100  -2.0100
    -1.0241  -1.0241  -0.5778  -0.5778  -0.3826  -0.3826   0.0237   0.0237
     0.1499   0.1500   0.4004   0.4004   0.5798   0.5799   0.6643   0.6643
     0.7820   0.7820   0.8442   0.8443   0.8678   0.8678   0.9356   0.9357
     1.1017   1.1017   1.3144   1.3144   1.6566   1.6567   1.7281   1.7281
     2.0677   2.0677   2.2868   2.2868   2.7595   2.7596   2.9237   2.9237
     4.3212   4.3213   4.8615   4.8615   5.6205   5.6205   5.6704   5.6704
     6.0899   6.0899   6.4592   6.4593   6.8407   6.8409   7.0305   7.0306
     7.1116   7.1116   7.3576

          k =-0.0865 0.0614 0.0000 ( 19734 PWs)   bands (ev):

   -92.4969 -92.4968 -92.4367 -92.4365 -92.4043 -92.4041 -55.8926 -55.8924
   -55.8609 -55.8580 -55.8493 -55.8489 -55.8390 -55.8361 -55.8148 -55.8147
   -55.8011 -55.8010 -55.8008 -55.7983 -55.7948 -55.7945 -55.7626 -55.7624
   -16.1118 -16.0764 -16.0684 -16.0601 -16.0429 -16.0198 -16.0073 -15.9940
   -15.9926 -15.9650 -15.9437 -15.9408 -15.9371 -15.9167 -15.9086 -15.9032
   -15.8859 -15.8725 -15.8674 -15.8615 -15.8506 -15.8473 -15.8442 -15.8365
   -15.8352 -15.8337 -15.8018 -15.7974 -15.7593 -15.7300  -9.0461  -8.4930
    -7.8189  -7.4391  -7.1082  -6.0270  -3.1048  -2.7538  -2.3540  -1.6206
    -1.2718  -1.0758  -1.0124  -0.6350  -0.4130  -0.2176  -0.1476   0.1771
     0.1775   0.2861   0.3520   0.3633   0.4885   0.5359   0.5696   0.6682
     0.6860   0.7999   0.8424   0.8530   0.9195   0.9325   0.9610   1.0187
     1.0944   1.1881   1.2453   1.4070   1.4414   1.5594   1.7072   1.7487
     1.8564   2.0121   2.2018   2.6183   3.0814   3.4756   3.6170   3.8486
     4.3649   4.4888   5.0899   5.1786   5.3805   5.5018   5.5383   5.8378
     6.0940   6.3168   6.3364   6.5475   6.5539   6.6910   7.0032   7.0867
     7.1119   7.4435   7.6535

          k =-0.0865 0.0920 0.0000 ( 19694 PWs)   bands (ev):

   -92.4970 -92.4967 -92.4367 -92.4365 -92.4043 -92.4041 -55.8927 -55.8923
   -55.8619 -55.8570 -55.8494 -55.8488 -55.8401 -55.8351 -55.8149 -55.8146
   -55.8022 -55.8011 -55.8007 -55.7973 -55.7948 -55.7944 -55.7627 -55.7623
   -16.1749 -16.1047 -16.1039 -16.0656 -16.0635 -16.0627 -16.0237 -15.9925
   -15.9677 -15.9621 -15.9445 -15.9404 -15.9345 -15.9326 -15.9266 -15.8886
   -15.8733 -15.8731 -15.8688 -15.8612 -15.8462 -15.8401 -15.8399 -15.8243
   -15.8151 -15.8094 -15.8053 -15.7405 -15.7129 -15.6853  -8.9703  -8.0789
    -7.9756  -7.8943  -6.5956  -5.3129  -3.7263  -3.6081  -3.1567  -2.0560
    -1.6485  -1.4449  -1.2759  -0.9062  -0.3776  -0.3678   0.1909   0.1995
     0.2412   0.2743   0.3432   0.3534   0.3612   0.5066   0.5336   0.5533
     0.7093   0.7563   0.9168   0.9315   0.9770   1.0004   1.0100   1.0954
     1.1323   1.3209   1.3412   1.3998   1.5066   1.5714   1.6548   1.6560
     1.8962   2.4658   2.5399   2.9206   3.5265   3.6368   4.0065   4.8811
     5.0425   5.1961   5.3454   5.3946   5.5493   5.7372   5.7598   6.1241
     6.1997   6.5225   6.5549   6.6531   6.7642   6.8718   6.9263   7.1136
     7.1808   7.4084   7.4557

          k =-0.0865-0.0610 0.0000 ( 19630 PWs)   bands (ev):

   -92.4970 -92.4967 -92.4367 -92.4365 -92.4043 -92.4041 -55.8927 -55.8923
   -55.8623 -55.8566 -55.8495 -55.8488 -55.8405 -55.8347 -55.8149 -55.8146
   -55.8026 -55.8011 -55.8007 -55.7968 -55.7949 -55.7944 -55.7627 -55.7623
   -16.1983 -16.1219 -16.1150 -16.0878 -16.0726 -16.0656 -16.0244 -15.9872
   -15.9775 -15.9503 -15.9477 -15.9450 -15.9357 -15.9346 -15.9202 -15.8812
   -15.8764 -15.8738 -15.8660 -15.8560 -15.8560 -15.8397 -15.8371 -15.8189
   -15.8033 -15.8008 -15.7943 -15.7180 -15.7068 -15.6584  -8.8013  -8.4074
    -7.9402  -7.6847  -6.3242  -4.9498  -4.1661  -3.9611  -3.2644  -2.5451
    -1.9116  -1.8044  -1.3127  -0.8729  -0.4044  -0.3804   0.1770   0.2088
     0.2479   0.2963   0.3365   0.3402   0.3469   0.4906   0.5084   0.5477
     0.7138   0.8012   0.9596   1.0008   1.0078   1.0161   1.0282   1.0306
     1.1014   1.3252   1.3933   1.4413   1.6245   1.6470   1.7025   1.9389
     2.1052   2.2341   2.5939   2.8691   4.0686   4.3225   4.4121   4.5840
     4.8269   5.1313   5.1442   5.3813   5.7768   5.9184   6.1065   6.2728
     6.4597   6.5460   6.5871   6.7080   7.0697   7.0972   7.1306   7.2620
     7.3806   7.5367   7.5558

     the Fermi energy is     1.1679 ev

!    total energy              =   -2792.85002543 Ry
     Harris-Foulkes estimate   =   -2792.85002635 Ry
     estimated scf accuracy    <       0.00000039 Ry

     The total energy is the sum of the following terms:

     one-electron contribution =  -17161.21049598 Ry
     hartree contribution      =    8622.72368397 Ry
     xc contribution           =    -594.92267012 Ry
     ewald contribution        =    6340.65436372 Ry
     electric field correction =       0.00000627 Ry
     smearing contrib. (-TS)   =      -0.09491330 Ry

     total magnetization       =     8.14 Bohr mag/cell
     absolute magnetization    =     9.65 Bohr mag/cell

     convergence has been achieved in  35 iterations
 
 BEEF-vdW xc energy contributions
           1 :   -528.216674169361     
           2 :    486.641383494835     
           3 :   -414.534883591824     
           4 :    329.223070376766     
           5 :   -247.567999767332     
           6 :    180.472015028249     
           7 :   -130.848821886369     
           8 :    95.2786277425071     
           9 :   -67.8421990929378     
          10 :    43.8393571764293     
          11 :   -21.6635615287146     
          12 :    2.40924357320660     
          13 :    11.9069074822189     
          14 :   -20.1421044556976     
          15 :    22.8202210576630     
          16 :   -21.7667102289570     
          17 :    19.1141599155130     
          18 :   -16.4210222276467     
          19 :    14.3335689156081     
          20 :   -12.7870943852039     
          21 :    11.4315783734744     
          22 :   -9.97851208655538     
          23 :    8.33378997727061     
          24 :   -6.58388248592405     
          25 :    4.93833427278469     
          26 :   -3.68030600207294     
          27 :    3.08586993650715     
          28 :   -3.29392661499298     
          29 :    4.17118239270462     
          30 :   -5.28895126016334     
          31 :   -43.0078152778005     
          32 :   -30.9345938161119     

     Forces acting on atoms (Ry/au):


     negative rho (up, down):  5.347E-02 5.463E-02
     atom    1 type  1   force =     0.00011376    0.00008080    0.02717349
     atom    2 type  1   force =     0.00011332    0.00007946    0.02717758
     atom    3 type  2   force =    -0.00042681   -0.00029827   -0.02967337
     atom    4 type  2   force =    -0.00042445   -0.00030236   -0.02967247
     atom    5 type  1   force =    -0.00008476   -0.00006021    0.01237262
     atom    6 type  1   force =    -0.00006572   -0.00004661    0.01239568
     atom    7 type  2   force =     0.00036607    0.00025056   -0.00754815
     atom    8 type  2   force =     0.00035772    0.00026062   -0.00754421
     atom    9 type  1   force =     0.00004032    0.00002707   -0.00060837
     atom   10 type  1   force =     0.00005542    0.00003974   -0.00059988
     atom   11 type  2   force =    -0.00000922   -0.00003472   -0.00173548
     atom   12 type  2   force =    -0.00003565    0.00000391   -0.00173744

     Total force =     0.060551     Total SCF correction =     0.001048


     entering subroutine stress ...


     negative rho (up, down):  5.347E-02 5.463E-02
          total   stress  (Ry/bohr**3)                   (kbar)     P=  -13.04
  -0.00013970  -0.00004155   0.00000044        -20.55     -6.11      0.06
  -0.00004155  -0.00011015   0.00000031         -6.11    -16.20      0.05
   0.00000044   0.00000031  -0.00001601          0.06      0.05     -2.36

 !ASE

     Writing output data file calc.save
 
     init_run     :     25.33s CPU     35.34s WALL (       1 calls)
     electrons    :   2418.65s CPU   3459.56s WALL (       1 calls)
     forces       :      7.60s CPU      9.05s WALL (       1 calls)
     stress       :     20.17s CPU     22.43s WALL (       1 calls)

     Called by init_run:
     wfcinit      :     21.66s CPU     30.82s WALL (       1 calls)
     potinit      :      1.88s CPU      2.55s WALL (       1 calls)

     Called by electrons:
     c_bands      :   1923.11s CPU   2726.72s WALL (      35 calls)
     sum_band     :    356.93s CPU    531.01s WALL (      35 calls)
     v_of_rho     :     59.35s CPU     90.25s WALL (      36 calls)
     newd         :     21.64s CPU     22.95s WALL (      36 calls)
     mix_rho      :      3.99s CPU      6.09s WALL (      35 calls)
     vdW_energy   :      3.72s CPU      3.78s WALL (      72 calls)
     vdW_ffts     :     63.51s CPU    101.73s WALL (     146 calls)
     vdW_v        :     11.98s CPU     17.59s WALL (      72 calls)

     Called by c_bands:
     init_us_2    :      3.26s CPU      3.39s WALL (    2920 calls)
     cegterg      :   1892.71s CPU   2692.32s WALL (    1400 calls)

     Called by *egterg:
     h_psi        :   1322.95s CPU   2031.25s WALL (    4669 calls)
     s_psi        :     41.38s CPU     41.84s WALL (    4669 calls)
     g_psi        :      2.43s CPU      2.45s WALL (    3229 calls)
     cdiaghg      :    304.34s CPU    348.10s WALL (    4629 calls)

     Called by h_psi:
     add_vuspsi   :     42.50s CPU     42.75s WALL (    4669 calls)

     General routines
     calbec       :     92.47s CPU    111.18s WALL (    6149 calls)
     fft          :    114.91s CPU    184.20s WALL (    5270 calls)
     ffts         :      0.86s CPU      1.32s WALL (     142 calls)
     fftw         :   1443.98s CPU   2299.19s WALL (  908616 calls)
     interpolate  :      3.88s CPU      6.17s WALL (     142 calls)
     davcio       :      0.00s CPU      0.07s WALL (      40 calls)
 
     Parallel routines
     fft_scatter  :   1412.04s CPU   2329.69s WALL (  914028 calls)
 
     PWSCF        : 41m12.74s CPU    58m48.16s WALL

 
   This run was terminated on:  10:20:46  19Dec2018            

=------------------------------------------------------------------------------=
   JOB DONE.
=------------------------------------------------------------------------------=
Job  /afs/slac/g/suncat/bin/suncat-tsmpirun -x LD_LIBRARY_PATH -wdir /scratch/qe529690_10FlE pw.x -in pw.inp

TID   HOST_NAME   COMMAND_LINE            STATUS            TERMINATION_TIME
===== ========== ================  =======================  ===================
00000 suncat0150 pw.x -in pw.inp   Done                     12/19/2018 10:20:46
00001 suncat0150 pw.x -in pw.inp   Done                     12/19/2018 10:20:46
00002 suncat0150 pw.x -in pw.inp   Done                     12/19/2018 10:20:46
00003 suncat0150 pw.x -in pw.inp   Done                     12/19/2018 10:20:46
00004 suncat0150 pw.x -in pw.inp   Done                     12/19/2018 10:20:46
00005 suncat0150 pw.x -in pw.inp   Done                     12/19/2018 10:20:46
00006 suncat0150 pw.x -in pw.inp   Done                     12/19/2018 10:20:46
00007 suncat0150 pw.x -in pw.inp   Done                     12/19/2018 10:20:46
00008 suncat0149 pw.x -in pw.inp   Done                     12/19/2018 10:20:46
00009 suncat0149 pw.x -in pw.inp   Done                     12/19/2018 10:20:46
00010 suncat0149 pw.x -in pw.inp   Done                     12/19/2018 10:20:46
00011 suncat0149 pw.x -in pw.inp   Done                     12/19/2018 10:20:46
00012 suncat0149 pw.x -in pw.inp   Done                     12/19/2018 10:20:46
00013 suncat0149 pw.x -in pw.inp   Done                     12/19/2018 10:20:46
00014 suncat0149 pw.x -in pw.inp   Done                     12/19/2018 10:20:46
00015 suncat0149 pw.x -in pw.inp   Done                     12/19/2018 10:20:46
00016 suncat0148 pw.x -in pw.inp   Done                     12/19/2018 10:20:46
00017 suncat0148 pw.x -in pw.inp   Done                     12/19/2018 10:20:46
00018 suncat0148 pw.x -in pw.inp   Done                     12/19/2018 10:20:46
00019 suncat0148 pw.x -in pw.inp   Done                     12/19/2018 10:20:46
00020 suncat0148 pw.x -in pw.inp   Done                     12/19/2018 10:20:46
00021 suncat0148 pw.x -in pw.inp   Done                     12/19/2018 10:20:46
00022 suncat0148 pw.x -in pw.inp   Done                     12/19/2018 10:20:46
00023 suncat0148 pw.x -in pw.inp   Done                     12/19/2018 10:20:46
00024 suncat0147 pw.x -in pw.inp   Done                     12/19/2018 10:20:46
00025 suncat0147 pw.x -in pw.inp   Done                     12/19/2018 10:20:46
00026 suncat0147 pw.x -in pw.inp   Done                     12/19/2018 10:20:46
00027 suncat0147 pw.x -in pw.inp   Done                     12/19/2018 10:20:46
00028 suncat0147 pw.x -in pw.inp   Done                     12/19/2018 10:20:46
00029 suncat0147 pw.x -in pw.inp   Done                     12/19/2018 10:20:46
00030 suncat0147 pw.x -in pw.inp   Done                     12/19/2018 10:20:46
00031 suncat0147 pw.x -in pw.inp   Done                     12/19/2018 10:20:46
