  python dir          : /u/if/mamunm/src/espresso
  espresso dir        : /nfs/slac/g/suncatfs/sw/espv18/espresso-dynpy-beef/bin
  pseudo dir          : /afs/slac.stanford.edu/u/if/mamunm/psp/gbrv1.5pbe
  ase-espresso py git : GITVERSION



     Program PWSCF v.5.1rc2 (svn rev. 11289) starts on 19Dec2018 at  7:52:19 

     This program is part of the open-source Quantum ESPRESSO suite
     for quantum simulation of materials; please cite
         "P. Giannozzi et al., J. Phys.:Condens. Matter 21 395502 (2009);
          URL http://www.quantum-espresso.org", 
     in publications or presentations arising from this work. More details at
     http://www.quantum-espresso.org/quote

     Parallel version (MPI), running on    32 processors
     R & G space division:  proc/nbgrp/npool/nimage =      32
     Reading input from pw.inp
     Message from routine read_cards :
     DEPRECATED: no units specified in CELL_PARAMETERS card

     Current dimensions of program PWSCF are:
     Max number of different atomic species (ntypx) = 10
     Max number of k-points (npk) =  40000
     Max angular momentum in pseudopotentials (lmaxx) =  3
     Presently stress not available with electric field


     **************************************************************************
     Initializing libbeef V0.1.1 with the BEEF-vdW functional.
     Citation: Wellendorff et al., PRB 85, 235149 (2012).
     **************************************************************************


     IMPORTANT: XC functional enforced from input :
     Exchange-correlation      = BEEF-VDW ( 1  4 27 13 2)
     Any further DFT definition will be discarded
     Please, verify this is what you really want


     Subspace diagonalization in iterative solution of the eigenvalue problem:
     a serial algorithm will be used

     Found symmetry operation: I + ( -0.5000  0.5000  0.0000)
     This is a supercell, fractional translations are disabled
 
     Parallelization info
     --------------------
     sticks:   dense  smooth     PW     G-vecs:    dense   smooth      PW
     Min          88      35     10                16722     4201     658
     Max          89      36     11                16741     4270     671
     Sum        2819    1131    329               535225   135417   21337
 


     bravais-lattice index     =            0
     lattice parameter (alat)  =       1.8897  a.u.
     unit-cell volume          =    4500.4963 (a.u.)^3
     number of atoms/cell      =           12
     number of atomic types    =            2
     number of electrons       =       228.00
     number of Kohn-Sham states=          144
     kinetic-energy cutoff     =      36.7493  Ry
     charge density cutoff     =     367.4932  Ry
     convergence threshold     =      1.0E-06
     mixing beta               =       0.1000
     number of iterations used =           10  plain     mixing
     Exchange-correlation      = BEEF-VDW ( 1  4 27 13 2)
     nstep                     =           50


     celldm(1)=   1.889726  celldm(2)=   0.000000  celldm(3)=   0.000000
     celldm(4)=   0.000000  celldm(5)=   0.000000  celldm(6)=   0.000000

     crystal axes: (cart. coord. in units of alat)
               a(1) = (   5.542170   0.000000   0.000000 )  
               a(2) = (   2.592308   4.898529   0.000000 )  
               a(3) = (   0.000000   0.000000  24.565088 )  

     reciprocal axes: (cart. coord. in units 2 pi/alat)
               b(1) = (  0.180435 -0.095486  0.000000 )  
               b(2) = (  0.000000  0.204143  0.000000 )  
               b(3) = (  0.000000  0.000000  0.040708 )  


     PseudoPot. # 1 for Cu read from file:
     /afs/slac.stanford.edu/u/if/mamunm/psp/gbrv1.5pbe/Cu.UPF
     MD5 check sum: 6e991ff952a84172a2a52a1c1e996048
     Pseudo is Ultrasoft + core correction, Zval = 19.0
     Generated by new atomic code, or converted to UPF format
     Using radial grid of  867 points,  6 beta functions with: 
                l(1) =   0
                l(2) =   0
                l(3) =   1
                l(4) =   1
                l(5) =   2
                l(6) =   2
     Q(r) pseudized with  8 coefficients,  rinner =    1.150   1.150   1.150
                                                       1.150   1.150

     PseudoPot. # 2 for Ag read from file:
     /afs/slac.stanford.edu/u/if/mamunm/psp/gbrv1.5pbe/Ag.UPF
     MD5 check sum: d66d668201baa78d5eb5b04ef7011058
     Pseudo is Ultrasoft + core correction, Zval = 19.0
     Generated by new atomic code, or converted to UPF format
     Using radial grid of  887 points,  6 beta functions with: 
                l(1) =   0
                l(2) =   0
                l(3) =   1
                l(4) =   1
                l(5) =   2
                l(6) =   2
     Q(r) pseudized with  6 coefficients,  rinner =    1.300   1.300   1.300
                                                       1.300   1.300

     vdW kernel table read from file vdW_kernel_table
     MD5 check sum: 095c7af220d748ca6e76c0b4c6cfb241

     atomic species   valence    mass     pseudopotential
        Cu1           19.00    63.54600     Cu( 1.00)
        Ag1           19.00   107.86820     Ag( 1.00)

     No symmetry found



   Cartesian axes

     site n.     atom                  positions (alat units)
         1           Cu1 tau(   1) = (   0.0000000   0.0000000  10.0000000  )
         2           Cu1 tau(   2) = (   4.0672389   2.4492644  10.0000000  )
         3           Ag1 tau(   3) = (   2.7710849   0.0000000  10.0000000  )
         4           Ag1 tau(   4) = (   1.2961541   2.4492644  10.0000000  )
         5           Cu1 tau(   5) = (   5.5421697   3.3374579  12.2825442  )
         6           Cu1 tau(   6) = (   1.4749308   0.8881936  12.2825442  )
         7           Ag1 tau(   7) = (   2.7710849   3.3374579  12.2825442  )
         8           Ag1 tau(   8) = (   4.2460157   0.8881936  12.2825442  )
         9           Cu1 tau(   9) = (   2.9498616   1.7763872  14.5650884  )
        10           Cu1 tau(  10) = (   7.0171005   4.2256515  14.5650884  )
        11           Ag1 tau(  11) = (   5.7209465   1.7763872  14.5650884  )
        12           Ag1 tau(  12) = (   4.2460157   4.2256515  14.5650884  )

     number of k points=    20  Fermi-Dirac smearing, width (Ry)=  0.0110
                       cart. coord. in units 2pi/alat
        k(    1) = (   0.0000000   0.0000000   0.0000000), wk =   0.0555556
        k(    2) = (   0.0000000   0.0340238   0.0000000), wk =   0.1111111
        k(    3) = (   0.0000000   0.0680476   0.0000000), wk =   0.1111111
        k(    4) = (   0.0000000  -0.1020715   0.0000000), wk =   0.0555556
        k(    5) = (   0.0300725  -0.0159144   0.0000000), wk =   0.1111111
        k(    6) = (   0.0300725   0.0181094   0.0000000), wk =   0.1111111
        k(    7) = (   0.0300725   0.0521333   0.0000000), wk =   0.1111111
        k(    8) = (   0.0300725  -0.1179859   0.0000000), wk =   0.1111111
        k(    9) = (   0.0300725  -0.0839620   0.0000000), wk =   0.1111111
        k(   10) = (   0.0300725  -0.0499382   0.0000000), wk =   0.1111111
        k(   11) = (   0.0601449  -0.0318288   0.0000000), wk =   0.1111111
        k(   12) = (   0.0601449   0.0021950   0.0000000), wk =   0.1111111
        k(   13) = (   0.0601449   0.0362189   0.0000000), wk =   0.1111111
        k(   14) = (   0.0601449  -0.1339002   0.0000000), wk =   0.1111111
        k(   15) = (   0.0601449  -0.0998764   0.0000000), wk =   0.1111111
        k(   16) = (   0.0601449  -0.0658526   0.0000000), wk =   0.1111111
        k(   17) = (  -0.0902174   0.0477432   0.0000000), wk =   0.0555556
        k(   18) = (  -0.0902174   0.0817670   0.0000000), wk =   0.1111111
        k(   19) = (  -0.0902174   0.1157908   0.0000000), wk =   0.1111111
        k(   20) = (  -0.0902174  -0.0543283   0.0000000), wk =   0.0555556

     Dense  grid:   535225 G-vectors     FFT dimensions: (  64,  64, 288)

     Smooth grid:   135417 G-vectors     FFT dimensions: (  45,  45, 180)

     Largest allocated arrays     est. size (Mb)     dimensions
        Kohn-Sham Wavefunctions         1.24 Mb     (     563,  144)
        NL pseudopotentials             1.86 Mb     (     563,  216)
        Each V/rho on FFT grid          0.56 Mb     (   36864)
        Each G-vector array             0.13 Mb     (   16722)
        G-vector shells                 0.06 Mb     (    8095)
     Largest temporary arrays     est. size (Mb)     dimensions
        Auxiliary wavefunctions         4.95 Mb     (     563,  576)
        Each subspace H/S matrix        5.06 Mb     (     576,  576)
        Each <psi_i|beta_j> matrix      0.47 Mb     (     216,  144)
        Arrays for rho mixing           5.62 Mb     (   36864,   10)

     Initial potential from superposition of free atoms
     Check: negative starting charge=   -0.001629

     starting charge  218.99970, renormalised to  228.00000

     negative rho (up, down):  1.696E-03 0.000E+00


     ************************************************************************
     *
     * You are using vdW-DF for exchange-correlation in this calculation.
     * Please cite the following three references that made this development
     * possible:
     *
     *   M. Dion, H. Rydberg, E. Schroder, D. C. Langreth, and
     *   B. I. Lundqvist, Phys. Rev. Lett. 92, 246401 (2004).
     *
     *   T. Thonhauser, V. R. Cooper, S. Li, A. Puzder, P. Hyldgaard, and
     *   D. C. Langreth, Phys. Rev. B 76, 125112 (2007).
     *
     *   G. Roman-Perez and J. M. Soler, Phys. Rev. Lett. 103, 096102 (2009).
     *
     *
     * If you are using vdW-DF2, please also cite:
     *
     *   K. Lee, E. D. Murray, L. Kong, B. I. Lundqvist, and
     *   D. C. Langreth, Phys. Rev. B 82, 081101(R) (2010).
     *
     *
     * If you are calculating the stress with vdW-DF, please also cite:
     *
     *   R. Sabatini, E. Kucukbenli, B. Kolb, T. Thonhauser, and
     *   S. de Gironcoli, J. Phys.: Condens. Matter 24, 424209 (2012).
     *
     ************************************************************************

     Carrying out vdW-DF run using the following parameters:

     Nqs =      20    Nr_points =    1024   r_max =   100.000
     q_mesh =
               0.00001000     0.04494208     0.09755937     0.15916263
               0.23128650     0.31572767     0.41458969     0.53033537
               0.66584808     0.82450364     1.01025438     1.22772762
               1.48234092     1.78043706     2.12944203     2.53805004
               3.01644009     3.57652955     4.23227104     5.00000000

     Gradients computed in reciprocal space

     ************************************************************************


 
     Adding external electric field

     Computed dipole along edir(3) : 
        Dipole                0.0000 Ry au,          0.0000 Debye
        Dipole field          0.0000 Ry au
 
        Potential amp.       -0.0000 Ry
        Total length         45.2608 bohr
 
     Starting wfc are  156 randomized atomic wfcs

     total cpu time spent up to now is       20.0 secs

     per-process dynamical memory:    55.4 Mb

     Self-consistent Calculation

     iteration #  1     ecut=    36.75 Ry     beta=0.10
     Davidson diagonalization with overlap
     ethr =  1.00E-02,  avg # of iterations =  7.0
 
     Adding external electric field

     Computed dipole along edir(3) : 
        Dipole               -0.1154 Ry au,         -0.2933 Debye
        Dipole field         -0.0003 Ry au
 
        Potential amp.        0.0292 Ry
        Total length         45.2608 bohr
 

     total cpu time spent up to now is      114.8 secs

     total energy              =   -4207.74953834 Ry
     Harris-Foulkes estimate   =   -4216.65472012 Ry
     estimated scf accuracy    <      51.37084775 Ry

     iteration #  2     ecut=    36.75 Ry     beta=0.10
     Davidson diagonalization with overlap
     ethr =  1.00E-02,  avg # of iterations =  2.2
 
     Adding external electric field

     Computed dipole along edir(3) : 
        Dipole                0.0144 Ry au,          0.0367 Debye
        Dipole field          0.0000 Ry au
 
        Potential amp.       -0.0036 Ry
        Total length         45.2608 bohr
 

     total cpu time spent up to now is      161.7 secs

     total energy              =   -4209.48578377 Ry
     Harris-Foulkes estimate   =   -4211.16044406 Ry
     estimated scf accuracy    <       8.16025918 Ry

     iteration #  3     ecut=    36.75 Ry     beta=0.10
     Davidson diagonalization with overlap
     ethr =  3.58E-03,  avg # of iterations =  2.5
 
     Adding external electric field

     Computed dipole along edir(3) : 
        Dipole               -0.2933 Ry au,         -0.7455 Debye
        Dipole field         -0.0008 Ry au
 
        Potential amp.        0.0741 Ry
        Total length         45.2608 bohr
 

     total cpu time spent up to now is      208.4 secs

     total energy              =   -4209.24556358 Ry
     Harris-Foulkes estimate   =   -4209.91505153 Ry
     estimated scf accuracy    <       2.13956031 Ry

     iteration #  4     ecut=    36.75 Ry     beta=0.10
     Davidson diagonalization with overlap
     ethr =  9.38E-04,  avg # of iterations =  2.5
 
     Adding external electric field

     Computed dipole along edir(3) : 
        Dipole                0.0387 Ry au,          0.0982 Debye
        Dipole field          0.0001 Ry au
 
        Potential amp.       -0.0098 Ry
        Total length         45.2608 bohr
 

     total cpu time spent up to now is      259.1 secs

     total energy              =   -4209.41990341 Ry
     Harris-Foulkes estimate   =   -4209.49793464 Ry
     estimated scf accuracy    <       0.53951227 Ry

     iteration #  5     ecut=    36.75 Ry     beta=0.10
     Davidson diagonalization with overlap
     ethr =  2.37E-04,  avg # of iterations =  4.4
 
     Adding external electric field

     Computed dipole along edir(3) : 
        Dipole               -0.0456 Ry au,         -0.1160 Debye
        Dipole field         -0.0001 Ry au
 
        Potential amp.        0.0115 Ry
        Total length         45.2608 bohr
 

     total cpu time spent up to now is      311.9 secs

     total energy              =   -4209.42572922 Ry
     Harris-Foulkes estimate   =   -4209.45604354 Ry
     estimated scf accuracy    <       0.15965565 Ry

     iteration #  6     ecut=    36.75 Ry     beta=0.10
     Davidson diagonalization with overlap
     ethr =  7.00E-05,  avg # of iterations =  3.7
 
     Adding external electric field

     Computed dipole along edir(3) : 
        Dipole               -0.0363 Ry au,         -0.0924 Debye
        Dipole field         -0.0001 Ry au
 
        Potential amp.        0.0092 Ry
        Total length         45.2608 bohr
 

     total cpu time spent up to now is      362.1 secs

     total energy              =   -4209.41963333 Ry
     Harris-Foulkes estimate   =   -4209.43413645 Ry
     estimated scf accuracy    <       0.05075211 Ry

     iteration #  7     ecut=    36.75 Ry     beta=0.10
     Davidson diagonalization with overlap
     ethr =  2.23E-05,  avg # of iterations =  6.0

     negative rho (up, down):  1.243E-06 0.000E+00
 
     Adding external electric field

     Computed dipole along edir(3) : 
        Dipole                0.0051 Ry au,          0.0130 Debye
        Dipole field          0.0000 Ry au
 
        Potential amp.       -0.0013 Ry
        Total length         45.2608 bohr
 

     total cpu time spent up to now is      421.7 secs

     total energy              =   -4209.41687134 Ry
     Harris-Foulkes estimate   =   -4209.42392749 Ry
     estimated scf accuracy    <       0.02134992 Ry

     iteration #  8     ecut=    36.75 Ry     beta=0.10
     Davidson diagonalization with overlap
     ethr =  9.36E-06,  avg # of iterations =  4.7

     negative rho (up, down):  8.298E-06 0.000E+00
 
     Adding external electric field

     Computed dipole along edir(3) : 
        Dipole               -0.0155 Ry au,         -0.0393 Debye
        Dipole field         -0.0000 Ry au
 
        Potential amp.        0.0039 Ry
        Total length         45.2608 bohr
 

     total cpu time spent up to now is      487.6 secs

     total energy              =   -4209.41937661 Ry
     Harris-Foulkes estimate   =   -4209.42019729 Ry
     estimated scf accuracy    <       0.00649878 Ry

     iteration #  9     ecut=    36.75 Ry     beta=0.10
     Davidson diagonalization with overlap
     ethr =  2.85E-06,  avg # of iterations =  3.8

     negative rho (up, down):  1.874E-04 0.000E+00
 
     Adding external electric field

     Computed dipole along edir(3) : 
        Dipole               -0.0089 Ry au,         -0.0227 Debye
        Dipole field         -0.0000 Ry au
 
        Potential amp.        0.0023 Ry
        Total length         45.2608 bohr
 

     total cpu time spent up to now is      537.7 secs

     total energy              =   -4209.42011299 Ry
     Harris-Foulkes estimate   =   -4209.41994219 Ry
     estimated scf accuracy    <       0.00188045 Ry

     iteration # 10     ecut=    36.75 Ry     beta=0.10
     Davidson diagonalization with overlap
     ethr =  8.25E-07,  avg # of iterations =  4.7

     negative rho (up, down):  4.619E-04 0.000E+00
 
     Adding external electric field

     Computed dipole along edir(3) : 
        Dipole               -0.0060 Ry au,         -0.0151 Debye
        Dipole field         -0.0000 Ry au
 
        Potential amp.        0.0015 Ry
        Total length         45.2608 bohr
 

     total cpu time spent up to now is      593.0 secs

     total energy              =   -4209.42022809 Ry
     Harris-Foulkes estimate   =   -4209.42024892 Ry
     estimated scf accuracy    <       0.00083716 Ry

     iteration # 11     ecut=    36.75 Ry     beta=0.10
     Davidson diagonalization with overlap
     ethr =  3.67E-07,  avg # of iterations =  4.2

     negative rho (up, down):  1.445E-03 0.000E+00
 
     Adding external electric field

     Computed dipole along edir(3) : 
        Dipole                0.0009 Ry au,          0.0022 Debye
        Dipole field          0.0000 Ry au
 
        Potential amp.       -0.0002 Ry
        Total length         45.2608 bohr
 

     total cpu time spent up to now is      644.9 secs

     total energy              =   -4209.42040055 Ry
     Harris-Foulkes estimate   =   -4209.42030834 Ry
     estimated scf accuracy    <       0.00023982 Ry

     iteration # 12     ecut=    36.75 Ry     beta=0.10
     Davidson diagonalization with overlap
     ethr =  1.05E-07,  avg # of iterations =  3.2

     negative rho (up, down):  1.326E-03 0.000E+00
 
     Adding external electric field

     Computed dipole along edir(3) : 
        Dipole               -0.0006 Ry au,         -0.0014 Debye
        Dipole field         -0.0000 Ry au
 
        Potential amp.        0.0001 Ry
        Total length         45.2608 bohr
 

     total cpu time spent up to now is      697.6 secs

     total energy              =   -4209.42040009 Ry
     Harris-Foulkes estimate   =   -4209.42042678 Ry
     estimated scf accuracy    <       0.00009118 Ry

     iteration # 13     ecut=    36.75 Ry     beta=0.10
     Davidson diagonalization with overlap
     ethr =  4.00E-08,  avg # of iterations =  2.0

     negative rho (up, down):  1.633E-03 0.000E+00
 
     Adding external electric field

     Computed dipole along edir(3) : 
        Dipole                0.0001 Ry au,          0.0002 Debye
        Dipole field          0.0000 Ry au
 
        Potential amp.       -0.0000 Ry
        Total length         45.2608 bohr
 

     total cpu time spent up to now is      749.3 secs

     total energy              =   -4209.42042241 Ry
     Harris-Foulkes estimate   =   -4209.42041981 Ry
     estimated scf accuracy    <       0.00003954 Ry

     iteration # 14     ecut=    36.75 Ry     beta=0.10
     Davidson diagonalization with overlap
     ethr =  1.73E-08,  avg # of iterations =  2.0

     negative rho (up, down):  1.758E-03 0.000E+00
 
     Adding external electric field

     Computed dipole along edir(3) : 
        Dipole                0.0000 Ry au,          0.0000 Debye
        Dipole field          0.0000 Ry au
 
        Potential amp.       -0.0000 Ry
        Total length         45.2608 bohr
 

     total cpu time spent up to now is      795.4 secs

     total energy              =   -4209.42043073 Ry
     Harris-Foulkes estimate   =   -4209.42042700 Ry
     estimated scf accuracy    <       0.00000849 Ry

     iteration # 15     ecut=    36.75 Ry     beta=0.10
     Davidson diagonalization with overlap
     ethr =  3.72E-09,  avg # of iterations =  2.0

     negative rho (up, down):  1.730E-03 0.000E+00
 
     Adding external electric field

     Computed dipole along edir(3) : 
        Dipole                0.0001 Ry au,          0.0001 Debye
        Dipole field          0.0000 Ry au
 
        Potential amp.       -0.0000 Ry
        Total length         45.2608 bohr
 

     total cpu time spent up to now is      846.3 secs

     total energy              =   -4209.42043271 Ry
     Harris-Foulkes estimate   =   -4209.42043170 Ry
     estimated scf accuracy    <       0.00000428 Ry

     iteration # 16     ecut=    36.75 Ry     beta=0.10
     Davidson diagonalization with overlap
     ethr =  1.88E-09,  avg # of iterations =  2.5

     negative rho (up, down):  1.681E-03 0.000E+00

     negative rho (up, down):  1.681E-03 0.000E+00

     negative rho (up, down):  1.681E-03 0.000E+00

     negative rho (up, down):  1.681E-03 0.000E+00

     negative rho (up, down):  1.681E-03 0.000E+00

     negative rho (up, down):  1.681E-03 0.000E+00

     negative rho (up, down):  1.681E-03 0.000E+00

     negative rho (up, down):  1.681E-03 0.000E+00

     negative rho (up, down):  1.681E-03 0.000E+00

     negative rho (up, down):  1.681E-03 0.000E+00

     negative rho (up, down):  1.681E-03 0.000E+00

     negative rho (up, down):  1.681E-03 0.000E+00

     negative rho (up, down):  1.681E-03 0.000E+00

     negative rho (up, down):  1.681E-03 0.000E+00

     negative rho (up, down):  1.681E-03 0.000E+00

     negative rho (up, down):  1.681E-03 0.000E+00

     negative rho (up, down):  1.681E-03 0.000E+00

     negative rho (up, down):  1.681E-03 0.000E+00

     negative rho (up, down):  1.681E-03 0.000E+00

     negative rho (up, down):  1.681E-03 0.000E+00

     negative rho (up, down):  1.681E-03 0.000E+00

     negative rho (up, down):  1.681E-03 0.000E+00

     negative rho (up, down):  1.681E-03 0.000E+00

     negative rho (up, down):  1.681E-03 0.000E+00

     negative rho (up, down):  1.681E-03 0.000E+00

     negative rho (up, down):  1.681E-03 0.000E+00

     negative rho (up, down):  1.681E-03 0.000E+00

     negative rho (up, down):  1.681E-03 0.000E+00

     negative rho (up, down):  1.681E-03 0.000E+00

     negative rho (up, down):  1.681E-03 0.000E+00

     negative rho (up, down):  1.681E-03 0.000E+00

     negative rho (up, down):  1.681E-03 0.000E+00

     negative rho (up, down):  1.681E-03 0.000E+00

     negative rho (up, down):  1.681E-03 0.000E+00

     negative rho (up, down):  1.681E-03 0.000E+00
 
     Adding external electric field

     Computed dipole along edir(3) : 
        Dipole               -0.0010 Ry au,         -0.0027 Debye
        Dipole field         -0.0000 Ry au
 
        Potential amp.        0.0003 Ry
        Total length         45.2608 bohr
 

     total cpu time spent up to now is      948.1 secs

     End of self-consistent calculation

          k = 0.0000 0.0000 0.0000 ( 16927 PWs)   bands (ev):

  -111.4187-111.4178-111.1718-111.1714-111.1710-111.1706 -91.4748 -91.4682
   -91.2036 -91.2035 -91.1970 -91.1969 -68.8411 -68.8399 -68.8272 -68.8241
   -68.8229 -68.8130 -68.6046 -68.6042 -68.6035 -68.6031 -68.5916 -68.5912
   -68.5775 -68.5771 -68.5582 -68.5578 -68.5571 -68.5567 -55.0157 -54.9730
   -54.9649 -54.9551 -54.9469 -54.9219 -54.7494 -54.7493 -54.7050 -54.7033
   -54.6969 -54.6952 -54.6691 -54.6668 -54.6610 -54.6587 -54.6557 -54.6556
    -6.4497  -5.1957  -5.0822  -5.0810  -5.0761  -4.9543  -4.6618  -4.6461
    -4.6193  -4.4947  -4.4075  -4.3700  -4.3288  -4.1068  -3.9980  -3.7355
    -3.7305  -3.7271  -3.5006  -3.4662  -3.4171  -3.4119  -3.3654  -3.2960
    -3.2516  -3.1609  -3.1239  -3.1204  -3.0781  -2.8558  -2.7446  -2.2710
    -1.9036  -1.8199  -1.7229  -1.6844  -1.6463  -1.5714  -1.4887  -1.4656
    -1.4368  -1.4124  -1.3998  -1.3190  -1.1843  -1.1816  -1.1815  -1.1415
    -1.1304  -1.0472  -1.0172  -1.0094  -1.0005  -0.9972  -0.9803  -0.9244
    -0.8803  -0.8714  -0.7879  -0.7788  -0.7257  -0.7038  -0.4797   1.1131
     1.1572   1.1660   1.2647   1.8587   1.9524   2.2186   2.2441   2.4002
     3.0540   4.4293   4.4776   4.8932   4.9398   5.0087   5.2855   5.3267
     5.8828   6.0031   6.1554   6.3223   6.6664   6.7265   6.8231   8.5215
     8.5628   8.8210   8.8304   8.9290   9.0874   9.1888   9.9133  10.2459

          k = 0.0000 0.0340 0.0000 ( 16893 PWs)   bands (ev):

  -111.4186-111.4179-111.1718-111.1714-111.1710-111.1706 -91.4744 -91.4687
   -91.2031 -91.2031 -91.1974 -91.1974 -68.8410 -68.8400 -68.8262 -68.8240
   -68.8230 -68.8140 -68.6045 -68.6042 -68.6035 -68.6032 -68.5907 -68.5902
   -68.5785 -68.5781 -68.5581 -68.5577 -68.5572 -68.5568 -55.0095 -54.9725
   -54.9654 -54.9545 -54.9474 -54.9281 -54.7432 -54.7430 -54.7045 -54.7028
   -54.6975 -54.6957 -54.6685 -54.6662 -54.6619 -54.6618 -54.6615 -54.6592
    -6.2624  -5.1186  -5.0034  -4.9938  -4.9224  -4.8505  -4.6198  -4.5661
    -4.5188  -4.3973  -4.3733  -4.3366  -4.3177  -4.0550  -3.9951  -3.7580
    -3.7164  -3.6735  -3.5679  -3.4907  -3.4882  -3.4056  -3.3857  -3.3105
    -3.2088  -3.2066  -3.1871  -3.1514  -3.1174  -2.9535  -2.7986  -2.4181
    -1.8647  -1.8327  -1.8183  -1.7039  -1.6811  -1.6512  -1.5855  -1.5393
    -1.4750  -1.4723  -1.4032  -1.3479  -1.2314  -1.2234  -1.1926  -1.1726
    -1.1219  -1.1107  -1.0810  -1.0691  -1.0545  -1.0177  -1.0128  -0.9578
    -0.9341  -0.9142  -0.9102  -0.8694  -0.8161  -0.7918  -0.2445  -0.2423
     0.8425   0.9490   1.0422   1.5337   1.9419   2.3047   2.9057   3.0536
     3.6338   4.6519   4.9104   5.0556   5.1054   5.1751   5.4582   5.4923
     6.0096   6.1007   6.4745   6.9150   6.9548   7.0477   7.2541   8.3586
     8.6656   8.6972   8.6980   8.7791   8.7988   9.4505   9.5960   9.6281

          k = 0.0000 0.0680 0.0000 ( 16921 PWs)   bands (ev):

  -111.4185-111.4180-111.1716-111.1712-111.1712-111.1708 -91.4732 -91.4699
   -91.2019 -91.2019 -91.1986 -91.1986 -68.8408 -68.8402 -68.8238 -68.8236
   -68.8232 -68.8166 -68.6043 -68.6039 -68.6037 -68.6034 -68.5881 -68.5877
   -68.5810 -68.5806 -68.5579 -68.5575 -68.5574 -68.5570 -54.9924 -54.9711
   -54.9670 -54.9531 -54.9489 -54.9454 -54.7260 -54.7260 -54.7031 -54.7014
   -54.6990 -54.6973 -54.6791 -54.6791 -54.6671 -54.6647 -54.6630 -54.6607
    -5.7445  -4.9504  -4.8024  -4.7942  -4.6108  -4.5569  -4.5392  -4.4745
    -4.3684  -4.2583  -4.1742  -4.1415  -4.1025  -4.0251  -3.9237  -3.8974
    -3.7163  -3.7002  -3.6204  -3.5362  -3.5152  -3.4175  -3.4025  -3.3780
    -3.3694  -3.3281  -3.2983  -3.2321  -3.1760  -3.0295  -2.8885  -2.8791
    -2.5374  -2.1006  -1.8463  -1.7613  -1.7519  -1.7384  -1.6892  -1.5672
    -1.5120  -1.4773  -1.4381  -1.3813  -1.3190  -1.3172  -1.2784  -1.2574
    -1.2450  -1.2124  -1.2049  -1.1921  -1.1607  -1.1281  -1.0956  -1.0815
    -1.0574  -1.0043  -1.0000  -0.9864  -0.9771  -0.9229  -0.9056  -0.4453
     0.2857   0.7932   0.8667   1.9555   2.0979   2.1407   2.4229   3.9450
     4.2931   5.0050   5.1282   5.3084   5.6708   5.8157   6.0035   6.3723
     6.9562   6.9663   7.0348   7.2286   7.4153   7.5831   7.6671   7.8874
     8.0344   8.7134   8.8325   9.1001   9.1404   9.1476   9.2031   9.2196

          k = 0.0000-0.1021 0.0000 ( 16922 PWs)   bands (ev):

  -111.4183-111.4183-111.1714-111.1714-111.1710-111.1710 -91.4715 -91.4715
   -91.2003 -91.2003 -91.2002 -91.2002 -68.8405 -68.8405 -68.8235 -68.8235
   -68.8201 -68.8201 -68.6040 -68.6040 -68.6036 -68.6036 -68.5846 -68.5846
   -68.5842 -68.5842 -68.5577 -68.5577 -68.5572 -68.5572 -54.9691 -54.9691
   -54.9689 -54.9689 -54.9510 -54.9510 -54.7026 -54.7026 -54.7025 -54.7025
   -54.7011 -54.7011 -54.6994 -54.6994 -54.6650 -54.6650 -54.6627 -54.6627
    -5.1233  -5.1233  -4.6249  -4.6249  -4.5197  -4.5197  -4.4394  -4.4394
    -4.2066  -4.2066  -4.0954  -4.0954  -3.9063  -3.9063  -3.7571  -3.7571
    -3.6798  -3.6798  -3.6428  -3.6428  -3.5616  -3.5616  -3.5035  -3.5035
    -3.3775  -3.3775  -3.3324  -3.3324  -3.2186  -3.2186  -3.1761  -3.1761
    -2.5557  -2.5557  -1.9137  -1.9137  -1.6913  -1.6913  -1.6593  -1.6593
    -1.5299  -1.5299  -1.4568  -1.4568  -1.3479  -1.3479  -1.3205  -1.3205
    -1.2773  -1.2773  -1.2674  -1.2674  -1.2419  -1.2419  -1.1719  -1.1719
    -1.0831  -1.0831  -0.9999  -0.9999  -0.9607  -0.9607  -0.8902  -0.8902
     0.7790   0.7790   1.0651   1.0651   2.0434   2.0434   3.6180   3.6180
     4.2779   4.2779   5.9178   5.9178   6.5739   6.5739   6.6688   6.6688
     6.8357   6.8357   7.0976   7.0976   7.6061   7.6061   7.8707   7.8707
     8.2358   8.2358   8.4098   8.4098   9.0336   9.0336   9.4394   9.4394

          k = 0.0301-0.0159 0.0000 ( 16893 PWs)   bands (ev):

  -111.4186-111.4179-111.1718-111.1714-111.1710-111.1706 -91.4744 -91.4687
   -91.2031 -91.2031 -91.1974 -91.1974 -68.8410 -68.8400 -68.8262 -68.8240
   -68.8230 -68.8140 -68.6045 -68.6042 -68.6035 -68.6032 -68.5907 -68.5902
   -68.5785 -68.5781 -68.5581 -68.5577 -68.5572 -68.5568 -55.0095 -54.9725
   -54.9654 -54.9545 -54.9474 -54.9281 -54.7432 -54.7430 -54.7045 -54.7028
   -54.6975 -54.6957 -54.6685 -54.6662 -54.6619 -54.6618 -54.6615 -54.6592
    -6.2624  -5.1186  -5.0034  -4.9938  -4.9224  -4.8505  -4.6198  -4.5661
    -4.5188  -4.3973  -4.3733  -4.3366  -4.3177  -4.0550  -3.9951  -3.7580
    -3.7164  -3.6735  -3.5679  -3.4907  -3.4882  -3.4056  -3.3857  -3.3105
    -3.2088  -3.2066  -3.1871  -3.1514  -3.1174  -2.9535  -2.7986  -2.4181
    -1.8647  -1.8327  -1.8183  -1.7039  -1.6811  -1.6512  -1.5855  -1.5393
    -1.4750  -1.4723  -1.4032  -1.3479  -1.2314  -1.2234  -1.1926  -1.1726
    -1.1219  -1.1107  -1.0810  -1.0691  -1.0545  -1.0177  -1.0128  -0.9578
    -0.9341  -0.9142  -0.9102  -0.8694  -0.8161  -0.7918  -0.2445  -0.2423
     0.8425   0.9490   1.0422   1.5337   1.9419   2.3047   2.9057   3.0536
     3.6338   4.6519   4.9104   5.0556   5.1054   5.1751   5.4582   5.4923
     6.0096   6.1007   6.4745   6.9150   6.9548   7.0477   7.2541   8.3586
     8.6656   8.6972   8.6980   8.7791   8.7988   9.4505   9.5960   9.6281

          k = 0.0301 0.0181 0.0000 ( 16941 PWs)   bands (ev):

  -111.4187-111.4178-111.1718-111.1714-111.1710-111.1705 -91.4748 -91.4682
   -91.2036 -91.2035 -91.1970 -91.1969 -68.8411 -68.8399 -68.8272 -68.8241
   -68.8229 -68.8130 -68.6046 -68.6042 -68.6035 -68.6031 -68.5916 -68.5912
   -68.5775 -68.5771 -68.5582 -68.5578 -68.5571 -68.5567 -55.0158 -54.9731
   -54.9649 -54.9551 -54.9469 -54.9219 -54.7495 -54.7493 -54.7051 -54.7035
   -54.6969 -54.6952 -54.6690 -54.6667 -54.6610 -54.6587 -54.6557 -54.6556
    -6.2534  -5.1222  -5.0099  -4.9781  -4.9519  -4.9192  -4.6434  -4.6199
    -4.5380  -4.4283  -4.3863  -4.3446  -4.3164  -4.1287  -3.9863  -3.7371
    -3.7107  -3.6908  -3.5075  -3.4748  -3.4620  -3.3686  -3.3499  -3.3310
    -3.2101  -3.1322  -3.0930  -3.0678  -3.0384  -2.8725  -2.7320  -2.2766
    -1.9306  -1.8833  -1.7940  -1.7150  -1.7078  -1.6600  -1.5942  -1.5424
    -1.5369  -1.4574  -1.3811  -1.3643  -1.3300  -1.3137  -1.1967  -1.1875
    -1.1553  -1.1150  -1.1013  -1.0867  -1.0775  -1.0525  -0.9935  -0.9880
    -0.9631  -0.8899  -0.8524  -0.8414  -0.8269  -0.7663  -0.2538  -0.0678
     0.6762   0.8447   1.2381   1.5468   1.8247   1.8853   3.0243   3.0373
     3.4766   4.6742   4.7442   5.1393   5.1981   5.3056   5.4265   5.5193
     5.8283   6.4582   6.5037   6.8506   6.9522   7.1960   7.2479   8.4423
     8.4931   8.6427   8.7033   8.8484   9.2381   9.3350   9.6773   9.7171

          k = 0.0301 0.0521 0.0000 ( 16949 PWs)   bands (ev):

  -111.4186-111.4179-111.1718-111.1714-111.1710-111.1706 -91.4744 -91.4687
   -91.2031 -91.2031 -91.1974 -91.1974 -68.8410 -68.8400 -68.8262 -68.8240
   -68.8230 -68.8140 -68.6045 -68.6041 -68.6035 -68.6032 -68.5907 -68.5902
   -68.5785 -68.5781 -68.5581 -68.5577 -68.5572 -68.5568 -55.0096 -54.9727
   -54.9655 -54.9546 -54.9474 -54.9282 -54.7432 -54.7431 -54.7046 -54.7030
   -54.6974 -54.6958 -54.6685 -54.6662 -54.6620 -54.6619 -54.6615 -54.6593
    -5.8884  -4.9932  -4.8819  -4.8397  -4.7904  -4.7064  -4.5408  -4.5056
    -4.4657  -4.3262  -4.3079  -4.2910  -4.2821  -4.0840  -3.9959  -3.7667
    -3.6789  -3.6389  -3.6341  -3.4734  -3.4672  -3.4316  -3.3894  -3.2965
    -3.2404  -3.1637  -3.1291  -3.0471  -3.0254  -2.9349  -2.7971  -2.4451
    -2.0683  -2.0229  -1.8970  -1.8407  -1.8358  -1.7601  -1.6870  -1.6366
    -1.5830  -1.5776  -1.4773  -1.4007  -1.3834  -1.3747  -1.3154  -1.2690
    -1.2312  -1.2163  -1.2089  -1.1681  -1.1598  -1.1466  -1.0706  -1.0229
    -1.0204  -0.9852  -0.9631  -0.9167  -0.9035  -0.8355  -0.5663  -0.4352
     0.1519   0.3933   0.6765   2.1521   2.1729   2.7179   2.8271   3.0739
     3.2850   4.9885   5.0004   5.5162   5.7081   5.8400   5.9725   5.9762
     6.4421   6.8335   6.8594   6.9682   7.3000   7.6449   7.8788   8.1104
     8.5497   8.6879   8.8399   8.9638   9.0266   9.0868   9.2017   9.2407

          k = 0.0301-0.1180 0.0000 ( 16913 PWs)   bands (ev):

  -111.4185-111.4180-111.1716-111.1712-111.1712-111.1708 -91.4732 -91.4699
   -91.2019 -91.2019 -91.1986 -91.1986 -68.8408 -68.8402 -68.8238 -68.8236
   -68.8232 -68.8166 -68.6043 -68.6039 -68.6037 -68.6034 -68.5881 -68.5877
   -68.5811 -68.5806 -68.5579 -68.5575 -68.5574 -68.5570 -54.9924 -54.9712
   -54.9670 -54.9531 -54.9489 -54.9453 -54.7260 -54.7260 -54.7031 -54.7015
   -54.6990 -54.6973 -54.6791 -54.6790 -54.6670 -54.6648 -54.6630 -54.6607
    -5.2756  -4.8692  -4.7266  -4.6522  -4.5625  -4.5074  -4.4146  -4.3715
    -4.3332  -4.2771  -4.1739  -4.0818  -4.0487  -4.0204  -3.9697  -3.9245
    -3.7236  -3.7201  -3.6140  -3.5345  -3.4856  -3.4649  -3.4291  -3.3699
    -3.3526  -3.3172  -3.2628  -3.1687  -3.1376  -3.0197  -2.9938  -2.8293
    -2.7234  -2.2434  -2.2039  -1.9099  -1.7789  -1.7390  -1.7006  -1.6942
    -1.6402  -1.5560  -1.5542  -1.4639  -1.4358  -1.3937  -1.3381  -1.3218
    -1.3150  -1.2719  -1.2331  -1.2276  -1.2194  -1.1756  -1.1732  -1.0525
    -1.0460  -1.0254  -1.0127  -0.9943  -0.9888  -0.9428  -0.9018  -0.6209
    -0.4240   0.4872   0.7994   1.6424   2.5379   2.8350   3.2061   3.8040
     4.1974   4.4223   5.6387   5.7421   5.8612   6.2518   6.3065   6.5022
     6.5325   7.0940   7.2597   7.4959   7.5519   7.6585   7.8016   7.9132
     8.3808   8.5050   8.6718   8.7539   8.7566   8.8472   9.1125   9.3771

          k = 0.0301-0.0840 0.0000 ( 16904 PWs)   bands (ev):

  -111.4183-111.4183-111.1714-111.1714-111.1710-111.1710 -91.4715 -91.4715
   -91.2003 -91.2003 -91.2002 -91.2002 -68.8405 -68.8405 -68.8235 -68.8235
   -68.8201 -68.8201 -68.6040 -68.6040 -68.6036 -68.6036 -68.5846 -68.5846
   -68.5842 -68.5842 -68.5577 -68.5577 -68.5572 -68.5572 -54.9691 -54.9690
   -54.9689 -54.9689 -54.9510 -54.9510 -54.7026 -54.7025 -54.7025 -54.7025
   -54.7011 -54.7010 -54.6994 -54.6994 -54.6650 -54.6650 -54.6627 -54.6627
    -5.3302  -4.8651  -4.6578  -4.6026  -4.5417  -4.5170  -4.4544  -4.4046
    -4.2068  -4.1668  -4.1540  -4.0587  -3.9046  -3.8923  -3.7679  -3.7408
    -3.7309  -3.7010  -3.6484  -3.6078  -3.5721  -3.5674  -3.5348  -3.4781
    -3.4387  -3.4259  -3.3556  -3.2801  -3.2593  -3.2475  -3.1125  -2.9398
    -2.7984  -2.5740  -1.9013  -1.8267  -1.7800  -1.6952  -1.6848  -1.6004
    -1.4773  -1.4667  -1.4482  -1.3949  -1.3662  -1.3469  -1.3221  -1.3071
    -1.2802  -1.2705  -1.2505  -1.2255  -1.2200  -1.1802  -1.1138  -1.1058
    -1.0622  -1.0385  -1.0340  -1.0204  -0.9872  -0.9728  -0.9433  -0.6481
    -0.4170   0.4403   0.7556   1.7019   2.5808   2.7765   3.1455   3.9269
     4.5005   4.9309   5.5867   5.7007   6.0008   6.1822   6.3772   6.4915
     6.5954   6.7947   7.3300   7.4497   7.5045   7.5673   7.7344   7.7855
     7.8987   8.3840   8.4683   8.5545   8.6538   8.7414   8.9208   9.3462

          k = 0.0301-0.0499 0.0000 ( 16935 PWs)   bands (ev):

  -111.4185-111.4180-111.1716-111.1712-111.1712-111.1708 -91.4732 -91.4699
   -91.2019 -91.2019 -91.1986 -91.1986 -68.8408 -68.8402 -68.8238 -68.8236
   -68.8232 -68.8166 -68.6043 -68.6039 -68.6038 -68.6034 -68.5881 -68.5877
   -68.5811 -68.5806 -68.5579 -68.5575 -68.5574 -68.5570 -54.9924 -54.9711
   -54.9670 -54.9530 -54.9490 -54.9454 -54.7261 -54.7260 -54.7031 -54.7014
   -54.6991 -54.6973 -54.6791 -54.6791 -54.6671 -54.6647 -54.6630 -54.6607
    -5.9190  -4.9836  -4.8655  -4.8366  -4.6670  -4.6217  -4.5495  -4.5077
    -4.3775  -4.2636  -4.1591  -4.1530  -4.1501  -4.0185  -3.9199  -3.8706
    -3.7212  -3.7147  -3.5898  -3.5855  -3.4708  -3.4382  -3.4024  -3.3970
    -3.3683  -3.3269  -3.2782  -3.2659  -3.1669  -3.1218  -2.9118  -2.8602
    -2.3392  -2.0801  -1.8277  -1.7544  -1.7072  -1.6236  -1.6059  -1.5924
    -1.4787  -1.4369  -1.3882  -1.2983  -1.2851  -1.2728  -1.2345  -1.2308
    -1.1901  -1.1699  -1.1386  -1.1373  -1.1311  -1.0898  -1.0665  -1.0478
    -1.0292  -1.0128  -0.9990  -0.9447  -0.9355  -0.9306  -0.4975  -0.4748
     0.1252   0.4106   0.5451   2.1267   2.3808   2.8688   2.8764   3.1691
     3.9361   4.9155   5.2597   5.4729   5.7344   5.8052   5.8198   6.1031
     6.2390   6.5010   6.8453   7.1202   7.2986   7.4250   7.7423   8.0609
     8.1869   8.4638   8.7637   8.7897   8.9649   8.9731   8.9977   9.0678

          k = 0.0601-0.0318 0.0000 ( 16921 PWs)   bands (ev):

  -111.4185-111.4180-111.1716-111.1712-111.1712-111.1708 -91.4732 -91.4699
   -91.2019 -91.2019 -91.1986 -91.1986 -68.8408 -68.8402 -68.8238 -68.8236
   -68.8232 -68.8166 -68.6043 -68.6039 -68.6037 -68.6034 -68.5881 -68.5877
   -68.5810 -68.5806 -68.5579 -68.5575 -68.5574 -68.5570 -54.9924 -54.9711
   -54.9670 -54.9531 -54.9489 -54.9454 -54.7260 -54.7260 -54.7031 -54.7014
   -54.6990 -54.6973 -54.6791 -54.6791 -54.6671 -54.6647 -54.6630 -54.6607
    -5.7445  -4.9504  -4.8024  -4.7942  -4.6108  -4.5569  -4.5392  -4.4745
    -4.3684  -4.2583  -4.1742  -4.1415  -4.1025  -4.0251  -3.9237  -3.8974
    -3.7163  -3.7002  -3.6204  -3.5362  -3.5152  -3.4175  -3.4025  -3.3780
    -3.3694  -3.3281  -3.2983  -3.2321  -3.1760  -3.0295  -2.8885  -2.8791
    -2.5374  -2.1006  -1.8463  -1.7613  -1.7519  -1.7384  -1.6892  -1.5672
    -1.5120  -1.4773  -1.4381  -1.3813  -1.3190  -1.3172  -1.2784  -1.2574
    -1.2450  -1.2124  -1.2049  -1.1921  -1.1607  -1.1281  -1.0956  -1.0815
    -1.0574  -1.0043  -1.0000  -0.9864  -0.9771  -0.9229  -0.9056  -0.4453
     0.2857   0.7932   0.8667   1.9555   2.0979   2.1407   2.4229   3.9450
     4.2931   5.0050   5.1282   5.3084   5.6708   5.8157   6.0035   6.3723
     6.9562   6.9663   7.0348   7.2286   7.4153   7.5831   7.6671   7.8874
     8.0344   8.7134   8.8325   9.1001   9.1404   9.1476   9.2031   9.2196

          k = 0.0601 0.0022 0.0000 ( 16949 PWs)   bands (ev):

  -111.4186-111.4179-111.1718-111.1714-111.1710-111.1706 -91.4744 -91.4687
   -91.2031 -91.2031 -91.1974 -91.1974 -68.8410 -68.8400 -68.8262 -68.8240
   -68.8230 -68.8140 -68.6045 -68.6041 -68.6035 -68.6032 -68.5907 -68.5902
   -68.5785 -68.5781 -68.5581 -68.5577 -68.5572 -68.5568 -55.0096 -54.9727
   -54.9655 -54.9546 -54.9474 -54.9282 -54.7432 -54.7431 -54.7046 -54.7030
   -54.6974 -54.6958 -54.6685 -54.6662 -54.6620 -54.6619 -54.6615 -54.6593
    -5.8884  -4.9932  -4.8819  -4.8397  -4.7904  -4.7064  -4.5408  -4.5056
    -4.4657  -4.3262  -4.3079  -4.2910  -4.2821  -4.0840  -3.9959  -3.7667
    -3.6789  -3.6389  -3.6341  -3.4734  -3.4672  -3.4316  -3.3894  -3.2965
    -3.2404  -3.1637  -3.1291  -3.0471  -3.0254  -2.9349  -2.7971  -2.4451
    -2.0683  -2.0229  -1.8970  -1.8407  -1.8358  -1.7601  -1.6870  -1.6366
    -1.5830  -1.5776  -1.4773  -1.4007  -1.3834  -1.3747  -1.3154  -1.2690
    -1.2312  -1.2163  -1.2089  -1.1681  -1.1598  -1.1466  -1.0706  -1.0229
    -1.0204  -0.9852  -0.9631  -0.9167  -0.9035  -0.8355  -0.5663  -0.4352
     0.1519   0.3933   0.6765   2.1521   2.1729   2.7179   2.8271   3.0739
     3.2850   4.9885   5.0004   5.5162   5.7081   5.8400   5.9725   5.9762
     6.4421   6.8335   6.8594   6.9682   7.3000   7.6449   7.8788   8.1104
     8.5497   8.6880   8.8399   8.9638   9.0266   9.0868   9.2017   9.2407

          k = 0.0601 0.0362 0.0000 ( 16959 PWs)   bands (ev):

  -111.4187-111.4178-111.1718-111.1714-111.1710-111.1705 -91.4748 -91.4683
   -91.2036 -91.2035 -91.1970 -91.1970 -68.8411 -68.8399 -68.8271 -68.8241
   -68.8229 -68.8130 -68.6046 -68.6042 -68.6035 -68.6031 -68.5916 -68.5912
   -68.5775 -68.5771 -68.5582 -68.5578 -68.5571 -68.5567 -55.0159 -54.9733
   -54.9650 -54.9551 -54.9469 -54.9218 -54.7496 -54.7494 -54.7052 -54.7035
   -54.6970 -54.6954 -54.6690 -54.6668 -54.6609 -54.6587 -54.6557 -54.6556
    -5.7181  -4.9804  -4.9052  -4.8110  -4.7461  -4.7271  -4.6100  -4.5208
    -4.3905  -4.3149  -4.3015  -4.2782  -4.1767  -4.1694  -3.9520  -3.7256
    -3.6647  -3.6496  -3.6488  -3.4493  -3.4355  -3.3910  -3.3021  -3.2388
    -3.2061  -3.0405  -3.0219  -2.9766  -2.9636  -2.8989  -2.7081  -2.4152
    -2.2874  -2.0587  -1.9739  -1.9356  -1.9292  -1.7659  -1.7099  -1.6866
    -1.6588  -1.6295  -1.5934  -1.4917  -1.4888  -1.3771  -1.3640  -1.3448
    -1.3205  -1.2938  -1.2705  -1.2253  -1.2189  -1.1513  -1.1189  -1.0705
    -1.0613  -1.0189  -1.0024  -0.9499  -0.8779  -0.8677  -0.7857  -0.2687
     0.3331   0.4223   0.6599   1.6399   1.8957   2.2286   2.4751   3.8624
     3.9509   5.1419   5.1781   5.2066   5.7197   5.8207   6.0334   6.4432
     6.7988   7.0335   7.1587   7.4138   7.4496   7.4719   7.8625   8.1893
     8.3144   8.6388   9.1374   9.1386   9.1635   9.2705   9.3045   9.4410

          k = 0.0601-0.1339 0.0000 ( 16992 PWs)   bands (ev):

  -111.4186-111.4179-111.1718-111.1714-111.1710-111.1706 -91.4744 -91.4687
   -91.2031 -91.2031 -91.1974 -91.1974 -68.8410 -68.8400 -68.8262 -68.8240
   -68.8230 -68.8140 -68.6045 -68.6041 -68.6035 -68.6031 -68.5906 -68.5902
   -68.5785 -68.5781 -68.5581 -68.5577 -68.5572 -68.5568 -55.0097 -54.9728
   -54.9656 -54.9547 -54.9474 -54.9282 -54.7433 -54.7432 -54.7048 -54.7031
   -54.6976 -54.6959 -54.6684 -54.6663 -54.6620 -54.6619 -54.6615 -54.6593
    -5.2740  -4.8699  -4.8223  -4.6838  -4.6620  -4.5526  -4.4498  -4.4456
    -4.4165  -4.3357  -4.2654  -4.1646  -4.1013  -4.0928  -3.9931  -3.8483
    -3.6762  -3.6134  -3.5972  -3.5165  -3.4518  -3.4187  -3.3345  -3.2282
    -3.1962  -3.1349  -3.0929  -3.0028  -2.9965  -2.9365  -2.7818  -2.6620
    -2.5444  -2.4114  -2.0101  -1.9264  -1.8945  -1.8848  -1.7929  -1.7592
    -1.7038  -1.6699  -1.6675  -1.5599  -1.4950  -1.4840  -1.4252  -1.3735
    -1.3493  -1.3002  -1.2784  -1.2601  -1.2334  -1.2173  -1.1411  -1.0938
    -1.0924  -1.0427  -0.9747  -0.9457  -0.9174  -0.8981  -0.8433  -0.5483
    -0.5482   0.3077   0.8147   1.7827   2.1021   2.6283   3.2361   3.4898
     4.5679   4.6563   5.5444   5.6691   5.8356   6.2834   6.3856   6.5658
     6.6773   6.9218   7.4148   7.4741   7.5870   7.6575   7.9606   8.0089
     8.1654   8.3409   8.4810   8.6902   8.7347   8.9843   9.3215   9.5497

          k = 0.0601-0.0999 0.0000 ( 16932 PWs)   bands (ev):

  -111.4185-111.4180-111.1716-111.1712-111.1712-111.1708 -91.4732 -91.4699
   -91.2019 -91.2019 -91.1986 -91.1986 -68.8408 -68.8402 -68.8238 -68.8236
   -68.8232 -68.8166 -68.6043 -68.6039 -68.6037 -68.6034 -68.5881 -68.5877
   -68.5811 -68.5806 -68.5579 -68.5575 -68.5574 -68.5570 -54.9924 -54.9712
   -54.9670 -54.9531 -54.9489 -54.9453 -54.7261 -54.7260 -54.7032 -54.7015
   -54.6990 -54.6974 -54.6791 -54.6790 -54.6669 -54.6647 -54.6630 -54.6608
    -4.8185  -4.7662  -4.7586  -4.6822  -4.5331  -4.4684  -4.4062  -4.3815
    -4.3120  -4.2302  -4.1163  -4.0640  -4.0403  -4.0217  -3.9681  -3.9303
    -3.7951  -3.7178  -3.6018  -3.5386  -3.5090  -3.4710  -3.4400  -3.3400
    -3.3352  -3.3105  -3.2697  -3.1253  -3.0830  -3.0438  -3.0181  -2.9327
    -2.8792  -2.3930  -2.2937  -1.9256  -1.8356  -1.7921  -1.7816  -1.7170
    -1.6874  -1.6053  -1.4775  -1.4675  -1.4662  -1.4408  -1.3596  -1.3373
    -1.3010  -1.2798  -1.2555  -1.2281  -1.1932  -1.1438  -1.1206  -1.0810
    -1.0594  -1.0306  -1.0299  -1.0085  -0.9866  -0.9750  -0.9075  -0.6238
    -0.5933  -0.5853   1.5235   1.5689   1.6675   3.9951   4.2122   4.3485
     4.3510   4.5803   4.7244   5.3512   6.1581   6.3029   6.4817   6.4888
     6.5955   7.0705   7.1974   7.2104   7.3107   7.4415   7.4445   7.5499
     8.0793   8.4052   8.4788   8.4921   8.6151   8.7893   8.8013   8.9398

          k = 0.0601-0.0659 0.0000 ( 16904 PWs)   bands (ev):

  -111.4183-111.4183-111.1714-111.1714-111.1710-111.1710 -91.4715 -91.4715
   -91.2003 -91.2003 -91.2002 -91.2002 -68.8405 -68.8405 -68.8235 -68.8235
   -68.8201 -68.8201 -68.6040 -68.6040 -68.6036 -68.6036 -68.5846 -68.5846
   -68.5842 -68.5842 -68.5577 -68.5577 -68.5572 -68.5572 -54.9691 -54.9690
   -54.9689 -54.9689 -54.9510 -54.9510 -54.7026 -54.7025 -54.7025 -54.7025
   -54.7011 -54.7010 -54.6994 -54.6994 -54.6650 -54.6650 -54.6627 -54.6627
    -5.3302  -4.8651  -4.6578  -4.6026  -4.5417  -4.5170  -4.4544  -4.4046
    -4.2068  -4.1668  -4.1540  -4.0587  -3.9046  -3.8923  -3.7679  -3.7408
    -3.7309  -3.7010  -3.6484  -3.6078  -3.5721  -3.5674  -3.5348  -3.4781
    -3.4387  -3.4259  -3.3556  -3.2801  -3.2593  -3.2475  -3.1125  -2.9398
    -2.7984  -2.5740  -1.9013  -1.8267  -1.7800  -1.6952  -1.6848  -1.6004
    -1.4773  -1.4667  -1.4482  -1.3949  -1.3662  -1.3469  -1.3221  -1.3071
    -1.2802  -1.2705  -1.2505  -1.2255  -1.2200  -1.1802  -1.1138  -1.1058
    -1.0622  -1.0385  -1.0340  -1.0204  -0.9872  -0.9728  -0.9433  -0.6481
    -0.4170   0.4403   0.7556   1.7019   2.5808   2.7765   3.1455   3.9269
     4.5005   4.9309   5.5867   5.7007   6.0008   6.1822   6.3772   6.4915
     6.5954   6.7947   7.3300   7.4497   7.5045   7.5673   7.7344   7.7855
     7.8987   8.3840   8.4683   8.5545   8.6538   8.7414   8.9208   9.3462

          k =-0.0902 0.0477 0.0000 ( 16922 PWs)   bands (ev):

  -111.4183-111.4183-111.1714-111.1714-111.1710-111.1710 -91.4715 -91.4715
   -91.2003 -91.2003 -91.2002 -91.2002 -68.8405 -68.8405 -68.8235 -68.8235
   -68.8201 -68.8201 -68.6040 -68.6040 -68.6036 -68.6036 -68.5846 -68.5846
   -68.5842 -68.5842 -68.5577 -68.5577 -68.5572 -68.5572 -54.9691 -54.9691
   -54.9689 -54.9689 -54.9510 -54.9510 -54.7026 -54.7026 -54.7025 -54.7025
   -54.7011 -54.7011 -54.6994 -54.6994 -54.6650 -54.6650 -54.6627 -54.6627
    -5.1233  -5.1233  -4.6249  -4.6249  -4.5197  -4.5197  -4.4394  -4.4394
    -4.2066  -4.2066  -4.0954  -4.0954  -3.9063  -3.9063  -3.7571  -3.7571
    -3.6798  -3.6798  -3.6428  -3.6428  -3.5616  -3.5616  -3.5035  -3.5035
    -3.3775  -3.3775  -3.3324  -3.3324  -3.2186  -3.2186  -3.1761  -3.1761
    -2.5557  -2.5557  -1.9137  -1.9137  -1.6913  -1.6913  -1.6593  -1.6593
    -1.5299  -1.5299  -1.4568  -1.4568  -1.3479  -1.3479  -1.3205  -1.3205
    -1.2773  -1.2773  -1.2674  -1.2674  -1.2419  -1.2419  -1.1719  -1.1719
    -1.0831  -1.0831  -0.9999  -0.9999  -0.9607  -0.9607  -0.8902  -0.8902
     0.7790   0.7790   1.0651   1.0651   2.0434   2.0434   3.6180   3.6180
     4.2779   4.2779   5.9178   5.9178   6.5739   6.5739   6.6688   6.6688
     6.8357   6.8357   7.0976   7.0976   7.6061   7.6061   7.8707   7.8707
     8.2358   8.2358   8.4098   8.4098   9.0336   9.0336   9.4394   9.4394

          k =-0.0902 0.0818 0.0000 ( 16913 PWs)   bands (ev):

  -111.4185-111.4180-111.1716-111.1712-111.1712-111.1708 -91.4732 -91.4699
   -91.2019 -91.2019 -91.1986 -91.1986 -68.8408 -68.8402 -68.8238 -68.8236
   -68.8232 -68.8166 -68.6043 -68.6039 -68.6037 -68.6034 -68.5881 -68.5877
   -68.5811 -68.5806 -68.5579 -68.5575 -68.5574 -68.5570 -54.9924 -54.9712
   -54.9670 -54.9531 -54.9489 -54.9453 -54.7260 -54.7260 -54.7031 -54.7015
   -54.6990 -54.6973 -54.6791 -54.6790 -54.6670 -54.6648 -54.6630 -54.6607
    -5.2756  -4.8692  -4.7266  -4.6522  -4.5625  -4.5074  -4.4146  -4.3715
    -4.3332  -4.2771  -4.1739  -4.0818  -4.0487  -4.0204  -3.9697  -3.9245
    -3.7236  -3.7201  -3.6140  -3.5345  -3.4856  -3.4649  -3.4291  -3.3699
    -3.3526  -3.3172  -3.2628  -3.1687  -3.1376  -3.0197  -2.9938  -2.8293
    -2.7234  -2.2434  -2.2039  -1.9099  -1.7789  -1.7390  -1.7006  -1.6942
    -1.6402  -1.5560  -1.5542  -1.4639  -1.4358  -1.3937  -1.3381  -1.3218
    -1.3150  -1.2719  -1.2331  -1.2276  -1.2194  -1.1756  -1.1732  -1.0525
    -1.0460  -1.0254  -1.0127  -0.9943  -0.9888  -0.9428  -0.9018  -0.6209
    -0.4240   0.4872   0.7994   1.6424   2.5379   2.8350   3.2061   3.8040
     4.1974   4.4223   5.6387   5.7421   5.8612   6.2518   6.3065   6.5022
     6.5325   7.0940   7.2597   7.4959   7.5519   7.6585   7.8016   7.9132
     8.3808   8.5050   8.6718   8.7539   8.7566   8.8472   9.1125   9.3771

          k =-0.0902 0.1158 0.0000 ( 16992 PWs)   bands (ev):

  -111.4186-111.4179-111.1718-111.1714-111.1710-111.1706 -91.4744 -91.4687
   -91.2031 -91.2031 -91.1974 -91.1974 -68.8410 -68.8400 -68.8262 -68.8240
   -68.8230 -68.8140 -68.6045 -68.6041 -68.6035 -68.6031 -68.5906 -68.5902
   -68.5785 -68.5781 -68.5581 -68.5577 -68.5572 -68.5568 -55.0097 -54.9728
   -54.9656 -54.9547 -54.9474 -54.9282 -54.7433 -54.7432 -54.7048 -54.7031
   -54.6976 -54.6959 -54.6684 -54.6663 -54.6620 -54.6619 -54.6615 -54.6593
    -5.2740  -4.8699  -4.8223  -4.6838  -4.6620  -4.5526  -4.4498  -4.4456
    -4.4165  -4.3357  -4.2654  -4.1646  -4.1013  -4.0928  -3.9931  -3.8483
    -3.6762  -3.6134  -3.5972  -3.5165  -3.4518  -3.4187  -3.3345  -3.2282
    -3.1962  -3.1349  -3.0929  -3.0028  -2.9965  -2.9365  -2.7818  -2.6620
    -2.5444  -2.4114  -2.0101  -1.9264  -1.8945  -1.8848  -1.7929  -1.7592
    -1.7038  -1.6699  -1.6675  -1.5599  -1.4950  -1.4840  -1.4252  -1.3735
    -1.3493  -1.3002  -1.2784  -1.2601  -1.2334  -1.2173  -1.1411  -1.0938
    -1.0924  -1.0427  -0.9747  -0.9457  -0.9174  -0.8981  -0.8433  -0.5483
    -0.5482   0.3077   0.8147   1.7827   2.1021   2.6283   3.2361   3.4898
     4.5679   4.6563   5.5444   5.6691   5.8356   6.2834   6.3856   6.5658
     6.6773   6.9218   7.4148   7.4741   7.5870   7.6575   7.9606   8.0089
     8.1654   8.3409   8.4810   8.6902   8.7347   8.9843   9.3215   9.5497

          k =-0.0902-0.0543 0.0000 ( 16976 PWs)   bands (ev):

  -111.4187-111.4178-111.1718-111.1714-111.1710-111.1705 -91.4748 -91.4683
   -91.2036 -91.2035 -91.1970 -91.1970 -68.8410 -68.8399 -68.8271 -68.8241
   -68.8229 -68.8130 -68.6046 -68.6042 -68.6034 -68.6031 -68.5916 -68.5912
   -68.5775 -68.5771 -68.5582 -68.5578 -68.5571 -68.5567 -55.0160 -54.9733
   -54.9650 -54.9552 -54.9468 -54.9218 -54.7496 -54.7495 -54.7053 -54.7036
   -54.6970 -54.6954 -54.6690 -54.6669 -54.6608 -54.6587 -54.6557 -54.6555
    -5.2112  -4.9803  -4.9145  -4.7264  -4.6387  -4.6338  -4.5021  -4.4563
    -4.4239  -4.2880  -4.2474  -4.2196  -4.1625  -4.0886  -3.9306  -3.7852
    -3.6422  -3.6397  -3.4616  -3.4342  -3.4088  -3.3629  -3.2640  -3.1672
    -3.1638  -3.1035  -3.0508  -2.9947  -2.9646  -2.9151  -2.8913  -2.6967
    -2.3184  -2.2770  -2.0617  -1.9948  -1.9322  -1.9302  -1.7976  -1.7597
    -1.7507  -1.6802  -1.6757  -1.6463  -1.5629  -1.5547  -1.4455  -1.4211
    -1.3805  -1.3519  -1.3452  -1.3200  -1.2259  -1.1837  -1.1505  -1.1228
    -1.1077  -1.0786  -1.0641  -0.9583  -0.8814  -0.8667  -0.8599  -0.7879
     0.3765   0.6271   1.0688   1.1930   1.5800   1.9018   3.7047   3.7092
     3.8567   4.1421   6.0090   6.0142   6.6657   6.6830   6.7005   6.8590
     6.8626   6.9379   6.9419   7.3449   7.5295   7.6186   7.9585   7.9782
     8.3019   8.3296   8.6285   8.7847   8.8077   8.9330   9.1204   9.5748

     the Fermi energy is     0.8017 ev

!    total energy              =   -4209.42044070 Ry
     Harris-Foulkes estimate   =   -4209.42043354 Ry
     estimated scf accuracy    <       0.00000094 Ry

     The total energy is the sum of the following terms:

     one-electron contribution =  -30564.27481013 Ry
     hartree contribution      =   15285.23424442 Ry
     xc contribution           =    -420.54429834 Ry
     ewald contribution        =   11490.19051196 Ry
     electric field correction =       0.00000000 Ry
     smearing contrib. (-TS)   =      -0.02608861 Ry

     convergence has been achieved in  16 iterations
 
 BEEF-vdW xc energy contributions
           1 :   -369.260149904131     
           2 :    334.639094195536     
           3 :   -276.355560474793     
           4 :    211.117464395451     
           5 :   -154.125137484089     
           6 :    113.554759520433     
           7 :   -89.1939874157065     
           8 :    75.1632089172857     
           9 :   -64.5811746255671     
          10 :    53.3654712640309     
          11 :   -41.3638963625382     
          12 :    30.8575203398849     
          13 :   -23.9971342934723     
          14 :    21.0304736505742     
          15 :   -20.2853090683927     
          16 :    19.5322305638707     
          17 :   -17.5189571979721     
          18 :    14.5721736543945     
          19 :   -11.9981505464500     
          20 :    10.8893873290463     
          21 :   -11.2731452750896     
          22 :    12.1599942947880     
          23 :   -12.3424366701124     
          24 :    11.2796985600221     
          25 :   -9.42673720200560     
          26 :    7.82623206550937     
          27 :   -7.32157468190474     
          28 :    7.97567185904495     
          29 :   -9.08508062338859     
          30 :    9.72720800486024     
          31 :   -32.4676135002260     
          32 :   -22.8596112634206     

     Forces acting on atoms (Ry/au):


     negative rho (up, down):  1.681E-03 0.000E+00
     atom    1 type  1   force =     0.00489604    0.00294842    0.00711675
     atom    2 type  1   force =     0.00489550    0.00294827    0.00711651
     atom    3 type  2   force =    -0.00535953   -0.00322745   -0.00619230
     atom    4 type  2   force =    -0.00535937   -0.00322745   -0.00619237
     atom    5 type  1   force =    -0.00003939   -0.00002425   -0.00007539
     atom    6 type  1   force =    -0.00003864   -0.00002399   -0.00007497
     atom    7 type  2   force =     0.00002534    0.00001518    0.00002833
     atom    8 type  2   force =     0.00002538    0.00001531    0.00002836
     atom    9 type  1   force =    -0.00488390   -0.00294051   -0.00719252
     atom   10 type  1   force =    -0.00488589   -0.00294164   -0.00719070
     atom   11 type  2   force =     0.00536231    0.00322892    0.00631419
     atom   12 type  2   force =     0.00536215    0.00322918    0.00631409

     Total force =     0.025459     Total SCF correction =     0.003308
     SCF correction compared to forces is large: reduce conv_thr to get better values


     entering subroutine stress ...


     negative rho (up, down):  1.681E-03 0.000E+00
          total   stress  (Ry/bohr**3)                   (kbar)     P=  -11.38
  -0.00009409  -0.00000283   0.00000108        -13.84     -0.42      0.16
  -0.00000283  -0.00009110   0.00000065         -0.42    -13.40      0.10
   0.00000108   0.00000065  -0.00004686          0.16      0.10     -6.89

 !ASE

     Writing output data file calc.save
 
     init_run     :     13.04s CPU     19.53s WALL (       1 calls)
     electrons    :    664.76s CPU    928.24s WALL (       1 calls)
     forces       :      3.92s CPU      4.61s WALL (       1 calls)
     stress       :      9.91s CPU     11.35s WALL (       1 calls)

     Called by init_run:
     wfcinit      :     10.75s CPU     16.47s WALL (       1 calls)
     potinit      :      1.19s CPU      1.85s WALL (       1 calls)

     Called by electrons:
     c_bands      :    530.55s CPU    729.38s WALL (      16 calls)
     sum_band     :     75.79s CPU    115.35s WALL (      16 calls)
     v_of_rho     :     17.42s CPU     26.74s WALL (      17 calls)
     newd         :      7.04s CPU      7.29s WALL (      17 calls)
     mix_rho      :      0.61s CPU      0.95s WALL (      16 calls)
     vdW_energy   :      2.35s CPU      2.38s WALL (      53 calls)
     vdW_ffts     :     33.14s CPU     51.71s WALL (     108 calls)
     vdW_v        :      6.13s CPU      8.78s WALL (      53 calls)

     Called by c_bands:
     init_us_2    :      0.67s CPU      0.70s WALL (     700 calls)
     cegterg      :    523.91s CPU    721.99s WALL (     320 calls)

     Called by *egterg:
     h_psi        :    307.46s CPU    488.32s WALL (    1489 calls)
     s_psi        :     10.97s CPU     11.06s WALL (    1489 calls)
     g_psi        :      0.67s CPU      0.68s WALL (    1149 calls)
     cdiaghg      :    139.40s CPU    144.98s WALL (    1469 calls)

     Called by h_psi:
     add_vuspsi   :     11.22s CPU     11.31s WALL (    1489 calls)

     General routines
     calbec       :     24.35s CPU     29.07s WALL (    1849 calls)
     fft          :     49.41s CPU     77.08s WALL (    3225 calls)
     ffts         :      0.15s CPU      0.23s WALL (      33 calls)
     fftw         :    327.07s CPU    540.98s WALL (  260662 calls)
     interpolate  :      0.61s CPU      1.01s WALL (      33 calls)
     davcio       :      0.00s CPU      0.04s WALL (      20 calls)
 
     Parallel routines
     fft_scatter  :    334.44s CPU    573.35s WALL (  263920 calls)
 
     PWSCF        : 11m32.48s CPU    16m 5.19s WALL

 
   This run was terminated on:   8: 8:25  19Dec2018            

=------------------------------------------------------------------------------=
   JOB DONE.
=------------------------------------------------------------------------------=
Job  /afs/slac/g/suncat/bin/suncat-tsmpirun -x LD_LIBRARY_PATH -wdir /scratch/qe529780_skVD2 pw.x -in pw.inp

TID   HOST_NAME   COMMAND_LINE            STATUS            TERMINATION_TIME
===== ========== ================  =======================  ===================
00000 suncat0266 pw.x -in pw.inp   Done                     12/19/2018 08:08:25
00001 suncat0266 pw.x -in pw.inp   Done                     12/19/2018 08:08:25
00002 suncat0266 pw.x -in pw.inp   Done                     12/19/2018 08:08:25
00003 suncat0266 pw.x -in pw.inp   Done                     12/19/2018 08:08:25
00004 suncat0266 pw.x -in pw.inp   Done                     12/19/2018 08:08:25
00005 suncat0266 pw.x -in pw.inp   Done                     12/19/2018 08:08:25
00006 suncat0266 pw.x -in pw.inp   Done                     12/19/2018 08:08:25
00007 suncat0266 pw.x -in pw.inp   Done                     12/19/2018 08:08:25
00008 suncat0264 pw.x -in pw.inp   Done                     12/19/2018 08:08:25
00009 suncat0264 pw.x -in pw.inp   Done                     12/19/2018 08:08:25
00010 suncat0264 pw.x -in pw.inp   Done                     12/19/2018 08:08:25
00011 suncat0264 pw.x -in pw.inp   Done                     12/19/2018 08:08:25
00012 suncat0264 pw.x -in pw.inp   Done                     12/19/2018 08:08:25
00013 suncat0264 pw.x -in pw.inp   Done                     12/19/2018 08:08:25
00014 suncat0264 pw.x -in pw.inp   Done                     12/19/2018 08:08:25
00015 suncat0264 pw.x -in pw.inp   Done                     12/19/2018 08:08:25
00016 suncat0262 pw.x -in pw.inp   Done                     12/19/2018 08:08:25
00017 suncat0262 pw.x -in pw.inp   Done                     12/19/2018 08:08:25
00018 suncat0262 pw.x -in pw.inp   Done                     12/19/2018 08:08:25
00019 suncat0262 pw.x -in pw.inp   Done                     12/19/2018 08:08:25
00020 suncat0262 pw.x -in pw.inp   Done                     12/19/2018 08:08:25
00021 suncat0262 pw.x -in pw.inp   Done                     12/19/2018 08:08:25
00022 suncat0262 pw.x -in pw.inp   Done                     12/19/2018 08:08:25
00023 suncat0262 pw.x -in pw.inp   Done                     12/19/2018 08:08:25
00024 suncat0254 pw.x -in pw.inp   Done                     12/19/2018 08:08:25
00025 suncat0254 pw.x -in pw.inp   Done                     12/19/2018 08:08:25
00026 suncat0254 pw.x -in pw.inp   Done                     12/19/2018 08:08:25
00027 suncat0254 pw.x -in pw.inp   Done                     12/19/2018 08:08:25
00028 suncat0254 pw.x -in pw.inp   Done                     12/19/2018 08:08:25
00029 suncat0254 pw.x -in pw.inp   Done                     12/19/2018 08:08:25
00030 suncat0254 pw.x -in pw.inp   Done                     12/19/2018 08:08:25
00031 suncat0254 pw.x -in pw.inp   Done                     12/19/2018 08:08:25

     Program PWSCF v.5.1rc2 (svn rev. 11289) starts on 19Dec2018 at  8: 8:31 

     This program is part of the open-source Quantum ESPRESSO suite
     for quantum simulation of materials; please cite
         "P. Giannozzi et al., J. Phys.:Condens. Matter 21 395502 (2009);
          URL http://www.quantum-espresso.org", 
     in publications or presentations arising from this work. More details at
     http://www.quantum-espresso.org/quote

     Parallel version (MPI), running on    32 processors
     R & G space division:  proc/nbgrp/npool/nimage =      32
     Reading input from pw.inp
     Message from routine read_cards :
     DEPRECATED: no units specified in CELL_PARAMETERS card

     Current dimensions of program PWSCF are:
     Max number of different atomic species (ntypx) = 10
     Max number of k-points (npk) =  40000
     Max angular momentum in pseudopotentials (lmaxx) =  3
     Presently stress not available with electric field


     **************************************************************************
     Initializing libbeef V0.1.1 with the BEEF-vdW functional.
     Citation: Wellendorff et al., PRB 85, 235149 (2012).
     **************************************************************************


     IMPORTANT: XC functional enforced from input :
     Exchange-correlation      = BEEF-VDW ( 1  4 27 13 2)
     Any further DFT definition will be discarded
     Please, verify this is what you really want


     Subspace diagonalization in iterative solution of the eigenvalue problem:
     a serial algorithm will be used

     Found symmetry operation: I + ( -0.5000  0.5000  0.0000)
     This is a supercell, fractional translations are disabled
 
     Parallelization info
     --------------------
     sticks:   dense  smooth     PW     G-vecs:    dense   smooth      PW
     Min          88      35     10                16722     4201     658
     Max          89      36     11                16741     4270     671
     Sum        2819    1131    329               535225   135417   21337
 


     bravais-lattice index     =            0
     lattice parameter (alat)  =       1.8897  a.u.
     unit-cell volume          =    4500.4963 (a.u.)^3
     number of atoms/cell      =           12
     number of atomic types    =            2
     number of electrons       =       228.00
     number of Kohn-Sham states=          144
     kinetic-energy cutoff     =      36.7493  Ry
     charge density cutoff     =     367.4932  Ry
     convergence threshold     =      1.0E-06
     mixing beta               =       0.1000
     number of iterations used =           10  plain     mixing
     Exchange-correlation      = BEEF-VDW ( 1  4 27 13 2)
     nstep                     =           50


     celldm(1)=   1.889726  celldm(2)=   0.000000  celldm(3)=   0.000000
     celldm(4)=   0.000000  celldm(5)=   0.000000  celldm(6)=   0.000000

     crystal axes: (cart. coord. in units of alat)
               a(1) = (   5.542170   0.000000   0.000000 )  
               a(2) = (   2.592308   4.898529   0.000000 )  
               a(3) = (   0.000000   0.000000  24.565088 )  

     reciprocal axes: (cart. coord. in units 2 pi/alat)
               b(1) = (  0.180435 -0.095486  0.000000 )  
               b(2) = (  0.000000  0.204143  0.000000 )  
               b(3) = (  0.000000  0.000000  0.040708 )  


     PseudoPot. # 1 for Cu read from file:
     /afs/slac.stanford.edu/u/if/mamunm/psp/gbrv1.5pbe/Cu.UPF
     MD5 check sum: 6e991ff952a84172a2a52a1c1e996048
     Pseudo is Ultrasoft + core correction, Zval = 19.0
     Generated by new atomic code, or converted to UPF format
     Using radial grid of  867 points,  6 beta functions with: 
                l(1) =   0
                l(2) =   0
                l(3) =   1
                l(4) =   1
                l(5) =   2
                l(6) =   2
     Q(r) pseudized with  8 coefficients,  rinner =    1.150   1.150   1.150
                                                       1.150   1.150

     PseudoPot. # 2 for Ag read from file:
     /afs/slac.stanford.edu/u/if/mamunm/psp/gbrv1.5pbe/Ag.UPF
     MD5 check sum: d66d668201baa78d5eb5b04ef7011058
     Pseudo is Ultrasoft + core correction, Zval = 19.0
     Generated by new atomic code, or converted to UPF format
     Using radial grid of  887 points,  6 beta functions with: 
                l(1) =   0
                l(2) =   0
                l(3) =   1
                l(4) =   1
                l(5) =   2
                l(6) =   2
     Q(r) pseudized with  6 coefficients,  rinner =    1.300   1.300   1.300
                                                       1.300   1.300

     vdW kernel table read from file vdW_kernel_table
     MD5 check sum: 095c7af220d748ca6e76c0b4c6cfb241

     atomic species   valence    mass     pseudopotential
        Cu1           19.00    63.54600     Cu( 1.00)
        Ag1           19.00   107.86820     Ag( 1.00)

     No symmetry found



   Cartesian axes

     site n.     atom                  positions (alat units)
         1           Cu1 tau(   1) = (   0.0000000   0.0000000  10.0000000  )
         2           Cu1 tau(   2) = (   4.0672389   2.4492644  10.0000000  )
         3           Ag1 tau(   3) = (   2.7710849   0.0000000  10.0000000  )
         4           Ag1 tau(   4) = (   1.2961541   2.4492644  10.0000000  )
         5           Cu1 tau(   5) = (   5.5421697   3.3374579  12.2825442  )
         6           Cu1 tau(   6) = (   1.4749308   0.8881936  12.2825442  )
         7           Ag1 tau(   7) = (   2.7710849   3.3374579  12.2825442  )
         8           Ag1 tau(   8) = (   4.2460157   0.8881936  12.2825442  )
         9           Cu1 tau(   9) = (   2.9373046   1.7688268  14.5465957  )
        10           Cu1 tau(  10) = (   7.0045384   4.2180883  14.5466004  )
        11           Ag1 tau(  11) = (   5.7347335   1.7846890  14.5813229  )
        12           Ag1 tau(  12) = (   4.2598023   4.2339541  14.5813226  )

     number of k points=    20  Fermi-Dirac smearing, width (Ry)=  0.0110
                       cart. coord. in units 2pi/alat
        k(    1) = (   0.0000000   0.0000000   0.0000000), wk =   0.0555556
        k(    2) = (   0.0000000   0.0340238   0.0000000), wk =   0.1111111
        k(    3) = (   0.0000000   0.0680476   0.0000000), wk =   0.1111111
        k(    4) = (   0.0000000  -0.1020715   0.0000000), wk =   0.0555556
        k(    5) = (   0.0300725  -0.0159144   0.0000000), wk =   0.1111111
        k(    6) = (   0.0300725   0.0181094   0.0000000), wk =   0.1111111
        k(    7) = (   0.0300725   0.0521333   0.0000000), wk =   0.1111111
        k(    8) = (   0.0300725  -0.1179859   0.0000000), wk =   0.1111111
        k(    9) = (   0.0300725  -0.0839620   0.0000000), wk =   0.1111111
        k(   10) = (   0.0300725  -0.0499382   0.0000000), wk =   0.1111111
        k(   11) = (   0.0601449  -0.0318288   0.0000000), wk =   0.1111111
        k(   12) = (   0.0601449   0.0021950   0.0000000), wk =   0.1111111
        k(   13) = (   0.0601449   0.0362189   0.0000000), wk =   0.1111111
        k(   14) = (   0.0601449  -0.1339002   0.0000000), wk =   0.1111111
        k(   15) = (   0.0601449  -0.0998764   0.0000000), wk =   0.1111111
        k(   16) = (   0.0601449  -0.0658526   0.0000000), wk =   0.1111111
        k(   17) = (  -0.0902174   0.0477432   0.0000000), wk =   0.0555556
        k(   18) = (  -0.0902174   0.0817670   0.0000000), wk =   0.1111111
        k(   19) = (  -0.0902174   0.1157908   0.0000000), wk =   0.1111111
        k(   20) = (  -0.0902174  -0.0543283   0.0000000), wk =   0.0555556

     Dense  grid:   535225 G-vectors     FFT dimensions: (  64,  64, 288)

     Smooth grid:   135417 G-vectors     FFT dimensions: (  45,  45, 180)

     Largest allocated arrays     est. size (Mb)     dimensions
        Kohn-Sham Wavefunctions         1.24 Mb     (     563,  144)
        NL pseudopotentials             1.86 Mb     (     563,  216)
        Each V/rho on FFT grid          0.56 Mb     (   36864)
        Each G-vector array             0.13 Mb     (   16722)
        G-vector shells                 0.06 Mb     (    8095)
     Largest temporary arrays     est. size (Mb)     dimensions
        Auxiliary wavefunctions         4.95 Mb     (     563,  576)
        Each subspace H/S matrix        5.06 Mb     (     576,  576)
        Each <psi_i|beta_j> matrix      0.47 Mb     (     216,  144)
        Arrays for rho mixing           5.62 Mb     (   36864,   10)

     Initial potential from superposition of free atoms
     Check: negative starting charge=   -0.001625

     starting charge  218.99970, renormalised to  228.00000

     negative rho (up, down):  1.692E-03 0.000E+00


     ************************************************************************
     *
     * You are using vdW-DF for exchange-correlation in this calculation.
     * Please cite the following three references that made this development
     * possible:
     *
     *   M. Dion, H. Rydberg, E. Schroder, D. C. Langreth, and
     *   B. I. Lundqvist, Phys. Rev. Lett. 92, 246401 (2004).
     *
     *   T. Thonhauser, V. R. Cooper, S. Li, A. Puzder, P. Hyldgaard, and
     *   D. C. Langreth, Phys. Rev. B 76, 125112 (2007).
     *
     *   G. Roman-Perez and J. M. Soler, Phys. Rev. Lett. 103, 096102 (2009).
     *
     *
     * If you are using vdW-DF2, please also cite:
     *
     *   K. Lee, E. D. Murray, L. Kong, B. I. Lundqvist, and
     *   D. C. Langreth, Phys. Rev. B 82, 081101(R) (2010).
     *
     *
     * If you are calculating the stress with vdW-DF, please also cite:
     *
     *   R. Sabatini, E. Kucukbenli, B. Kolb, T. Thonhauser, and
     *   S. de Gironcoli, J. Phys.: Condens. Matter 24, 424209 (2012).
     *
     ************************************************************************

     Carrying out vdW-DF run using the following parameters:

     Nqs =      20    Nr_points =    1024   r_max =   100.000
     q_mesh =
               0.00001000     0.04494208     0.09755937     0.15916263
               0.23128650     0.31572767     0.41458969     0.53033537
               0.66584808     0.82450364     1.01025438     1.22772762
               1.48234092     1.78043706     2.12944203     2.53805004
               3.01644009     3.57652955     4.23227104     5.00000000

     Gradients computed in reciprocal space

     ************************************************************************


 
     Adding external electric field

     Computed dipole along edir(3) : 
        Dipole               -0.0342 Ry au,         -0.0868 Debye
        Dipole field         -0.0001 Ry au
 
        Potential amp.        0.0086 Ry
        Total length         45.2608 bohr
 
     Starting wfc are  156 randomized atomic wfcs

     total cpu time spent up to now is       20.2 secs

     per-process dynamical memory:    55.2 Mb

     Self-consistent Calculation

     iteration #  1     ecut=    36.75 Ry     beta=0.10
     Davidson diagonalization with overlap
     ethr =  1.00E-02,  avg # of iterations =  7.0
 
     Adding external electric field

     Computed dipole along edir(3) : 
        Dipole                0.2439 Ry au,          0.6200 Debye
        Dipole field          0.0007 Ry au
 
        Potential amp.       -0.0617 Ry
        Total length         45.2608 bohr
 

     total cpu time spent up to now is      114.6 secs

     total energy              =   -4207.86667792 Ry
     Harris-Foulkes estimate   =   -4216.63911003 Ry
     estimated scf accuracy    <      50.62486860 Ry

     iteration #  2     ecut=    36.75 Ry     beta=0.10
     Davidson diagonalization with overlap
     ethr =  1.00E-02,  avg # of iterations =  2.1
 
     Adding external electric field

     Computed dipole along edir(3) : 
        Dipole               -0.6241 Ry au,         -1.5863 Debye
        Dipole field         -0.0017 Ry au
 
        Potential amp.        0.1577 Ry
        Total length         45.2608 bohr
 

     total cpu time spent up to now is      160.8 secs

     total energy              =   -4209.38279195 Ry
     Harris-Foulkes estimate   =   -4211.17425542 Ry
     estimated scf accuracy    <       8.77192888 Ry

     iteration #  3     ecut=    36.75 Ry     beta=0.10
     Davidson diagonalization with overlap
     ethr =  3.85E-03,  avg # of iterations =  3.2
 
     Adding external electric field

     Computed dipole along edir(3) : 
        Dipole                0.4374 Ry au,          1.1117 Debye
        Dipole field          0.0012 Ry au
 
        Potential amp.       -0.1106 Ry
        Total length         45.2608 bohr
 

     total cpu time spent up to now is      209.7 secs

     total energy              =   -4209.30581867 Ry
     Harris-Foulkes estimate   =   -4210.04875733 Ry
     estimated scf accuracy    <       5.64291531 Ry

     iteration #  4     ecut=    36.75 Ry     beta=0.10
     Davidson diagonalization with overlap
     ethr =  2.47E-03,  avg # of iterations =  3.1
 
     Adding external electric field

     Computed dipole along edir(3) : 
        Dipole                0.0704 Ry au,          0.1791 Debye
        Dipole field          0.0002 Ry au
 
        Potential amp.       -0.0178 Ry
        Total length         45.2608 bohr
 

     total cpu time spent up to now is      259.1 secs

     total energy              =   -4209.34554895 Ry
     Harris-Foulkes estimate   =   -4209.70409313 Ry
     estimated scf accuracy    <       1.88421068 Ry

     iteration #  5     ecut=    36.75 Ry     beta=0.10
     Davidson diagonalization with overlap
     ethr =  8.26E-04,  avg # of iterations =  2.5
 
     Adding external electric field

     Computed dipole along edir(3) : 
        Dipole               -0.0055 Ry au,         -0.0141 Debye
        Dipole field         -0.0000 Ry au
 
        Potential amp.        0.0014 Ry
        Total length         45.2608 bohr
 

     total cpu time spent up to now is      305.5 secs

     total energy              =   -4209.41786363 Ry
     Harris-Foulkes estimate   =   -4209.46229527 Ry
     estimated scf accuracy    <       0.17507865 Ry

     iteration #  6     ecut=    36.75 Ry     beta=0.10
     Davidson diagonalization with overlap
     ethr =  7.68E-05,  avg # of iterations =  6.0
 
     Adding external electric field

     Computed dipole along edir(3) : 
        Dipole                0.0172 Ry au,          0.0437 Debye
        Dipole field          0.0000 Ry au
 
        Potential amp.       -0.0043 Ry
        Total length         45.2608 bohr
 

     total cpu time spent up to now is      369.2 secs

     total energy              =   -4209.42390878 Ry
     Harris-Foulkes estimate   =   -4209.43629838 Ry
     estimated scf accuracy    <       0.05396752 Ry

     iteration #  7     ecut=    36.75 Ry     beta=0.10
     Davidson diagonalization with overlap
     ethr =  2.37E-05,  avg # of iterations =  4.3
 
     Adding external electric field

     Computed dipole along edir(3) : 
        Dipole               -0.0014 Ry au,         -0.0035 Debye
        Dipole field         -0.0000 Ry au
 
        Potential amp.        0.0004 Ry
        Total length         45.2608 bohr
 

     total cpu time spent up to now is      420.3 secs

     total energy              =   -4209.42131482 Ry
     Harris-Foulkes estimate   =   -4209.42651257 Ry
     estimated scf accuracy    <       0.02420469 Ry

     iteration #  8     ecut=    36.75 Ry     beta=0.10
     Davidson diagonalization with overlap
     ethr =  1.06E-05,  avg # of iterations =  4.5

     negative rho (up, down):  1.710E-05 0.000E+00
 
     Adding external electric field

     Computed dipole along edir(3) : 
        Dipole                0.0053 Ry au,          0.0134 Debye
        Dipole field          0.0000 Ry au
 
        Potential amp.       -0.0013 Ry
        Total length         45.2608 bohr
 

     total cpu time spent up to now is      474.5 secs

     total energy              =   -4209.42001311 Ry
     Harris-Foulkes estimate   =   -4209.42251665 Ry
     estimated scf accuracy    <       0.01041505 Ry

     iteration #  9     ecut=    36.75 Ry     beta=0.10
     Davidson diagonalization with overlap
     ethr =  4.57E-06,  avg # of iterations =  3.3

     negative rho (up, down):  3.002E-04 0.000E+00
 
     Adding external electric field

     Computed dipole along edir(3) : 
        Dipole                0.0020 Ry au,          0.0051 Debye
        Dipole field          0.0000 Ry au
 
        Potential amp.       -0.0005 Ry
        Total length         45.2608 bohr
 

     total cpu time spent up to now is      529.6 secs

     total energy              =   -4209.42139468 Ry
     Harris-Foulkes estimate   =   -4209.42123164 Ry
     estimated scf accuracy    <       0.00176991 Ry

     iteration # 10     ecut=    36.75 Ry     beta=0.10
     Davidson diagonalization with overlap
     ethr =  7.76E-07,  avg # of iterations =  4.8

     negative rho (up, down):  4.414E-04 0.000E+00
 
     Adding external electric field

     Computed dipole along edir(3) : 
        Dipole               -0.0020 Ry au,         -0.0050 Debye
        Dipole field         -0.0000 Ry au
 
        Potential amp.        0.0005 Ry
        Total length         45.2608 bohr
 

     total cpu time spent up to now is      588.9 secs

     total energy              =   -4209.42146315 Ry
     Harris-Foulkes estimate   =   -4209.42160834 Ry
     estimated scf accuracy    <       0.00081928 Ry

     iteration # 11     ecut=    36.75 Ry     beta=0.10
     Davidson diagonalization with overlap
     ethr =  3.59E-07,  avg # of iterations =  2.6

     negative rho (up, down):  1.197E-03 0.000E+00
 
     Adding external electric field

     Computed dipole along edir(3) : 
        Dipole                0.0036 Ry au,          0.0092 Debye
        Dipole field          0.0000 Ry au
 
        Potential amp.       -0.0009 Ry
        Total length         45.2608 bohr
 

     total cpu time spent up to now is      640.4 secs

     total energy              =   -4209.42163308 Ry
     Harris-Foulkes estimate   =   -4209.42157392 Ry
     estimated scf accuracy    <       0.00033997 Ry

     iteration # 12     ecut=    36.75 Ry     beta=0.10
     Davidson diagonalization with overlap
     ethr =  1.49E-07,  avg # of iterations =  4.6

     negative rho (up, down):  1.567E-03 0.000E+00
 
     Adding external electric field

     Computed dipole along edir(3) : 
        Dipole               -0.0010 Ry au,         -0.0027 Debye
        Dipole field         -0.0000 Ry au
 
        Potential amp.        0.0003 Ry
        Total length         45.2608 bohr
 

     total cpu time spent up to now is      695.8 secs

     total energy              =   -4209.42167161 Ry
     Harris-Foulkes estimate   =   -4209.42167466 Ry
     estimated scf accuracy    <       0.00011024 Ry

     iteration # 13     ecut=    36.75 Ry     beta=0.10
     Davidson diagonalization with overlap
     ethr =  4.84E-08,  avg # of iterations =  2.0

     negative rho (up, down):  1.667E-03 0.000E+00
 
     Adding external electric field

     Computed dipole along edir(3) : 
        Dipole               -0.0002 Ry au,         -0.0005 Debye
        Dipole field         -0.0000 Ry au
 
        Potential amp.        0.0000 Ry
        Total length         45.2608 bohr
 

     total cpu time spent up to now is      745.2 secs

[...]
   -91.1958 -91.1893 -91.1567 -91.1501 -68.8351 -68.8339 -68.8199 -68.8187
   -68.8176 -68.8058 -68.6461 -68.6449 -68.6329 -68.6189 -68.6095 -68.6084
   -68.6012 -68.6001 -68.5883 -68.5742 -68.5563 -68.5552 -55.0278 -54.9782
   -54.9722 -54.9699 -54.9639 -54.9336 -54.7422 -54.7062 -54.6969 -54.6887
   -54.6606 -54.6592 -54.6524 -54.6512 -54.6483 -54.6177 -54.6123 -54.6096
    -5.7322  -4.9669  -4.9130  -4.8384  -4.7505  -4.7055  -4.5840  -4.5126
    -4.3790  -4.2923  -4.2831  -4.2386  -4.1687  -4.1315  -3.9718  -3.7056
    -3.6770  -3.6232  -3.6134  -3.4377  -3.4258  -3.3903  -3.3261  -3.2354
    -3.1934  -3.0276  -2.9950  -2.9626  -2.9449  -2.8668  -2.7026  -2.4125
    -2.2950  -2.1000  -1.9844  -1.9492  -1.9393  -1.7813  -1.7319  -1.6971
    -1.6748  -1.6329  -1.6001  -1.5001  -1.4849  -1.4061  -1.3759  -1.3584
    -1.3288  -1.2792  -1.2746  -1.2367  -1.2341  -1.1521  -1.1182  -1.0798
    -1.0602  -1.0418  -1.0150  -0.9568  -0.8750  -0.8730  -0.7759  -0.2582
     0.3406   0.4221   0.6509   1.6505   1.8951   2.2468   2.4732   3.8170
     4.0262   5.1008   5.1891   5.2210   5.7200   5.8187   6.0311   6.4830
     6.7531   7.0309   7.1589   7.4498   7.4501   7.4665   7.8587   8.1870
     8.3084   8.6992   9.1251   9.1388   9.1530   9.2567   9.3084   9.4801

          k = 0.0601-0.1339 0.0000 ( 16992 PWs)   bands (ev):

  -111.4126-111.4118-111.2172-111.2164-111.1690-111.1683 -91.4862 -91.4805
   -91.1954 -91.1897 -91.1563 -91.1506 -68.8350 -68.8340 -68.8190 -68.8186
   -68.8177 -68.8067 -68.6460 -68.6450 -68.6320 -68.6198 -68.6094 -68.6085
   -68.6012 -68.6002 -68.5873 -68.5752 -68.5562 -68.5553 -55.0215 -54.9777
   -54.9717 -54.9705 -54.9645 -54.9400 -54.7359 -54.7000 -54.6964 -54.6893
   -54.6601 -54.6588 -54.6546 -54.6530 -54.6517 -54.6186 -54.6172 -54.6102
    -5.2922  -4.8647  -4.8244  -4.6832  -4.6790  -4.5502  -4.4296  -4.4285
    -4.4004  -4.3183  -4.2379  -4.1408  -4.0851  -4.0691  -4.0029  -3.8416
    -3.6427  -3.6057  -3.5866  -3.5094  -3.4336  -3.4083  -3.3428  -3.2369
    -3.1872  -3.1169  -3.0698  -2.9835  -2.9761  -2.9153  -2.7752  -2.6431
    -2.5774  -2.4099  -2.0202  -1.9406  -1.9156  -1.8807  -1.8088  -1.7687
    -1.7282  -1.6921  -1.6763  -1.5736  -1.5072  -1.4844  -1.4437  -1.3826
    -1.3517  -1.3027  -1.2916  -1.2660  -1.2394  -1.2316  -1.1399  -1.1034
    -1.1009  -1.0477  -0.9809  -0.9536  -0.9147  -0.9051  -0.8301  -0.5543
    -0.5394   0.3123   0.8240   1.7967   2.0955   2.6401   3.2375   3.4917
     4.5706   4.6434   5.5531   5.6698   5.8581   6.2810   6.3865   6.5615
     6.6817   6.9037   7.4111   7.4715   7.5864   7.6552   7.9616   7.9994
     8.1899   8.3480   8.4812   8.6879   8.7498   8.9866   9.3381   9.5451

          k = 0.0601-0.0999 0.0000 ( 16932 PWs)   bands (ev):

  -111.4124-111.4120-111.2170-111.2166-111.1689-111.1684 -91.4850 -91.4817
   -91.1942 -91.1909 -91.1551 -91.1518 -68.8348 -68.8342 -68.8184 -68.8179
   -68.8164 -68.8093 -68.6458 -68.6452 -68.6294 -68.6224 -68.6092 -68.6087
   -68.6010 -68.6004 -68.5848 -68.5778 -68.5560 -68.5555 -55.0042 -54.9762
   -54.9720 -54.9701 -54.9660 -54.9571 -54.7187 -54.6949 -54.6907 -54.6828
   -54.6717 -54.6586 -54.6572 -54.6545 -54.6532 -54.6357 -54.6156 -54.6117
    -4.8038  -4.7888  -4.7452  -4.6856  -4.5283  -4.4515  -4.4262  -4.3953
    -4.2955  -4.2212  -4.1103  -4.0483  -4.0222  -3.9999  -3.9485  -3.9091
    -3.7617  -3.7162  -3.5794  -3.5102  -3.5022  -3.4328  -3.4278  -3.3545
    -3.3337  -3.3068  -3.2364  -3.1527  -3.0722  -3.0485  -3.0103  -2.9170
    -2.8704  -2.3899  -2.2790  -1.9365  -1.8392  -1.8113  -1.8005  -1.7324
    -1.7236  -1.6247  -1.4947  -1.4880  -1.4759  -1.4400  -1.3652  -1.3458
    -1.3136  -1.2930  -1.2568  -1.2280  -1.2072  -1.1543  -1.1283  -1.0861
    -1.0769  -1.0343  -1.0181  -1.0076  -0.9969  -0.9856  -0.8970  -0.6203
    -0.6012  -0.5689   1.5388   1.5708   1.6917   3.9848   4.1997   4.3107
     4.3982   4.5893   4.7090   5.3536   6.1614   6.2893   6.4561   6.5152
     6.6138   7.0687   7.1880   7.2172   7.3061   7.4337   7.4492   7.5785
     8.0825   8.4145   8.4665   8.4998   8.6516   8.7522   8.8445   8.9663

          k = 0.0601-0.0659 0.0000 ( 16904 PWs)   bands (ev):

  -111.4122-111.4122-111.2168-111.2168-111.1686-111.1686 -91.4834 -91.4834
   -91.1925 -91.1925 -91.1534 -91.1534 -68.8345 -68.8345 -68.8182 -68.8182
   -68.8129 -68.8129 -68.6455 -68.6455 -68.6259 -68.6259 -68.6089 -68.6089
   -68.6007 -68.6007 -68.5813 -68.5813 -68.5557 -68.5557 -54.9807 -54.9807
   -54.9740 -54.9739 -54.9681 -54.9681 -54.6952 -54.6952 -54.6928 -54.6927
   -54.6593 -54.6592 -54.6565 -54.6565 -54.6552 -54.6552 -54.6137 -54.6137
    -5.3306  -4.8632  -4.6400  -4.5915  -4.5423  -4.5255  -4.4312  -4.3948
    -4.2054  -4.1572  -4.1460  -4.0663  -3.9060  -3.9051  -3.7467  -3.7295
    -3.7075  -3.6639  -3.6255  -3.5837  -3.5519  -3.5404  -3.5160  -3.4631
    -3.4142  -3.4115  -3.3584  -3.2976  -3.2637  -3.2463  -3.1032  -2.9338
    -2.7971  -2.5685  -1.9106  -1.8367  -1.7918  -1.7156  -1.7084  -1.6219
    -1.4914  -1.4743  -1.4567  -1.4106  -1.3786  -1.3674  -1.3381  -1.3177
    -1.2996  -1.2777  -1.2645  -1.2353  -1.2321  -1.1848  -1.1187  -1.1169
    -1.0574  -1.0379  -1.0330  -1.0236  -0.9942  -0.9731  -0.9280  -0.6466
    -0.4160   0.4465   0.7703   1.7146   2.5660   2.7925   3.1602   3.9291
     4.5071   4.9222   5.5842   5.7073   6.0008   6.1823   6.3748   6.4887
     6.5973   6.8057   7.3277   7.4451   7.5000   7.5645   7.7312   7.7991
     7.9054   8.4001   8.4648   8.5480   8.6532   8.7296   8.9202   9.3673

          k =-0.0902 0.0477 0.0000 ( 16922 PWs)   bands (ev):

  -111.4122-111.4122-111.2168-111.2168-111.1686-111.1686 -91.4834 -91.4834
   -91.1925 -91.1925 -91.1534 -91.1534 -68.8345 -68.8345 -68.8182 -68.8182
   -68.8129 -68.8129 -68.6455 -68.6455 -68.6259 -68.6259 -68.6089 -68.6089
   -68.6007 -68.6007 -68.5813 -68.5813 -68.5557 -68.5557 -54.9807 -54.9807
   -54.9740 -54.9740 -54.9681 -54.9681 -54.6952 -54.6952 -54.6927 -54.6927
   -54.6593 -54.6593 -54.6565 -54.6565 -54.6552 -54.6552 -54.6137 -54.6137
    -5.1228  -5.1228  -4.6113  -4.6113  -4.5261  -4.5261  -4.4199  -4.4198
    -4.1985  -4.1985  -4.0923  -4.0923  -3.9154  -3.9154  -3.7381  -3.7381
    -3.6553  -3.6553  -3.6220  -3.6220  -3.5378  -3.5378  -3.4891  -3.4891
    -3.3705  -3.3705  -3.3308  -3.3308  -3.2106  -3.2106  -3.1746  -3.1746
    -2.5444  -2.5444  -1.9239  -1.9239  -1.7179  -1.7179  -1.6741  -1.6741
    -1.5450  -1.5449  -1.4634  -1.4634  -1.3750  -1.3750  -1.3255  -1.3255
    -1.2885  -1.2885  -1.2782  -1.2782  -1.2507  -1.2507  -1.1858  -1.1858
    -1.0788  -1.0788  -0.9976  -0.9976  -0.9625  -0.9625  -0.8868  -0.8868
     0.7840   0.7840   1.0706   1.0706   2.0470   2.0470   3.6268   3.6268
     4.2932   4.2932   5.9151   5.9151   6.5717   6.5717   6.6605   6.6605
     6.8342   6.8342   7.1052   7.1052   7.5974   7.5974   7.8689   7.8689
     8.2257   8.2257   8.4232   8.4232   9.0394   9.0394   9.4410   9.4410

          k =-0.0902 0.0818 0.0000 ( 16913 PWs)   bands (ev):

  -111.4124-111.4120-111.2170-111.2166-111.1689-111.1684 -91.4850 -91.4817
   -91.1942 -91.1909 -91.1551 -91.1518 -68.8348 -68.8342 -68.8184 -68.8179
   -68.8164 -68.8093 -68.6458 -68.6452 -68.6294 -68.6224 -68.6092 -68.6087
   -68.6010 -68.6004 -68.5848 -68.5778 -68.5560 -68.5555 -55.0042 -54.9761
   -54.9719 -54.9702 -54.9660 -54.9571 -54.7187 -54.6948 -54.6907 -54.6827
   -54.6717 -54.6585 -54.6572 -54.6544 -54.6532 -54.6358 -54.6157 -54.6117
    -5.2833  -4.8585  -4.7324  -4.6475  -4.5514  -4.5003  -4.4262  -4.3507
    -4.3298  -4.2775  -4.1520  -4.0662  -4.0332  -4.0098  -3.9503  -3.8939
    -3.7238  -3.6887  -3.6078  -3.5287  -3.4676  -3.4617  -3.4043  -3.3697
    -3.3293  -3.2933  -3.2736  -3.1412  -3.1300  -3.0445  -3.0004  -2.8164
    -2.7078  -2.2340  -2.2064  -1.9175  -1.8007  -1.7551  -1.7298  -1.7112
    -1.6519  -1.5733  -1.5615  -1.4832  -1.4584  -1.3958  -1.3521  -1.3249
    -1.3238  -1.2825  -1.2380  -1.2378  -1.2191  -1.1909  -1.1889  -1.0621
    -1.0500  -1.0283  -1.0110  -0.9963  -0.9944  -0.9432  -0.8910  -0.6165
    -0.4273   0.4960   0.8071   1.6612   2.5238   2.8491   3.2124   3.8042
     4.1904   4.4320   5.6168   5.7692   5.8711   6.2519   6.3124   6.5066
     6.5303   7.0813   7.2572   7.4902   7.5497   7.6591   7.8342   7.9135
     8.3754   8.5012   8.6663   8.7452   8.7508   8.8655   9.1392   9.3633

          k =-0.0902 0.1158 0.0000 ( 16992 PWs)   bands (ev):

  -111.4126-111.4118-111.2172-111.2164-111.1690-111.1683 -91.4862 -91.4805
   -91.1954 -91.1897 -91.1563 -91.1506 -68.8350 -68.8340 -68.8190 -68.8186
   -68.8177 -68.8067 -68.6460 -68.6450 -68.6320 -68.6198 -68.6094 -68.6085
   -68.6012 -68.6002 -68.5873 -68.5752 -68.5562 -68.5553 -55.0215 -54.9777
   -54.9717 -54.9705 -54.9645 -54.9400 -54.7359 -54.7000 -54.6964 -54.6893
   -54.6601 -54.6588 -54.6546 -54.6530 -54.6517 -54.6186 -54.6172 -54.6102
    -5.2922  -4.8647  -4.8244  -4.6832  -4.6790  -4.5502  -4.4296  -4.4285
    -4.4004  -4.3183  -4.2379  -4.1408  -4.0851  -4.0691  -4.0029  -3.8416
    -3.6427  -3.6057  -3.5866  -3.5094  -3.4336  -3.4083  -3.3428  -3.2369
    -3.1872  -3.1169  -3.0698  -2.9835  -2.9761  -2.9153  -2.7752  -2.6431
    -2.5774  -2.4099  -2.0202  -1.9406  -1.9156  -1.8807  -1.8088  -1.7687
    -1.7282  -1.6921  -1.6763  -1.5736  -1.5072  -1.4844  -1.4437  -1.3826
    -1.3517  -1.3027  -1.2916  -1.2660  -1.2394  -1.2316  -1.1399  -1.1034
    -1.1009  -1.0477  -0.9809  -0.9536  -0.9147  -0.9051  -0.8301  -0.5543
    -0.5394   0.3123   0.8240   1.7967   2.0955   2.6401   3.2375   3.4917
     4.5706   4.6434   5.5531   5.6698   5.8581   6.2810   6.3865   6.5615
     6.6817   6.9037   7.4111   7.4715   7.5864   7.6552   7.9616   7.9994
     8.1899   8.3480   8.4812   8.6879   8.7498   8.9866   9.3381   9.5451

          k =-0.0902-0.0543 0.0000 ( 16976 PWs)   bands (ev):

  -111.4127-111.4118-111.2172-111.2163-111.1691-111.1682 -91.4867 -91.4801
   -91.1958 -91.1893 -91.1567 -91.1501 -68.8350 -68.8339 -68.8199 -68.8187
   -68.8176 -68.8058 -68.6460 -68.6449 -68.6329 -68.6189 -68.6095 -68.6084
   -68.6012 -68.6001 -68.5883 -68.5742 -68.5563 -68.5552 -55.0279 -54.9783
   -54.9723 -54.9699 -54.9639 -54.9336 -54.7423 -54.7063 -54.6970 -54.6887
   -54.6607 -54.6593 -54.6524 -54.6511 -54.6483 -54.6178 -54.6123 -54.6096
    -5.2449  -4.9620  -4.9112  -4.7270  -4.6710  -4.6294  -4.4817  -4.4539
    -4.3932  -4.2694  -4.2062  -4.1877  -4.1407  -4.0767  -3.9486  -3.7795
    -3.6543  -3.6032  -3.4364  -3.4123  -3.4039  -3.3725  -3.2783  -3.2067
    -3.1315  -3.1012  -2.9710  -2.9628  -2.9506  -2.8858  -2.8743  -2.6916
    -2.3506  -2.2838  -2.0716  -2.0112  -1.9726  -1.9303  -1.8106  -1.7694
    -1.7691  -1.6981  -1.6729  -1.6528  -1.5677  -1.5635  -1.4818  -1.4273
    -1.3792  -1.3559  -1.3530  -1.3226  -1.2395  -1.1857  -1.1518  -1.1286
    -1.1137  -1.0992  -1.0755  -0.9661  -0.8795  -0.8732  -0.8415  -0.7770
     0.3757   0.6181   1.0717   1.2127   1.5904   1.9004   3.6624   3.7543
     3.8163   4.2220   5.9837   6.0380   6.6539   6.6559   6.6920   6.8355
     6.8748   6.9299   6.9468   7.3927   7.4651   7.6376   7.9454   7.9875
     8.2623   8.3731   8.6929   8.7559   8.8292   8.8843   9.1742   9.5469

     the Fermi energy is     0.8041 ev

!    total energy              =   -4209.42288464 Ry
     Harris-Foulkes estimate   =   -4209.42288001 Ry
     estimated scf accuracy    <       0.00000044 Ry

     The total energy is the sum of the following terms:

     one-electron contribution =  -30621.32149098 Ry
     hartree contribution      =   15313.77059632 Ry
     xc contribution           =    -420.55111171 Ry
     ewald contribution        =   11518.70527915 Ry
     electric field correction =       0.00000005 Ry
     smearing contrib. (-TS)   =      -0.02615746 Ry

     convergence has been achieved in  18 iterations
 
 BEEF-vdW xc energy contributions
           1 :   -369.267398689274     
           2 :    334.650509609673     
           3 :   -276.372478087504     
           4 :    211.136764306211     
           5 :   -154.141096912731     
           6 :    113.563539318669     
           7 :   -89.1969526244835     
           8 :    75.1657117089869     
           9 :   -64.5874573809310     
          10 :    53.3746551679378     
          11 :   -41.3707944480878     
          12 :    30.8574785313316     
          13 :   -23.9910997865724     
          14 :    21.0247898013051     
          15 :   -20.2863105123711     
          16 :    19.5410083502184     
          17 :   -17.5303839163757     
          18 :    14.5785681429488     
          19 :   -11.9950741869457     
          20 :    10.8792740884588     
          21 :   -11.2642176283169     
          22 :    12.1606574824796     
          23 :   -12.3551162808539     
          24 :    11.2990572522958     
          25 :   -9.44327671621323     
          26 :    7.83250668226884     
          27 :   -7.31604005755815     
          28 :    7.96155752217589     
          29 :   -9.06559127667225     
          30 :    9.70100034251300     
          31 :   -32.4682453922728     
          32 :   -22.8612441298886     

     Forces acting on atoms (Ry/au):


     negative rho (up, down):  1.707E-03 0.000E+00
     atom    1 type  1   force =     0.00494861    0.00298045    0.00766248
     atom    2 type  1   force =     0.00494838    0.00298077    0.00766145
     atom    3 type  2   force =    -0.00541420   -0.00326022   -0.00627373
     atom    4 type  2   force =    -0.00541391   -0.00326063   -0.00627375
     atom    5 type  1   force =    -0.00131193   -0.00078981    0.00300753
     atom    6 type  1   force =    -0.00131088   -0.00078976    0.00300659
     atom    7 type  2   force =     0.00405850    0.00244441   -0.00349793
     atom    8 type  2   force =     0.00405855    0.00244404   -0.00349789
     atom    9 type  1   force =    -0.00141145   -0.00085118    0.00006606
     atom   10 type  1   force =    -0.00141197   -0.00085100    0.00006484
     atom   11 type  2   force =    -0.00087020   -0.00052297   -0.00096278
     atom   12 type  2   force =    -0.00086950   -0.00052411   -0.00096287

     Total force =     0.021077     Total SCF correction =     0.002433
     SCF correction compared to forces is large: reduce conv_thr to get better values


     entering subroutine stress ...


     negative rho (up, down):  1.707E-03 0.000E+00
          total   stress  (Ry/bohr**3)                   (kbar)     P=  -10.06
  -0.00008608  -0.00000478  -0.00000405        -12.66     -0.70     -0.60
  -0.00000478  -0.00008102  -0.00000244         -0.70    -11.92     -0.36
  -0.00000405  -0.00000244  -0.00003806         -0.60     -0.36     -5.60

 !ASE

     Writing output data file calc.save
 
     init_run     :     13.40s CPU     19.49s WALL (       1 calls)
     electrons    :    749.39s CPU   1036.49s WALL (       1 calls)
     forces       :      4.02s CPU      4.66s WALL (       1 calls)
     stress       :     10.02s CPU     11.21s WALL (       1 calls)

     Called by init_run:
     wfcinit      :     10.99s CPU     16.44s WALL (       1 calls)
     potinit      :      1.23s CPU      1.78s WALL (       1 calls)

     Called by electrons:
     c_bands      :    601.76s CPU    818.71s WALL (      18 calls)
     sum_band     :     86.83s CPU    130.12s WALL (      18 calls)
     v_of_rho     :     19.79s CPU     29.37s WALL (      19 calls)
     newd         :      7.92s CPU      8.22s WALL (      19 calls)
     mix_rho      :      0.72s CPU      1.10s WALL (      18 calls)
     vdW_energy   :      2.88s CPU      2.89s WALL (      55 calls)
     vdW_ffts     :     32.99s CPU     52.26s WALL (     112 calls)
     vdW_v        :      6.35s CPU      9.20s WALL (      55 calls)

     Called by c_bands:
     init_us_2    :      0.82s CPU      0.88s WALL (     780 calls)
     cegterg      :    594.30s CPU    810.39s WALL (     360 calls)

     Called by *egterg:
     h_psi        :    354.39s CPU    551.28s WALL (    1607 calls)
     s_psi        :     12.50s CPU     12.61s WALL (    1607 calls)
     g_psi        :      0.75s CPU      0.75s WALL (    1227 calls)
     cdiaghg      :    151.74s CPU    157.75s WALL (    1587 calls)

     Called by h_psi:
     add_vuspsi   :     12.79s CPU     12.92s WALL (    1607 calls)

     General routines
     calbec       :     26.77s CPU     32.01s WALL (    2007 calls)
     fft          :     49.52s CPU     78.64s WALL (    3357 calls)
     ffts         :      0.18s CPU      0.29s WALL (      37 calls)
     fftw         :    376.13s CPU    608.41s WALL (  293578 calls)
     interpolate  :      0.74s CPU      1.17s WALL (      37 calls)
     davcio       :      0.00s CPU      0.03s WALL (      20 calls)
 
     Parallel routines
     fft_scatter  :    377.99s CPU    636.56s WALL (  296972 calls)
 
     PWSCF        : 12m57.62s CPU    17m53.21s WALL

 
   This run was terminated on:   9:16:20  19Dec2018            

=------------------------------------------------------------------------------=
   JOB DONE.
=------------------------------------------------------------------------------=
Job  /afs/slac/g/suncat/bin/suncat-tsmpirun -x LD_LIBRARY_PATH -wdir /scratch/qe529780_skVD2 pw.x -in pw.inp

TID   HOST_NAME   COMMAND_LINE            STATUS            TERMINATION_TIME
===== ========== ================  =======================  ===================
00000 suncat0266 pw.x -in pw.inp   Done                     12/19/2018 09:16:20
00001 suncat0266 pw.x -in pw.inp   Done                     12/19/2018 09:16:20
00002 suncat0266 pw.x -in pw.inp   Done                     12/19/2018 09:16:20
00003 suncat0266 pw.x -in pw.inp   Done                     12/19/2018 09:16:20
00004 suncat0266 pw.x -in pw.inp   Done                     12/19/2018 09:16:20
00005 suncat0266 pw.x -in pw.inp   Done                     12/19/2018 09:16:20
00006 suncat0266 pw.x -in pw.inp   Done                     12/19/2018 09:16:20
00007 suncat0266 pw.x -in pw.inp   Done                     12/19/2018 09:16:20
00008 suncat0264 pw.x -in pw.inp   Done                     12/19/2018 09:16:20
00009 suncat0264 pw.x -in pw.inp   Done                     12/19/2018 09:16:20
00010 suncat0264 pw.x -in pw.inp   Done                     12/19/2018 09:16:20
00011 suncat0264 pw.x -in pw.inp   Done                     12/19/2018 09:16:20
00012 suncat0264 pw.x -in pw.inp   Done                     12/19/2018 09:16:20
00013 suncat0264 pw.x -in pw.inp   Done                     12/19/2018 09:16:20
00014 suncat0264 pw.x -in pw.inp   Done                     12/19/2018 09:16:20
00015 suncat0264 pw.x -in pw.inp   Done                     12/19/2018 09:16:20
00016 suncat0262 pw.x -in pw.inp   Done                     12/19/2018 09:16:20
00017 suncat0262 pw.x -in pw.inp   Done                     12/19/2018 09:16:20
00018 suncat0262 pw.x -in pw.inp   Done                     12/19/2018 09:16:20
00019 suncat0262 pw.x -in pw.inp   Done                     12/19/2018 09:16:20
00020 suncat0262 pw.x -in pw.inp   Done                     12/19/2018 09:16:20
00021 suncat0262 pw.x -in pw.inp   Done                     12/19/2018 09:16:20
00022 suncat0262 pw.x -in pw.inp   Done                     12/19/2018 09:16:20
00023 suncat0262 pw.x -in pw.inp   Done                     12/19/2018 09:16:20
00024 suncat0254 pw.x -in pw.inp   Done                     12/19/2018 09:16:20
00025 suncat0254 pw.x -in pw.inp   Done                     12/19/2018 09:16:20
00026 suncat0254 pw.x -in pw.inp   Done                     12/19/2018 09:16:20
00027 suncat0254 pw.x -in pw.inp   Done                     12/19/2018 09:16:20
00028 suncat0254 pw.x -in pw.inp   Done                     12/19/2018 09:16:20
00029 suncat0254 pw.x -in pw.inp   Done                     12/19/2018 09:16:20
00030 suncat0254 pw.x -in pw.inp   Done                     12/19/2018 09:16:20
00031 suncat0254 pw.x -in pw.inp   Done                     12/19/2018 09:16:20
