  python dir          : /u/if/mamunm/src/espresso
  espresso dir        : /nfs/slac/g/suncatfs/sw/espv18/espresso-dynpy-beef/bin
  pseudo dir          : /afs/slac.stanford.edu/u/if/mamunm/psp/gbrv1.5pbe
  ase-espresso py git : GITVERSION



     Program PWSCF v.5.1rc2 (svn rev. 11289) starts on 19Dec2018 at  9:20:48 

     This program is part of the open-source Quantum ESPRESSO suite
     for quantum simulation of materials; please cite
         "P. Giannozzi et al., J. Phys.:Condens. Matter 21 395502 (2009);
          URL http://www.quantum-espresso.org", 
     in publications or presentations arising from this work. More details at
     http://www.quantum-espresso.org/quote

     Parallel version (MPI), running on    32 processors
     R & G space division:  proc/nbgrp/npool/nimage =      32
     Reading input from pw.inp
     Message from routine read_cards :
     DEPRECATED: no units specified in CELL_PARAMETERS card

     Current dimensions of program PWSCF are:
     Max number of different atomic species (ntypx) = 10
     Max number of k-points (npk) =  40000
     Max angular momentum in pseudopotentials (lmaxx) =  3
     Presently stress not available with electric field


     **************************************************************************
     Initializing libbeef V0.1.1 with the BEEF-vdW functional.
     Citation: Wellendorff et al., PRB 85, 235149 (2012).
     **************************************************************************


     IMPORTANT: XC functional enforced from input :
     Exchange-correlation      = BEEF-VDW ( 1  4 27 13 2)
     Any further DFT definition will be discarded
     Please, verify this is what you really want


     Subspace diagonalization in iterative solution of the eigenvalue problem:
     a serial algorithm will be used

     Found symmetry operation: I + (  0.5000  0.0000  0.0000)
     This is a supercell, fractional translations are disabled
 
     Parallelization info
     --------------------
     sticks:   dense  smooth     PW     G-vecs:    dense   smooth      PW
     Min          80      31      9                14992     3751     623
     Max          81      32     10                15005     3824     646
     Sum        2571    1021    313               479987   121393   20273
 


     bravais-lattice index     =            0
     lattice parameter (alat)  =       1.8897  a.u.
     unit-cell volume          =    4034.2826 (a.u.)^3
     number of atoms/cell      =           12
     number of atomic types    =            2
     number of electrons       =       210.00
     number of Kohn-Sham states=          135
     kinetic-energy cutoff     =      36.7493  Ry
     charge density cutoff     =     367.4932  Ry
     convergence threshold     =      1.0E-06
     mixing beta               =       0.1000
     number of iterations used =           10  plain     mixing
     Exchange-correlation      = BEEF-VDW ( 1  4 27 13 2)
     nstep                     =           50


     celldm(1)=   1.889726  celldm(2)=   0.000000  celldm(3)=   0.000000
     celldm(4)=   0.000000  celldm(5)=   0.000000  celldm(6)=   0.000000

     crystal axes: (cart. coord. in units of alat)
               a(1) = (   5.140575   0.000000   0.000000 )  
               a(2) = (  -2.570287   4.779117   0.000000 )  
               a(3) = (   0.000000   0.000000  24.333823 )  

     reciprocal axes: (cart. coord. in units 2 pi/alat)
               b(1) = (  0.194531  0.104622  0.000000 )  
               b(2) = (  0.000000  0.209244  0.000000 )  
               b(3) = (  0.000000  0.000000  0.041095 )  


     PseudoPot. # 1 for Cu read from file:
     /afs/slac.stanford.edu/u/if/mamunm/psp/gbrv1.5pbe/Cu.UPF
     MD5 check sum: 6e991ff952a84172a2a52a1c1e996048
     Pseudo is Ultrasoft + core correction, Zval = 19.0
     Generated by new atomic code, or converted to UPF format
     Using radial grid of  867 points,  6 beta functions with: 
                l(1) =   0
                l(2) =   0
                l(3) =   1
                l(4) =   1
                l(5) =   2
                l(6) =   2
     Q(r) pseudized with  8 coefficients,  rinner =    1.150   1.150   1.150
                                                       1.150   1.150

     PseudoPot. # 2 for Ru read from file:
     /afs/slac.stanford.edu/u/if/mamunm/psp/gbrv1.5pbe/Ru.UPF
     MD5 check sum: 7158a806dd851261a58e6920c40ebe78
     Pseudo is Ultrasoft + core correction, Zval = 16.0
     Generated by new atomic code, or converted to UPF format
     Using radial grid of  967 points,  6 beta functions with: 
                l(1) =   0
                l(2) =   0
                l(3) =   1
                l(4) =   1
                l(5) =   2
                l(6) =   2
     Q(r) pseudized with  8 coefficients,  rinner =    1.300   1.300   1.300
                                                       1.300   1.300

     vdW kernel table read from file vdW_kernel_table
     MD5 check sum: 095c7af220d748ca6e76c0b4c6cfb241

     atomic species   valence    mass     pseudopotential
        Cu1           19.00    63.54600     Cu( 1.00)
        Ru1           16.00   101.07000     Ru( 1.00)

     No symmetry found



   Cartesian axes

     site n.     atom                  positions (alat units)
         1           Cu1 tau(   1) = (   0.0000000   0.0000000  10.0000000  )
         2           Cu1 tau(   2) = (   2.5702875   0.0000000  10.0000000  )
         3           Ru1 tau(   3) = (   1.2851437   2.3895585  10.0000000  )
         4           Ru1 tau(   4) = (  -1.2851437   2.3895585  10.0000000  )
         5           Cu1 tau(   5) = (   2.5702875   1.3823428  12.1669117  )
         6           Cu1 tau(   6) = (   0.0000000   1.3823428  12.1669117  )
         7           Ru1 tau(   7) = (  -1.2851437   3.7719013  12.1669117  )
         8           Ru1 tau(   8) = (   1.2851437   3.7719013  12.1669117  )
         9           Cu1 tau(   9) = (   0.0000000   2.7646855  14.3338234  )
        10           Cu1 tau(  10) = (   2.5702875   2.7646855  14.3338234  )
        11           Ru1 tau(  11) = (   3.8554312   0.3751270  14.3338234  )
        12           Ru1 tau(  12) = (   1.2851437   0.3751270  14.3338234  )

     number of k points=    20  Fermi-Dirac smearing, width (Ry)=  0.0110
                       cart. coord. in units 2pi/alat
        k(    1) = (   0.0000000   0.0000000   0.0000000), wk =   0.0555556
        k(    2) = (   0.0000000   0.0348739   0.0000000), wk =   0.1111111
        k(    3) = (   0.0000000   0.0697479   0.0000000), wk =   0.1111111
        k(    4) = (   0.0000000  -0.1046218   0.0000000), wk =   0.0555556
        k(    5) = (   0.0324218   0.0174370   0.0000000), wk =   0.1111111
        k(    6) = (   0.0324218   0.0523109   0.0000000), wk =   0.1111111
        k(    7) = (   0.0324218   0.0871849   0.0000000), wk =   0.1111111
        k(    8) = (   0.0324218  -0.0871849   0.0000000), wk =   0.1111111
        k(    9) = (   0.0324218  -0.0523109   0.0000000), wk =   0.1111111
        k(   10) = (   0.0324218  -0.0174370   0.0000000), wk =   0.1111111
        k(   11) = (   0.0648436   0.0348739   0.0000000), wk =   0.1111111
        k(   12) = (   0.0648436   0.0697479   0.0000000), wk =   0.1111111
        k(   13) = (   0.0648436   0.1046218   0.0000000), wk =   0.1111111
        k(   14) = (   0.0648436  -0.0697479   0.0000000), wk =   0.1111111
        k(   15) = (   0.0648436  -0.0348739   0.0000000), wk =   0.1111111
        k(   16) = (   0.0648436   0.0000000   0.0000000), wk =   0.1111111
        k(   17) = (  -0.0972654  -0.0523109   0.0000000), wk =   0.0555556
        k(   18) = (  -0.0972654  -0.0174370   0.0000000), wk =   0.1111111
        k(   19) = (  -0.0972654   0.0174370   0.0000000), wk =   0.1111111
        k(   20) = (  -0.0972654  -0.1569328   0.0000000), wk =   0.0555556

     Dense  grid:   479987 G-vectors     FFT dimensions: (  60,  64, 288)

     Smooth grid:   121393 G-vectors     FFT dimensions: (  40,  40, 180)

     Largest allocated arrays     est. size (Mb)     dimensions
        Kohn-Sham Wavefunctions         1.13 Mb     (     547,  135)
        NL pseudopotentials             1.80 Mb     (     547,  216)
        Each V/rho on FFT grid          0.53 Mb     (   34560)
        Each G-vector array             0.11 Mb     (   15000)
        G-vector shells                 0.06 Mb     (    7540)
     Largest temporary arrays     est. size (Mb)     dimensions
        Auxiliary wavefunctions         4.51 Mb     (     547,  540)
        Each subspace H/S matrix        4.45 Mb     (     540,  540)
        Each <psi_i|beta_j> matrix      0.44 Mb     (     216,  135)
        Arrays for rho mixing           5.27 Mb     (   34560,   10)

     Initial potential from superposition of free atoms
     Check: negative starting charge=   -0.441666

     starting charge  197.99989, renormalised to  210.00000

     negative rho (up, down):  4.684E-01 0.000E+00


     ************************************************************************
     *
     * You are using vdW-DF for exchange-correlation in this calculation.
     * Please cite the following three references that made this development
     * possible:
     *
     *   M. Dion, H. Rydberg, E. Schroder, D. C. Langreth, and
     *   B. I. Lundqvist, Phys. Rev. Lett. 92, 246401 (2004).
     *
     *   T. Thonhauser, V. R. Cooper, S. Li, A. Puzder, P. Hyldgaard, and
     *   D. C. Langreth, Phys. Rev. B 76, 125112 (2007).
     *
     *   G. Roman-Perez and J. M. Soler, Phys. Rev. Lett. 103, 096102 (2009).
     *
     *
     * If you are using vdW-DF2, please also cite:
     *
     *   K. Lee, E. D. Murray, L. Kong, B. I. Lundqvist, and
     *   D. C. Langreth, Phys. Rev. B 82, 081101(R) (2010).
     *
     *
     * If you are calculating the stress with vdW-DF, please also cite:
     *
     *   R. Sabatini, E. Kucukbenli, B. Kolb, T. Thonhauser, and
     *   S. de Gironcoli, J. Phys.: Condens. Matter 24, 424209 (2012).
     *
     ************************************************************************

     Carrying out vdW-DF run using the following parameters:

     Nqs =      20    Nr_points =    1024   r_max =   100.000
     q_mesh =
               0.00001000     0.04494208     0.09755937     0.15916263
               0.23128650     0.31572767     0.41458969     0.53033537
               0.66584808     0.82450364     1.01025438     1.22772762
               1.48234092     1.78043706     2.12944203     2.53805004
               3.01644009     3.57652955     4.23227104     5.00000000

     Gradients computed in reciprocal space

     ************************************************************************


 
     Adding external electric field

     Computed dipole along edir(3) : 
        Dipole                0.0000 Ry au,          0.0000 Debye
        Dipole field          0.0000 Ry au
 
        Potential amp.       -0.0000 Ry
        Total length         44.8347 bohr
 
     Starting wfc are  156 randomized atomic wfcs

     total cpu time spent up to now is       21.2 secs

     per-process dynamical memory:    52.5 Mb

     Self-consistent Calculation

     iteration #  1     ecut=    36.75 Ry     beta=0.10
     Davidson diagonalization with overlap
     ethr =  1.00E-02,  avg # of iterations =  7.7

     negative rho (up, down):  4.643E-01 0.000E+00
 
     Adding external electric field

     Computed dipole along edir(3) : 
        Dipole               -0.5184 Ry au,         -1.3176 Debye
        Dipole field         -0.0016 Ry au
 
        Potential amp.        0.1448 Ry
        Total length         44.8347 bohr
 

     total cpu time spent up to now is      128.3 secs

     total energy              =   -3571.92513130 Ry
     Harris-Foulkes estimate   =   -3613.53438640 Ry
     estimated scf accuracy    <     232.03379373 Ry

     iteration #  2     ecut=    36.75 Ry     beta=0.10
     Davidson diagonalization with overlap
     ethr =  1.00E-02,  avg # of iterations =  3.9

     negative rho (up, down):  4.650E-01 0.000E+00
 
     Adding external electric field

     Computed dipole along edir(3) : 
        Dipole               -0.0434 Ry au,         -0.1102 Debye
        Dipole field         -0.0001 Ry au
 
        Potential amp.        0.0121 Ry
        Total length         44.8347 bohr
 

     total cpu time spent up to now is      202.3 secs

     total energy              =   -3600.17890853 Ry
     Harris-Foulkes estimate   =   -3606.48579205 Ry
     estimated scf accuracy    <      46.26555575 Ry

     iteration #  3     ecut=    36.75 Ry     beta=0.10
     Davidson diagonalization with overlap
     ethr =  1.00E-02,  avg # of iterations =  1.9

     negative rho (up, down):  4.653E-01 0.000E+00
 
     Adding external electric field

     Computed dipole along edir(3) : 
        Dipole               -1.1943 Ry au,         -3.0356 Debye
        Dipole field         -0.0037 Ry au
 
        Potential amp.        0.3336 Ry
        Total length         44.8347 bohr
 

     total cpu time spent up to now is      247.6 secs

     total energy              =   -3600.71503120 Ry
     Harris-Foulkes estimate   =   -3602.59644723 Ry
     estimated scf accuracy    <      18.72670476 Ry

     iteration #  4     ecut=    36.75 Ry     beta=0.10
     Davidson diagonalization with overlap
     ethr =  8.92E-03,  avg # of iterations =  1.1

     negative rho (up, down):  4.654E-01 0.000E+00
 
     Adding external electric field

     Computed dipole along edir(3) : 
        Dipole               -0.1390 Ry au,         -0.3534 Debye
        Dipole field         -0.0004 Ry au
 
        Potential amp.        0.0388 Ry
        Total length         44.8347 bohr
 

     total cpu time spent up to now is      289.7 secs

     total energy              =   -3600.16854804 Ry
     Harris-Foulkes estimate   =   -3602.29223879 Ry
     estimated scf accuracy    <      52.89991709 Ry

     iteration #  5     ecut=    36.75 Ry     beta=0.10
     Davidson diagonalization with overlap
     ethr =  8.92E-03,  avg # of iterations =  1.0

     negative rho (up, down):  4.653E-01 0.000E+00
 
     Adding external electric field

     Computed dipole along edir(3) : 
        Dipole               -0.2498 Ry au,         -0.6348 Debye
        Dipole field         -0.0008 Ry au
 
        Potential amp.        0.0698 Ry
        Total length         44.8347 bohr
 

     total cpu time spent up to now is      330.8 secs

     total energy              =   -3599.40467150 Ry
     Harris-Foulkes estimate   =   -3601.21844503 Ry
     estimated scf accuracy    <       7.73006721 Ry

     iteration #  6     ecut=    36.75 Ry     beta=0.10
     Davidson diagonalization with overlap
     ethr =  3.68E-03,  avg # of iterations =  3.5

     negative rho (up, down):  4.650E-01 0.000E+00
 
     Adding external electric field

     Computed dipole along edir(3) : 
        Dipole               -0.2403 Ry au,         -0.6108 Debye
        Dipole field         -0.0007 Ry au
 
        Potential amp.        0.0671 Ry
        Total length         44.8347 bohr
 

     total cpu time spent up to now is      380.9 secs

     total energy              =   -3600.21939747 Ry
     Harris-Foulkes estimate   =   -3600.34190457 Ry
     estimated scf accuracy    <       2.94431668 Ry

     iteration #  7     ecut=    36.75 Ry     beta=0.10
     Davidson diagonalization with overlap
     ethr =  1.40E-03,  avg # of iterations =  1.9

     negative rho (up, down):  4.611E-01 0.000E+00
 
     Adding external electric field

     Computed dipole along edir(3) : 
        Dipole               -0.1256 Ry au,         -0.3191 Debye
        Dipole field         -0.0004 Ry au
 
        Potential amp.        0.0351 Ry
        Total length         44.8347 bohr
 

     total cpu time spent up to now is      426.1 secs

     total energy              =   -3599.71485682 Ry
     Harris-Foulkes estimate   =   -3600.25672017 Ry
     estimated scf accuracy    <       1.26497291 Ry

     iteration #  8     ecut=    36.75 Ry     beta=0.10
     Davidson diagonalization with overlap
     ethr =  6.02E-04,  avg # of iterations =  7.5

     negative rho (up, down):  4.610E-01 0.000E+00
 
     Adding external electric field

     Computed dipole along edir(3) : 
        Dipole               -0.1397 Ry au,         -0.3550 Debye
        Dipole field         -0.0004 Ry au
 
        Potential amp.        0.0390 Ry
        Total length         44.8347 bohr
 

     total cpu time spent up to now is      501.8 secs

     total energy              =   -3600.11836573 Ry
     Harris-Foulkes estimate   =   -3600.33096220 Ry
     estimated scf accuracy    <       2.58826219 Ry

     iteration #  9     ecut=    36.75 Ry     beta=0.10
     Davidson diagonalization with overlap
     ethr =  6.02E-04,  avg # of iterations =  1.2

     negative rho (up, down):  4.593E-01 0.000E+00
 
     Adding external electric field

     Computed dipole along edir(3) : 
        Dipole               -0.0712 Ry au,         -0.1809 Debye
        Dipole field         -0.0002 Ry au
 
        Potential amp.        0.0199 Ry
        Total length         44.8347 bohr
 

     total cpu time spent up to now is      545.3 secs

     total energy              =   -3599.98439630 Ry
     Harris-Foulkes estimate   =   -3600.15364969 Ry
     estimated scf accuracy    <       0.95373364 Ry

     iteration # 10     ecut=    36.75 Ry     beta=0.10
     Davidson diagonalization with overlap
     ethr =  4.54E-04,  avg # of iterations =  3.9

     negative rho (up, down):  4.580E-01 0.000E+00
 
     Adding external electric field

     Computed dipole along edir(3) : 
        Dipole               -0.0477 Ry au,         -0.1213 Debye
        Dipole field         -0.0001 Ry au
 
        Potential amp.        0.0133 Ry
        Total length         44.8347 bohr
 

     total cpu time spent up to now is      596.6 secs

     total energy              =   -3600.02376843 Ry
     Harris-Foulkes estimate   =   -3600.04847478 Ry
     estimated scf accuracy    <       0.26162912 Ry

     iteration # 11     ecut=    36.75 Ry     beta=0.10
     Davidson diagonalization with overlap
     ethr =  1.25E-04,  avg # of iterations =  6.5

     negative rho (up, down):  4.578E-01 0.000E+00
 
     Adding external electric field

     Computed dipole along edir(3) : 
        Dipole               -0.0395 Ry au,         -0.1003 Debye
        Dipole field         -0.0001 Ry au
 
        Potential amp.        0.0110 Ry
        Total length         44.8347 bohr
 

     total cpu time spent up to now is      658.8 secs

     total energy              =   -3600.02206819 Ry
     Harris-Foulkes estimate   =   -3600.03534753 Ry
     estimated scf accuracy    <       0.12270827 Ry

     iteration # 12     ecut=    36.75 Ry     beta=0.10
     Davidson diagonalization with overlap
     ethr =  5.84E-05,  avg # of iterations =  2.1

     negative rho (up, down):  4.573E-01 0.000E+00
 
     Adding external electric field

     Computed dipole along edir(3) : 
        Dipole               -0.0173 Ry au,         -0.0440 Debye
        Dipole field         -0.0001 Ry au
 
        Potential amp.        0.0048 Ry
        Total length         44.8347 bohr
 

     total cpu time spent up to now is      704.4 secs

     total energy              =   -3600.01601076 Ry
     Harris-Foulkes estimate   =   -3600.02898960 Ry
     estimated scf accuracy    <       0.10761116 Ry

     iteration # 13     ecut=    36.75 Ry     beta=0.10
     Davidson diagonalization with overlap
     ethr =  5.12E-05,  avg # of iterations =  2.5

     negative rho (up, down):  4.570E-01 0.000E+00
 
     Adding external electric field

     Computed dipole along edir(3) : 
        Dipole               -0.0241 Ry au,         -0.0612 Debye
        Dipole field         -0.0001 Ry au
 
        Potential amp.        0.0067 Ry
        Total length         44.8347 bohr
 

     total cpu time spent up to now is      751.7 secs

     total energy              =   -3600.02114723 Ry
     Harris-Foulkes estimate   =   -3600.02145416 Ry
     estimated scf accuracy    <       0.00512277 Ry

     iteration # 14     ecut=    36.75 Ry     beta=0.10
     Davidson diagonalization with overlap
     ethr =  2.44E-06,  avg # of iterations =  5.1

     negative rho (up, down):  4.564E-01 0.000E+00
 
     Adding external electric field

     Computed dipole along edir(3) : 
        Dipole               -0.0130 Ry au,         -0.0329 Debye
        Dipole field         -0.0000 Ry au
 
        Potential amp.        0.0036 Ry
        Total length         44.8347 bohr
 

     total cpu time spent up to now is      813.8 secs

     total energy              =   -3600.02121254 Ry
     Harris-Foulkes estimate   =   -3600.02205053 Ry
     estimated scf accuracy    <       0.01117476 Ry

     iteration # 15     ecut=    36.75 Ry     beta=0.10
     Davidson diagonalization with overlap
     ethr =  2.44E-06,  avg # of iterations =  2.8

     negative rho (up, down):  4.559E-01 0.000E+00
 
     Adding external electric field

     Computed dipole along edir(3) : 
        Dipole               -0.0029 Ry au,         -0.0073 Debye
        Dipole field         -0.0000 Ry au
 
        Potential amp.        0.0008 Ry
        Total length         44.8347 bohr
 

     total cpu time spent up to now is      861.5 secs

     total energy              =   -3600.02096246 Ry
     Harris-Foulkes estimate   =   -3600.02142666 Ry
     estimated scf accuracy    <       0.00351386 Ry

     iteration # 16     ecut=    36.75 Ry     beta=0.10
     Davidson diagonalization with overlap
     ethr =  1.67E-06,  avg # of iterations =  5.2

     negative rho (up, down):  4.557E-01 0.000E+00
 
     Adding external electric field

     Computed dipole along edir(3) : 
        Dipole               -0.0011 Ry au,         -0.0028 Debye
        Dipole field         -0.0000 Ry au
 
        Potential amp.        0.0003 Ry
        Total length         44.8347 bohr
 

     total cpu time spent up to now is      918.8 secs

     total energy              =   -3600.02121441 Ry
     Harris-Foulkes estimate   =   -3600.02123468 Ry
     estimated scf accuracy    <       0.00031815 Ry

     iteration # 17     ecut=    36.75 Ry     beta=0.10
     Davidson diagonalization with overlap
     ethr =  1.52E-07,  avg # of iterations =  4.6

     negative rho (up, down):  4.556E-01 0.000E+00
 
     Adding external electric field

     Computed dipole along edir(3) : 
        Dipole               -0.0017 Ry au,         -0.0044 Debye
        Dipole field         -0.0000 Ry au
 
        Potential amp.        0.0005 Ry
        Total length         44.8347 bohr
 

     total cpu time spent up to now is      978.9 secs

     total energy              =   -3600.02123980 Ry
     Harris-Foulkes estimate   =   -3600.02127172 Ry
     estimated scf accuracy    <       0.00020553 Ry

     iteration # 18     ecut=    36.75 Ry     beta=0.10
     Davidson diagonalization with overlap
     ethr =  9.79E-08,  avg # of iterations =  1.1

     negative rho (up, down):  4.556E-01 0.000E+00
 
     Adding external electric field

     Computed dipole along edir(3) : 
        Dipole               -0.0011 Ry au,         -0.0029 Debye
        Dipole field         -0.0000 Ry au
 
        Potential amp.        0.0003 Ry
        Total length         44.8347 bohr
 

     total cpu time spent up to now is     1021.7 secs

     total energy              =   -3600.02126837 Ry
     Harris-Foulkes estimate   =   -3600.02125779 Ry
     estimated scf accuracy    <       0.00002760 Ry

     iteration # 19     ecut=    36.75 Ry     beta=0.10
     Davidson diagonalization with overlap
     ethr =  1.31E-08,  avg # of iterations =  3.3

     negative rho (up, down):  4.557E-01 0.000E+00
 
     Adding external electric field

     Computed dipole along edir(3) : 
        Dipole               -0.0009 Ry au,         -0.0024 Debye
        Dipole field         -0.0000 Ry au
 
        Potential amp.        0.0003 Ry
        Total length         44.8347 bohr
 

     total cpu time spent up to now is     1072.1 secs

     total energy              =   -3600.02127268 Ry
     Harris-Foulkes estimate   =   -3600.02127101 Ry
     estimated scf accuracy    <       0.00001863 Ry

     iteration # 20     ecut=    36.75 Ry     beta=0.10
     Davidson diagonalization with overlap
     ethr =  8.87E-09,  avg # of iterations =  1.1

     negative rho (up, down):  4.556E-01 0.000E+00
 
     Adding external electric field

     Computed dipole along edir(3) : 
        Dipole               -0.0006 Ry au,         -0.0016 Debye
        Dipole field         -0.0000 Ry au
 
        Potential amp.        0.0002 Ry
        Total length         44.8347 bohr
 

     total cpu time spent up to now is     1114.7 secs

     total energy              =   -3600.02127520 Ry
     Harris-Foulkes estimate   =   -3600.02127376 Ry
     estimated scf accuracy    <       0.00000569 Ry

     iteration # 21     ecut=    36.75 Ry     beta=0.10
     Davidson diagonalization with overlap
     ethr =  2.71E-09,  avg # of iterations =  2.0

     negative rho (up, down):  4.556E-01 0.000E+00
 
     Adding external electric field

     Computed dipole along edir(3) : 
        Dipole               -0.0004 Ry au,         -0.0010 Debye
        Dipole field         -0.0000 Ry au
 
        Potential amp.        0.0001 Ry
        Total length         44.8347 bohr
 

     total cpu time spent up to now is     1161.2 secs

     total energy              =   -3600.02127691 Ry
     Harris-Foulkes estimate   =   -3600.02127559 Ry
     estimated scf accuracy    <       0.00000285 Ry

     iteration # 22     ecut=    36.75 Ry     beta=0.10
     Davidson diagonalization with overlap
     ethr =  1.36E-09,  avg # of iterations =  1.3

     negative rho (up, down):  4.557E-01 0.000E+00

     negative rho (up, down):  4.557E-01 0.000E+00

     negative rho (up, down):  4.557E-01 0.000E+00

     negative rho (up, down):  4.557E-01 0.000E+00

     negative rho (up, down):  4.557E-01 0.000E+00

     negative rho (up, down):  4.557E-01 0.000E+00

     negative rho (up, down):  4.557E-01 0.000E+00

     negative rho (up, down):  4.557E-01 0.000E+00

     negative rho (up, down):  4.557E-01 0.000E+00

     negative rho (up, down):  4.557E-01 0.000E+00

     negative rho (up, down):  4.557E-01 0.000E+00

     negative rho (up, down):  4.557E-01 0.000E+00

     negative rho (up, down):  4.557E-01 0.000E+00

     negative rho (up, down):  4.557E-01 0.000E+00

     negative rho (up, down):  4.557E-01 0.000E+00

     negative rho (up, down):  4.557E-01 0.000E+00

     negative rho (up, down):  4.557E-01 0.000E+00

     negative rho (up, down):  4.557E-01 0.000E+00

     negative rho (up, down):  4.557E-01 0.000E+00

     negative rho (up, down):  4.557E-01 0.000E+00

     negative rho (up, down):  4.557E-01 0.000E+00

     negative rho (up, down):  4.557E-01 0.000E+00

     negative rho (up, down):  4.557E-01 0.000E+00

     negative rho (up, down):  4.557E-01 0.000E+00

     negative rho (up, down):  4.557E-01 0.000E+00

     negative rho (up, down):  4.557E-01 0.000E+00

     negative rho (up, down):  4.557E-01 0.000E+00

     negative rho (up, down):  4.557E-01 0.000E+00

     negative rho (up, down):  4.557E-01 0.000E+00

     negative rho (up, down):  4.557E-01 0.000E+00

     negative rho (up, down):  4.557E-01 0.000E+00

     negative rho (up, down):  4.557E-01 0.000E+00

     negative rho (up, down):  4.557E-01 0.000E+00

     negative rho (up, down):  4.557E-01 0.000E+00

     negative rho (up, down):  4.557E-01 0.000E+00
 
     Adding external electric field

     Computed dipole along edir(3) : 
        Dipole                0.0007 Ry au,          0.0017 Debye
        Dipole field          0.0000 Ry au
 
        Potential amp.       -0.0002 Ry
        Total length         44.8347 bohr
 

     total cpu time spent up to now is     1264.6 secs

     End of self-consistent calculation

          k = 0.0000 0.0000 0.0000 ( 15205 PWs)   bands (ev):

  -111.4997-111.4955-111.2057-111.2057-111.2015-111.2015 -71.8229 -71.7277
   -71.3969 -71.3939 -71.3004 -71.2977 -68.9057 -68.9002 -68.8956 -68.8848
   -68.8804 -68.8536 -68.6624 -68.6624 -68.6350 -68.6347 -68.6304 -68.6301
   -68.6103 -68.6103 -68.5177 -68.5172 -68.5134 -68.5127 -42.1216 -41.9944
   -41.8992 -41.8715 -41.8658 -41.7009 -41.6117 -41.3217 -41.3191 -41.2913
   -41.2526 -41.2298 -41.2023 -41.1633 -41.1569 -41.0760 -41.0721 -41.0694
    -6.2545  -4.5445  -4.2039  -4.1494  -4.0265  -3.6794  -3.3538  -3.2550
    -3.1978  -3.1525  -3.1454  -3.0688  -3.0164  -2.9428  -2.5926  -2.2724
    -2.0179  -2.0058  -2.0014  -1.8818  -1.8028  -1.7675  -1.5867  -1.5317
    -1.4389  -1.3958  -1.3908  -1.3421  -1.2929  -1.2106  -1.1187  -1.0987
    -1.0648  -0.7641  -0.7568  -0.7164  -0.6948  -0.6935  -0.5236  -0.5022
    -0.3410  -0.2411  -0.0580   0.1366   0.1416   0.2316   0.2964   0.3772
     0.4477   0.6188   0.9926   1.0721   1.1369   1.5589   1.5881   1.7334
     1.7939   1.8126   1.8594   1.9666   2.0109   2.0608   2.4632   2.5219
     2.5278   3.0510   3.1685   3.3910   3.6270   4.3818   4.5852   4.7317
     5.0491   5.5372   5.7831   6.3132   7.1545   7.3001   7.3741   7.5513
     7.6051   8.0695   8.4118   8.9574   9.4347   9.4572   9.5749

          k = 0.0000 0.0349 0.0000 ( 15163 PWs)   bands (ev):

  -111.4997-111.4955-111.2057-111.2057-111.2015-111.2015 -71.8230 -71.7277
   -71.3970 -71.3940 -71.3004 -71.2977 -68.9057 -68.9000 -68.8955 -68.8847
   -68.8804 -68.8536 -68.6624 -68.6624 -68.6349 -68.6345 -68.6304 -68.6300
   -68.6103 -68.6103 -68.5178 -68.5171 -68.5134 -68.5127 -42.1218 -41.9947
   -41.8992 -41.8716 -41.8659 -41.7014 -41.6116 -41.3217 -41.3195 -41.2916
   -41.2524 -41.2299 -41.2025 -41.1633 -41.1569 -41.0761 -41.0721 -41.0694
    -6.0469  -4.3646  -4.0888  -4.0023  -3.8952  -3.6535  -3.3293  -3.1367
    -3.0976  -3.0971  -3.0624  -2.9741  -2.9482  -2.8650  -2.4753  -2.2898
    -2.0297  -2.0109  -1.9656  -1.9097  -1.8328  -1.7938  -1.5531  -1.5504
    -1.5388  -1.4238  -1.3421  -1.3398  -1.2882  -1.2751  -1.1495  -1.0940
    -1.0643  -1.0179  -0.8367  -0.7786  -0.6858  -0.6654  -0.6001  -0.4786
    -0.4600  -0.3595  -0.2747  -0.1596  -0.1471   0.0404   0.0970   0.1761
     0.5493   0.5918   0.8018   0.8189   1.0074   1.1643   1.3286   1.4847
     1.6505   1.7244   1.8409   1.8864   1.9502   2.0098   2.1449   2.4590
     2.5806   2.6858   3.0956   3.7000   4.0257   4.4909   5.0571   5.4390
     5.6037   5.7246   5.9981   6.4999   7.3479   7.4074   7.6560   7.7936
     7.8204   8.1824   8.9411   9.2097   9.3584   9.4073   9.6303

          k = 0.0000 0.0697 0.0000 ( 15202 PWs)   bands (ev):

  -111.4997-111.4955-111.2057-111.2057-111.2015-111.2015 -71.8232 -71.7277
   -71.3971 -71.3943 -71.3004 -71.2978 -68.9056 -68.8998 -68.8955 -68.8847
   -68.8804 -68.8536 -68.6623 -68.6623 -68.6346 -68.6342 -68.6304 -68.6300
   -68.6103 -68.6103 -68.5179 -68.5170 -68.5134 -68.5127 -42.1222 -41.9952
   -41.8993 -41.8717 -41.8663 -41.7024 -41.6115 -41.3217 -41.3203 -41.2922
   -41.2520 -41.2300 -41.2029 -41.1632 -41.1570 -41.0761 -41.0721 -41.0695
    -5.4681  -4.1066  -3.8399  -3.7614  -3.5164  -3.4629  -3.2305  -3.0211
    -2.9047  -2.8443  -2.7734  -2.7498  -2.6709  -2.6673  -2.3274  -2.2086
    -2.1836  -2.0462  -2.0265  -1.9161  -1.8758  -1.8534  -1.6876  -1.5715
    -1.5364  -1.5264  -1.5064  -1.4608  -1.2902  -1.2500  -1.2477  -1.2288
    -1.0214  -0.9917  -0.9865  -0.9729  -0.9225  -0.9170  -0.8062  -0.7357
    -0.6856  -0.6739  -0.5578  -0.4867  -0.3885  -0.3840  -0.2324  -0.2261
     0.0279   0.0805   0.1197   0.5500   0.6426   0.8711   1.2982   1.3159
     1.3636   1.4998   1.6959   1.7808   1.8738   1.9497   2.0967   2.1467
     2.4529   3.3279   3.4404   3.8895   4.3931   4.7867   5.5761   6.2009
     6.2802   6.3105   6.5715   6.7161   7.0419   7.8658   7.9271   8.1367
     8.6607   8.8330   8.9127   9.1396   9.2030   9.5037   9.7063

          k = 0.0000-0.1046 0.0000 ( 15232 PWs)   bands (ev):

  -111.4997-111.4955-111.2057-111.2057-111.2015-111.2015 -71.8232 -71.7278
   -71.3971 -71.3944 -71.3004 -71.2978 -68.9056 -68.8997 -68.8955 -68.8847
   -68.8804 -68.8536 -68.6623 -68.6622 -68.6345 -68.6341 -68.6304 -68.6300
   -68.6103 -68.6103 -68.5179 -68.5170 -68.5134 -68.5127 -42.1223 -41.9954
   -41.8993 -41.8718 -41.8664 -41.7029 -41.6114 -41.3217 -41.3207 -41.2925
   -41.2518 -41.2301 -41.2031 -41.1632 -41.1571 -41.0762 -41.0721 -41.0695
    -4.7934  -4.5435  -3.6977  -3.5307  -3.2885  -3.0843  -3.0088  -2.9925
    -2.8466  -2.6688  -2.6477  -2.6238  -2.4610  -2.4289  -2.2960  -2.2721
    -2.2383  -2.0864  -2.0831  -2.0409  -1.8822  -1.8238  -1.7746  -1.7626
    -1.5374  -1.5285  -1.5000  -1.4442  -1.3305  -1.2646  -1.2302  -1.2292
    -1.2218  -1.2035  -1.1995  -1.1701  -0.9886  -0.9476  -0.9463  -0.8592
    -0.8584  -0.8258  -0.8199  -0.6688  -0.6227  -0.5627  -0.5394  -0.4031
    -0.2494   0.0748   0.1359   0.1633   0.5398   0.7976   1.2230   1.2646
     1.4219   1.5133   1.5427   1.7072   1.8401   1.9540   2.0359   2.4503
     2.4634   3.2857   3.3527   3.8591   5.0484   5.4681   5.6164   5.6600
     6.3333   6.7225   6.9489   7.0965   7.5625   7.6118   7.8922   7.9310
     8.9010   8.9072   9.0042   9.0773   9.1735   9.3392   9.5474

          k = 0.0324 0.0174 0.0000 ( 15181 PWs)   bands (ev):

  -111.4994-111.4958-111.2054-111.2054-111.2018-111.2018 -71.8166 -71.7341
   -71.3905 -71.3876 -71.3069 -71.3042 -68.9022 -68.8998 -68.8958 -68.8844
   -68.8807 -68.8571 -68.6590 -68.6589 -68.6346 -68.6343 -68.6307 -68.6303
   -68.6138 -68.6138 -68.5174 -68.5169 -68.5137 -68.5130 -42.0699 -41.9882
   -41.9058 -41.8197 -41.8144 -41.6951 -41.6178 -41.3774 -41.3132 -41.2855
   -41.2465 -41.2359 -41.2084 -41.1693 -41.1515 -41.1276 -41.1248 -41.0815
    -6.0246  -4.3324  -4.0796  -3.9882  -3.9160  -3.4916  -3.2396  -3.1968
    -3.0975  -3.0486  -3.0445  -2.9587  -2.8623  -2.8464  -2.5180  -2.1937
    -2.0057  -2.0038  -1.9345  -1.8198  -1.7880  -1.6794  -1.5647  -1.5502
    -1.4653  -1.4270  -1.3680  -1.3654  -1.3187  -1.2520  -1.1447  -1.1326
    -1.1116  -0.9073  -0.8436  -0.7749  -0.7332  -0.7318  -0.6228  -0.4838
    -0.4758  -0.3914  -0.3185  -0.1456   0.1152   0.1503   0.2651   0.4420
     0.4691   0.5917   0.6726   0.8017   0.9410   0.9915   1.2172   1.4066
     1.4182   1.4530   1.7171   1.7805   1.9983   2.0907   2.1969   2.6668
     2.8067   2.9514   3.0222   3.2442   3.5298   4.0117   4.6825   5.2158
     5.6652   5.7324   6.0238   6.5130   7.3452   7.5940   7.7429   7.8331
     7.9653   8.0556   8.2579   8.8929   9.1922   9.7631   9.7911

          k = 0.0324 0.0523 0.0000 ( 15189 PWs)   bands (ev):

  -111.4994-111.4958-111.2054-111.2054-111.2018-111.2018 -71.8167 -71.7342
   -71.3906 -71.3878 -71.3069 -71.3042 -68.9022 -68.8996 -68.8958 -68.8844
   -68.8807 -68.8571 -68.6589 -68.6588 -68.6345 -68.6341 -68.6307 -68.6303
   -68.6138 -68.6138 -68.5175 -68.5168 -68.5137 -68.5130 -42.0702 -41.9886
   -41.9058 -41.8198 -41.8146 -41.6959 -41.6176 -41.3774 -41.3138 -41.2860
   -41.2462 -41.2360 -41.2087 -41.1693 -41.1516 -41.1276 -41.1248 -41.0816
    -5.6286  -4.0397  -3.8689  -3.7349  -3.7165  -3.4320  -3.1190  -3.0561
    -3.0022  -2.9103  -2.8679  -2.8117  -2.6974  -2.6743  -2.3288  -2.2229
    -2.0622  -2.0300  -1.9451  -1.8994  -1.8056  -1.7849  -1.6460  -1.5727
    -1.4947  -1.4918  -1.4832  -1.3766  -1.3345  -1.2829  -1.2293  -1.1852
    -1.0982  -1.0284  -1.0268  -0.8934  -0.8850  -0.7815  -0.7269  -0.7130
    -0.6138  -0.4713  -0.4529  -0.3705  -0.2287  -0.2238  -0.1717   0.0790
     0.1478   0.2333   0.4056   0.5474   0.6690   0.8881   1.1871   1.2075
     1.3346   1.3487   1.6673   1.6703   1.8800   1.9864   2.0290   2.3458
     2.5322   2.8828   3.0049   3.5898   4.4529   4.7063   4.9658   5.5735
     6.0844   6.2784   6.4203   6.8743   7.5195   7.7775   7.8106   8.0086
     8.4714   8.4916   8.5792   9.0803   9.1856   9.3468   9.8249

          k = 0.0324 0.0872 0.0000 ( 15208 PWs)   bands (ev):

  -111.4994-111.4958-111.2054-111.2054-111.2018-111.2018 -71.8169 -71.7342
   -71.3907 -71.3880 -71.3070 -71.3043 -68.9021 -68.8994 -68.8958 -68.8844
   -68.8807 -68.8571 -68.6588 -68.6588 -68.6343 -68.6339 -68.6307 -68.6303
   -68.6138 -68.6138 -68.5176 -68.5167 -68.5137 -68.5130 -42.0705 -41.9890
   -41.9058 -41.8199 -41.8148 -41.6967 -41.6175 -41.3774 -41.3145 -41.2864
   -41.2459 -41.2361 -41.2090 -41.1692 -41.1517 -41.1276 -41.1249 -41.0816
    -4.9401  -4.1482  -3.6164  -3.4050  -3.3902  -3.1777  -2.9227  -2.8945
    -2.8466  -2.7149  -2.6267  -2.5301  -2.4892  -2.4378  -2.2912  -2.2371
    -2.1452  -2.1351  -2.0749  -1.9632  -1.8880  -1.8239  -1.7465  -1.7021
    -1.6382  -1.5461  -1.5268  -1.4256  -1.4038  -1.3829  -1.3011  -1.2605
    -1.2210  -1.1998  -1.1711  -1.1066  -1.0966  -0.9587  -0.9512  -0.9274
    -0.8371  -0.7362  -0.6877  -0.5280  -0.4905  -0.4903  -0.3686  -0.3546
    -0.2273   0.1461   0.1971   0.3472   0.5272   0.6760   1.2088   1.2140
     1.3340   1.3683   1.5495   1.5765   1.7216   1.7717   1.7963   2.1492
     2.7632   2.9570   3.0129   3.7254   4.8578   4.9331   5.8839   6.2132
     6.5032   6.7543   7.2112   7.3002   7.5698   7.5899   7.6970   8.3990
     8.5438   8.5517   8.6536   8.7112   9.1469   9.1711   9.4223

          k = 0.0324-0.0872 0.0000 ( 15208 PWs)   bands (ev):

  -111.4994-111.4958-111.2054-111.2054-111.2018-111.2018 -71.8169 -71.7342
   -71.3907 -71.3880 -71.3070 -71.3043 -68.9021 -68.8994 -68.8959 -68.8844
   -68.8807 -68.8571 -68.6588 -68.6588 -68.6343 -68.6339 -68.6307 -68.6303
   -68.6138 -68.6138 -68.5176 -68.5167 -68.5137 -68.5130 -42.0705 -41.9890
   -41.9058 -41.8199 -41.8148 -41.6967 -41.6175 -41.3774 -41.3145 -41.2864
   -41.2459 -41.2361 -41.2090 -41.1692 -41.1517 -41.1276 -41.1249 -41.0816
    -4.9401  -4.1482  -3.6164  -3.4050  -3.3902  -3.1777  -2.9227  -2.8945
    -2.8466  -2.7150  -2.6267  -2.5301  -2.4892  -2.4378  -2.2912  -2.2371
    -2.1452  -2.1351  -2.0749  -1.9632  -1.8880  -1.8239  -1.7465  -1.7021
    -1.6382  -1.5461  -1.5268  -1.4256  -1.4038  -1.3829  -1.3011  -1.2605
    -1.2210  -1.1998  -1.1711  -1.1066  -1.0966  -0.9587  -0.9512  -0.9274
    -0.8371  -0.7362  -0.6877  -0.5280  -0.4905  -0.4903  -0.3686  -0.3546
    -0.2273   0.1461   0.1971   0.3472   0.5272   0.6760   1.2088   1.2140
     1.3340   1.3683   1.5495   1.5765   1.7216   1.7717   1.7963   2.1492
     2.7632   2.9570   3.0129   3.7254   4.8578   4.9331   5.8839   6.2132
     6.5032   6.7543   7.2112   7.3002   7.5698   7.5899   7.6970   8.3990
     8.5438   8.5517   8.6536   8.7112   9.1469   9.1711   9.4223

          k = 0.0324-0.0523 0.0000 ( 15189 PWs)   bands (ev):

  -111.4994-111.4958-111.2054-111.2054-111.2018-111.2018 -71.8167 -71.7342
   -71.3906 -71.3878 -71.3069 -71.3042 -68.9022 -68.8996 -68.8958 -68.8844
   -68.8807 -68.8571 -68.6589 -68.6588 -68.6345 -68.6341 -68.6307 -68.6303
   -68.6138 -68.6138 -68.5175 -68.5168 -68.5137 -68.5130 -42.0702 -41.9886
   -41.9058 -41.8198 -41.8146 -41.6959 -41.6176 -41.3774 -41.3138 -41.2860
   -41.2462 -41.2360 -41.2087 -41.1693 -41.1516 -41.1276 -41.1248 -41.0816
    -5.6286  -4.0397  -3.8689  -3.7349  -3.7165  -3.4320  -3.1190  -3.0561
    -3.0022  -2.9103  -2.8679  -2.8117  -2.6974  -2.6743  -2.3288  -2.2229
    -2.0622  -2.0300  -1.9451  -1.8994  -1.8056  -1.7849  -1.6460  -1.5727
    -1.4947  -1.4918  -1.4832  -1.3766  -1.3345  -1.2829  -1.2293  -1.1852
    -1.0982  -1.0284  -1.0268  -0.8934  -0.8850  -0.7815  -0.7269  -0.7130
    -0.6138  -0.4713  -0.4529  -0.3705  -0.2287  -0.2238  -0.1717   0.0790
     0.1478   0.2333   0.4056   0.5474   0.6690   0.8881   1.1871   1.2075
     1.3346   1.3487   1.6673   1.6703   1.8800   1.9864   2.0290   2.3458
     2.5322   2.8828   3.0049   3.5898   4.4529   4.7063   4.9658   5.5735
     6.0844   6.2784   6.4203   6.8743   7.5195   7.7775   7.8106   8.0086
     8.4714   8.4916   8.5792   9.0803   9.1856   9.3468   9.8248

          k = 0.0324-0.0174 0.0000 ( 15181 PWs)   bands (ev):

  -111.4994-111.4958-111.2054-111.2054-111.2018-111.2018 -71.8166 -71.7341
   -71.3905 -71.3876 -71.3069 -71.3042 -68.9022 -68.8998 -68.8958 -68.8844
   -68.8807 -68.8571 -68.6590 -68.6589 -68.6346 -68.6343 -68.6307 -68.6303
   -68.6138 -68.6138 -68.5174 -68.5169 -68.5137 -68.5130 -42.0699 -41.9882
   -41.9058 -41.8197 -41.8144 -41.6951 -41.6178 -41.3774 -41.3132 -41.2855
   -41.2465 -41.2359 -41.2084 -41.1693 -41.1515 -41.1276 -41.1248 -41.0815
    -6.0246  -4.3324  -4.0796  -3.9882  -3.9160  -3.4916  -3.2396  -3.1968
    -3.0975  -3.0486  -3.0445  -2.9587  -2.8623  -2.8464  -2.5180  -2.1937
    -2.0057  -2.0038  -1.9345  -1.8198  -1.7880  -1.6794  -1.5647  -1.5502
    -1.4653  -1.4270  -1.3680  -1.3654  -1.3187  -1.2520  -1.1447  -1.1326
    -1.1116  -0.9074  -0.8436  -0.7749  -0.7332  -0.7318  -0.6228  -0.4838
    -0.4758  -0.3914  -0.3185  -0.1456   0.1152   0.1503   0.2651   0.4420
     0.4691   0.5917   0.6726   0.8017   0.9410   0.9915   1.2172   1.4066
     1.4182   1.4530   1.7171   1.7805   1.9983   2.0907   2.1969   2.6668
     2.8067   2.9514   3.0222   3.2442   3.5298   4.0117   4.6825   5.2158
     5.6652   5.7324   6.0238   6.5130   7.3452   7.5940   7.7429   7.8331
     7.9653   8.0556   8.2579   8.8929   9.1922   9.7631   9.7911

          k = 0.0648 0.0349 0.0000 ( 15159 PWs)   bands (ev):

  -111.4987-111.4966-111.2047-111.2047-111.2026-111.2025 -71.7993 -71.7517
   -71.3730 -71.3701 -71.3247 -71.3220 -68.8989 -68.8966 -68.8927 -68.8836
   -68.8815 -68.8667 -68.6494 -68.6494 -68.6338 -68.6334 -68.6315 -68.6311
   -68.6234 -68.6233 -68.5167 -68.5160 -68.5145 -68.5138 -41.9710 -41.9274
   -41.9235 -41.6791 -41.6772 -41.6725 -41.6344 -41.5278 -41.2972 -41.2780
   -41.2746 -41.2694 -41.2526 -41.2301 -41.2251 -41.1856 -41.1369 -41.0964
    -5.3879  -3.9789  -3.8027  -3.5887  -3.5741  -3.2290  -3.0944  -2.9058
    -2.8586  -2.8189  -2.7665  -2.7344  -2.5505  -2.3527  -2.3218  -2.0570
    -2.0078  -1.9815  -1.9045  -1.8254  -1.8198  -1.7234  -1.6334  -1.5331
    -1.5315  -1.4031  -1.3959  -1.3203  -1.2878  -1.2701  -1.2517  -1.1793
    -1.1776  -1.0525  -0.9960  -0.9887  -0.9550  -0.9123  -0.8835  -0.8269
    -0.6995  -0.4840  -0.4773  -0.2348  -0.1364   0.0170   0.0434   0.0615
     0.1754   0.3249   0.3825   0.4229   0.5662   0.6258   0.6772   0.7818
     0.9098   1.1002   1.2775   1.4319   1.4707   1.6552   1.7390   2.0201
     2.4746   3.0037   3.1812   3.8827   3.9814   4.0098   4.3651   5.7984
     6.2170   6.3074   6.7358   6.8589   7.1096   8.0136   8.1280   8.4412
     8.5196   8.5289   8.7532   8.9059   9.2398   9.4730   9.6668

          k = 0.0648 0.0697 0.0000 ( 15178 PWs)   bands (ev):

  -111.4987-111.4966-111.2047-111.2047-111.2026-111.2025 -71.7995 -71.7517
   -71.3731 -71.3703 -71.3247 -71.3220 -68.8987 -68.8967 -68.8926 -68.8836
   -68.8815 -68.8667 -68.6494 -68.6493 -68.6336 -68.6332 -68.6315 -68.6311
   -68.6234 -68.6233 -68.5167 -68.5160 -68.5145 -68.5138 -41.9714 -41.9277
   -41.9234 -41.6798 -41.6773 -41.6727 -41.6341 -41.5277 -41.2978 -41.2780
   -41.2745 -41.2697 -41.2525 -41.2299 -41.2252 -41.1856 -41.1369 -41.0965
    -4.8800  -3.9872  -3.6590  -3.4194  -3.2537  -3.0275  -2.9931  -2.7182
    -2.7146  -2.6676  -2.6430  -2.6071  -2.3644  -2.2891  -2.2637  -2.1549
    -2.0923  -1.9907  -1.9667  -1.9391  -1.8797  -1.8388  -1.6944  -1.5660
    -1.5442  -1.4769  -1.4424  -1.4367  -1.4188  -1.3499  -1.3223  -1.2919
    -1.2684  -1.1563  -1.1450  -1.0575  -1.0534  -1.0138  -1.0120  -0.9049
    -0.8734  -0.8045  -0.6713  -0.3842  -0.3735  -0.2015  -0.1752  -0.0934
    -0.0384   0.1973   0.3863   0.4236   0.4929   0.5168   0.7398   0.8873
     0.9673   1.0366   1.2241   1.3375   1.4591   1.6924   1.7137   2.0554
     2.0738   2.4746   3.0746   3.7700   4.6831   4.8115   5.0551   5.9290
     6.2667   6.7910   7.2946   7.3852   7.5080   7.6524   7.9855   8.3854
     8.5952   8.7652   8.7768   8.9228   9.2224   9.2264   9.2868

          k = 0.0648 0.1046 0.0000 ( 15226 PWs)   bands (ev):

  -111.4987-111.4966-111.2047-111.2047-111.2026-111.2025 -71.7995 -71.7517
   -71.3731 -71.3704 -71.3247 -71.3220 -68.8986 -68.8967 -68.8926 -68.8836
   -68.8815 -68.8667 -68.6493 -68.6493 -68.6335 -68.6331 -68.6315 -68.6312
   -68.6234 -68.6234 -68.5168 -68.5159 -68.5145 -68.5138 -41.9715 -41.9278
   -41.9233 -41.6802 -41.6774 -41.6729 -41.6339 -41.5277 -41.2981 -41.2780
   -41.2745 -41.2699 -41.2524 -41.2297 -41.2253 -41.1857 -41.1369 -41.0965
    -4.3470  -3.9832  -3.9549  -3.2973  -2.9690  -2.9301  -2.7536  -2.6882
    -2.6228  -2.5808  -2.4543  -2.4407  -2.4333  -2.4105  -2.3371  -2.2448
    -2.0964  -2.0343  -1.9175  -1.8592  -1.8455  -1.7506  -1.7361  -1.6724
    -1.6518  -1.6247  -1.6094  -1.5652  -1.5158  -1.4953  -1.3272  -1.3209
    -1.2724  -1.2567  -1.2201  -1.2074  -1.1479  -1.1206  -1.0966  -1.0420
    -0.9843  -0.8929  -0.4788  -0.4627  -0.3379  -0.3056  -0.2751  -0.1753
     0.0299   0.2602   0.3726   0.4521   0.4938   0.5561   0.8859   0.9072
     1.0014   1.0208   1.1347   1.1549   1.4627   1.5483   1.7048   1.7506
     1.9608   2.1067   3.4398   3.6371   4.1238   5.9214   5.9607   6.2287
     6.9144   6.9573   7.5359   7.5852   7.6686   7.7963   7.8190   8.2820
     8.2925   8.4676   8.5119   8.5490   8.6575   8.9546   9.1764

          k = 0.0648-0.0697 0.0000 ( 15178 PWs)   bands (ev):

  -111.4987-111.4966-111.2047-111.2047-111.2026-111.2025 -71.7995 -71.7517
   -71.3731 -71.3703 -71.3247 -71.3220 -68.8987 -68.8967 -68.8926 -68.8836
   -68.8815 -68.8667 -68.6494 -68.6493 -68.6336 -68.6332 -68.6315 -68.6311
   -68.6234 -68.6233 -68.5167 -68.5160 -68.5145 -68.5138 -41.9714 -41.9277
   -41.9234 -41.6798 -41.6773 -41.6727 -41.6341 -41.5277 -41.2978 -41.2780
   -41.2745 -41.2697 -41.2525 -41.2299 -41.2252 -41.1856 -41.1369 -41.0965
    -4.8800  -3.9872  -3.6590  -3.4194  -3.2537  -3.0275  -2.9931  -2.7182
    -2.7146  -2.6676  -2.6430  -2.6071  -2.3644  -2.2890  -2.2637  -2.1550
    -2.0923  -1.9907  -1.9667  -1.9391  -1.8797  -1.8388  -1.6944  -1.5660
    -1.5442  -1.4769  -1.4424  -1.4367  -1.4188  -1.3499  -1.3223  -1.2919
    -1.2684  -1.1563  -1.1450  -1.0575  -1.0534  -1.0138  -1.0120  -0.9049
    -0.8734  -0.8045  -0.6713  -0.3842  -0.3735  -0.2015  -0.1752  -0.0934
    -0.0384   0.1973   0.3863   0.4236   0.4929   0.5168   0.7398   0.8873
     0.9673   1.0366   1.2241   1.3375   1.4591   1.6924   1.7137   2.0554
     2.0737   2.4746   3.0746   3.7700   4.6831   4.8115   5.0551   5.9290
     6.2667   6.7910   7.2946   7.3852   7.5080   7.6524   7.9855   8.3854
     8.5952   8.7652   8.7768   8.9228   9.2224   9.2264   9.2868

          k = 0.0648-0.0349 0.0000 ( 15159 PWs)   bands (ev):

  -111.4987-111.4966-111.2047-111.2047-111.2026-111.2025 -71.7993 -71.7517
   -71.3730 -71.3701 -71.3247 -71.3220 -68.8989 -68.8966 -68.8927 -68.8836
   -68.8815 -68.8667 -68.6494 -68.6494 -68.6338 -68.6334 -68.6315 -68.6311
   -68.6234 -68.6233 -68.5167 -68.5160 -68.5145 -68.5138 -41.9710 -41.9274
   -41.9235 -41.6791 -41.6772 -41.6725 -41.6344 -41.5278 -41.2972 -41.2780
   -41.2746 -41.2694 -41.2526 -41.2301 -41.2251 -41.1856 -41.1369 -41.0964
    -5.3879  -3.9789  -3.8027  -3.5887  -3.5741  -3.2290  -3.0944  -2.9058
    -2.8586  -2.8189  -2.7665  -2.7344  -2.5505  -2.3527  -2.3218  -2.0570
    -2.0078  -1.9815  -1.9045  -1.8254  -1.8198  -1.7234  -1.6334  -1.5331
    -1.5315  -1.4031  -1.3959  -1.3203  -1.2878  -1.2701  -1.2517  -1.1793
    -1.1776  -1.0525  -0.9960  -0.9887  -0.9550  -0.9123  -0.8835  -0.8269
    -0.6995  -0.4840  -0.4773  -0.2348  -0.1364   0.0170   0.0434   0.0615
     0.1754   0.3249   0.3825   0.4229   0.5662   0.6258   0.6772   0.7818
     0.9098   1.1002   1.2775   1.4319   1.4707   1.6552   1.7390   2.0201
     2.4746   3.0037   3.1812   3.8827   3.9814   4.0098   4.3651   5.7984
     6.2170   6.3074   6.7358   6.8589   7.1096   8.0136   8.1280   8.4412
     8.5196   8.5289   8.7532   8.9059   9.2398   9.4730   9.6668

          k = 0.0648 0.0000 0.0000 ( 15127 PWs)   bands (ev):

  -111.4987-111.4966-111.2047-111.2047-111.2026-111.2026 -71.7993 -71.7517
   -71.3730 -71.3700 -71.3247 -71.3220 -68.8990 -68.8966 -68.8927 -68.8836
   -68.8815 -68.8666 -68.6494 -68.6494 -68.6338 -68.6335 -68.6314 -68.6311
   -68.6233 -68.6233 -68.5166 -68.5161 -68.5145 -68.5138 -41.9708 -41.9273
   -41.9235 -41.6787 -41.6772 -41.6724 -41.6346 -41.5278 -41.2969 -41.2780
   -41.2746 -41.2692 -41.2526 -41.2303 -41.2250 -41.1856 -41.1368 -41.0964
    -5.5718  -3.9648  -3.9356  -3.6808  -3.6518  -3.3266  -3.1302  -2.9969
    -2.9054  -2.8713  -2.8497  -2.7339  -2.6426  -2.4151  -2.4069  -2.0281
    -2.0160  -2.0051  -1.7953  -1.7746  -1.7674  -1.6568  -1.6105  -1.5481
    -1.5348  -1.3591  -1.3309  -1.2924  -1.2875  -1.2862  -1.2120  -1.1927
    -1.1463  -1.1033  -0.9556  -0.9477  -0.8983  -0.8618  -0.8173  -0.6299
    -0.6206  -0.4991  -0.4407  -0.1045  -0.0574   0.1091   0.1819   0.2262
     0.3736   0.4316   0.4454   0.5275   0.6483   0.6511   0.7361   0.9960
     1.1353   1.2693   1.2863   1.5255   1.5381   1.6197   1.6226   1.7367
     2.2606   2.3129   2.7951   3.6101   4.5491   4.8373   5.0220   5.2286
     5.2298   6.1074   6.4753   6.9145   7.6905   7.7332   7.7410   7.8008
     8.2199   8.6269   8.9892   9.0724   9.2777   9.4189   9.7844

          k =-0.0973-0.0523 0.0000 ( 15136 PWs)   bands (ev):

  -111.4976-111.4976-111.2036-111.2036-111.2036-111.2036 -71.7756 -71.7756
   -71.3489 -71.3489 -71.3462 -71.3462 -68.8977 -68.8977 -68.8825 -68.8825
   -68.8797 -68.8797 -68.6364 -68.6364 -68.6363 -68.6363 -68.6326 -68.6326
   -68.6322 -68.6322 -68.5156 -68.5156 -68.5149 -68.5149 -41.9473 -41.9473
   -41.7295 -41.7295 -41.6569 -41.6569 -41.4795 -41.4795 -41.4755 -41.4755
   -41.2751 -41.2751 -41.2475 -41.2475 -41.2079 -41.2078 -41.1167 -41.1167
    -4.5411  -4.5411  -3.3520  -3.3520  -3.2388  -3.2388  -2.8486  -2.8486
    -2.6631  -2.6631  -2.5136  -2.5136  -2.2723  -2.2723  -2.1786  -2.1786
    -2.0414  -2.0414  -1.9140  -1.9140  -1.8023  -1.8023  -1.5585  -1.5585
    -1.4628  -1.4628  -1.4238  -1.4238  -1.3999  -1.3999  -1.3009  -1.3009
    -1.1743  -1.1743  -1.1158  -1.1158  -1.0288  -1.0288  -0.7357  -0.7357
    -0.6235  -0.6235  -0.2740  -0.2740  -0.0952  -0.0952  -0.0448  -0.0447
     0.0813   0.0813   0.1698   0.1698   0.2377   0.2377   0.3423   0.3423
     0.6382   0.6382   1.1821   1.1821   1.3793   1.3793   1.5668   1.5668
     3.1337   3.1337   3.1976   3.1976   4.1361   4.1361   5.3577   5.3577
     6.2345   6.2345   7.2236   7.2236   7.8125   7.8125   8.0975   8.0975
     8.7545   8.7545   9.1209   9.1209   9.4735   9.4740   9.7824

          k =-0.0973-0.0174 0.0000 ( 15159 PWs)   bands (ev):

  -111.4976-111.4976-111.2036-111.2036-111.2036-111.2036 -71.7757 -71.7756
   -71.3490 -71.3489 -71.3463 -71.3461 -68.8978 -68.8976 -68.8825 -68.8825
   -68.8797 -68.8797 -68.6364 -68.6364 -68.6364 -68.6363 -68.6327 -68.6325
   -68.6323 -68.6321 -68.5156 -68.5156 -68.5149 -68.5149 -41.9475 -41.9472
   -41.7297 -41.7294 -41.6574 -41.6564 -41.4795 -41.4794 -41.4756 -41.4754
   -41.2753 -41.2748 -41.2476 -41.2474 -41.2080 -41.2077 -41.1167 -41.1167
    -4.7934  -4.1416  -3.4663  -3.4052  -3.2260  -3.2021  -2.8741  -2.8399
    -2.7864  -2.5840  -2.5237  -2.4268  -2.3648  -2.2788  -2.2279  -2.0695
    -2.0628  -2.0046  -1.9143  -1.9073  -1.8686  -1.7153  -1.6894  -1.5811
    -1.4838  -1.4798  -1.4641  -1.4525  -1.3955  -1.3771  -1.3580  -1.2535
    -1.2479  -1.1912  -1.1540  -1.1309  -1.0457  -0.8590  -0.8081  -0.7947
    -0.5885  -0.3703  -0.3607  -0.1505  -0.1295  -0.0476  -0.0446  -0.0336
    -0.0175   0.0667   0.1452   0.1547   0.2698   0.4612   0.5221   0.5884
     0.6771   0.7585   1.0278   1.1768   1.2950   1.4012   1.5331   1.5893
     1.9330   2.5671   2.8830   3.8882   4.7103   4.9614   4.9859   5.8888
     6.2754   6.7998   6.9285   7.3916   7.4333   7.7284   7.8715   8.2944
     8.5664   8.6457   8.7926   8.8543   8.8905   9.4079   9.6834

          k =-0.0973 0.0174 0.0000 ( 15159 PWs)   bands (ev):

  -111.4976-111.4976-111.2036-111.2036-111.2036-111.2036 -71.7757 -71.7756
   -71.3490 -71.3489 -71.3463 -71.3461 -68.8978 -68.8976 -68.8825 -68.8825
   -68.8797 -68.8797 -68.6364 -68.6364 -68.6364 -68.6363 -68.6327 -68.6325
   -68.6323 -68.6321 -68.5156 -68.5156 -68.5149 -68.5149 -41.9475 -41.9472
   -41.7297 -41.7294 -41.6574 -41.6564 -41.4795 -41.4794 -41.4756 -41.4754
   -41.2753 -41.2748 -41.2476 -41.2474 -41.2080 -41.2077 -41.1167 -41.1167
    -4.7934  -4.1416  -3.4663  -3.4052  -3.2260  -3.2021  -2.8741  -2.8399
    -2.7864  -2.5840  -2.5237  -2.4268  -2.3648  -2.2788  -2.2279  -2.0695
    -2.0628  -2.0046  -1.9143  -1.9073  -1.8686  -1.7153  -1.6894  -1.5811
    -1.4838  -1.4798  -1.4641  -1.4525  -1.3955  -1.3771  -1.3581  -1.2535
    -1.2479  -1.1912  -1.1540  -1.1309  -1.0457  -0.8590  -0.8081  -0.7947
    -0.5885  -0.3703  -0.3607  -0.1505  -0.1295  -0.0476  -0.0446  -0.0336
    -0.0175   0.0667   0.1452   0.1547   0.2698   0.4612   0.5221   0.5884
     0.6771   0.7585   1.0278   1.1768   1.2950   1.4012   1.5331   1.5893
     1.9330   2.5671   2.8830   3.8882   4.7103   4.9614   4.9859   5.8888
     6.2754   6.7999   6.9285   7.3916   7.4333   7.7284   7.8715   8.2944
     8.5664   8.6457   8.7926   8.8543   8.8905   9.4079   9.6834

          k =-0.0973-0.1569 0.0000 ( 15136 PWs)   bands (ev):

  -111.4976-111.4976-111.2036-111.2036-111.2036-111.2036 -71.7756 -71.7756
   -71.3489 -71.3489 -71.3462 -71.3462 -68.8977 -68.8977 -68.8825 -68.8825
   -68.8797 -68.8797 -68.6364 -68.6364 -68.6363 -68.6363 -68.6326 -68.6326
   -68.6322 -68.6322 -68.5156 -68.5156 -68.5149 -68.5149 -41.9473 -41.9473
   -41.7295 -41.7295 -41.6569 -41.6569 -41.4795 -41.4795 -41.4755 -41.4755
   -41.2751 -41.2751 -41.2475 -41.2475 -41.2079 -41.2078 -41.1167 -41.1167
    -4.5411  -4.5411  -3.3520  -3.3520  -3.2389  -3.2388  -2.8486  -2.8486
    -2.6631  -2.6631  -2.5136  -2.5136  -2.2723  -2.2723  -2.1786  -2.1786
    -2.0414  -2.0414  -1.9140  -1.9140  -1.8023  -1.8023  -1.5585  -1.5585
    -1.4628  -1.4628  -1.4238  -1.4238  -1.3999  -1.3999  -1.3009  -1.3009
    -1.1743  -1.1743  -1.1158  -1.1158  -1.0288  -1.0288  -0.7357  -0.7357
    -0.6235  -0.6235  -0.2740  -0.2740  -0.0952  -0.0952  -0.0448  -0.0448
     0.0813   0.0813   0.1698   0.1698   0.2377   0.2377   0.3423   0.3423
     0.6382   0.6382   1.1821   1.1821   1.3793   1.3793   1.5668   1.5668
     3.1337   3.1337   3.1976   3.1976   4.1361   4.1361   5.3577   5.3577
     6.2345   6.2345   7.2236   7.2236   7.8125   7.8125   8.0975   8.0975
     8.7545   8.7545   9.1209   9.1209   9.4735   9.4739   9.7824

     the Fermi energy is     1.2247 ev

!    total energy              =   -3600.02128028 Ry
     Harris-Foulkes estimate   =   -3600.02127704 Ry
     estimated scf accuracy    <       0.00000092 Ry

     The total energy is the sum of the following terms:

     one-electron contribution =  -28719.29209663 Ry
     hartree contribution      =   14366.29081970 Ry
     xc contribution           =    -400.84769533 Ry
     ewald contribution        =   11153.90915304 Ry
     electric field correction =       0.00000000 Ry
     smearing contrib. (-TS)   =      -0.08146107 Ry

     convergence has been achieved in  22 iterations
 
 BEEF-vdW xc energy contributions
           1 :   -352.281114312854     
           2 :    320.941367236637     
           3 :   -267.398608960075     
           4 :    205.857153770298     
           5 :   -149.825713736280     
           6 :    107.494023951579     
           7 :   -80.1406456372307     
           8 :    63.7722444831377     
           9 :   -52.6151374550695     
          10 :    42.3879947804671     
          11 :   -31.7968519854260     
          12 :    21.9493195079870     
          13 :   -14.5877652375212     
          14 :    10.4918536650271     
          15 :   -8.97700135999708     
          16 :    8.51965514275122     
          17 :   -7.82396188032078     
          18 :    6.51143827382208     
          19 :   -5.04487933791620     
          20 :    4.09237566621221     
          21 :   -3.88805979633656     
          22 :    4.05655961241354     
          23 :   -3.96628381676533     
          24 :    3.27229663301591     
          25 :   -2.20276738162005     
          26 :    1.37376835608273     
          27 :   -1.29168976313179     
          28 :    1.93369614393862     
          29 :   -2.72864596454917     
          30 :    2.95573871174565     
          31 :   -31.3571660418700     
          32 :   -22.4772956010020     

     Forces acting on atoms (Ry/au):


     negative rho (up, down):  4.557E-01 0.000E+00
     atom    1 type  1   force =     0.00000380    0.00364158   -0.00265757
     atom    2 type  1   force =     0.00000443    0.00363954   -0.00265995
     atom    3 type  2   force =     0.00000598    0.00606809    0.01745151
     atom    4 type  2   force =     0.00000565    0.00607360    0.01743549
     atom    5 type  1   force =     0.00001043   -0.00008578    0.00010528
     atom    6 type  1   force =    -0.00001793   -0.00008760    0.00010344
     atom    7 type  2   force =     0.00000550    0.00000098   -0.00006976
     atom    8 type  2   force =     0.00000467   -0.00000286   -0.00007740
     atom    9 type  1   force =    -0.00001851   -0.00356806    0.00273044
     atom   10 type  1   force =    -0.00001478   -0.00356573    0.00273061
     atom   11 type  2   force =     0.00000504   -0.00606265   -0.01751706
     atom   12 type  2   force =     0.00000573   -0.00605111   -0.01757505

     Total force =     0.038111     Total SCF correction =     0.004038
     SCF correction compared to forces is large: reduce conv_thr to get better values


     entering subroutine stress ...


     negative rho (up, down):  4.557E-01 0.000E+00
          total   stress  (Ry/bohr**3)                   (kbar)     P=  -25.22
  -0.00022491   0.00000000  -0.00000000        -33.09      0.00     -0.00
   0.00000000  -0.00019488  -0.00004235          0.00    -28.67     -6.23
  -0.00000000  -0.00004235  -0.00009453         -0.00     -6.23    -13.91

 !ASE

     Writing output data file calc.save
 
     init_run     :     12.75s CPU     20.69s WALL (       1 calls)
     electrons    :    842.18s CPU   1243.55s WALL (       1 calls)
     forces       :      3.68s CPU      4.38s WALL (       1 calls)
     stress       :      9.62s CPU     10.94s WALL (       1 calls)

     Called by init_run:
     wfcinit      :     10.38s CPU     17.37s WALL (       1 calls)
     potinit      :      1.17s CPU      1.97s WALL (       1 calls)

     Called by electrons:
     c_bands      :    674.80s CPU    983.56s WALL (      22 calls)
     sum_band     :     98.82s CPU    150.56s WALL (      22 calls)
     v_of_rho     :     23.56s CPU     39.68s WALL (      23 calls)
     newd         :      9.26s CPU      9.67s WALL (      23 calls)
     mix_rho      :      0.94s CPU      1.52s WALL (      22 calls)
     vdW_energy   :      2.72s CPU      2.73s WALL (      59 calls)
     vdW_ffts     :     38.65s CPU     68.23s WALL (     120 calls)
     vdW_v        :      6.93s CPU     11.17s WALL (      59 calls)

     Called by c_bands:
     init_us_2    :      0.75s CPU      0.81s WALL (     940 calls)
     cegterg      :    666.99s CPU    974.81s WALL (     440 calls)

     Called by *egterg:
     h_psi        :    369.78s CPU    621.59s WALL (    1881 calls)
     s_psi        :     13.23s CPU     13.44s WALL (    1881 calls)
     g_psi        :      0.82s CPU      0.81s WALL (    1421 calls)
     cdiaghg      :    205.79s CPU    242.16s WALL (    1861 calls)

     Called by h_psi:
     add_vuspsi   :     13.72s CPU     13.77s WALL (    1881 calls)

     General routines
     calbec       :     30.70s CPU     36.76s WALL (    2361 calls)
     fft          :     57.95s CPU    101.91s WALL (    3621 calls)
     ffts         :      0.20s CPU      0.37s WALL (      45 calls)
     fftw         :    398.10s CPU    692.87s WALL (  329776 calls)
     interpolate  :      0.87s CPU      1.60s WALL (      45 calls)
     davcio       :      0.00s CPU      0.04s WALL (      20 calls)
 
     Parallel routines
     fft_scatter  :    412.23s CPU    747.37s WALL (  333442 calls)
 
     PWSCF        : 14m29.13s CPU    21m21.13s WALL

 
   This run was terminated on:   9:42: 9  19Dec2018            

=------------------------------------------------------------------------------=
   JOB DONE.
=------------------------------------------------------------------------------=
Job  /afs/slac/g/suncat/bin/suncat-tsmpirun -x LD_LIBRARY_PATH -wdir /scratch/qe529807_9HTer pw.x -in pw.inp

TID   HOST_NAME   COMMAND_LINE            STATUS            TERMINATION_TIME
===== ========== ================  =======================  ===================
00000 suncat0003 pw.x -in pw.inp   Done                     12/19/2018 09:42:09
00001 suncat0003 pw.x -in pw.inp   Done                     12/19/2018 09:42:09
00002 suncat0003 pw.x -in pw.inp   Done                     12/19/2018 09:42:09
00003 suncat0003 pw.x -in pw.inp   Done                     12/19/2018 09:42:09
00004 suncat0003 pw.x -in pw.inp   Done                     12/19/2018 09:42:09
00005 suncat0003 pw.x -in pw.inp   Done                     12/19/2018 09:42:09
00006 suncat0003 pw.x -in pw.inp   Done                     12/19/2018 09:42:09
00007 suncat0003 pw.x -in pw.inp   Done                     12/19/2018 09:42:09
00008 suncat0002 pw.x -in pw.inp   Done                     12/19/2018 09:42:09
00009 suncat0002 pw.x -in pw.inp   Done                     12/19/2018 09:42:09
00010 suncat0002 pw.x -in pw.inp   Done                     12/19/2018 09:42:09
00011 suncat0002 pw.x -in pw.inp   Done                     12/19/2018 09:42:09
00012 suncat0002 pw.x -in pw.inp   Done                     12/19/2018 09:42:09
00013 suncat0002 pw.x -in pw.inp   Done                     12/19/2018 09:42:09
00014 suncat0002 pw.x -in pw.inp   Done                     12/19/2018 09:42:09
00015 suncat0002 pw.x -in pw.inp   Done                     12/19/2018 09:42:09
00016 suncat0001 pw.x -in pw.inp   Done                     12/19/2018 09:42:09
00017 suncat0001 pw.x -in pw.inp   Done                     12/19/2018 09:42:09
00018 suncat0001 pw.x -in pw.inp   Done                     12/19/2018 09:42:09
00019 suncat0001 pw.x -in pw.inp   Done                     12/19/2018 09:42:09
00020 suncat0001 pw.x -in pw.inp   Done                     12/19/2018 09:42:09
00021 suncat0001 pw.x -in pw.inp   Done                     12/19/2018 09:42:09
00022 suncat0001 pw.x -in pw.inp   Done                     12/19/2018 09:42:09
00023 suncat0001 pw.x -in pw.inp   Done                     12/19/2018 09:42:09
00024 suncat0188 pw.x -in pw.inp   Done                     12/19/2018 09:42:09
00025 suncat0188 pw.x -in pw.inp   Done                     12/19/2018 09:42:09
00026 suncat0188 pw.x -in pw.inp   Done                     12/19/2018 09:42:09
00027 suncat0188 pw.x -in pw.inp   Done                     12/19/2018 09:42:09
00028 suncat0188 pw.x -in pw.inp   Done                     12/19/2018 09:42:09
00029 suncat0188 pw.x -in pw.inp   Done                     12/19/2018 09:42:09
00030 suncat0188 pw.x -in pw.inp   Done                     12/19/2018 09:42:09
00031 suncat0188 pw.x -in pw.inp   Done                     12/19/2018 09:42:09

     Program PWSCF v.5.1rc2 (svn rev. 11289) starts on 19Dec2018 at  9:42:15 

     This program is part of the open-source Quantum ESPRESSO suite
     for quantum simulation of materials; please cite
         "P. Giannozzi et al., J. Phys.:Condens. Matter 21 395502 (2009);
          URL http://www.quantum-espresso.org", 
     in publications or presentations arising from this work. More details at
     http://www.quantum-espresso.org/quote

     Parallel version (MPI), running on    32 processors
     R & G space division:  proc/nbgrp/npool/nimage =      32
     Reading input from pw.inp
     Message from routine read_cards :
     DEPRECATED: no units specified in CELL_PARAMETERS card

     Current dimensions of program PWSCF are:
     Max number of different atomic species (ntypx) = 10
     Max number of k-points (npk) =  40000
     Max angular momentum in pseudopotentials (lmaxx) =  3
     Presently stress not available with electric field


     **************************************************************************
     Initializing libbeef V0.1.1 with the BEEF-vdW functional.
     Citation: Wellendorff et al., PRB 85, 235149 (2012).
     **************************************************************************


     IMPORTANT: XC functional enforced from input :
     Exchange-correlation      = BEEF-VDW ( 1  4 27 13 2)
     Any further DFT definition will be discarded
     Please, verify this is what you really want


     Subspace diagonalization in iterative solution of the eigenvalue problem:
     a serial algorithm will be used

     Found symmetry operation: I + (  0.5000  0.0000  0.0000)
     This is a supercell, fractional translations are disabled
 
     Parallelization info
     --------------------
     sticks:   dense  smooth     PW     G-vecs:    dense   smooth      PW
     Min          80      31      9                14992     3751     623
     Max          81      32     10                15005     3824     646
     Sum        2571    1021    313               479987   121393   20273
 


     bravais-lattice index     =            0
     lattice parameter (alat)  =       1.8897  a.u.
     unit-cell volume          =    4034.2826 (a.u.)^3
     number of atoms/cell      =           12
     number of atomic types    =            2
     number of electrons       =       210.00
     number of Kohn-Sham states=          135
     kinetic-energy cutoff     =      36.7493  Ry
     charge density cutoff     =     367.4932  Ry
     convergence threshold     =      1.0E-06
     mixing beta               =       0.1000
     number of iterations used =           10  plain     mixing
     Exchange-correlation      = BEEF-VDW ( 1  4 27 13 2)
     nstep                     =           50


     celldm(1)=   1.889726  celldm(2)=   0.000000  celldm(3)=   0.000000
     celldm(4)=   0.000000  celldm(5)=   0.000000  celldm(6)=   0.000000

     crystal axes: (cart. coord. in units of alat)
               a(1) = (   5.140575   0.000000   0.000000 )  
               a(2) = (  -2.570287   4.779117   0.000000 )  
               a(3) = (   0.000000   0.000000  24.333823 )  

     reciprocal axes: (cart. coord. in units 2 pi/alat)
               b(1) = (  0.194531  0.104622  0.000000 )  
               b(2) = (  0.000000  0.209244  0.000000 )  
               b(3) = (  0.000000  0.000000  0.041095 )  


     PseudoPot. # 1 for Cu read from file:
     /afs/slac.stanford.edu/u/if/mamunm/psp/gbrv1.5pbe/Cu.UPF
     MD5 check sum: 6e991ff952a84172a2a52a1c1e996048
     Pseudo is Ultrasoft + core correction, Zval = 19.0
     Generated by new atomic code, or converted to UPF format
     Using radial grid of  867 points,  6 beta functions with: 
                l(1) =   0
                l(2) =   0
                l(3) =   1
                l(4) =   1
                l(5) =   2
                l(6) =   2
     Q(r) pseudized with  8 coefficients,  rinner =    1.150   1.150   1.150
                                                       1.150   1.150

     PseudoPot. # 2 for Ru read from file:
     /afs/slac.stanford.edu/u/if/mamunm/psp/gbrv1.5pbe/Ru.UPF
     MD5 check sum: 7158a806dd851261a58e6920c40ebe78
     Pseudo is Ultrasoft + core correction, Zval = 16.0
     Generated by new atomic code, or converted to UPF format
     Using radial grid of  967 points,  6 beta functions with: 
                l(1) =   0
                l(2) =   0
                l(3) =   1
                l(4) =   1
                l(5) =   2
                l(6) =   2
     Q(r) pseudized with  8 coefficients,  rinner =    1.300   1.300   1.300
                                                       1.300   1.300

     vdW kernel table read from file vdW_kernel_table
     MD5 check sum: 095c7af220d748ca6e76c0b4c6cfb241

     atomic species   valence    mass     pseudopotential
        Cu1           19.00    63.54600     Cu( 1.00)
        Ru1           16.00   101.07000     Ru( 1.00)

     No symmetry found



   Cartesian axes

     site n.     atom                  positions (alat units)
         1           Cu1 tau(   1) = (   0.0000000   0.0000000  10.0000000  )
         2           Cu1 tau(   2) = (   2.5702875   0.0000000  10.0000000  )
         3           Ru1 tau(   3) = (   1.2851437   2.3895585  10.0000000  )
         4           Ru1 tau(   4) = (  -1.2851437   2.3895585  10.0000000  )
         5           Cu1 tau(   5) = (   2.5702875   1.3823428  12.1669117  )
         6           Cu1 tau(   6) = (   0.0000000   1.3823428  12.1669117  )
         7           Ru1 tau(   7) = (  -1.2851437   3.7719013  12.1669117  )
         8           Ru1 tau(   8) = (   1.2851437   3.7719013  12.1669117  )
         9           Cu1 tau(   9) = (  -0.0000476   2.7555117  14.3408436  )
        10           Cu1 tau(  10) = (   2.5702495   2.7555176  14.3408441  )
        11           Ru1 tau(  11) = (   3.8554442   0.3595393  14.2887852  )
        12           Ru1 tau(  12) = (   1.2851585   0.3595690  14.2886361  )

     number of k points=    20  Fermi-Dirac smearing, width (Ry)=  0.0110
                       cart. coord. in units 2pi/alat
        k(    1) = (   0.0000000   0.0000000   0.0000000), wk =   0.0555556
        k(    2) = (   0.0000000   0.0348739   0.0000000), wk =   0.1111111
        k(    3) = (   0.0000000   0.0697479   0.0000000), wk =   0.1111111
        k(    4) = (   0.0000000  -0.1046218   0.0000000), wk =   0.0555556
        k(    5) = (   0.0324218   0.0174370   0.0000000), wk =   0.1111111
        k(    6) = (   0.0324218   0.0523109   0.0000000), wk =   0.1111111
        k(    7) = (   0.0324218   0.0871849   0.0000000), wk =   0.1111111
        k(    8) = (   0.0324218  -0.0871849   0.0000000), wk =   0.1111111
        k(    9) = (   0.0324218  -0.0523109   0.0000000), wk =   0.1111111
        k(   10) = (   0.0324218  -0.0174370   0.0000000), wk =   0.1111111
        k(   11) = (   0.0648436   0.0348739   0.0000000), wk =   0.1111111
        k(   12) = (   0.0648436   0.0697479   0.0000000), wk =   0.1111111
        k(   13) = (   0.0648436   0.1046218   0.0000000), wk =   0.1111111
        k(   14) = (   0.0648436  -0.0697479   0.0000000), wk =   0.1111111
        k(   15) = (   0.0648436  -0.0348739   0.0000000), wk =   0.1111111
        k(   16) = (   0.0648436   0.0000000   0.0000000), wk =   0.1111111
        k(   17) = (  -0.0972654  -0.0523109   0.0000000), wk =   0.0555556
        k(   18) = (  -0.0972654  -0.0174370   0.0000000), wk =   0.1111111
        k(   19) = (  -0.0972654   0.0174370   0.0000000), wk =   0.1111111
        k(   20) = (  -0.0972654  -0.1569328   0.0000000), wk =   0.0555556

     Dense  grid:   479987 G-vectors     FFT dimensions: (  60,  64, 288)

     Smooth grid:   121393 G-vectors     FFT dimensions: (  40,  40, 180)

     Largest allocated arrays     est. size (Mb)     dimensions
        Kohn-Sham Wavefunctions         1.13 Mb     (     547,  135)
        NL pseudopotentials             1.80 Mb     (     547,  216)
        Each V/rho on FFT grid          0.53 Mb     (   34560)
        Each G-vector array             0.11 Mb     (   15000)
        G-vector shells                 0.06 Mb     (    7540)
     Largest temporary arrays     est. size (Mb)     dimensions
        Auxiliary wavefunctions         4.51 Mb     (     547,  540)
        Each subspace H/S matrix        4.45 Mb     (     540,  540)
        Each <psi_i|beta_j> matrix      0.44 Mb     (     216,  135)
        Arrays for rho mixing           5.27 Mb     (   34560,   10)

     Initial potential from superposition of free atoms
     Check: negative starting charge=   -0.439878

     starting charge  197.99989, renormalised to  210.00000

     negative rho (up, down):  4.665E-01 0.000E+00


     ************************************************************************
     *
     * You are using vdW-DF for exchange-correlation in this calculation.
     * Please cite the following three references that made this development
     * possible:
     *
     *   M. Dion, H. Rydberg, E. Schroder, D. C. Langreth, and
     *   B. I. Lundqvist, Phys. Rev. Lett. 92, 246401 (2004).
     *
     *   T. Thonhauser, V. R. Cooper, S. Li, A. Puzder, P. Hyldgaard, and
     *   D. C. Langreth, Phys. Rev. B 76, 125112 (2007).
     *
     *   G. Roman-Perez and J. M. Soler, Phys. Rev. Lett. 103, 096102 (2009).
     *
     *
     * If you are using vdW-DF2, please also cite:
     *
     *   K. Lee, E. D. Murray, L. Kong, B. I. Lundqvist, and
     *   D. C. Langreth, Phys. Rev. B 82, 081101(R) (2010).
     *
     *
     * If you are calculating the stress with vdW-DF, please also cite:
     *
     *   R. Sabatini, E. Kucukbenli, B. Kolb, T. Thonhauser, and
     *   S. de Gironcoli, J. Phys.: Condens. Matter 24, 424209 (2012).
     *
     ************************************************************************

     Carrying out vdW-DF run using the following parameters:

     Nqs =      20    Nr_points =    1024   r_max =   100.000
     q_mesh =
               0.00001000     0.04494208     0.09755937     0.15916263
               0.23128650     0.31572767     0.41458969     0.53033537
               0.66584808     0.82450364     1.01025438     1.22772762
               1.48234092     1.78043706     2.12944203     2.53805004
               3.01644009     3.57652955     4.23227104     5.00000000

     Gradients computed in reciprocal space

     ************************************************************************


 
     Adding external electric field

     Computed dipole along edir(3) : 
        Dipole               -0.0179 Ry au,         -0.0455 Debye
        Dipole field         -0.0001 Ry au
 
        Potential amp.        0.0050 Ry
        Total length         44.8347 bohr
 
     Starting wfc are  156 randomized atomic wfcs

     total cpu time spent up to now is       20.0 secs

     per-process dynamical memory:    52.5 Mb

     Self-consistent Calculation

     iteration #  1     ecut=    36.75 Ry     beta=0.10
     Davidson diagonalization with overlap
     ethr =  1.00E-02,  avg # of iterations =  7.7

     negative rho (up, down):  4.624E-01 0.000E+00
 
     Adding external electric field

     Computed dipole along edir(3) : 
        Dipole               -0.1172 Ry au,         -0.2980 Debye
        Dipole field         -0.0004 Ry au
 
        Potential amp.        0.0327 Ry
        Total length         44.8347 bohr
 

     total cpu time spent up to now is      125.5 secs

     total energy              =   -3572.30233281 Ry
     Harris-Foulkes estimate   =   -3613.48892191 Ry
     estimated scf accuracy    <     229.64704046 Ry

     iteration #  2     ecut=    36.75 Ry     beta=0.10
     Davidson diagonalization with overlap
     ethr =  1.00E-02,  avg # of iterations =  4.0

     negative rho (up, down):  4.630E-01 0.000E+00
 
     Adding external electric field

     Computed dipole along edir(3) : 
        Dipole               -0.8022 Ry au,         -2.0389 Debye
        Dipole field         -0.0025 Ry au
 
        Potential amp.        0.2240 Ry
        Total length         44.8347 bohr
 

     total cpu time spent up to now is      197.1 secs

     total energy              =   -3600.19807188 Ry
     Harris-Foulkes estimate   =   -3606.31142967 Ry
     estimated scf accuracy    <      44.66991265 Ry

     iteration #  3     ecut=    36.75 Ry     beta=0.10
     Davidson diagonalization with overlap
     ethr =  1.00E-02,  avg # of iterations =  1.6

     negative rho (up, down):  4.631E-01 0.000E+00
 
     Adding external electric field

     Computed dipole along edir(3) : 
        Dipole                0.6907 Ry au,          1.7555 Debye
        Dipole field          0.0022 Ry au
 
        Potential amp.       -0.1929 Ry
        Total length         44.8347 bohr
 

     total cpu time spent up to now is      240.5 secs

     total energy              =   -3600.36960280 Ry
     Harris-Foulkes estimate   =   -3602.74160981 Ry
     estimated scf accuracy    <      29.41365385 Ry

     iteration #  4     ecut=    36.75 Ry     beta=0.10
     Davidson diagonalization with overlap
     ethr =  1.00E-02,  avg # of iterations =  1.3

     negative rho (up, down):  4.633E-01 0.000E+00
 
     Adding external electric field

     Computed dipole along edir(3) : 
        Dipole               -0.3526 Ry au,         -0.8962 Debye
        Dipole field         -0.0011 Ry au
 
        Potential amp.        0.0985 Ry
        Total length         44.8347 bohr
 

     total cpu time spent up to now is      282.7 secs

     total energy              =   -3600.13601391 Ry
     Harris-Foulkes estimate   =   -3602.58804817 Ry
     estimated scf accuracy    <      58.26194400 Ry

     iteration #  5     ecut=    36.75 Ry     beta=0.10
     Davidson diagonalization with overlap
     ethr =  1.00E-02,  avg # of iterations =  1.0

     negative rho (up, down):  4.632E-01 0.000E+00
 
     Adding external electric field

     Computed dipole along edir(3) : 
        Dipole               -0.1810 Ry au,         -0.4600 Debye
        Dipole field         -0.0006 Ry au
 
        Potential amp.        0.0505 Ry
        Total length         44.8347 bohr
 

     total cpu time spent up to now is      324.4 secs

     total energy              =   -3599.45576948 Ry
     Harris-Foulkes estimate   =   -3601.16957409 Ry
     estimated scf accuracy    <       5.61102225 Ry

     iteration #  6     ecut=    36.75 Ry     beta=0.10
     Davidson diagonalization with overlap
     ethr =  2.67E-03,  avg # of iterations =  3.7

     negative rho (up, down):  4.627E-01 0.000E+00
 
     Adding external electric field

     Computed dipole along edir(3) : 
        Dipole               -0.1788 Ry au,         -0.4545 Debye
        Dipole field         -0.0006 Ry au
 
        Potential amp.        0.0499 Ry
        Total length         44.8347 bohr
 

     total cpu time spent up to now is      377.3 secs

     total energy              =   -3600.10518330 Ry
     Harris-Foulkes estimate   =   -3600.33830849 Ry
     estimated scf accuracy    <       2.67210996 Ry

     iteration #  7     ecut=    36.75 Ry     beta=0.10
     Davidson diagonalization with overlap
     ethr =  1.27E-03,  avg # of iterations =  1.1

     negative rho (up, down):  4.596E-01 0.000E+00
 
     Adding external electric field

     Computed dipole along edir(3) : 
        Dipole               -0.1267 Ry au,         -0.3219 Debye
        Dipole field         -0.0004 Ry au
 
        Potential amp.        0.0354 Ry
        Total length         44.8347 bohr
 

     total cpu time spent up to now is      419.0 secs

     total energy              =   -3599.94370414 Ry
     Harris-Foulkes estimate   =   -3600.20128458 Ry
     estimated scf accuracy    <       0.54786615 Ry

     iteration #  8     ecut=    36.75 Ry     beta=0.10
     Davidson diagonalization with overlap
     ethr =  2.61E-04,  avg # of iterations =  8.0

     negative rho (up, down):  4.593E-01 0.000E+00
 
     Adding external electric field

     Computed dipole along edir(3) : 
        Dipole               -0.1073 Ry au,         -0.2728 Debye
        Dipole field         -0.0003 Ry au
 
        Potential amp.        0.0300 Ry
        Total length         44.8347 bohr
 

     total cpu time spent up to now is      501.6 secs

     total energy              =   -3600.14776715 Ry
     Harris-Foulkes estimate   =   -3600.24357359 Ry
     estimated scf accuracy    <       1.45728721 Ry

     iteration #  9     ecut=    36.75 Ry     beta=0.10
     Davidson diagonalization with overlap
     ethr =  2.61E-04,  avg # of iterations =  1.1

[...]
    -1.5615  -1.5169  -1.4424  -1.4268  -1.4175  -1.3290  -1.2932  -1.2578
    -1.2570  -1.1213  -1.1091  -1.0671  -1.0172  -0.9835  -0.9699  -0.8662
    -0.8648  -0.8011  -0.7371  -0.3629  -0.3371  -0.2044  -0.1969  -0.0701
    -0.0283   0.1760   0.3633   0.3794   0.4870   0.5147   0.7326   0.8569
     0.9354   1.0514   1.2629   1.3660   1.5428   1.7889   1.7939   2.0941
     2.1700   2.4708   3.1095   3.7706   4.7181   4.8335   5.0779   5.9290
     6.2617   6.8025   7.3113   7.3978   7.5537   7.6619   8.0108   8.3437
     8.6084   8.7729   8.8024   8.9276   9.2105   9.2416   9.3458

          k = 0.0648 0.1046 0.0000 ( 15226 PWs)   bands (ev):

  -111.4719-111.4698-111.1858-111.1836-111.1361-111.1339 -71.8523 -71.8046
   -71.4410 -71.3929 -71.3385 -71.2901 -68.8739 -68.8720 -68.8638 -68.8613
   -68.8591 -68.8379 -68.6299 -68.6152 -68.6133 -68.6040 -68.5821 -68.5735
   -68.5716 -68.5561 -68.4969 -68.4947 -68.4424 -68.4402 -42.1539 -42.1048
   -41.9422 -41.7197 -41.6935 -41.6734 -41.6477 -41.5414 -41.3566 -41.3117
   -41.2957 -41.2940 -41.2500 -41.2487 -41.2324 -41.1881 -41.1182 -41.0780
    -4.3815  -4.0004  -3.9299  -3.3933  -3.0409  -2.9515  -2.8596  -2.7308
    -2.6880  -2.6303  -2.5337  -2.4407  -2.4267  -2.4072  -2.3269  -2.2470
    -2.1274  -2.0283  -1.9055  -1.8530  -1.8279  -1.7848  -1.7326  -1.6696
    -1.6267  -1.6193  -1.5883  -1.5249  -1.5179  -1.4577  -1.3736  -1.2795
    -1.2492  -1.2461  -1.2227  -1.1922  -1.1600  -1.0719  -1.0564  -1.0177
    -0.9694  -0.8591  -0.5444  -0.4237  -0.3282  -0.2847  -0.2457  -0.2048
     0.0741   0.2242   0.3598   0.3935   0.4963   0.5574   0.8623   0.8841
     0.9720   1.0301   1.1117   1.2118   1.5536   1.5568   1.7738   1.8569
     2.0055   2.2271   3.4750   3.6371   4.1865   5.9019   5.9556   6.2528
     6.9319   6.9889   7.5476   7.5866   7.7231   7.8133   7.8286   8.3037
     8.3094   8.4849   8.5092   8.5546   8.6533   8.9479   9.1506

          k = 0.0648-0.0697 0.0000 ( 15178 PWs)   bands (ev):

  -111.4719-111.4698-111.1857-111.1836-111.1361-111.1339 -71.8522 -71.8046
   -71.4410 -71.3929 -71.3385 -71.2901 -68.8740 -68.8719 -68.8639 -68.8613
   -68.8591 -68.8379 -68.6299 -68.6153 -68.6133 -68.6040 -68.5821 -68.5736
   -68.5716 -68.5561 -68.4969 -68.4947 -68.4424 -68.4402 -42.1537 -42.1048
   -41.9421 -41.7193 -41.6934 -41.6735 -41.6476 -41.5415 -41.3564 -41.3117
   -41.2957 -41.2940 -41.2500 -41.2487 -41.2324 -41.1881 -41.1182 -41.0780
    -4.8946  -4.0118  -3.6715  -3.5107  -3.2860  -3.0846  -3.0377  -2.7503
    -2.7484  -2.7222  -2.6733  -2.6022  -2.3837  -2.3122  -2.2513  -2.1719
    -2.1140  -1.9737  -1.9643  -1.9240  -1.8992  -1.8239  -1.7063  -1.5683
    -1.5615  -1.5169  -1.4424  -1.4268  -1.4175  -1.3290  -1.2932  -1.2578
    -1.2570  -1.1213  -1.1091  -1.0671  -1.0172  -0.9835  -0.9699  -0.8662
    -0.8648  -0.8011  -0.7371  -0.3629  -0.3371  -0.2044  -0.1969  -0.0701
    -0.0283   0.1761   0.3633   0.3794   0.4870   0.5147   0.7326   0.8569
     0.9354   1.0514   1.2628   1.3660   1.5428   1.7889   1.7939   2.0941
     2.1700   2.4708   3.1095   3.7706   4.7181   4.8335   5.0779   5.9290
     6.2617   6.8025   7.3113   7.3978   7.5538   7.6619   8.0108   8.3436
     8.6084   8.7729   8.8024   8.9276   9.2105   9.2416   9.3457

          k = 0.0648-0.0349 0.0000 ( 15159 PWs)   bands (ev):

  -111.4719-111.4698-111.1857-111.1836-111.1360-111.1339 -71.8521 -71.8046
   -71.4409 -71.3929 -71.3383 -71.2901 -68.8742 -68.8719 -68.8639 -68.8613
   -68.8591 -68.8378 -68.6300 -68.6155 -68.6132 -68.6040 -68.5822 -68.5738
   -68.5715 -68.5561 -68.4969 -68.4947 -68.4424 -68.4402 -42.1534 -42.1049
   -41.9418 -41.7184 -41.6933 -41.6739 -41.6474 -41.5415 -41.3560 -41.3117
   -41.2958 -41.2939 -41.2500 -41.2487 -41.2322 -41.1880 -41.1182 -41.0780
    -5.4009  -4.0222  -3.8145  -3.6688  -3.6388  -3.2365  -3.1279  -2.9716
    -2.8600  -2.8585  -2.7528  -2.7373  -2.5458  -2.3556  -2.3223  -2.0748
    -1.9978  -1.9880  -1.9163  -1.8520  -1.8113  -1.7175  -1.6489  -1.6414
    -1.5443  -1.4030  -1.3639  -1.2821  -1.2811  -1.2252  -1.2157  -1.1586
    -1.1560  -1.0540  -1.0041  -0.9576  -0.9246  -0.8650  -0.8448  -0.8057
    -0.7416  -0.4569  -0.4395  -0.2659  -0.1657  -0.0306   0.0166   0.0764
     0.1845   0.3048   0.3714   0.3843   0.5479   0.6351   0.6749   0.7343
     0.9054   1.1188   1.3347   1.4918   1.5165   1.7491   1.8574   2.1159
     2.4898   3.0087   3.1918   3.8536   3.9670   4.0107   4.4423   5.8137
     6.2841   6.3237   6.7487   6.8580   7.1077   8.0251   8.1477   8.4563
     8.4976   8.5205   8.7460   8.9006   9.2542   9.4696   9.6396

          k = 0.0648 0.0000 0.0000 ( 15127 PWs)   bands (ev):

  -111.4719-111.4698-111.1857-111.1836-111.1360-111.1339 -71.8521 -71.8046
   -71.4408 -71.3929 -71.3383 -71.2901 -68.8743 -68.8719 -68.8639 -68.8613
   -68.8591 -68.8378 -68.6300 -68.6156 -68.6132 -68.6039 -68.5822 -68.5739
   -68.5715 -68.5561 -68.4969 -68.4947 -68.4424 -68.4402 -42.1532 -42.1049
   -41.9417 -41.7180 -41.6932 -41.6741 -41.6473 -41.5416 -41.3558 -41.3117
   -41.2958 -41.2939 -41.2499 -41.2488 -41.2322 -41.1880 -41.1181 -41.0780
    -5.5850  -4.0218  -3.9441  -3.7524  -3.7249  -3.3170  -3.1596  -3.0667
    -2.9125  -2.9031  -2.8265  -2.7342  -2.6428  -2.4083  -2.4060  -2.0518
    -2.0199  -1.9879  -1.8123  -1.7712  -1.7503  -1.7142  -1.6857  -1.6420
    -1.5066  -1.3288  -1.2783  -1.2676  -1.2606  -1.2110  -1.1860  -1.1632
    -1.1437  -1.1305  -0.9290  -0.9214  -0.8771  -0.8102  -0.7913  -0.6345
    -0.6264  -0.4863  -0.4383  -0.1875  -0.0518   0.1124   0.1971   0.2212
     0.2858   0.3553   0.4489   0.5195   0.6155   0.6385   0.7337   1.0056
     1.1585   1.2621   1.3437   1.5771   1.5995   1.6381   1.7152   1.8567
     2.3194   2.3390   2.8210   3.6115   4.6075   4.8767   4.9793   5.1753
     5.3317   6.1177   6.4874   6.9121   7.6584   7.7234   7.7589   7.8104
     8.2144   8.6191   9.0001   9.0526   9.2692   9.5758   9.7917

          k =-0.0973-0.0523 0.0000 ( 15136 PWs)   bands (ev):

  -111.4708-111.4708-111.1847-111.1847-111.1350-111.1350 -71.8284 -71.8284
   -71.4170 -71.4169 -71.3143 -71.3143 -68.8730 -68.8730 -68.8602 -68.8602
   -68.8509 -68.8509 -68.6170 -68.6170 -68.6143 -68.6143 -68.5726 -68.5726
   -68.5692 -68.5691 -68.4958 -68.4958 -68.4413 -68.4413 -42.1293 -42.1292
   -41.7436 -41.7436 -41.6963 -41.6963 -41.4965 -41.4964 -41.4500 -41.4500
   -41.3340 -41.3339 -41.2720 -41.2720 -41.2103 -41.2102 -41.0982 -41.0981
    -4.5586  -4.5585  -3.3728  -3.3727  -3.3110  -3.3109  -2.8941  -2.8941
    -2.7044  -2.7044  -2.5270  -2.5270  -2.2840  -2.2840  -2.1628  -2.1627
    -2.0592  -2.0592  -1.9355  -1.9354  -1.7729  -1.7728  -1.6210  -1.6209
    -1.4367  -1.4366  -1.4183  -1.4182  -1.3551  -1.3551  -1.2773  -1.2772
    -1.2208  -1.2207  -1.0654  -1.0654  -1.0015  -1.0014  -0.7491  -0.7489
    -0.6165  -0.6163  -0.2754  -0.2754  -0.0973  -0.0972  -0.0320  -0.0318
     0.0778   0.0779   0.1668   0.1669   0.2298   0.2299   0.3380   0.3380
     0.6094   0.6095   1.2720   1.2721   1.4485   1.4486   1.6563   1.6563
     3.1140   3.1140   3.2277   3.2278   4.1495   4.1496   5.3512   5.3514
     6.2747   6.2749   7.2463   7.2464   7.8285   7.8286   8.0963   8.0963
     8.7629   8.7631   9.1232   9.1233   9.5012   9.5013   9.7814

          k =-0.0973-0.0174 0.0000 ( 15159 PWs)   bands (ev):

  -111.4708-111.4708-111.1847-111.1847-111.1350-111.1350 -71.8285 -71.8284
   -71.4170 -71.4169 -71.3144 -71.3142 -68.8731 -68.8729 -68.8602 -68.8602
   -68.8509 -68.8508 -68.6170 -68.6169 -68.6144 -68.6142 -68.5727 -68.5725
   -68.5692 -68.5691 -68.4958 -68.4958 -68.4413 -68.4413 -42.1294 -42.1291
   -41.7438 -41.7435 -41.6968 -41.6958 -41.4965 -41.4964 -41.4501 -41.4499
   -41.3341 -41.3338 -41.2721 -41.2720 -41.2103 -41.2102 -41.0982 -41.0981
    -4.8079  -4.1724  -3.4658  -3.4288  -3.2891  -3.2784  -2.9533  -2.8887
    -2.8103  -2.5788  -2.5563  -2.4651  -2.3821  -2.2756  -2.2303  -2.0789
    -2.0700  -1.9940  -1.9343  -1.8995  -1.8868  -1.7705  -1.6746  -1.5860
    -1.4774  -1.4604  -1.4420  -1.4144  -1.4013  -1.3493  -1.3344  -1.3006
    -1.2069  -1.1749  -1.1140  -1.1013  -0.9934  -0.8458  -0.8395  -0.7931
    -0.5914  -0.4040  -0.3441  -0.1435  -0.1263  -0.0621  -0.0557  -0.0369
    -0.0220   0.0408   0.1639   0.1677   0.2583   0.4404   0.5158   0.5970
     0.6562   0.7443   1.0598   1.2230   1.4065   1.4940   1.6367   1.6605
     1.9477   2.5763   2.8943   3.9317   4.7302   4.9455   5.0586   5.8845
     6.2674   6.8039   6.9287   7.4037   7.4215   7.7264   7.9080   8.3286
     8.5840   8.6560   8.7941   8.8811   8.8929   9.3981   9.6930

          k =-0.0973 0.0174 0.0000 ( 15159 PWs)   bands (ev):

  -111.4708-111.4708-111.1847-111.1847-111.1350-111.1350 -71.8285 -71.8284
   -71.4170 -71.4169 -71.3144 -71.3142 -68.8731 -68.8729 -68.8602 -68.8602
   -68.8509 -68.8508 -68.6170 -68.6169 -68.6144 -68.6142 -68.5727 -68.5725
   -68.5692 -68.5691 -68.4958 -68.4958 -68.4413 -68.4413 -42.1294 -42.1291
   -41.7438 -41.7435 -41.6968 -41.6958 -41.4965 -41.4964 -41.4501 -41.4499
   -41.3341 -41.3338 -41.2721 -41.2720 -41.2103 -41.2102 -41.0982 -41.0981
    -4.8079  -4.1724  -3.4658  -3.4288  -3.2891  -3.2784  -2.9533  -2.8887
    -2.8103  -2.5788  -2.5563  -2.4651  -2.3821  -2.2756  -2.2303  -2.0789
    -2.0700  -1.9940  -1.9343  -1.8995  -1.8868  -1.7705  -1.6746  -1.5860
    -1.4774  -1.4604  -1.4420  -1.4144  -1.4013  -1.3493  -1.3344  -1.3005
    -1.2069  -1.1749  -1.1140  -1.1013  -0.9934  -0.8458  -0.8395  -0.7931
    -0.5914  -0.4040  -0.3441  -0.1435  -0.1263  -0.0621  -0.0557  -0.0368
    -0.0220   0.0408   0.1639   0.1677   0.2583   0.4404   0.5158   0.5970
     0.6562   0.7443   1.0598   1.2230   1.4065   1.4940   1.6367   1.6605
     1.9477   2.5763   2.8943   3.9318   4.7302   4.9455   5.0586   5.8845
     6.2674   6.8039   6.9287   7.4037   7.4215   7.7264   7.9080   8.3286
     8.5840   8.6560   8.7941   8.8811   8.8929   9.3981   9.6930

          k =-0.0973-0.1569 0.0000 ( 15136 PWs)   bands (ev):

  -111.4708-111.4708-111.1847-111.1847-111.1350-111.1350 -71.8284 -71.8284
   -71.4170 -71.4169 -71.3143 -71.3143 -68.8730 -68.8730 -68.8602 -68.8602
   -68.8509 -68.8509 -68.6170 -68.6170 -68.6143 -68.6143 -68.5726 -68.5726
   -68.5692 -68.5691 -68.4958 -68.4958 -68.4413 -68.4413 -42.1293 -42.1292
   -41.7436 -41.7436 -41.6963 -41.6963 -41.4965 -41.4964 -41.4500 -41.4500
   -41.3340 -41.3339 -41.2720 -41.2720 -41.2103 -41.2102 -41.0982 -41.0981
    -4.5586  -4.5585  -3.3728  -3.3727  -3.3110  -3.3109  -2.8941  -2.8941
    -2.7044  -2.7044  -2.5270  -2.5270  -2.2840  -2.2840  -2.1628  -2.1628
    -2.0593  -2.0592  -1.9355  -1.9354  -1.7729  -1.7728  -1.6210  -1.6209
    -1.4367  -1.4366  -1.4184  -1.4182  -1.3552  -1.3550  -1.2773  -1.2772
    -1.2208  -1.2207  -1.0654  -1.0654  -1.0015  -1.0014  -0.7491  -0.7489
    -0.6165  -0.6163  -0.2754  -0.2754  -0.0974  -0.0972  -0.0320  -0.0318
     0.0778   0.0779   0.1668   0.1669   0.2298   0.2299   0.3380   0.3380
     0.6094   0.6095   1.2720   1.2720   1.4485   1.4486   1.6563   1.6563
     3.1140   3.1140   3.2277   3.2278   4.1495   4.1497   5.3513   5.3514
     6.2747   6.2749   7.2463   7.2464   7.8286   7.8286   8.0963   8.0963
     8.7629   8.7631   9.1232   9.1233   9.5011   9.5013   9.7814

     the Fermi energy is     1.2474 ev

!    total energy              =   -3600.02723849 Ry
     Harris-Foulkes estimate   =   -3600.02723405 Ry
     estimated scf accuracy    <       0.00000092 Ry

     The total energy is the sum of the following terms:

     one-electron contribution =  -28784.96103185 Ry
     hartree contribution      =   14399.12593496 Ry
     xc contribution           =    -400.93110970 Ry
     ewald contribution        =   11186.81381577 Ry
     electric field correction =       0.00000052 Ry
     smearing contrib. (-TS)   =      -0.07484820 Ry

     convergence has been achieved in  21 iterations
 
 BEEF-vdW xc energy contributions
           1 :   -352.367258519153     
           2 :    321.053738474387     
           3 :   -267.545567434441     
           4 :    206.018987001320     
           5 :   -149.958815708642     
           6 :    107.549746935750     
           7 :   -80.0902764608493     
           8 :    63.6255075531739     
           9 :   -52.4213185854722     
          10 :    42.2171266527902     
          11 :   -31.7088863702595     
          12 :    21.9667589064471     
          13 :   -14.6862595004926     
          14 :    10.6139405337235     
          15 :   -9.06194420120733     
          16 :    8.53368521149889     
          17 :   -7.77511350821226     
          18 :    6.44240886023408     
          19 :   -5.00933577149374     
          20 :    4.12742155869154     
          21 :   -3.99682049221246     
          22 :    4.20896144986847     
          23 :   -4.11553277975884     
          24 :    3.37727227848529     
          25 :   -2.24508418207836     
          26 :    1.36248450228845     
          27 :   -1.25557878140933     
          28 :    1.90615999597799     
          29 :   -2.73229777851566     
          30 :    2.99338719934121     
          31 :   -31.3622859421845     
          32 :   -22.4877086039795     

     Forces acting on atoms (Ry/au):


     negative rho (up, down):  4.552E-01 0.000E+00
     atom    1 type  1   force =     0.00000902    0.00303580   -0.00239813
     atom    2 type  1   force =    -0.00000064    0.00303529   -0.00239752
     atom    3 type  2   force =     0.00000444    0.00377044    0.01351587
     atom    4 type  2   force =     0.00000478    0.00377387    0.01351449
     atom    5 type  1   force =     0.00001241    0.00036596   -0.00554666
     atom    6 type  1   force =    -0.00002483    0.00036701   -0.00554772
     atom    7 type  2   force =    -0.00000091   -0.00754626   -0.00545890
     atom    8 type  2   force =     0.00000066   -0.00753981   -0.00547520
     atom    9 type  1   force =    -0.00005290    0.00022261    0.00008059
     atom   10 type  1   force =     0.00003740    0.00022511    0.00007974
     atom   11 type  2   force =     0.00000442    0.00011980   -0.00016811
     atom   12 type  2   force =     0.00000614    0.00017018   -0.00019845

     Total force =     0.025677     Total SCF correction =     0.006068
     SCF correction compared to forces is large: reduce conv_thr to get better values


     entering subroutine stress ...


     negative rho (up, down):  4.552E-01 0.000E+00
          total   stress  (Ry/bohr**3)                   (kbar)     P=  -22.91
  -0.00020804   0.00000000   0.00000001        -30.60      0.00      0.00
   0.00000000  -0.00018721  -0.00001809          0.00    -27.54     -2.66
   0.00000001  -0.00001809  -0.00007206          0.00     -2.66    -10.60

 !ASE

     Writing output data file calc.save
 
     init_run     :     13.37s CPU     19.61s WALL (       1 calls)
     electrons    :    815.95s CPU   1153.82s WALL (       1 calls)
     forces       :      3.53s CPU      4.13s WALL (       1 calls)
     stress       :      9.06s CPU     10.05s WALL (       1 calls)

     Called by init_run:
     wfcinit      :     10.62s CPU     16.02s WALL (       1 calls)
     potinit      :      1.40s CPU      2.07s WALL (       1 calls)

     Called by electrons:
     c_bands      :    664.98s CPU    928.09s WALL (      21 calls)
     sum_band     :     88.40s CPU    134.86s WALL (      21 calls)
     v_of_rho     :     22.98s CPU     34.35s WALL (      22 calls)
     newd         :      8.74s CPU      9.01s WALL (      22 calls)
     mix_rho      :      0.94s CPU      1.44s WALL (      21 calls)
     vdW_energy   :      3.18s CPU      3.20s WALL (      58 calls)
     vdW_ffts     :     33.80s CPU     53.83s WALL (     118 calls)
     vdW_v        :      6.42s CPU      9.47s WALL (      58 calls)

     Called by c_bands:
     init_us_2    :      0.71s CPU      0.77s WALL (     900 calls)
     cegterg      :    655.56s CPU    916.34s WALL (     420 calls)

     Called by *egterg:
     h_psi        :    350.18s CPU    564.67s WALL (    1917 calls)
     s_psi        :     12.97s CPU     13.06s WALL (    1917 calls)
     g_psi        :      0.77s CPU      0.79s WALL (    1477 calls)
     cdiaghg      :    209.04s CPU    235.72s WALL (    1897 calls)

     Called by h_psi:
     add_vuspsi   :     13.21s CPU     13.28s WALL (    1917 calls)

     General routines
     calbec       :     28.42s CPU     34.23s WALL (    2377 calls)
     fft          :     51.18s CPU     81.81s WALL (    3555 calls)
     ffts         :      0.18s CPU      0.32s WALL (      43 calls)
     fftw         :    372.90s CPU    625.64s WALL (  317652 calls)
     interpolate  :      0.80s CPU      1.30s WALL (      43 calls)
     davcio       :      0.00s CPU      0.03s WALL (      20 calls)
 
     Parallel routines
     fft_scatter  :    381.70s CPU    662.11s WALL (  321250 calls)
 
     PWSCF        : 14m 2.80s CPU    19m49.12s WALL

 
   This run was terminated on:  22: 4:50  19Dec2018            

=------------------------------------------------------------------------------=
   JOB DONE.
=------------------------------------------------------------------------------=
Job  /afs/slac/g/suncat/bin/suncat-tsmpirun -x LD_LIBRARY_PATH -wdir /scratch/qe529807_9HTer pw.x -in pw.inp

TID   HOST_NAME   COMMAND_LINE            STATUS            TERMINATION_TIME
===== ========== ================  =======================  ===================
00000 suncat0003 pw.x -in pw.inp   Done                     12/19/2018 22:04:50
00001 suncat0003 pw.x -in pw.inp   Done                     12/19/2018 22:04:50
00002 suncat0003 pw.x -in pw.inp   Done                     12/19/2018 22:04:50
00003 suncat0003 pw.x -in pw.inp   Done                     12/19/2018 22:04:50
00004 suncat0003 pw.x -in pw.inp   Done                     12/19/2018 22:04:50
00005 suncat0003 pw.x -in pw.inp   Done                     12/19/2018 22:04:50
00006 suncat0003 pw.x -in pw.inp   Done                     12/19/2018 22:04:50
00007 suncat0003 pw.x -in pw.inp   Done                     12/19/2018 22:04:50
00008 suncat0002 pw.x -in pw.inp   Done                     12/19/2018 22:04:50
00009 suncat0002 pw.x -in pw.inp   Done                     12/19/2018 22:04:50
00010 suncat0002 pw.x -in pw.inp   Done                     12/19/2018 22:04:50
00011 suncat0002 pw.x -in pw.inp   Done                     12/19/2018 22:04:50
00012 suncat0002 pw.x -in pw.inp   Done                     12/19/2018 22:04:50
00013 suncat0002 pw.x -in pw.inp   Done                     12/19/2018 22:04:50
00014 suncat0002 pw.x -in pw.inp   Done                     12/19/2018 22:04:50
00015 suncat0002 pw.x -in pw.inp   Done                     12/19/2018 22:04:50
00016 suncat0001 pw.x -in pw.inp   Done                     12/19/2018 22:04:50
00017 suncat0001 pw.x -in pw.inp   Done                     12/19/2018 22:04:50
00018 suncat0001 pw.x -in pw.inp   Done                     12/19/2018 22:04:50
00019 suncat0001 pw.x -in pw.inp   Done                     12/19/2018 22:04:50
00020 suncat0001 pw.x -in pw.inp   Done                     12/19/2018 22:04:50
00021 suncat0001 pw.x -in pw.inp   Done                     12/19/2018 22:04:50
00022 suncat0001 pw.x -in pw.inp   Done                     12/19/2018 22:04:50
00023 suncat0001 pw.x -in pw.inp   Done                     12/19/2018 22:04:50
00024 suncat0188 pw.x -in pw.inp   Done                     12/19/2018 22:04:50
00025 suncat0188 pw.x -in pw.inp   Done                     12/19/2018 22:04:50
00026 suncat0188 pw.x -in pw.inp   Done                     12/19/2018 22:04:50
00027 suncat0188 pw.x -in pw.inp   Done                     12/19/2018 22:04:50
00028 suncat0188 pw.x -in pw.inp   Done                     12/19/2018 22:04:50
00029 suncat0188 pw.x -in pw.inp   Done                     12/19/2018 22:04:50
00030 suncat0188 pw.x -in pw.inp   Done                     12/19/2018 22:04:50
00031 suncat0188 pw.x -in pw.inp   Done                     12/19/2018 22:04:50
