  python dir          : /u/if/mamunm/src/espresso
  espresso dir        : /nfs/slac/g/suncatfs/sw/espv18/espresso-dynpy-beef/bin
  pseudo dir          : /afs/slac.stanford.edu/u/if/mamunm/psp/gbrv1.5pbe
  ase-espresso py git : GITVERSION



     Program PWSCF v.5.1rc2 (svn rev. 11289) starts on 18Dec2018 at 16:51:58 

     This program is part of the open-source Quantum ESPRESSO suite
     for quantum simulation of materials; please cite
         "P. Giannozzi et al., J. Phys.:Condens. Matter 21 395502 (2009);
          URL http://www.quantum-espresso.org", 
     in publications or presentations arising from this work. More details at
     http://www.quantum-espresso.org/quote

     Parallel version (MPI), running on    32 processors
     R & G space division:  proc/nbgrp/npool/nimage =      32
     Reading input from pw.inp
     Message from routine read_cards :
     DEPRECATED: no units specified in CELL_PARAMETERS card

     Current dimensions of program PWSCF are:
     Max number of different atomic species (ntypx) = 10
     Max number of k-points (npk) =  40000
     Max angular momentum in pseudopotentials (lmaxx) =  3
     Presently stress not available with electric field


     **************************************************************************
     Initializing libbeef V0.1.1 with the BEEF-vdW functional.
     Citation: Wellendorff et al., PRB 85, 235149 (2012).
     **************************************************************************


     IMPORTANT: XC functional enforced from input :
     Exchange-correlation      = BEEF-VDW ( 1  4 27 13 2)
     Any further DFT definition will be discarded
     Please, verify this is what you really want


     Subspace diagonalization in iterative solution of the eigenvalue problem:
     a serial algorithm will be used

     Found symmetry operation: I + ( -0.5000 -0.5000  0.0000)
     This is a supercell, fractional translations are disabled
 
     Parallelization info
     --------------------
     sticks:   dense  smooth     PW     G-vecs:    dense   smooth      PW
     Min          86      34     10                16222     4086     626
     Max          87      35     11                16249     4133     642
     Sum        2777    1113    321               519541   131461   20391
 
     Generating pointlists ...
     new r_m :   0.4125 (alat units)  0.7795 (a.u.) for type    1
     new r_m :   0.4125 (alat units)  0.7795 (a.u.) for type    2


     bravais-lattice index     =            0
     lattice parameter (alat)  =       1.8897  a.u.
     unit-cell volume          =    4367.2239 (a.u.)^3
     number of atoms/cell      =           12
     number of atomic types    =            2
     number of electrons       =       168.00
     number of Kohn-Sham states=          114
     kinetic-energy cutoff     =      36.7493  Ry
     charge density cutoff     =     367.4932  Ry
     convergence threshold     =      1.0E-06
     mixing beta               =       0.1000
     number of iterations used =           10  plain     mixing
     Exchange-correlation      = BEEF-VDW ( 1  4 27 13 2)
     nstep                     =           50


     celldm(1)=   1.889726  celldm(2)=   0.000000  celldm(3)=   0.000000
     celldm(4)=   0.000000  celldm(5)=   0.000000  celldm(6)=   0.000000

     crystal axes: (cart. coord. in units of alat)
               a(1) = (   5.310954   0.000000   0.000000 )  
               a(2) = (   1.770951   5.006992   0.000000 )  
               a(3) = (   0.000000   0.000000  24.336570 )  

     reciprocal axes: (cart. coord. in units 2 pi/alat)
               b(1) = (  0.188290 -0.066597  0.000000 )  
               b(2) = (  0.000000  0.199721  0.000000 )  
               b(3) = (  0.000000  0.000000  0.041090 )  


     PseudoPot. # 1 for Mn read from file:
     /afs/slac.stanford.edu/u/if/mamunm/psp/gbrv1.5pbe/Mn.UPF
     MD5 check sum: 82ef2b46521d7a7d9e736dc3972e4928
     Pseudo is Ultrasoft + core correction, Zval = 15.0
     Generated by new atomic code, or converted to UPF format
     Using radial grid of  859 points,  6 beta functions with: 
                l(1) =   0
                l(2) =   0
                l(3) =   1
                l(4) =   1
                l(5) =   2
                l(6) =   2
     Q(r) pseudized with  8 coefficients,  rinner =    0.950   0.950   0.950
                                                       0.950   0.950

     PseudoPot. # 2 for Nb read from file:
     /afs/slac.stanford.edu/u/if/mamunm/psp/gbrv1.5pbe/Nb.UPF
     MD5 check sum: 573aab8a2fa660278ed4a62cd769473f
     Pseudo is Ultrasoft + core correction, Zval = 13.0
     Generated by new atomic code, or converted to UPF format
     Using radial grid of  887 points,  6 beta functions with: 
                l(1) =   0
                l(2) =   0
                l(3) =   1
                l(4) =   1
                l(5) =   2
                l(6) =   2
     Q(r) pseudized with  6 coefficients,  rinner =    1.000   1.000   1.000
                                                       1.000   1.000

     vdW kernel table read from file vdW_kernel_table
     MD5 check sum: 095c7af220d748ca6e76c0b4c6cfb241

     atomic species   valence    mass     pseudopotential
        Mn1           15.00    54.93804     Mn( 1.00)
        Nb1           13.00    92.90637     Nb( 1.00)

     Starting magnetic structure 
     atomic species   magnetization
        Mn1          0.133
        Nb1          0.154

     No symmetry found



   Cartesian axes

     site n.     atom                  positions (alat units)
         1           Mn1 tau(   1) = (   0.0000000   0.0000000  10.0000000  )
         2           Mn1 tau(   2) = (   3.5409525   2.5034961  10.0000000  )
         3           Nb1 tau(   3) = (   2.6554772   0.0000000  10.0000000  )
         4           Nb1 tau(   4) = (   0.8854753   2.5034961  10.0000000  )
         5           Mn1 tau(   5) = (   5.3109545   3.7549088  12.1682848  )
         6           Mn1 tau(   6) = (   1.7700019   1.2514127  12.1682848  )
         7           Nb1 tau(   7) = (   2.6554772   3.7549088  12.1682848  )
         8           Nb1 tau(   8) = (   4.4254792   1.2514127  12.1682848  )
         9           Mn1 tau(   9) = (   3.5400039   2.5028254  14.3365697  )
        10           Mn1 tau(  10) = (   7.0809564   5.0063215  14.3365697  )
        11           Nb1 tau(  11) = (   6.1954811   2.5028254  14.3365697  )
        12           Nb1 tau(  12) = (   4.4254792   5.0063215  14.3365697  )

     number of k points=    40  Fermi-Dirac smearing, width (Ry)=  0.0110
                       cart. coord. in units 2pi/alat
        k(    1) = (   0.0000000   0.0000000   0.0000000), wk =   0.0277778
        k(    2) = (   0.0000000   0.0332868   0.0000000), wk =   0.0555556
        k(    3) = (   0.0000000   0.0665736   0.0000000), wk =   0.0555556
        k(    4) = (   0.0000000  -0.0998604   0.0000000), wk =   0.0277778
        k(    5) = (   0.0313817  -0.0110996   0.0000000), wk =   0.0555556
        k(    6) = (   0.0313817   0.0221872   0.0000000), wk =   0.0555556
        k(    7) = (   0.0313817   0.0554740   0.0000000), wk =   0.0555556
        k(    8) = (   0.0313817  -0.1109599   0.0000000), wk =   0.0555556
        k(    9) = (   0.0313817  -0.0776731   0.0000000), wk =   0.0555556
        k(   10) = (   0.0313817  -0.0443863   0.0000000), wk =   0.0555556
        k(   11) = (   0.0627634  -0.0221991   0.0000000), wk =   0.0555556
        k(   12) = (   0.0627634   0.0110877   0.0000000), wk =   0.0555556
        k(   13) = (   0.0627634   0.0443744   0.0000000), wk =   0.0555556
        k(   14) = (   0.0627634  -0.1220595   0.0000000), wk =   0.0555556
        k(   15) = (   0.0627634  -0.0887727   0.0000000), wk =   0.0555556
        k(   16) = (   0.0627634  -0.0554859   0.0000000), wk =   0.0555556
        k(   17) = (  -0.0941450   0.0332987   0.0000000), wk =   0.0277778
        k(   18) = (  -0.0941450   0.0665855   0.0000000), wk =   0.0555556
        k(   19) = (  -0.0941450   0.0998722   0.0000000), wk =   0.0555556
        k(   20) = (  -0.0941450  -0.0665617   0.0000000), wk =   0.0277778
        k(   21) = (   0.0000000   0.0000000   0.0000000), wk =   0.0277778
        k(   22) = (   0.0000000   0.0332868   0.0000000), wk =   0.0555556
        k(   23) = (   0.0000000   0.0665736   0.0000000), wk =   0.0555556
        k(   24) = (   0.0000000  -0.0998604   0.0000000), wk =   0.0277778
        k(   25) = (   0.0313817  -0.0110996   0.0000000), wk =   0.0555556
        k(   26) = (   0.0313817   0.0221872   0.0000000), wk =   0.0555556
        k(   27) = (   0.0313817   0.0554740   0.0000000), wk =   0.0555556
        k(   28) = (   0.0313817  -0.1109599   0.0000000), wk =   0.0555556
        k(   29) = (   0.0313817  -0.0776731   0.0000000), wk =   0.0555556
        k(   30) = (   0.0313817  -0.0443863   0.0000000), wk =   0.0555556
        k(   31) = (   0.0627634  -0.0221991   0.0000000), wk =   0.0555556
        k(   32) = (   0.0627634   0.0110877   0.0000000), wk =   0.0555556
        k(   33) = (   0.0627634   0.0443744   0.0000000), wk =   0.0555556
        k(   34) = (   0.0627634  -0.1220595   0.0000000), wk =   0.0555556
        k(   35) = (   0.0627634  -0.0887727   0.0000000), wk =   0.0555556
        k(   36) = (   0.0627634  -0.0554859   0.0000000), wk =   0.0555556
        k(   37) = (  -0.0941450   0.0332987   0.0000000), wk =   0.0277778
        k(   38) = (  -0.0941450   0.0665855   0.0000000), wk =   0.0555556
        k(   39) = (  -0.0941450   0.0998722   0.0000000), wk =   0.0555556
        k(   40) = (  -0.0941450  -0.0665617   0.0000000), wk =   0.0277778

     Dense  grid:   519541 G-vectors     FFT dimensions: (  64,  64, 288)

     Smooth grid:   131461 G-vectors     FFT dimensions: (  40,  40, 180)

     Largest allocated arrays     est. size (Mb)     dimensions
        Kohn-Sham Wavefunctions         0.99 Mb     (     568,  114)
        NL pseudopotentials             1.87 Mb     (     568,  216)
        Each V/rho on FFT grid          1.12 Mb     (   36864,   2)
        Each G-vector array             0.12 Mb     (   16247)
        G-vector shells                 0.06 Mb     (    8122)
     Largest temporary arrays     est. size (Mb)     dimensions
        Auxiliary wavefunctions         3.95 Mb     (     568,  456)
        Each subspace H/S matrix        3.17 Mb     (     456,  456)
        Each <psi_i|beta_j> matrix      0.38 Mb     (     216,  114)
        Arrays for rho mixing           5.62 Mb     (   36864,   10)

     Check: negative/imaginary core charge=   -0.000005    0.000000

     Initial potential from superposition of free atoms
     Check: negative starting charge=(component1):   -0.002308
     Check: negative starting charge=(component2):   -0.001708

     starting charge  164.98309, renormalised to  168.00000

     negative rho (up, down):  2.350E-03 1.739E-03


     ************************************************************************
     *
     * You are using vdW-DF for exchange-correlation in this calculation.
     * Please cite the following three references that made this development
     * possible:
     *
     *   M. Dion, H. Rydberg, E. Schroder, D. C. Langreth, and
     *   B. I. Lundqvist, Phys. Rev. Lett. 92, 246401 (2004).
     *
     *   T. Thonhauser, V. R. Cooper, S. Li, A. Puzder, P. Hyldgaard, and
     *   D. C. Langreth, Phys. Rev. B 76, 125112 (2007).
     *
     *   G. Roman-Perez and J. M. Soler, Phys. Rev. Lett. 103, 096102 (2009).
     *
     *
     * If you are using vdW-DF2, please also cite:
     *
     *   K. Lee, E. D. Murray, L. Kong, B. I. Lundqvist, and
     *   D. C. Langreth, Phys. Rev. B 82, 081101(R) (2010).
     *
     *
     * If you are calculating the stress with vdW-DF, please also cite:
     *
     *   R. Sabatini, E. Kucukbenli, B. Kolb, T. Thonhauser, and
     *   S. de Gironcoli, J. Phys.: Condens. Matter 24, 424209 (2012).
     *
     ************************************************************************

     Carrying out vdW-DF run using the following parameters:

     Nqs =      20    Nr_points =    1024   r_max =   100.000
     q_mesh =
               0.00001000     0.04494208     0.09755937     0.15916263
               0.23128650     0.31572767     0.41458969     0.53033537
               0.66584808     0.82450364     1.01025438     1.22772762
               1.48234092     1.78043706     2.12944203     2.53805004
               3.01644009     3.57652955     4.23227104     5.00000000

     Gradients computed in reciprocal space

     ************************************************************************


 
     Adding external electric field

     Computed dipole along edir(3) : 
        Dipole               -0.0000 Ry au,         -0.0000 Debye
        Dipole field         -0.0000 Ry au
 
        Potential amp.        0.0000 Ry
        Total length         44.8397 bohr
 
 
     Adding external electric field

     Computed dipole along edir(3) : 
        Dipole               -0.0000 Ry au,         -0.0000 Debye
        Dipole field         -0.0000 Ry au
 
        Potential amp.        0.0000 Ry
        Total length         44.8397 bohr
 
     Starting wfc are  156 randomized atomic wfcs

     total cpu time spent up to now is       12.3 secs

     Self-consistent Calculation

     iteration #  1     ecut=    36.75 Ry     beta=0.10
     Davidson diagonalization with overlap
     ethr =  1.00E-02,  avg # of iterations =  2.0

     negative rho (up, down):  2.288E-03 1.744E-03
 
     Adding external electric field

     Computed dipole along edir(3) : 
        Dipole               -0.0002 Ry au,         -0.0004 Debye
        Dipole field         -0.0000 Ry au
 
        Potential amp.        0.0000 Ry
        Total length         44.8397 bohr
 
 
     Adding external electric field

     Computed dipole along edir(3) : 
        Dipole               -0.0002 Ry au,         -0.0004 Debye
        Dipole field         -0.0000 Ry au
 
        Potential amp.        0.0000 Ry
        Total length         44.8397 bohr
 
 
     Magnetic moment per site:
     atom:    1    charge:    6.0696    magn:    0.7929    constr:    0.0000
     atom:    2    charge:    6.0696    magn:    0.7929    constr:    0.0000
     atom:    3    charge:    1.4904    magn:    0.2094    constr:    0.0000
     atom:    4    charge:    1.4904    magn:    0.2094    constr:    0.0000
     atom:    5    charge:    6.0981    magn:    0.7821    constr:    0.0000
     atom:    6    charge:    6.0981    magn:    0.7821    constr:    0.0000
     atom:    7    charge:    1.5054    magn:    0.2106    constr:    0.0000
     atom:    8    charge:    1.5054    magn:    0.2106    constr:    0.0000
     atom:    9    charge:    6.0697    magn:    0.7929    constr:    0.0000
     atom:   10    charge:    6.0697    magn:    0.7930    constr:    0.0000
     atom:   11    charge:    1.4904    magn:    0.2094    constr:    0.0000
     atom:   12    charge:    1.4904    magn:    0.2094    constr:    0.0000

     total cpu time spent up to now is       37.0 secs

     total energy              =   -1983.71938328 Ry
     Harris-Foulkes estimate   =   -1984.46574119 Ry
     estimated scf accuracy    <       5.20772097 Ry

     total magnetization       =    10.70 Bohr mag/cell
     absolute magnetization    =    10.77 Bohr mag/cell

     iteration #  2     ecut=    36.75 Ry     beta=0.10
     Davidson diagonalization with overlap
     ethr =  3.10E-03,  avg # of iterations =  1.1

     negative rho (up, down):  2.311E-03 1.797E-03
 
     Adding external electric field

     Computed dipole along edir(3) : 
        Dipole               -0.0001 Ry au,         -0.0003 Debye
        Dipole field         -0.0000 Ry au
 
        Potential amp.        0.0000 Ry
        Total length         44.8397 bohr
 
 
     Adding external electric field

     Computed dipole along edir(3) : 
        Dipole               -0.0001 Ry au,         -0.0003 Debye
        Dipole field         -0.0000 Ry au
 
        Potential amp.        0.0000 Ry
        Total length         44.8397 bohr
 
 
     Magnetic moment per site:
     atom:    1    charge:    6.0656    magn:    0.7821    constr:    0.0000
     atom:    2    charge:    6.0656    magn:    0.7822    constr:    0.0000
     atom:    3    charge:    1.4882    magn:    0.2005    constr:    0.0000
     atom:    4    charge:    1.4882    magn:    0.2005    constr:    0.0000
     atom:    5    charge:    6.0594    magn:    0.7637    constr:    0.0000
     atom:    6    charge:    6.0594    magn:    0.7637    constr:    0.0000
     atom:    7    charge:    1.5016    magn:    0.2013    constr:    0.0000
     atom:    8    charge:    1.5016    magn:    0.2013    constr:    0.0000
     atom:    9    charge:    6.0657    magn:    0.7822    constr:    0.0000
     atom:   10    charge:    6.0657    magn:    0.7822    constr:    0.0000
     atom:   11    charge:    1.4883    magn:    0.2005    constr:    0.0000
     atom:   12    charge:    1.4883    magn:    0.2005    constr:    0.0000

     total cpu time spent up to now is       57.5 secs

     total energy              =   -1983.77359629 Ry
     Harris-Foulkes estimate   =   -1984.22302878 Ry
     estimated scf accuracy    <       6.16852009 Ry

     total magnetization       =     8.92 Bohr mag/cell
     absolute magnetization    =     9.05 Bohr mag/cell

     iteration #  3     ecut=    36.75 Ry     beta=0.10
     Davidson diagonalization with overlap
     ethr =  3.10E-03,  avg # of iterations =  1.0

     negative rho (up, down):  2.256E-03 1.790E-03
 
     Adding external electric field

     Computed dipole along edir(3) : 
        Dipole               -0.0002 Ry au,         -0.0006 Debye
        Dipole field         -0.0000 Ry au
 
        Potential amp.        0.0001 Ry
        Total length         44.8397 bohr
 
 
     Adding external electric field

     Computed dipole along edir(3) : 
        Dipole               -0.0002 Ry au,         -0.0006 Debye
        Dipole field         -0.0000 Ry au
 
        Potential amp.        0.0001 Ry
        Total length         44.8397 bohr
 
 
     Magnetic moment per site:
     atom:    1    charge:    6.0341    magn:    0.7614    constr:    0.0000
     atom:    2    charge:    6.0341    magn:    0.7614    constr:    0.0000
     atom:    3    charge:    1.4826    magn:    0.1801    constr:    0.0000
     atom:    4    charge:    1.4826    magn:    0.1801    constr:    0.0000
     atom:    5    charge:    6.0381    magn:    0.7303    constr:    0.0000
     atom:    6    charge:    6.0381    magn:    0.7303    constr:    0.0000
     atom:    7    charge:    1.4943    magn:    0.1800    constr:    0.0000
     atom:    8    charge:    1.4943    magn:    0.1800    constr:    0.0000
     atom:    9    charge:    6.0342    magn:    0.7614    constr:    0.0000
     atom:   10    charge:    6.0342    magn:    0.7614    constr:    0.0000
     atom:   11    charge:    1.4827    magn:    0.1802    constr:    0.0000
     atom:   12    charge:    1.4827    magn:    0.1802    constr:    0.0000

     total cpu time spent up to now is       77.8 secs

     total energy              =   -1983.79631445 Ry
     Harris-Foulkes estimate   =   -1984.00736789 Ry
     estimated scf accuracy    <       2.11041466 Ry

     total magnetization       =     9.95 Bohr mag/cell
     absolute magnetization    =    10.07 Bohr mag/cell

     iteration #  4     ecut=    36.75 Ry     beta=0.10
     Davidson diagonalization with overlap
     ethr =  1.26E-03,  avg # of iterations =  1.0

     negative rho (up, down):  2.584E-03 2.459E-03
 
     Adding external electric field

     Computed dipole along edir(3) : 
        Dipole                0.0018 Ry au,          0.0045 Debye
        Dipole field          0.0000 Ry au
 
        Potential amp.       -0.0005 Ry
        Total length         44.8397 bohr
 
 
     Adding external electric field

     Computed dipole along edir(3) : 
        Dipole                0.0018 Ry au,          0.0045 Debye
        Dipole field          0.0000 Ry au
 
        Potential amp.       -0.0005 Ry
        Total length         44.8397 bohr
 
 
     Magnetic moment per site:
     atom:    1    charge:    5.9789    magn:    0.7016    constr:    0.0000
     atom:    2    charge:    5.9789    magn:    0.7016    constr:    0.0000
     atom:    3    charge:    1.4668    magn:    0.1178    constr:    0.0000
     atom:    4    charge:    1.4668    magn:    0.1178    constr:    0.0000
     atom:    5    charge:    5.9724    magn:    0.6257    constr:    0.0000
     atom:    6    charge:    5.9724    magn:    0.6257    constr:    0.0000
     atom:    7    charge:    1.4740    magn:    0.1146    constr:    0.0000
     atom:    8    charge:    1.4740    magn:    0.1146    constr:    0.0000
     atom:    9    charge:    5.9790    magn:    0.7016    constr:    0.0000
     atom:   10    charge:    5.9790    magn:    0.7016    constr:    0.0000
     atom:   11    charge:    1.4668    magn:    0.1178    constr:    0.0000
     atom:   12    charge:    1.4668    magn:    0.1178    constr:    0.0000

     total cpu time spent up to now is       98.1 secs

     total energy              =   -1983.56619378 Ry
     Harris-Foulkes estimate   =   -1983.84515497 Ry
     estimated scf accuracy    <       1.13132037 Ry

     total magnetization       =     9.19 Bohr mag/cell
     absolute magnetization    =     9.43 Bohr mag/cell

     iteration #  5     ecut=    36.75 Ry     beta=0.10
     Davidson diagonalization with overlap
     ethr =  6.73E-04,  avg # of iterations =  2.1

     negative rho (up, down):  2.685E-03 2.659E-03
 
     Adding external electric field

     Computed dipole along edir(3) : 
        Dipole               -0.0210 Ry au,         -0.0534 Debye
        Dipole field         -0.0001 Ry au
 
        Potential amp.        0.0054 Ry
        Total length         44.8397 bohr
 
 
     Adding external electric field

     Computed dipole along edir(3) : 
        Dipole               -0.0210 Ry au,         -0.0534 Debye
        Dipole field         -0.0001 Ry au
 
        Potential amp.        0.0054 Ry
        Total length         44.8397 bohr
 
 
     Magnetic moment per site:
     atom:    1    charge:    5.9717    magn:    0.6895    constr:    0.0000
     atom:    2    charge:    5.9717    magn:    0.6895    constr:    0.0000
     atom:    3    charge:    1.4673    magn:    0.0971    constr:    0.0000
     atom:    4    charge:    1.4673    magn:    0.0971    constr:    0.0000
     atom:    5    charge:    5.9686    magn:    0.5941    constr:    0.0000
     atom:    6    charge:    5.9686    magn:    0.5941    constr:    0.0000
     atom:    7    charge:    1.4737    magn:    0.0932    constr:    0.0000
     atom:    8    charge:    1.4737    magn:    0.0932    constr:    0.0000
     atom:    9    charge:    5.9723    magn:    0.6894    constr:    0.0000
     atom:   10    charge:    5.9723    magn:    0.6894    constr:    0.0000
     atom:   11    charge:    1.4674    magn:    0.0971    constr:    0.0000
     atom:   12    charge:    1.4674    magn:    0.0971    constr:    0.0000

     total cpu time spent up to now is      123.2 secs

     total energy              =   -1983.74065000 Ry
     Harris-Foulkes estimate   =   -1983.71494082 Ry
     estimated scf accuracy    <       0.12859281 Ry

     total magnetization       =     9.08 Bohr mag/cell
     absolute magnetization    =     9.73 Bohr mag/cell

     iteration #  6     ecut=    36.75 Ry     beta=0.10
     Davidson diagonalization with overlap
     ethr =  7.65E-05,  avg # of iterations =  3.1

     negative rho (up, down):  2.500E-03 2.308E-03
 
     Adding external electric field

     Computed dipole along edir(3) : 
        Dipole                0.0266 Ry au,          0.0676 Debye
        Dipole field          0.0001 Ry au
 
        Potential amp.       -0.0069 Ry
        Total length         44.8397 bohr
 
 
     Adding external electric field

     Computed dipole along edir(3) : 
        Dipole                0.0266 Ry au,          0.0676 Debye
        Dipole field          0.0001 Ry au
 
        Potential amp.       -0.0069 Ry
        Total length         44.8397 bohr
 
 
     Magnetic moment per site:
     atom:    1    charge:    5.9720    magn:    0.6880    constr:    0.0000
     atom:    2    charge:    5.9720    magn:    0.6880    constr:    0.0000
     atom:    3    charge:    1.4676    magn:    0.0941    constr:    0.0000
     atom:    4    charge:    1.4676    magn:    0.0941    constr:    0.0000
     atom:    5    charge:    5.9682    magn:    0.5894    constr:    0.0000
     atom:    6    charge:    5.9682    magn:    0.5894    constr:    0.0000
     atom:    7    charge:    1.4741    magn:    0.0901    constr:    0.0000
     atom:    8    charge:    1.4741    magn:    0.0901    constr:    0.0000
     atom:    9    charge:    5.9715    magn:    0.6881    constr:    0.0000
     atom:   10    charge:    5.9715    magn:    0.6881    constr:    0.0000
     atom:   11    charge:    1.4676    magn:    0.0941    constr:    0.0000
     atom:   12    charge:    1.4676    magn:    0.0941    constr:    0.0000

     total cpu time spent up to now is      147.8 secs

     total energy              =   -1983.74915627 Ry
     Harris-Foulkes estimate   =   -1983.74724048 Ry
     estimated scf accuracy    <       0.13591554 Ry

     total magnetization       =     8.70 Bohr mag/cell
     absolute magnetization    =     9.73 Bohr mag/cell

     iteration #  7     ecut=    36.75 Ry     beta=0.10
     Davidson diagonalization with overlap
     ethr =  7.65E-05,  avg # of iterations =  1.1

     negative rho (up, down):  3.726E-03 4.710E-03
 
     Adding external electric field

     Computed dipole along edir(3) : 
        Dipole                0.0003 Ry au,          0.0007 Debye
        Dipole field          0.0000 Ry au
 
        Potential amp.       -0.0001 Ry
        Total length         44.8397 bohr
 
 
     Adding external electric field

     Computed dipole along edir(3) : 
        Dipole                0.0003 Ry au,          0.0007 Debye
        Dipole field          0.0000 Ry au
 
        Potential amp.       -0.0001 Ry
        Total length         44.8397 bohr
 
 
     Magnetic moment per site:
     atom:    1    charge:    5.9681    magn:    0.6585    constr:    0.0000
     atom:    2    charge:    5.9683    magn:    0.6584    constr:    0.0000
     atom:    3    charge:    1.4736    magn:    0.0259    constr:    0.0000
     atom:    4    charge:    1.4736    magn:    0.0258    constr:    0.0000
     atom:    5    charge:    5.9617    magn:    0.4834    constr:    0.0000
     atom:    6    charge:    5.9617    magn:    0.4834    constr:    0.0000
     atom:    7    charge:    1.4831    magn:    0.0201    constr:    0.0000
     atom:    8    charge:    1.4831    magn:    0.0201    constr:    0.0000
     atom:    9    charge:    5.9685    magn:    0.6585    constr:    0.0000
     atom:   10    charge:    5.9685    magn:    0.6585    constr:    0.0000
     atom:   11    charge:    1.4736    magn:    0.0259    constr:    0.0000
     atom:   12    charge:    1.4736    magn:    0.0258    constr:    0.0000

     total cpu time spent up to now is      168.4 secs

     total energy              =   -1983.81963118 Ry
     Harris-Foulkes estimate   =   -1983.75276007 Ry
     estimated scf accuracy    <       0.16769634 Ry

     total magnetization       =     8.65 Bohr mag/cell
     absolute magnetization    =     9.76 Bohr mag/cell

     iteration #  8     ecut=    36.75 Ry     beta=0.10
     Davidson diagonalization with overlap
     ethr =  7.65E-05,  avg # of iterations =  1.9

     negative rho (up, down):  3.686E-03 4.909E-03
 
     Adding external electric field

     Computed dipole along edir(3) : 
        Dipole               -0.0013 Ry au,         -0.0033 Debye
        Dipole field         -0.0000 Ry au
 
        Potential amp.        0.0003 Ry
        Total length         44.8397 bohr
 
 
     Adding external electric field

     Computed dipole along edir(3) : 
        Dipole               -0.0013 Ry au,         -0.0033 Debye
        Dipole field         -0.0000 Ry au
 
        Potential amp.        0.0003 Ry
        Total length         44.8397 bohr
 
 
     Magnetic moment per site:
     atom:    1    charge:    5.9899    magn:    0.6695    constr:    0.0000
     atom:    2    charge:    5.9889    magn:    0.6696    constr:    0.0000
     atom:    3    charge:    1.4835    magn:    0.0122    constr:    0.0000
     atom:    4    charge:    1.4835    magn:    0.0122    constr:    0.0000
     atom:    5    charge:    5.9936    magn:    0.4621    constr:    0.0000
     atom:    6    charge:    5.9935    magn:    0.4621    constr:    0.0000
     atom:    7    charge:    1.4955    magn:    0.0071    constr:    0.0000
     atom:    8    charge:    1.4955    magn:    0.0071    constr:    0.0000
     atom:    9    charge:    5.9893    magn:    0.6696    constr:    0.0000
     atom:   10    charge:    5.9893    magn:    0.6696    constr:    0.0000
     atom:   11    charge:    1.4836    magn:    0.0122    constr:    0.0000
     atom:   12    charge:    1.4836    magn:    0.0121    constr:    0.0000

     total cpu time spent up to now is      191.5 secs

     total energy              =   -1983.82365149 Ry
     Harris-Foulkes estimate   =   -1983.83968668 Ry
     estimated scf accuracy    <       0.07779966 Ry

     total magnetization       =     7.46 Bohr mag/cell
     absolute magnetization    =    10.84 Bohr mag/cell

     iteration #  9     ecut=    36.75 Ry     beta=0.10
     Davidson diagonalization with overlap
     ethr =  4.63E-05,  avg # of iterations =  3.0

     negative rho (up, down):  3.693E-03 4.919E-03
 
     Adding external electric field

     Computed dipole along edir(3) : 
        Dipole                0.0006 Ry au,          0.0014 Debye
        Dipole field          0.0000 Ry au
 
        Potential amp.       -0.0001 Ry
        Total length         44.8397 bohr
 
 
     Adding external electric field

     Computed dipole along edir(3) : 
        Dipole                0.0006 Ry au,          0.0014 Debye
        Dipole field          0.0000 Ry au
 
        Potential amp.       -0.0001 Ry
        Total length         44.8397 bohr
 
 
     Magnetic moment per site:
     atom:    1    charge:    5.9865    magn:    0.6687    constr:    0.0000
     atom:    2    charge:    5.9882    magn:    0.6685    constr:    0.0000
     atom:    3    charge:    1.4838    magn:    0.0001    constr:    0.0000
     atom:    4    charge:    1.4838    magn:    0.0001    constr:    0.0000
     atom:    5    charge:    5.9909    magn:    0.4382    constr:    0.0000
     atom:    6    charge:    5.9910    magn:    0.4382    constr:    0.0000
     atom:    7    charge:    1.4965    magn:   -0.0047    constr:    0.0000
     atom:    8    charge:    1.4965    magn:   -0.0047    constr:    0.0000
     atom:    9    charge:    5.9875    magn:    0.6687    constr:    0.0000
     atom:   10    charge:    5.9875    magn:    0.6686    constr:    0.0000
     atom:   11    charge:    1.4839    magn:    0.0001    constr:    0.0000
     atom:   12    charge:    1.4839    magn:    0.0001    constr:    0.0000

     total cpu time spent up to now is      219.5 secs

     total energy              =   -1983.84708145 Ry
     Harris-Foulkes estimate   =   -1983.84341702 Ry
     estimated scf accuracy    <       0.04218811 Ry

     total magnetization       =     6.93 Bohr mag/cell
     absolute magnetization    =    11.02 Bohr mag/cell

     iteration # 10     ecut=    36.75 Ry     beta=0.10
     Davidson diagonalization with overlap
     ethr =  2.51E-05,  avg # of iterations =  1.1

     negative rho (up, down):  3.821E-03 5.050E-03
 
     Adding external electric field

     Computed dipole along edir(3) : 
        Dipole                0.0013 Ry au,          0.0033 Debye
        Dipole field          0.0000 Ry au
 
        Potential amp.       -0.0003 Ry
        Total length         44.8397 bohr
 
 
     Adding external electric field

     Computed dipole along edir(3) : 
        Dipole                0.0013 Ry au,          0.0033 Debye
        Dipole field          0.0000 Ry au
 
        Potential amp.       -0.0003 Ry
        Total length         44.8397 bohr
 
 
     Magnetic moment per site:
     atom:    1    charge:    5.9824    magn:    0.6670    constr:    0.0000
     atom:    2    charge:    5.9822    magn:    0.6670    constr:    0.0000
     atom:    3    charge:    1.4829    magn:   -0.0142    constr:    0.0000
     atom:    4    charge:    1.4829    magn:   -0.0142    constr:    0.0000
     atom:    5    charge:    5.9833    magn:    0.4084    constr:    0.0000
     atom:    6    charge:    5.9834    magn:    0.4084    constr:    0.0000
     atom:    7    charge:    1.4960    magn:   -0.0185    constr:    0.0000
     atom:    8    charge:    1.4960    magn:   -0.0185    constr:    0.0000
     atom:    9    charge:    5.9825    magn:    0.6671    constr:    0.0000
     atom:   10    charge:    5.9825    magn:    0.6670    constr:    0.0000
     atom:   11    charge:    1.4829    magn:   -0.0142    constr:    0.0000
     atom:   12    charge:    1.4829    magn:   -0.0142    constr:    0.0000

     total cpu time spent up to now is      240.0 secs

     total energy              =   -1983.85009718 Ry
     Harris-Foulkes estimate   =   -1983.84843774 Ry
     estimated scf accuracy    <       0.02160249 Ry

     total magnetization       =     6.75 Bohr mag/cell
     absolute magnetization    =    11.34 Bohr mag/cell

     iteration # 11     ecut=    36.75 Ry     beta=0.10
     Davidson diagonalization with overlap
     ethr =  1.29E-05,  avg # of iterations =  2.7

     negative rho (up, down):  3.692E-03 4.784E-03
 
     Adding external electric field

     Computed dipole along edir(3) : 
        Dipole               -0.0013 Ry au,         -0.0033 Debye
        Dipole field         -0.0000 Ry au
 
        Potential amp.        0.0003 Ry
        Total length         44.8397 bohr
 
 
     Adding external electric field

     Computed dipole along edir(3) : 
        Dipole               -0.0013 Ry au,         -0.0033 Debye
        Dipole field         -0.0000 Ry au
 
        Potential amp.        0.0003 Ry
        Total length         44.8397 bohr
 
 
     Magnetic moment per site:
     atom:    1    charge:    5.9821    magn:    0.6715    constr:    0.0000
     atom:    2    charge:    5.9821    magn:    0.6714    constr:    0.0000
     atom:    3    charge:    1.4827    magn:   -0.0192    constr:    0.0000
     atom:    4    charge:    1.4827    magn:   -0.0192    constr:    0.0000
     atom:    5    charge:    5.9814    magn:    0.3951    constr:    0.0000
     atom:    6    charge:    5.9812    magn:    0.3951    constr:    0.0000
     atom:    7    charge:    1.4958    magn:   -0.0229    constr:    0.0000
     atom:    8    charge:    1.4958    magn:   -0.0229    constr:    0.0000
     atom:    9    charge:    5.9820    magn:    0.6715    constr:    0.0000
     atom:   10    charge:    5.9819    magn:    0.6715    constr:    0.0000
     atom:   11    charge:    1.4828    magn:   -0.0192    constr:    0.0000
     atom:   12    charge:    1.4828    magn:   -0.0192    constr:    0.0000

     total cpu time spent up to now is      264.8 secs

     total energy              =   -1983.85516165 Ry
     Harris-Foulkes estimate   =   -1983.85303812 Ry
     estimated scf accuracy    <       0.00590251 Ry

     total magnetization       =     6.56 Bohr mag/cell
     absolute magnetization    =    11.80 Bohr mag/cell

     iteration # 12     ecut=    36.75 Ry     beta=0.10
     Davidson diagonalization with overlap
     ethr =  3.51E-06,  avg # of iterations =  2.4

     negative rho (up, down):  3.452E-03 4.341E-03
 
     Adding external electric field

     Computed dipole along edir(3) : 
        Dipole                0.0010 Ry au,          0.0025 Debye
        Dipole field          0.0000 Ry au
 
        Potential amp.       -0.0003 Ry
        Total length         44.8397 bohr
 
 
     Adding external electric field

     Computed dipole along edir(3) : 
        Dipole                0.0010 Ry au,          0.0025 Debye
        Dipole field          0.0000 Ry au
 
        Potential amp.       -0.0003 Ry
        Total length         44.8397 bohr
 
 
     Magnetic moment per site:
     atom:    1    charge:    5.9849    magn:    0.6841    constr:    0.0000
     atom:    2    charge:    5.9847    magn:    0.6840    constr:    0.0000
     atom:    3    charge:    1.4835    magn:   -0.0193    constr:    0.0000
     atom:    4    charge:    1.4835    magn:   -0.0193    constr:    0.0000
     atom:    5    charge:    5.9837    magn:    0.3876    constr:    0.0000
     atom:    6    charge:    5.9839    magn:    0.3876    constr:    0.0000
     atom:    7    charge:    1.4960    magn:   -0.0217    constr:    0.0000
     atom:    8    charge:    1.4960    magn:   -0.0217    constr:    0.0000
     atom:    9    charge:    5.9848    magn:    0.6841    constr:    0.0000
     atom:   10    charge:    5.9852    magn:    0.6840    constr:    0.0000
     atom:   11    charge:    1.4835    magn:   -0.0193    constr:    0.0000
     atom:   12    charge:    1.4835    magn:   -0.0193    constr:    0.0000

     total cpu time spent up to now is      288.2 secs

     total energy              =   -1983.85622228 Ry
     Harris-Foulkes estimate   =   -1983.85570190 Ry
     estimated scf accuracy    <       0.00718777 Ry

     total magnetization       =     6.46 Bohr mag/cell
     absolute magnetization    =    12.03 Bohr mag/cell

     iteration # 13     ecut=    36.75 Ry     beta=0.10
     Davidson diagonalization with overlap
     ethr =  3.51E-06,  avg # of iterations =  2.1

     negative rho (up, down):  3.331E-03 4.048E-03
 
     Adding external electric field

     Computed dipole along edir(3) : 
        Dipole                0.0010 Ry au,          0.0025 Debye
        Dipole field          0.0000 Ry au
 
        Potential amp.       -0.0003 Ry
        Total length         44.8397 bohr
 
 
     Adding external electric field

     Computed dipole along edir(3) : 
        Dipole                0.0010 Ry au,          0.0025 Debye
        Dipole field          0.0000 Ry au
 
        Potential amp.       -0.0003 Ry
        Total length         44.8397 bohr
 
 
     Magnetic moment per site:
     atom:    1    charge:    5.9850    magn:    0.6982    constr:    0.0000
     atom:    2    charge:    5.9849    magn:    0.6980    constr:    0.0000
     atom:    3    charge:    1.4835    magn:   -0.0220    constr:    0.0000
     atom:    4    charge:    1.4835    magn:   -0.0220    constr:    0.0000
     atom:    5    charge:    5.9827    magn:    0.3732    constr:    0.0000
     atom:    6    charge:    5.9825    magn:    0.3732    constr:    0.0000
     atom:    7    charge:    1.4953    magn:   -0.0230    constr:    0.0000
     atom:    8    charge:    1.4953    magn:   -0.0230    constr:    0.0000
     atom:    9    charge:    5.9854    magn:    0.6981    constr:    0.0000
     atom:   10    charge:    5.9850    magn:    0.6982    constr:    0.0000
     atom:   11    charge:    1.4835    magn:   -0.0220    constr:    0.0000
     atom:   12    charge:    1.4835    magn:   -0.0220    constr:    0.0000

     total cpu time spent up to now is      310.6 secs

     total energy              =   -1983.85850576 Ry
     Harris-Foulkes estimate   =   -1983.85671740 Ry
     estimated scf accuracy    <       0.00315626 Ry

     total magnetization       =     6.41 Bohr mag/cell
     absolute magnetization    =    12.18 Bohr mag/cell

     iteration # 14     ecut=    36.75 Ry     beta=0.10
     Davidson diagonalization with overlap
     ethr =  1.88E-06,  avg # of iterations =  2.5

     negative rho (up, down):  3.155E-03 3.734E-03
 
     Adding external electric field

     Computed dipole along edir(3) : 
        Dipole               -0.0012 Ry au,         -0.0032 Debye
        Dipole field         -0.0000 Ry au
 
        Potential amp.        0.0003 Ry
        Total length         44.8397 bohr
 
 
     Adding external electric field

     Computed dipole along edir(3) : 
        Dipole               -0.0012 Ry au,         -0.0032 Debye
        Dipole field         -0.0000 Ry au
 
        Potential amp.        0.0003 Ry
        Total length         44.8397 bohr
 
 
     Magnetic moment per site:
     atom:    1    charge:    5.9852    magn:    0.7044    constr:    0.0000
     atom:    2    charge:    5.9852    magn:    0.7042    constr:    0.0000
     atom:    3    charge:    1.4834    magn:   -0.0226    constr:    0.0000
     atom:    4    charge:    1.4834    magn:   -0.0226    constr:    0.0000
     atom:    5    charge:    5.9827    magn:    0.3690    constr:    0.0000
     atom:    6    charge:    5.9827    magn:    0.3690    constr:    0.0000
     atom:    7    charge:    1.4951    magn:   -0.0230    constr:    0.0000
     atom:    8    charge:    1.4951    magn:   -0.0230    constr:    0.0000
     atom:    9    charge:    5.9850    magn:    0.7044    constr:    0.0000
     atom:   10    charge:    5.9853    magn:    0.7043    constr:    0.0000
     atom:   11    charge:    1.4834    magn:   -0.0226    constr:    0.0000
     atom:   12    charge:    1.4834    magn:   -0.0226    constr:    0.0000

     total cpu time spent up to now is      334.3 secs

     total energy              =   -1983.85961905 Ry
     Harris-Foulkes estimate   =   -1983.85895480 Ry
     estimated scf accuracy    <       0.00212314 Ry

     total magnetization       =     6.35 Bohr mag/cell
     absolute magnetization    =    12.47 Bohr mag/cell

     iteration # 15     ecut=    36.75 Ry     beta=0.10
     Davidson diagonalization with overlap
     ethr =  1.26E-06,  avg # of iterations =  1.1

     negative rho (up, down):  3.010E-03 3.466E-03
 
     Adding external electric field

     Computed dipole along edir(3) : 
        Dipole                0.0001 Ry au,          0.0004 Debye
        Dipole field          0.0000 Ry au
 
        Potential amp.       -0.0000 Ry
        Total length         44.8397 bohr
 
 
     Adding external electric field

     Computed dipole along edir(3) : 
        Dipole                0.0001 Ry au,          0.0004 Debye
        Dipole field          0.0000 Ry au
 
        Potential amp.       -0.0000 Ry
        Total length         44.8397 bohr
 
 
     Magnetic moment per site:
     atom:    1    charge:    5.9851    magn:    0.7107    constr:    0.0000
     atom:    2    charge:    5.9850    magn:    0.7105    constr:    0.0000
     atom:    3    charge:    1.4832    magn:   -0.0232    constr:    0.0000
     atom:    4    charge:    1.4832    magn:   -0.0232    constr:    0.0000
     atom:    5    charge:    5.9823    magn:    0.3646    constr:    0.0000
     atom:    6    charge:    5.9824    magn:    0.3646    constr:    0.0000
     atom:    7    charge:    1.4948    magn:   -0.0231    constr:    0.0000
     atom:    8    charge:    1.4948    magn:   -0.0231    constr:    0.0000
     atom:    9    charge:    5.9852    magn:    0.7106    constr:    0.0000
     atom:   10    charge:    5.9851    magn:    0.7106    constr:    0.0000
     atom:   11    charge:    1.4833    magn:   -0.0232    constr:    0.0000
     atom:   12    charge:    1.4833    magn:   -0.0232    constr:    0.0000

     total cpu time spent up to now is      354.9 secs

     total energy              =   -1983.86034821 Ry
     Harris-Foulkes estimate   =   -1983.85970016 Ry
     estimated scf accuracy    <       0.00181817 Ry

     total magnetization       =     6.34 Bohr mag/cell
     absolute magnetization    =    12.57 Bohr mag/cell

     iteration # 16     ecut=    36.75 Ry     beta=0.10
     Davidson diagonalization with overlap
     ethr =  1.08E-06,  avg # of iterations =  1.1

     negative rho (up, down):  2.894E-03 3.226E-03
 
     Adding external electric field

     Computed dipole along edir(3) : 
        Dipole                0.0005 Ry au,          0.0014 Debye
        Dipole field          0.0000 Ry au
 
        Potential amp.       -0.0001 Ry
        Total length         44.8397 bohr
 
 
     Adding external electric field

     Computed dipole along edir(3) : 
        Dipole                0.0005 Ry au,          0.0014 Debye
        Dipole field          0.0000 Ry au
 
        Potential amp.       -0.0001 Ry
        Total length         44.8397 bohr
 
 
     Magnetic moment per site:
     atom:    1    charge:    5.9847    magn:    0.7235    constr:    0.0000
     atom:    2    charge:    5.9846    magn:    0.7234    constr:    0.0000
     atom:    3    charge:    1.4829    magn:   -0.0243    constr:    0.0000
     atom:    4    charge:    1.4829    magn:   -0.0243    constr:    0.0000
     atom:    5    charge:    5.9817    magn:    0.3572    constr:    0.0000
     atom:    6    charge:    5.9815    magn:    0.3572    constr:    0.0000
     atom:    7    charge:    1.4943    magn:   -0.0232    constr:    0.0000
     atom:    8    charge:    1.4943    magn:   -0.0232    constr:    0.0000
     atom:    9    charge:    5.9848    magn:    0.7235    constr:    0.0000
     atom:   10    charge:    5.9848    magn:    0.7235    constr:    0.0000
     atom:   11    charge:    1.4829    magn:   -0.0243    constr:    0.0000
     atom:   12    charge:    1.4829    magn:   -0.0243    constr:    0.0000

     total cpu time spent up to now is      375.4 secs

     total energy              =   -1983.86138306 Ry
     Harris-Foulkes estimate   =   -1983.86040452 Ry
     estimated scf accuracy    <       0.00163929 Ry

     total magnetization       =     6.32 Bohr mag/cell
     absolute magnetization    =    12.67 Bohr mag/cell

     iteration # 17     ecut=    36.75 Ry     beta=0.10
     Davidson diagonalization with overlap
     ethr =  9.76E-07,  avg # of iterations =  1.6

     negative rho (up, down):  2.795E-03 2.959E-03
 
     Adding external electric field

     Computed dipole along edir(3) : 
        Dipole                0.0012 Ry au,          0.0030 Debye
        Dipole field          0.0000 Ry au
 
        Potential amp.       -0.0003 Ry
        Total length         44.8397 bohr
 
 
     Adding external electric field

     Computed dipole along edir(3) : 
        Dipole                0.0012 Ry au,          0.0030 Debye
        Dipole field          0.0000 Ry au
 
        Potential amp.       -0.0003 Ry
        Total length         44.8397 bohr
 
 
     Magnetic moment per site:
     atom:    1    charge:    5.9843    magn:    0.7476    constr:    0.0000
     atom:    2    charge:    5.9843    magn:    0.7475    constr:    0.0000
     atom:    3    charge:    1.4822    magn:   -0.0248    constr:    0.0000
     atom:    4    charge:    1.4822    magn:   -0.0248    constr:    0.0000
     atom:    5    charge:    5.9806    magn:    0.3469    constr:    0.0000
     atom:    6    charge:    5.9808    magn:    0.3469    constr:    0.0000
     atom:    7    charge:    1.4934    magn:   -0.0221    constr:    0.0000
     atom:    8    charge:    1.4934    magn:   -0.0221    constr:    0.0000
     atom:    9    charge:    5.9843    magn:    0.7475    constr:    0.0000
     atom:   10    charge:    5.9843    magn:    0.7476    constr:    0.0000
     atom:   11    charge:    1.4822    magn:   -0.0248    constr:    0.0000
     atom:   12    charge:    1.4822    magn:   -0.0248    constr:    0.0000

     total cpu time spent up to now is      396.9 secs

     total energy              =   -1983.86277399 Ry
     Harris-Foulkes estimate   =   -1983.86154307 Ry
     estimated scf accuracy    <       0.00157872 Ry

     total magnetization       =     6.33 Bohr mag/cell
     absolute magnetization    =    12.88 Bohr mag/cell

     iteration # 18     ecut=    36.75 Ry     beta=0.10
     Davidson diagonalization with overlap
     ethr =  9.40E-07,  avg # of iterations =  3.1

     negative rho (up, down):  2.698E-03 2.771E-03
 
     Adding external electric field

     Computed dipole along edir(3) : 
        Dipole               -0.0057 Ry au,         -0.0146 Debye
        Dipole field         -0.0000 Ry au
 
        Potential amp.        0.0015 Ry
        Total length         44.8397 bohr
 
 
     Adding external electric field

     Computed dipole along edir(3) : 
        Dipole               -0.0057 Ry au,         -0.0146 Debye
        Dipole field         -0.0000 Ry au
 
        Potential amp.        0.0015 Ry
        Total length         44.8397 bohr
 
 
     Magnetic moment per site:
     atom:    1    charge:    5.9842    magn:    0.7578    constr:    0.0000
     atom:    2    charge:    5.9842    magn:    0.7577    constr:    0.0000
     atom:    3    charge:    1.4820    magn:   -0.0248    constr:    0.0000
     atom:    4    charge:    1.4820    magn:   -0.0248    constr:    0.0000
     atom:    5    charge:    5.9805    magn:    0.3433    constr:    0.0000
     atom:    6    charge:    5.9807    magn:    0.3433    constr:    0.0000
     atom:    7    charge:    1.4932    magn:   -0.0215    constr:    0.0000
     atom:    8    charge:    1.4932    magn:   -0.0215    constr:    0.0000
     atom:    9    charge:    5.9844    magn:    0.7577    constr:    0.0000
     atom:   10    charge:    5.9844    magn:    0.7577    constr:    0.0000
     atom:   11    charge:    1.4820    magn:   -0.0248    constr:    0.0000
     atom:   12    charge:    1.4820    magn:   -0.0248    constr:    0.0000

     total cpu time spent up to now is      422.0 secs

     total energy              =   -1983.86368513 Ry
     Harris-Foulkes estimate   =   -1983.86319465 Ry
     estimated scf accuracy    <       0.00165895 Ry

     total magnetization       =     6.35 Bohr mag/cell
     absolute magnetization    =    13.21 Bohr mag/cell

     iteration # 19     ecut=    36.75 Ry     beta=0.10
     Davidson diagonalization with overlap
     ethr =  9.40E-07,  avg # of iterations =  1.0

     negative rho (up, down):  2.638E-03 2.566E-03
 
     Adding external electric field

     Computed dipole along edir(3) : 
        Dipole                0.0005 Ry au,          0.0014 Debye
        Dipole field          0.0000 Ry au
 
        Potential amp.       -0.0001 Ry
        Total length         44.8397 bohr
 
 
     Adding external electric field

     Computed dipole along edir(3) : 
        Dipole                0.0005 Ry au,          0.0014 Debye
        Dipole field          0.0000 Ry au
 
        Potential amp.       -0.0001 Ry
        Total length         44.8397 bohr
 
 
     Magnetic moment per site:
     atom:    1    charge:    5.9843    magn:    0.7839    constr:    0.0000
     atom:    2    charge:    5.9843    magn:    0.7838    constr:    0.0000
     atom:    3    charge:    1.4815    magn:   -0.0248    constr:    0.0000
     atom:    4    charge:    1.4815    magn:   -0.0248    constr:    0.0000
     atom:    5    charge:    5.9803    magn:    0.3342    constr:    0.0000
     atom:    6    charge:    5.9802    magn:    0.3342    constr:    0.0000
     atom:    7    charge:    1.4924    magn:   -0.0198    constr:    0.0000
     atom:    8    charge:    1.4924    magn:   -0.0198    constr:    0.0000
     atom:    9    charge:    5.9844    magn:    0.7838    constr:    0.0000
     atom:   10    charge:    5.9844    magn:    0.7838    constr:    0.0000
     atom:   11    charge:    1.4815    magn:   -0.0248    constr:    0.0000
     atom:   12    charge:    1.4815    magn:   -0.0248    constr:    0.0000

     total cpu time spent up to now is      442.5 secs

     total energy              =   -1983.86456441 Ry
     Harris-Foulkes estimate   =   -1983.86381157 Ry
     estimated scf accuracy    <       0.00462248 Ry

     total magnetization       =     6.37 Bohr mag/cell
     absolute magnetization    =    13.33 Bohr mag/cell

     iteration # 20     ecut=    36.75 Ry     beta=0.10
     Davidson diagonalization with overlap
     ethr =  9.40E-07,  avg # of iterations =  2.5

     negative rho (up, down):  2.584E-03 2.420E-03
 
     Adding external electric field

     Computed dipole along edir(3) : 
        Dipole                0.0005 Ry au,          0.0013 Debye
        Dipole field          0.0000 Ry au
 
        Potential amp.       -0.0001 Ry
        Total length         44.8397 bohr
 
 
     Adding external electric field

     Computed dipole along edir(3) : 
        Dipole                0.0005 Ry au,          0.0013 Debye
        Dipole field          0.0000 Ry au
 
        Potential amp.       -0.0001 Ry
        Total length         44.8397 bohr
 
 
     Magnetic moment per site:
     atom:    1    charge:    5.9845    magn:    0.8058    constr:    0.0000
     atom:    2    charge:    5.9847    magn:    0.8058    constr:    0.0000
     atom:    3    charge:    1.4812    magn:   -0.0251    constr:    0.0000
     atom:    4    charge:    1.4812    magn:   -0.0251    constr:    0.0000
     atom:    5    charge:    5.9801    magn:    0.3281    constr:    0.0000
     atom:    6    charge:    5.9801    magn:    0.3281    constr:    0.0000
     atom:    7    charge:    1.4922    magn:   -0.0189    constr:    0.0000
     atom:    8    charge:    1.4922    magn:   -0.0189    constr:    0.0000
     atom:    9    charge:    5.9848    magn:    0.8057    constr:    0.0000
     atom:   10    charge:    5.9848    magn:    0.8058    constr:    0.0000
     atom:   11    charge:    1.4813    magn:   -0.0251    constr:    0.0000
     atom:   12    charge:    1.4813    magn:   -0.0251    constr:    0.0000

     total cpu time spent up to now is      466.4 secs

     total energy              =   -1983.86557990 Ry
     Harris-Foulkes estimate   =   -1983.86502448 Ry
     estimated scf accuracy    <       0.00102114 Ry

     total magnetization       =     6.40 Bohr mag/cell
     absolute magnetization    =    13.65 Bohr mag/cell

     iteration # 21     ecut=    36.75 Ry     beta=0.10
     Davidson diagonalization with overlap
     ethr =  6.08E-07,  avg # of iterations =  2.5

     negative rho (up, down):  2.507E-03 2.319E-03
 
     Adding external electric field

     Computed dipole along edir(3) : 
        Dipole                0.0003 Ry au,          0.0007 Debye
        Dipole field          0.0000 Ry au
 
        Potential amp.       -0.0001 Ry
        Total length         44.8397 bohr
 
 
     Adding external electric field

     Computed dipole along edir(3) : 
        Dipole                0.0003 Ry au,          0.0007 Debye
        Dipole field          0.0000 Ry au
 
        Potential amp.       -0.0001 Ry
        Total length         44.8397 bohr
 
 
     Magnetic moment per site:
     atom:    1    charge:    5.9851    magn:    0.8151    constr:    0.0000
     atom:    2    charge:    5.9847    magn:    0.8151    constr:    0.0000
     atom:    3    charge:    1.4813    magn:   -0.0250    constr:    0.0000
     atom:    4    charge:    1.4813    magn:   -0.0250    constr:    0.0000
     atom:    5    charge:    5.9802    magn:    0.3278    constr:    0.0000
     atom:    6    charge:    5.9802    magn:    0.3278    constr:    0.0000
     atom:    7    charge:    1.4924    magn:   -0.0185    constr:    0.0000
     atom:    8    charge:    1.4924    magn:   -0.0185    constr:    0.0000
     atom:    9    charge:    5.9850    magn:    0.8150    constr:    0.0000
     atom:   10    charge:    5.9851    magn:    0.8151    constr:    0.0000
     atom:   11    charge:    1.4813    magn:   -0.0250    constr:    0.0000
     atom:   12    charge:    1.4813    magn:   -0.0250    constr:    0.0000

     total cpu time spent up to now is      490.4 secs

     total energy              =   -1983.86604479 Ry
     Harris-Foulkes estimate   =   -1983.86583550 Ry
     estimated scf accuracy    <       0.00089240 Ry

     total magnetization       =     6.45 Bohr mag/cell
     absolute magnetization    =    13.90 Bohr mag/cell

     iteration # 22     ecut=    36.75 Ry     beta=0.10
     Davidson diagonalization with overlap
     ethr =  5.31E-07,  avg # of iterations =  1.2

     negative rho (up, down):  2.462E-03 2.204E-03
 
     Adding external electric field

     Computed dipole along edir(3) : 
        Dipole               -0.0009 Ry au,         -0.0022 Debye
        Dipole field         -0.0000 Ry au
 
        Potential amp.        0.0002 Ry
        Total length         44.8397 bohr
 
 
     Adding external electric field

     Computed dipole along edir(3) : 
        Dipole               -0.0009 Ry au,         -0.0022 Debye
        Dipole field         -0.0000 Ry au
 
        Potential amp.        0.0002 Ry
        Total length         44.8397 bohr
 
 
     Magnetic moment per site:
     atom:    1    charge:    5.9862    magn:    0.8495    constr:    0.0000
     atom:    2    charge:    5.9862    magn:    0.8495    constr:    0.0000
     atom:    3    charge:    1.4816    magn:   -0.0257    constr:    0.0000
     atom:    4    charge:    1.4816    magn:   -0.0257    constr:    0.0000
     atom:    5    charge:    5.9808    magn:    0.3254    constr:    0.0000
     atom:    6    charge:    5.9808    magn:    0.3254    constr:    0.0000
     atom:    7    charge:    1.4931    magn:   -0.0183    constr:    0.0000
     atom:    8    charge:    1.4931    magn:   -0.0183    constr:    0.0000
     atom:    9    charge:    5.9862    magn:    0.8494    constr:    0.0000
     atom:   10    charge:    5.9862    magn:    0.8495    constr:    0.0000
     atom:   11    charge:    1.4816    magn:   -0.0257    constr:    0.0000
     atom:   12    charge:    1.4816    magn:   -0.0257    constr:    0.0000

     total cpu time spent up to now is      510.9 secs

     total energy              =   -1983.86640256 Ry
     Harris-Foulkes estimate   =   -1983.86609431 Ry
     estimated scf accuracy    <       0.00088640 Ry

     total magnetization       =     6.50 Bohr mag/cell
     absolute magnetization    =    13.98 Bohr mag/cell

     iteration # 23     ecut=    36.75 Ry     beta=0.10
     Davidson diagonalization with overlap
     ethr =  5.28E-07,  avg # of iterations =  3.1

     negative rho (up, down):  2.531E-03 2.169E-03
 
     Adding external electric field

     Computed dipole along edir(3) : 
        Dipole               -0.0002 Ry au,         -0.0006 Debye
        Dipole field         -0.0000 Ry au
 
        Potential amp.        0.0001 Ry
        Total length         44.8397 bohr
 
 
     Adding external electric field

     Computed dipole along edir(3) : 
        Dipole               -0.0002 Ry au,         -0.0006 Debye
        Dipole field         -0.0000 Ry au
 
        Potential amp.        0.0001 Ry
        Total length         44.8397 bohr
 
 
     Magnetic moment per site:
     atom:    1    charge:    5.9875    magn:    0.8932    constr:    0.0000
     atom:    2    charge:    5.9874    magn:    0.8932    constr:    0.0000
     atom:    3    charge:    1.4818    magn:   -0.0285    constr:    0.0000
     atom:    4    charge:    1.4818    magn:   -0.0285    constr:    0.0000
     atom:    5    charge:    5.9806    magn:    0.3136    constr:    0.0000
     atom:    6    charge:    5.9806    magn:    0.3136    constr:    0.0000
     atom:    7    charge:    1.4935    magn:   -0.0192    constr:    0.0000
     atom:    8    charge:    1.4935    magn:   -0.0192    constr:    0.0000
     atom:    9    charge:    5.9874    magn:    0.8931    constr:    0.0000
     atom:   10    charge:    5.9875    magn:    0.8931    constr:    0.0000
     atom:   11    charge:    1.4819    magn:   -0.0285    constr:    0.0000
     atom:   12    charge:    1.4819    magn:   -0.0285    constr:    0.0000

     total cpu time spent up to now is      537.8 secs

     total energy              =   -1983.86665206 Ry
     Harris-Foulkes estimate   =   -1983.86685826 Ry
     estimated scf accuracy    <       0.00045555 Ry

     total magnetization       =     6.64 Bohr mag/cell
     absolute magnetization    =    14.28 Bohr mag/cell

     iteration # 24     ecut=    36.75 Ry     beta=0.10
     Davidson diagonalization with overlap
     ethr =  2.71E-07,  avg # of iterations =  3.9

     negative rho (up, down):  2.501E-03 2.150E-03
 
     Adding external electric field

     Computed dipole along edir(3) : 
        Dipole               -0.0003 Ry au,         -0.0007 Debye
        Dipole field         -0.0000 Ry au
 
        Potential amp.        0.0001 Ry
        Total length         44.8397 bohr
 
 
     Adding external electric field

     Computed dipole along edir(3) : 
        Dipole               -0.0003 Ry au,         -0.0007 Debye
        Dipole field         -0.0000 Ry au
 
        Potential amp.        0.0001 Ry
        Total length         44.8397 bohr
 
 
     Magnetic moment per site:
     atom:    1    charge:    5.9880    magn:    0.9037    constr:    0.0000
     atom:    2    charge:    5.9879    magn:    0.9036    constr:    0.0000
     atom:    3    charge:    1.4822    magn:   -0.0302    constr:    0.0000
     atom:    4    charge:    1.4822    magn:   -0.0302    constr:    0.0000
     atom:    5    charge:    5.9807    magn:    0.3106    constr:    0.0000
     atom:    6    charge:    5.9807    magn:    0.3107    constr:    0.0000
     atom:    7    charge:    1.4937    magn:   -0.0206    constr:    0.0000
     atom:    8    charge:    1.4937    magn:   -0.0206    constr:    0.0000
     atom:    9    charge:    5.9880    magn:    0.9035    constr:    0.0000
     atom:   10    charge:    5.9880    magn:    0.9036    constr:    0.0000
     atom:   11    charge:    1.4822    magn:   -0.0302    constr:    0.0000
     atom:   12    charge:    1.4822    magn:   -0.0302    constr:    0.0000

     total cpu time spent up to now is      569.1 secs

     total energy              =   -1983.86759971 Ry
     Harris-Foulkes estimate   =   -1983.86754787 Ry
     estimated scf accuracy    <       0.00016713 Ry

     total magnetization       =     6.73 Bohr mag/cell
     absolute magnetization    =    14.75 Bohr mag/cell

     iteration # 25     ecut=    36.75 Ry     beta=0.10
     Davidson diagonalization with overlap
     ethr =  9.95E-08,  avg # of iterations =  2.6

     negative rho (up, down):  2.482E-03 2.139E-03
 
     Adding external electric field

     Computed dipole along edir(3) : 
        Dipole               -0.0001 Ry au,         -0.0002 Debye
        Dipole field         -0.0000 Ry au
 
        Potential amp.        0.0000 Ry
        Total length         44.8397 bohr
 
 
     Adding external electric field

     Computed dipole along edir(3) : 
        Dipole               -0.0001 Ry au,         -0.0002 Debye
        Dipole field         -0.0000 Ry au
 
        Potential amp.        0.0000 Ry
        Total length         44.8397 bohr
 
 
     Magnetic moment per site:
     atom:    1    charge:    5.9880    magn:    0.9124    constr:    0.0000
     atom:    2    charge:    5.9880    magn:    0.9123    constr:    0.0000
     atom:    3    charge:    1.4822    magn:   -0.0318    constr:    0.0000
     atom:    4    charge:    1.4822    magn:   -0.0318    constr:    0.0000
     atom:    5    charge:    5.9805    magn:    0.3060    constr:    0.0000
     atom:    6    charge:    5.9805    magn:    0.3060    constr:    0.0000
     atom:    7    charge:    1.4937    magn:   -0.0218    constr:    0.0000
     atom:    8    charge:    1.4937    magn:   -0.0218    constr:    0.0000
     atom:    9    charge:    5.9881    magn:    0.9123    constr:    0.0000
     atom:   10    charge:    5.9881    magn:    0.9123    constr:    0.0000
     atom:   11    charge:    1.4823    magn:   -0.0318    constr:    0.0000
     atom:   12    charge:    1.4823    magn:   -0.0318    constr:    0.0000

     total cpu time spent up to now is      593.7 secs

     total energy              =   -1983.86764198 Ry
     Harris-Foulkes estimate   =   -1983.86765487 Ry
     estimated scf accuracy    <       0.00009311 Ry

     total magnetization       =     6.75 Bohr mag/cell
     absolute magnetization    =    14.87 Bohr mag/cell

     iteration # 26     ecut=    36.75 Ry     beta=0.10
     Davidson diagonalization with overlap
     ethr =  5.54E-08,  avg # of iterations =  3.1

     negative rho (up, down):  2.433E-03 2.115E-03
 
     Adding external electric field

     Computed dipole along edir(3) : 
        Dipole               -0.0000 Ry au,         -0.0001 Debye
        Dipole field         -0.0000 Ry au
 
        Potential amp.        0.0000 Ry
        Total length         44.8397 bohr
 
 
     Adding external electric field

     Computed dipole along edir(3) : 
        Dipole               -0.0000 Ry au,         -0.0001 Debye
        Dipole field         -0.0000 Ry au
 
        Potential amp.        0.0000 Ry
        Total length         44.8397 bohr
 
 
     Magnetic moment per site:
     atom:    1    charge:    5.9881    magn:    0.9141    constr:    0.0000
     atom:    2    charge:    5.9881    magn:    0.9141    constr:    0.0000
     atom:    3    charge:    1.4823    magn:   -0.0319    constr:    0.0000
     atom:    4    charge:    1.4823    magn:   -0.0319    constr:    0.0000
     atom:    5    charge:    5.9807    magn:    0.3067    constr:    0.0000
     atom:    6    charge:    5.9807    magn:    0.3068    constr:    0.0000
     atom:    7    charge:    1.4938    magn:   -0.0220    constr:    0.0000
     atom:    8    charge:    1.4938    magn:   -0.0220    constr:    0.0000
     atom:    9    charge:    5.9882    magn:    0.9140    constr:    0.0000
     atom:   10    charge:    5.9882    magn:    0.9141    constr:    0.0000
     atom:   11    charge:    1.4824    magn:   -0.0319    constr:    0.0000
     atom:   12    charge:    1.4824    magn:   -0.0319    constr:    0.0000

     total cpu time spent up to now is      621.2 secs

     total energy              =   -1983.86771329 Ry
     Harris-Foulkes estimate   =   -1983.86769940 Ry
     estimated scf accuracy    <       0.00004897 Ry

     total magnetization       =     6.75 Bohr mag/cell
     absolute magnetization    =    14.99 Bohr mag/cell

     iteration # 27     ecut=    36.75 Ry     beta=0.10
     Davidson diagonalization with overlap
     ethr =  2.91E-08,  avg # of iterations =  1.0

     negative rho (up, down):  2.388E-03 2.102E-03
 
     Adding external electric field

     Computed dipole along edir(3) : 
        Dipole                0.0001 Ry au,          0.0002 Debye
        Dipole field          0.0000 Ry au
 
        Potential amp.       -0.0000 Ry
        Total length         44.8397 bohr
 
 
     Adding external electric field

     Computed dipole along edir(3) : 
        Dipole                0.0001 Ry au,          0.0002 Debye
        Dipole field          0.0000 Ry au
 
        Potential amp.       -0.0000 Ry
        Total length         44.8397 bohr
 
 
     Magnetic moment per site:
     atom:    1    charge:    5.9882    magn:    0.9160    constr:    0.0000
     atom:    2    charge:    5.9882    magn:    0.9160    constr:    0.0000
     atom:    3    charge:    1.4825    magn:   -0.0327    constr:    0.0000
     atom:    4    charge:    1.4825    magn:   -0.0327    constr:    0.0000
     atom:    5    charge:    5.9811    magn:    0.3077    constr:    0.0000
     atom:    6    charge:    5.9811    magn:    0.3078    constr:    0.0000
     atom:    7    charge:    1.4940    magn:   -0.0230    constr:    0.0000
     atom:    8    charge:    1.4940    magn:   -0.0230    constr:    0.0000
     atom:    9    charge:    5.9883    magn:    0.9159    constr:    0.0000
     atom:   10    charge:    5.9883    magn:    0.9160    constr:    0.0000
     atom:   11    charge:    1.4825    magn:   -0.0327    constr:    0.0000
     atom:   12    charge:    1.4825    magn:   -0.0327    constr:    0.0000

     total cpu time spent up to now is      641.4 secs

     total energy              =   -1983.86773847 Ry
     Harris-Foulkes estimate   =   -1983.86771611 Ry
     estimated scf accuracy    <       0.00003719 Ry

     total magnetization       =     6.77 Bohr mag/cell
     absolute magnetization    =    15.00 Bohr mag/cell

     iteration # 28     ecut=    36.75 Ry     beta=0.10
     Davidson diagonalization with overlap
     ethr =  2.21E-08,  avg # of iterations =  2.1

     negative rho (up, down):  2.353E-03 2.088E-03
 
     Adding external electric field

     Computed dipole along edir(3) : 
        Dipole               -0.0000 Ry au,         -0.0001 Debye
        Dipole field         -0.0000 Ry au
 
        Potential amp.        0.0000 Ry
        Total length         44.8397 bohr
 
 
     Adding external electric field

     Computed dipole along edir(3) : 
        Dipole               -0.0000 Ry au,         -0.0001 Debye
        Dipole field         -0.0000 Ry au
 
        Potential amp.        0.0000 Ry
        Total length         44.8397 bohr
 
 
     Magnetic moment per site:
     atom:    1    charge:    5.9882    magn:    0.9164    constr:    0.0000
     atom:    2    charge:    5.9882    magn:    0.9164    constr:    0.0000
     atom:    3    charge:    1.4825    magn:   -0.0330    constr:    0.0000
     atom:    4    charge:    1.4825    magn:   -0.0330    constr:    0.0000
     atom:    5    charge:    5.9812    magn:    0.3081    constr:    0.0000
     atom:    6    charge:    5.9812    magn:    0.3081    constr:    0.0000
     atom:    7    charge:    1.4941    magn:   -0.0234    constr:    0.0000
     atom:    8    charge:    1.4941    magn:   -0.0234    constr:    0.0000
     atom:    9    charge:    5.9883    magn:    0.9163    constr:    0.0000
     atom:   10    charge:    5.9883    magn:    0.9164    constr:    0.0000
     atom:   11    charge:    1.4826    magn:   -0.0330    constr:    0.0000
     atom:   12    charge:    1.4826    magn:   -0.0330    constr:    0.0000

     total cpu time spent up to now is      664.8 secs

     total energy              =   -1983.86775453 Ry
     Harris-Foulkes estimate   =   -1983.86774480 Ry
     estimated scf accuracy    <       0.00000789 Ry

     total magnetization       =     6.79 Bohr mag/cell
     absolute magnetization    =    15.01 Bohr mag/cell

     iteration # 29     ecut=    36.75 Ry     beta=0.10
     Davidson diagonalization with overlap
     ethr =  4.70E-09,  avg # of iterations =  2.2

     negative rho (up, down):  2.328E-03 2.076E-03
 
     Adding external electric field

     Computed dipole along edir(3) : 
        Dipole                0.0000 Ry au,          0.0001 Debye
        Dipole field          0.0000 Ry au
 
        Potential amp.       -0.0000 Ry
        Total length         44.8397 bohr
 
 
     Adding external electric field

     Computed dipole along edir(3) : 
        Dipole                0.0000 Ry au,          0.0001 Debye
        Dipole field          0.0000 Ry au
 
        Potential amp.       -0.0000 Ry
        Total length         44.8397 bohr
 
 
     Magnetic moment per site:
     atom:    1    charge:    5.9882    magn:    0.9173    constr:    0.0000
     atom:    2    charge:    5.9882    magn:    0.9173    constr:    0.0000
     atom:    3    charge:    1.4825    magn:   -0.0332    constr:    0.0000
     atom:    4    charge:    1.4825    magn:   -0.0332    constr:    0.0000
     atom:    5    charge:    5.9812    magn:    0.3078    constr:    0.0000
     atom:    6    charge:    5.9812    magn:    0.3079    constr:    0.0000
     atom:    7    charge:    1.4941    magn:   -0.0236    constr:    0.0000
     atom:    8    charge:    1.4941    magn:   -0.0236    constr:    0.0000
     atom:    9    charge:    5.9883    magn:    0.9172    constr:    0.0000
     atom:   10    charge:    5.9883    magn:    0.9173    constr:    0.0000
     atom:   11    charge:    1.4826    magn:   -0.0332    constr:    0.0000
     atom:   12    charge:    1.4826    magn:   -0.0332    constr:    0.0000

     total cpu time spent up to now is      688.4 secs

     total energy              =   -1983.86775978 Ry
     Harris-Foulkes estimate   =   -1983.86775547 Ry
     estimated scf accuracy    <       0.00000480 Ry

     total magnetization       =     6.80 Bohr mag/cell
     absolute magnetization    =    15.01 Bohr mag/cell

     iteration # 30     ecut=    36.75 Ry     beta=0.10
     Davidson diagonalization with overlap
     ethr =  2.86E-09,  avg # of iterations =  2.1

     negative rho (up, down):  2.303E-03 2.067E-03
 
     Adding external electric field

     Computed dipole along edir(3) : 
        Dipole               -0.0000 Ry au,         -0.0000 Debye
        Dipole field         -0.0000 Ry au
 
        Potential amp.        0.0000 Ry
        Total length         44.8397 bohr
 
 
     Adding external electric field

     Computed dipole along edir(3) : 
        Dipole               -0.0000 Ry au,         -0.0000 Debye
        Dipole field         -0.0000 Ry au
 
        Potential amp.        0.0000 Ry
        Total length         44.8397 bohr
 
 
     Magnetic moment per site:
     atom:    1    charge:    5.9881    magn:    0.9168    constr:    0.0000
     atom:    2    charge:    5.9881    magn:    0.9168    constr:    0.0000
     atom:    3    charge:    1.4825    magn:   -0.0334    constr:    0.0000
     atom:    4    charge:    1.4825    magn:   -0.0334    constr:    0.0000
     atom:    5    charge:    5.9811    magn:    0.3079    constr:    0.0000
     atom:    6    charge:    5.9811    magn:    0.3080    constr:    0.0000
     atom:    7    charge:    1.4941    magn:   -0.0239    constr:    0.0000
     atom:    8    charge:    1.4941    magn:   -0.0239    constr:    0.0000
     atom:    9    charge:    5.9882    magn:    0.9167    constr:    0.0000
     atom:   10    charge:    5.9882    magn:    0.9167    constr:    0.0000
     atom:   11    charge:    1.4826    magn:   -0.0334    constr:    0.0000
     atom:   12    charge:    1.4826    magn:   -0.0334    constr:    0.0000

     total cpu time spent up to now is      710.8 secs

     total energy              =   -1983.86776554 Ry
     Harris-Foulkes estimate   =   -1983.86776033 Ry
     estimated scf accuracy    <       0.00000376 Ry

     total magnetization       =     6.80 Bohr mag/cell
     absolute magnetization    =    15.02 Bohr mag/cell

     iteration # 31     ecut=    36.75 Ry     beta=0.10
     Davidson diagonalization with overlap
     ethr =  2.24E-09,  avg # of iterations =  2.2

     negative rho (up, down):  2.286E-03 2.059E-03
 
     Adding external electric field

     Computed dipole along edir(3) : 
        Dipole                0.0000 Ry au,          0.0000 Debye
        Dipole field          0.0000 Ry au
 
        Potential amp.       -0.0000 Ry
        Total length         44.8397 bohr
 
 
     Adding external electric field

     Computed dipole along edir(3) : 
        Dipole                0.0000 Ry au,          0.0000 Debye
        Dipole field          0.0000 Ry au
 
        Potential amp.       -0.0000 Ry
        Total length         44.8397 bohr
 
 
     Magnetic moment per site:
     atom:    1    charge:    5.9881    magn:    0.9173    constr:    0.0000
     atom:    2    charge:    5.9881    magn:    0.9173    constr:    0.0000
     atom:    3    charge:    1.4825    magn:   -0.0335    constr:    0.0000
     atom:    4    charge:    1.4825    magn:   -0.0335    constr:    0.0000
     atom:    5    charge:    5.9811    magn:    0.3078    constr:    0.0000
     atom:    6    charge:    5.9811    magn:    0.3079    constr:    0.0000
     atom:    7    charge:    1.4940    magn:   -0.0239    constr:    0.0000
     atom:    8    charge:    1.4940    magn:   -0.0239    constr:    0.0000
     atom:    9    charge:    5.9882    magn:    0.9172    constr:    0.0000
     atom:   10    charge:    5.9882    magn:    0.9173    constr:    0.0000
     atom:   11    charge:    1.4825    magn:   -0.0335    constr:    0.0000
     atom:   12    charge:    1.4825    magn:   -0.0335    constr:    0.0000

     total cpu time spent up to now is      734.4 secs

     total energy              =   -1983.86776900 Ry
     Harris-Foulkes estimate   =   -1983.86776600 Ry
     estimated scf accuracy    <       0.00000263 Ry

     total magnetization       =     6.80 Bohr mag/cell
     absolute magnetization    =    15.02 Bohr mag/cell

     iteration # 32     ecut=    36.75 Ry     beta=0.10
     Davidson diagonalization with overlap
     ethr =  1.56E-09,  avg # of iterations =  1.8

     negative rho (up, down):  2.271E-03 2.053E-03
 
     Adding external electric field

     Computed dipole along edir(3) : 
        Dipole               -0.0003 Ry au,         -0.0008 Debye
        Dipole field         -0.0000 Ry au
 
        Potential amp.        0.0001 Ry
        Total length         44.8397 bohr
 
 
     Adding external electric field

     Computed dipole along edir(3) : 
        Dipole               -0.0003 Ry au,         -0.0008 Debye
        Dipole field         -0.0000 Ry au
 
        Potential amp.        0.0001 Ry
        Total length         44.8397 bohr
 
 
     Magnetic moment per site:
     atom:    1    charge:    5.9881    magn:    0.9175    constr:    0.0000
     atom:    2    charge:    5.9881    magn:    0.9175    constr:    0.0000
     atom:    3    charge:    1.4825    magn:   -0.0335    constr:    0.0000
     atom:    4    charge:    1.4825    magn:   -0.0335    constr:    0.0000
     atom:    5    charge:    5.9810    magn:    0.3080    constr:    0.0000
     atom:    6    charge:    5.9810    magn:    0.3080    constr:    0.0000
     atom:    7    charge:    1.4940    magn:   -0.0240    constr:    0.0000
     atom:    8    charge:    1.4940    magn:   -0.0240    constr:    0.0000
     atom:    9    charge:    5.9882    magn:    0.9175    constr:    0.0000
     atom:   10    charge:    5.9882    magn:    0.9175    constr:    0.0000
     atom:   11    charge:    1.4825    magn:   -0.0335    constr:    0.0000
     atom:   12    charge:    1.4825    magn:   -0.0335    constr:    0.0000

     total cpu time spent up to now is      756.1 secs

     total energy              =   -1983.86777153 Ry
     Harris-Foulkes estimate   =   -1983.86776926 Ry
     estimated scf accuracy    <       0.00000206 Ry

     total magnetization       =     6.81 Bohr mag/cell
     absolute magnetization    =    15.03 Bohr mag/cell

     iteration # 33     ecut=    36.75 Ry     beta=0.10
     Davidson diagonalization with overlap
     ethr =  1.22E-09,  avg # of iterations =  1.1

     negative rho (up, down):  2.257E-03 2.048E-03
 
     Adding external electric field

     Computed dipole along edir(3) : 
        Dipole                0.0000 Ry au,          0.0000 Debye
        Dipole field          0.0000 Ry au
 
        Potential amp.       -0.0000 Ry
        Total length         44.8397 bohr
 
 
     Adding external electric field

     Computed dipole along edir(3) : 
        Dipole                0.0000 Ry au,          0.0000 Debye
        Dipole field          0.0000 Ry au
 
        Potential amp.       -0.0000 Ry
        Total length         44.8397 bohr
 
 
     Magnetic moment per site:
     atom:    1    charge:    5.9881    magn:    0.9175    constr:    0.0000
     atom:    2    charge:    5.9881    magn:    0.9175    constr:    0.0000
     atom:    3    charge:    1.4824    magn:   -0.0335    constr:    0.0000
     atom:    4    charge:    1.4824    magn:   -0.0335    constr:    0.0000
     atom:    5    charge:    5.9810    magn:    0.3084    constr:    0.0000
     atom:    6    charge:    5.9810    magn:    0.3084    constr:    0.0000
     atom:    7    charge:    1.4939    magn:   -0.0241    constr:    0.0000
     atom:    8    charge:    1.4939    magn:   -0.0241    constr:    0.0000
     atom:    9    charge:    5.9882    magn:    0.9175    constr:    0.0000
     atom:   10    charge:    5.9882    magn:    0.9175    constr:    0.0000
[...]
   -53.6114 -53.5871 -53.4215 -53.3998 -45.8951 -45.8708 -45.8103 -45.8092
   -45.7757 -45.7732 -45.0544 -45.0520 -45.0468 -45.0219 -44.9424 -44.9413
   -44.8684 -44.8656 -44.8133 -44.7876 -44.6948 -44.6931 -29.8400 -29.8255
   -29.8040 -29.7815 -29.7468 -29.7304 -29.7165 -29.7121 -29.6951 -29.6657
   -29.6367 -29.5132 -29.4958 -29.4279 -29.4111 -29.3902 -29.3875 -29.3841
    -3.8760  -2.4828  -2.2878  -1.9781  -1.9605  -1.6491  -1.5054  -1.4641
    -1.3040  -1.1331  -0.9608  -0.5621  -0.4049  -0.2796  -0.2426  -0.1685
    -0.0511  -0.0166  -0.0063   0.0884   0.4163   0.5471   0.5552   0.6369
     0.7101   0.8206   0.9672   1.0352   1.2920   1.4805   1.5512   1.6584
     1.7155   1.7282   1.7649   2.1678   2.2822   2.4230   2.5511   2.6792
     2.7996   2.8155   2.9425   3.0281   3.0864   3.2836   3.3683   3.4044
     3.4947   3.5968   3.6068   3.6777   3.7205   3.8259   3.9133   3.9337
     3.9884   4.0186   4.1370   4.4087   4.4874   4.8749   4.9670   5.0092
     5.2476   5.7182

          k = 0.0628 0.0111 0.0000 ( 16434 PWs)   bands (ev):

   -77.0816 -77.0786 -76.2394 -76.2363 -76.0100 -76.0069 -53.6631 -53.6236
   -53.6195 -53.5794 -53.4320 -53.3898 -45.9026 -45.8626 -45.8108 -45.8087
   -45.7747 -45.7730 -45.0553 -45.0535 -45.0510 -45.0133 -44.9427 -44.9410
   -44.8674 -44.8652 -44.8212 -44.7789 -44.6954 -44.6925 -29.8572 -29.8373
   -29.8226 -29.8182 -29.8073 -29.7750 -29.7297 -29.7231 -29.7113 -29.6835
   -29.6678 -29.4239 -29.4236 -29.4200 -29.4047 -29.3872 -29.3798 -29.3013
    -3.9413  -2.3555  -2.2729  -2.0028  -1.9681  -1.6877  -1.5783  -1.5026
    -1.4858  -1.1520  -1.0773  -0.7522  -0.5854  -0.3902  -0.1271  -0.0771
    -0.0374   0.0508   0.2040   0.2907   0.3309   0.6406   0.7836   0.8228
     1.0739   1.0919   1.1958   1.1966   1.4177   1.6218   1.6678   1.7187
     1.8350   1.8540   1.8649   2.0141   2.2018   2.2867   2.4215   2.6500
     2.7105   2.8074   2.8375   2.8744   2.9145   3.0757   3.2220   3.3086
     3.4236   3.5036   3.5304   3.5864   3.7202   3.7872   3.8835   4.1426
     4.1524   4.3184   4.4320   4.4832   4.5359   4.7023   5.0289   5.2887
     5.3192   5.3662

          k = 0.0628 0.0444 0.0000 ( 16410 PWs)   bands (ev):

   -77.0818 -77.0784 -76.2396 -76.2361 -76.0102 -76.0067 -53.6663 -53.6225
   -53.6214 -53.5774 -53.4371 -53.3856 -45.9044 -45.8593 -45.8110 -45.8084
   -45.7726 -45.7722 -45.0572 -45.0517 -45.0504 -45.0100 -44.9429 -44.9410
   -44.8654 -44.8644 -44.8232 -44.7755 -44.6956 -44.6923 -29.8752 -29.8745
   -29.8534 -29.8255 -29.8036 -29.7629 -29.7560 -29.7547 -29.7100 -29.6842
   -29.6618 -29.4272 -29.4152 -29.3948 -29.3905 -29.3799 -29.3721 -29.2703
    -3.6473  -2.1558  -2.0475  -1.9276  -1.7758  -1.6173  -1.5408  -1.4373
    -1.3200  -1.0472  -0.8847  -0.6475  -0.6414  -0.4064  -0.0568  -0.0198
     0.0424   0.1544   0.4368   0.5460   0.6430   0.7141   0.7333   0.9034
     1.0284   1.1153   1.1900   1.2846   1.4158   1.4686   1.5734   1.6561
     1.7008   1.7561   1.8226   1.8656   2.0672   2.1877   2.3037   2.4144
     2.4499   2.5550   2.6388   2.7533   2.7768   2.8776   3.0753   3.1651
     3.1804   3.2610   3.3551   3.5028   3.6499   3.7028   3.8870   3.9294
     4.0481   4.0807   4.1822   4.4689   4.4843   4.6486   4.7785   4.7886
     5.3232   5.4575

          k = 0.0628-0.1221 0.0000 ( 16402 PWs)   bands (ev):

   -77.0815 -77.0786 -76.2394 -76.2363 -76.0100 -76.0069 -53.6633 -53.6249
   -53.6192 -53.5811 -53.4351 -53.3882 -45.9006 -45.8625 -45.8108 -45.8085
   -45.7722 -45.7712 -45.0533 -45.0504 -45.0503 -45.0133 -44.9427 -44.9411
   -44.8644 -44.8640 -44.8192 -44.7789 -44.6954 -44.6925 -29.8798 -29.8482
   -29.8254 -29.8181 -29.8088 -29.7690 -29.7497 -29.7231 -29.7068 -29.7041
   -29.6530 -29.4253 -29.4228 -29.4061 -29.4058 -29.4045 -29.3847 -29.3058
    -3.0567  -2.1627  -2.1131  -1.7737  -1.5380  -1.3201  -1.2054  -1.1319
    -1.1032  -0.9302  -0.7601  -0.6867  -0.4218  -0.3049  -0.0170  -0.0010
     0.1659   0.1908   0.2557   0.3774   0.4325   0.5557   0.6973   0.8396
     0.8592   1.0153   1.0687   1.1443   1.2647   1.2701   1.4802   1.5420
     1.6246   1.6619   1.7252   1.7968   1.8663   1.9255   2.2070   2.3221
     2.3582   2.4471   2.4783   2.5733   2.6899   2.9113   2.9534   3.0224
     3.1238   3.2515   3.2715   3.4317   3.4494   3.6213   3.8194   3.8274
     3.9083   3.9943   4.1339   4.2711   4.4267   4.6542   4.8057   4.8936
     5.0906   5.3322

          k = 0.0628-0.0888 0.0000 ( 16391 PWs)   bands (ev):

   -77.0809 -77.0792 -76.2387 -76.2370 -76.0093 -76.0076 -53.6546 -53.6331
   -53.6104 -53.5895 -53.4263 -53.3965 -45.8924 -45.8715 -45.8104 -45.8090
   -45.7735 -45.7713 -45.0518 -45.0503 -45.0446 -45.0227 -44.9423 -44.9415
   -44.8658 -44.8640 -44.8105 -44.7884 -44.6948 -44.6931 -29.8703 -29.8180
   -29.8016 -29.7673 -29.7622 -29.7434 -29.7390 -29.7297 -29.6911 -29.6544
   -29.6355 -29.5099 -29.4921 -29.4183 -29.4146 -29.3970 -29.3957 -29.3916
    -2.7912  -2.3564  -2.2682  -1.5292  -1.4397  -1.2774  -1.2570  -1.0096
    -0.9216  -0.7532  -0.6505  -0.6371  -0.5637  -0.1466  -0.0283  -0.0194
     0.0305   0.0781   0.1178   0.2474   0.3562   0.3736   0.5482   0.6708
     0.7033   0.7064   0.7497   0.8970   1.0142   1.0290   1.1090   1.1855
     1.2566   1.2893   1.9209   1.9339   2.0712   2.1570   2.2842   2.3507
     2.4705   2.5718   2.5967   2.9003   2.9805   3.0514   3.1042   3.2591
     3.2672   3.3764   3.3881   3.7153   3.7842   3.8196   3.8776   3.9909
     4.0491   4.0543   4.0934   4.1305   4.4443   4.5064   4.7900   4.8784
     4.9165   5.0317

          k = 0.0628-0.0555 0.0000 ( 16427 PWs)   bands (ev):

   -77.0801 -77.0801 -76.2379 -76.2378 -76.0085 -76.0084 -53.6439 -53.6428
   -53.6005 -53.5985 -53.4133 -53.4086 -45.8836 -45.8817 -45.8098 -45.8097
   -45.7752 -45.7724 -45.0536 -45.0511 -45.0352 -45.0333 -44.9419 -44.9418
   -44.8676 -44.8650 -44.8012 -44.7991 -44.6940 -44.6939 -29.8497 -29.8284
   -29.7876 -29.7724 -29.7469 -29.7236 -29.6758 -29.6687 -29.6374 -29.6271
   -29.6189 -29.6103 -29.5180 -29.5139 -29.4267 -29.4002 -29.3999 -29.3879
    -3.4589  -2.4634  -1.9425  -1.7891  -1.7022  -1.6770  -1.3419  -1.2920
    -1.1920  -0.6497  -0.5766  -0.4932  -0.4410  -0.3684  -0.2350  -0.0772
     0.0120   0.0677   0.0888   0.3684   0.3812   0.3868   0.4147   0.4323
     0.5734   0.5976   0.6632   0.8991   0.9385   1.0279   1.2250   1.2946
     1.3111   1.4437   1.8349   2.1216   2.3295   2.3661   2.5301   2.7965
     2.8006   2.8176   2.8195   2.8424   2.9584   2.9593   3.2647   3.3930
     3.5033   3.5431   3.6148   3.7227   3.8191   3.8724   3.8867   3.9662
     4.0781   4.1448   4.1498   4.2731   4.5252   4.6115   4.9648   5.0402
     5.0423   5.3455

          k =-0.0941 0.0333 0.0000 ( 16444 PWs)   bands (ev):

   -77.0801 -77.0801 -76.2379 -76.2378 -76.0085 -76.0084 -53.6434 -53.6434
   -53.5995 -53.5995 -53.4109 -53.4109 -45.8827 -45.8827 -45.8097 -45.8097
   -45.7738 -45.7738 -45.0525 -45.0525 -45.0342 -45.0341 -44.9419 -44.9418
   -44.8664 -44.8663 -44.8001 -44.8001 -44.6940 -44.6939 -29.8321 -29.8321
   -29.7991 -29.7991 -29.7074 -29.7074 -29.6906 -29.6906 -29.6315 -29.6315
   -29.6145 -29.6145 -29.5160 -29.5160 -29.4054 -29.4054 -29.4001 -29.4001
    -3.0900  -3.0900  -1.8421  -1.8421  -1.5446  -1.5446  -1.3309  -1.3309
    -1.0210  -1.0210  -0.5677  -0.5677  -0.4065  -0.4065  -0.2241  -0.2241
     0.0347   0.0347   0.1341   0.1341   0.4008   0.4008   0.5517   0.5518
     0.7716   0.7716   0.8793   0.8794   0.9966   0.9966   1.4719   1.4719
     1.6665   1.6666   1.7305   1.7306   2.1480   2.1480   2.5426   2.5426
     2.8101   2.8101   2.8513   2.8513   2.8846   2.8846   3.1459   3.1459
     3.5426   3.5426   3.5857   3.5857   3.6553   3.6553   3.7074   3.7075
     3.8758   3.8758   4.1515   4.1515   4.8766   4.8766   5.0578   5.0578
     5.1888   5.1889

          k =-0.0941 0.0666 0.0000 ( 16462 PWs)   bands (ev):

   -77.0809 -77.0792 -76.2387 -76.2370 -76.0093 -76.0076 -53.6547 -53.6325
   -53.6107 -53.5887 -53.4247 -53.3976 -45.8933 -45.8713 -45.8104 -45.8091
   -45.7734 -45.7728 -45.0520 -45.0517 -45.0452 -45.0224 -44.9423 -44.9414
   -44.8658 -44.8655 -44.8114 -44.7881 -44.6948 -44.6932 -29.8581 -29.8158
   -29.8106 -29.7770 -29.7563 -29.7423 -29.7371 -29.6955 -29.6944 -29.6724
   -29.6358 -29.5108 -29.4934 -29.4148 -29.4059 -29.4049 -29.3939 -29.3901
    -3.2021  -2.6976  -1.8203  -1.7157  -1.6904  -1.4074  -1.3347  -1.1109
    -1.0511  -1.0301  -1.0112  -0.6198  -0.4172  -0.1691  -0.1260  -0.0877
    -0.0102   0.0758   0.0912   0.1225   0.3747   0.4728   0.6209   0.7329
     0.8279   0.8723   0.9805   1.0247   1.0414   1.0590   1.3106   1.4644
     1.6478   1.7317   1.7355   1.7787   2.1001   2.1536   2.3622   2.3831
     2.5390   2.5952   2.6748   2.8814   2.9530   3.0071   3.1119   3.2332
     3.2775   3.3114   3.3745   3.3958   3.5970   3.8439   3.8583   3.9063
     4.0275   4.0812   4.2121   4.3581   4.6522   4.7901   4.8624   5.0406
     5.2437   5.4684

          k =-0.0941 0.0999 0.0000 ( 16402 PWs)   bands (ev):

   -77.0815 -77.0786 -76.2394 -76.2363 -76.0100 -76.0069 -53.6633 -53.6249
   -53.6192 -53.5811 -53.4351 -53.3882 -45.9006 -45.8625 -45.8108 -45.8085
   -45.7722 -45.7712 -45.0533 -45.0504 -45.0503 -45.0133 -44.9427 -44.9411
   -44.8644 -44.8640 -44.8192 -44.7789 -44.6954 -44.6925 -29.8798 -29.8482
   -29.8254 -29.8181 -29.8088 -29.7690 -29.7497 -29.7231 -29.7068 -29.7041
   -29.6530 -29.4253 -29.4228 -29.4061 -29.4058 -29.4045 -29.3847 -29.3058
    -3.0567  -2.1627  -2.1131  -1.7737  -1.5380  -1.3201  -1.2054  -1.1319
    -1.1032  -0.9302  -0.7601  -0.6867  -0.4218  -0.3049  -0.0170  -0.0010
     0.1659   0.1908   0.2557   0.3774   0.4325   0.5557   0.6973   0.8396
     0.8592   1.0153   1.0687   1.1443   1.2647   1.2701   1.4802   1.5420
     1.6246   1.6619   1.7252   1.7968   1.8663   1.9255   2.2070   2.3221
     2.3582   2.4471   2.4783   2.5733   2.6899   2.9113   2.9534   3.0224
     3.1238   3.2515   3.2715   3.4317   3.4494   3.6213   3.8194   3.8274
     3.9083   3.9943   4.1339   4.2711   4.4267   4.6542   4.8057   4.8936
     5.0906   5.3322

          k =-0.0941-0.0666 0.0000 ( 16388 PWs)   bands (ev):

   -77.0818 -77.0784 -76.2396 -76.2361 -76.0102 -76.0067 -53.6665 -53.6224
   -53.6222 -53.5784 -53.4389 -53.3848 -45.9032 -45.8591 -45.8109 -45.8084
   -45.7717 -45.7704 -45.0560 -45.0499 -45.0497 -45.0098 -44.9428 -44.9411
   -44.8638 -44.8632 -44.8219 -44.7753 -44.6956 -44.6923 -29.8880 -29.8821
   -29.8577 -29.8216 -29.8069 -29.7782 -29.7551 -29.7292 -29.7221 -29.7083
   -29.6466 -29.4291 -29.4062 -29.4061 -29.3911 -29.3833 -29.3722 -29.2731
    -2.7983  -2.5696  -1.7797  -1.5744  -1.5530  -1.4718  -1.1889  -1.1815
    -0.9799  -0.9785  -0.6650  -0.3645  -0.3273  -0.2859  -0.1286   0.0808
     0.2049   0.2282   0.2296   0.3132   0.6371   0.6417   0.7814   0.8189
     1.0057   1.0197   1.2066   1.3215   1.4241   1.4356   1.4692   1.5527
     1.6214   1.6869   1.6974   1.7275   1.8115   1.9094   2.1162   2.1707
     2.2302   2.4142   2.4841   2.5737   2.6039   2.7878   2.8755   2.9165
     2.9401   3.0266   3.0651   3.1830   3.2049   3.3812   3.5820   3.6406
     3.7546   3.9475   4.0751   4.1405   4.5357   4.6112   4.7219   4.8996
     5.4176   5.4480

     the Fermi energy is     1.7540 ev

!    total energy              =   -1983.87424697 Ry
     Harris-Foulkes estimate   =   -1983.87424493 Ry
     estimated scf accuracy    <       0.00000079 Ry

     The total energy is the sum of the following terms:

     one-electron contribution =  -16519.25503218 Ry
     hartree contribution      =    8254.52396248 Ry
     xc contribution           =    -279.58587838 Ry
     ewald contribution        =    6560.51831002 Ry
     electric field correction =       0.00000224 Ry
     smearing contrib. (-TS)   =      -0.07561114 Ry

     total magnetization       =     6.21 Bohr mag/cell
     absolute magnetization    =    14.33 Bohr mag/cell

     convergence has been achieved in  43 iterations
 
 BEEF-vdW xc energy contributions
           1 :   -242.257056432568     
           2 :    219.719049035878     
           3 :   -181.616783568571     
           4 :    138.632004669853     
           5 :   -100.683974242458     
           6 :    73.4595087051663     
           7 :   -57.3962333921443     
           8 :    49.0337423268529     
           9 :   -43.6211387236116     
          10 :    37.5183704998148     
          11 :   -29.4177747664986     
          12 :    20.1327747518946     
          13 :   -11.4487435628832     
          14 :    4.82584121222027     
          15 :  -0.659839440881910     
          16 :   -1.67955241646439     
          17 :    3.25340610961388     
          18 :   -4.88829085810880     
          19 :    6.81151070350785     
          20 :   -8.71600464868618     
          21 :    10.0956702001757     
          22 :   -10.6090751266876     
          23 :    10.2572349576856     
          24 :   -9.33462752548985     
          25 :    8.22796350187542     
          26 :   -7.21987263661924     
          27 :    6.39581295471231     
          28 :   -5.68561937300115     
          29 :    4.97132079802327     
          30 :   -4.19057022543547     
          31 :   -24.5212856493323     
          32 :   -17.9884659822994     

     Forces acting on atoms (Ry/au):


     negative rho (up, down):  2.294E-03 2.114E-03
     atom    1 type  1   force =    -0.00000692   -0.00000394    0.01766851
     atom    2 type  1   force =    -0.00000979   -0.00000775    0.01766272
     atom    3 type  2   force =    -0.00006830   -0.00004980   -0.01882375
     atom    4 type  2   force =    -0.00006915   -0.00004740   -0.01882377
     atom    5 type  1   force =     0.00001726    0.00001208    0.00276020
     atom    6 type  1   force =     0.00001303    0.00000916    0.00275861
     atom    7 type  2   force =     0.00004189    0.00002807   -0.00174731
     atom    8 type  2   force =     0.00004049    0.00003015   -0.00174729
     atom    9 type  1   force =     0.00000953    0.00000676    0.00004121
     atom   10 type  1   force =     0.00000834    0.00000592    0.00003040
     atom   11 type  2   force =     0.00000978    0.00001117    0.00011017
     atom   12 type  2   force =     0.00001384    0.00000556    0.00011028

     Total force =     0.036799     Total SCF correction =     0.001705


     entering subroutine stress ...


     negative rho (up, down):  2.294E-03 2.114E-03
          total   stress  (Ry/bohr**3)                   (kbar)     P=  -12.70
  -0.00012765  -0.00000478   0.00000018        -18.78     -0.70      0.03
  -0.00000478  -0.00012427   0.00000013         -0.70    -18.28      0.02
   0.00000018   0.00000013  -0.00000707          0.03      0.02     -1.04

 !ASE

     Writing output data file calc.save
 
     init_run     :      7.20s CPU     10.75s WALL (       1 calls)
     electrons    :    712.03s CPU   1011.22s WALL (       1 calls)
     forces       :      3.14s CPU      3.50s WALL (       1 calls)
     stress       :      9.17s CPU      9.68s WALL (       1 calls)

     Called by init_run:
     wfcinit      :      5.75s CPU      9.01s WALL (       1 calls)
     potinit      :      0.44s CPU      0.63s WALL (       1 calls)

     Called by electrons:
     c_bands      :    578.09s CPU    821.23s WALL (      43 calls)
     sum_band     :     95.06s CPU    137.04s WALL (      43 calls)
     v_of_rho     :     13.00s CPU     20.13s WALL (      44 calls)
     newd         :     16.11s CPU     17.50s WALL (      44 calls)
     mix_rho      :      0.92s CPU      1.38s WALL (      43 calls)
     vdW_energy   :      3.22s CPU      3.56s WALL (      80 calls)
     vdW_ffts     :      7.78s CPU     14.69s WALL (     162 calls)
     vdW_v        :      2.23s CPU      3.23s WALL (      80 calls)

     Called by c_bands:
     init_us_2    :      3.06s CPU      3.13s WALL (    3560 calls)
     cegterg      :    555.74s CPU    797.58s WALL (    1720 calls)

     Called by *egterg:
     h_psi        :    280.08s CPU    464.46s WALL (    5317 calls)
     s_psi        :     27.04s CPU     27.16s WALL (    5317 calls)
     g_psi        :      2.00s CPU      2.02s WALL (    3557 calls)
     cdiaghg      :    143.39s CPU    146.59s WALL (    5277 calls)

     Called by h_psi:
     add_vuspsi   :     27.72s CPU     27.80s WALL (    5317 calls)

     General routines
     calbec       :     42.33s CPU     49.30s WALL (    7117 calls)
     fft          :     14.73s CPU     27.80s WALL (    5918 calls)
     ffts         :      0.13s CPU      0.24s WALL (     174 calls)
     fftw         :    246.03s CPU    463.76s WALL ( 1033802 calls)
     interpolate  :      0.51s CPU      0.95s WALL (     174 calls)
     davcio       :      0.00s CPU      0.12s WALL (      40 calls)
 
     Parallel routines
     fft_scatter  :    178.22s CPU    407.22s WALL ( 1039894 calls)
 
     PWSCF        : 12m12.10s CPU    17m16.29s WALL

 
   This run was terminated on:  18:48:35  18Dec2018            

=------------------------------------------------------------------------------=
   JOB DONE.
=------------------------------------------------------------------------------=
Job  /afs/slac/g/suncat/bin/suncat-tsmpirun -x LD_LIBRARY_PATH -wdir /scratch/qe530213_9yo9v pw.x -in pw.inp

TID   HOST_NAME   COMMAND_LINE            STATUS            TERMINATION_TIME
===== ========== ================  =======================  ===================
00000 suncat2050 pw.x -in pw.inp   Done                     12/18/2018 18:48:35
00001 suncat2050 pw.x -in pw.inp   Done                     12/18/2018 18:48:35
00002 suncat2050 pw.x -in pw.inp   Done                     12/18/2018 18:48:35
00003 suncat2050 pw.x -in pw.inp   Done                     12/18/2018 18:48:35
00004 suncat2050 pw.x -in pw.inp   Done                     12/18/2018 18:48:35
00005 suncat2050 pw.x -in pw.inp   Done                     12/18/2018 18:48:35
00006 suncat2050 pw.x -in pw.inp   Done                     12/18/2018 18:48:35
00007 suncat2050 pw.x -in pw.inp   Done                     12/18/2018 18:48:35
00008 suncat2050 pw.x -in pw.inp   Done                     12/18/2018 18:48:35
00009 suncat2050 pw.x -in pw.inp   Done                     12/18/2018 18:48:35
00010 suncat2050 pw.x -in pw.inp   Done                     12/18/2018 18:48:35
00011 suncat2050 pw.x -in pw.inp   Done                     12/18/2018 18:48:35
00012 suncat2050 pw.x -in pw.inp   Done                     12/18/2018 18:48:35
00013 suncat2050 pw.x -in pw.inp   Done                     12/18/2018 18:48:35
00014 suncat2050 pw.x -in pw.inp   Done                     12/18/2018 18:48:35
00015 suncat2050 pw.x -in pw.inp   Done                     12/18/2018 18:48:35
00016 suncat2049 pw.x -in pw.inp   Done                     12/18/2018 18:48:35
00017 suncat2049 pw.x -in pw.inp   Done                     12/18/2018 18:48:35
00018 suncat2049 pw.x -in pw.inp   Done                     12/18/2018 18:48:35
00019 suncat2049 pw.x -in pw.inp   Done                     12/18/2018 18:48:35
00020 suncat2049 pw.x -in pw.inp   Done                     12/18/2018 18:48:35
00021 suncat2049 pw.x -in pw.inp   Done                     12/18/2018 18:48:35
00022 suncat2049 pw.x -in pw.inp   Done                     12/18/2018 18:48:35
00023 suncat2049 pw.x -in pw.inp   Done                     12/18/2018 18:48:35
00024 suncat2049 pw.x -in pw.inp   Done                     12/18/2018 18:48:35
00025 suncat2049 pw.x -in pw.inp   Done                     12/18/2018 18:48:35
00026 suncat2049 pw.x -in pw.inp   Done                     12/18/2018 18:48:35
00027 suncat2049 pw.x -in pw.inp   Done                     12/18/2018 18:48:35
00028 suncat2049 pw.x -in pw.inp   Done                     12/18/2018 18:48:35
00029 suncat2049 pw.x -in pw.inp   Done                     12/18/2018 18:48:35
00030 suncat2049 pw.x -in pw.inp   Done                     12/18/2018 18:48:35
00031 suncat2049 pw.x -in pw.inp   Done                     12/18/2018 18:48:35
