  python dir          : /u/if/mamunm/src/espresso
  espresso dir        : /nfs/slac/g/suncatfs/sw/espv18/espresso-dynpy-beef/bin
  pseudo dir          : /afs/slac.stanford.edu/u/if/mamunm/psp/gbrv1.5pbe
  ase-espresso py git : GITVERSION



     Program PWSCF v.5.1rc2 (svn rev. 11289) starts on 18Dec2018 at 17:59:34 

     This program is part of the open-source Quantum ESPRESSO suite
     for quantum simulation of materials; please cite
         "P. Giannozzi et al., J. Phys.:Condens. Matter 21 395502 (2009);
          URL http://www.quantum-espresso.org", 
     in publications or presentations arising from this work. More details at
     http://www.quantum-espresso.org/quote

     Parallel version (MPI), running on    32 processors
     R & G space division:  proc/nbgrp/npool/nimage =      32
     Reading input from pw.inp
     Message from routine read_cards :
     DEPRECATED: no units specified in CELL_PARAMETERS card

     Current dimensions of program PWSCF are:
     Max number of different atomic species (ntypx) = 10
     Max number of k-points (npk) =  40000
     Max angular momentum in pseudopotentials (lmaxx) =  3
     Presently stress not available with electric field


     **************************************************************************
     Initializing libbeef V0.1.1 with the BEEF-vdW functional.
     Citation: Wellendorff et al., PRB 85, 235149 (2012).
     **************************************************************************


     IMPORTANT: XC functional enforced from input :
     Exchange-correlation      = BEEF-VDW ( 1  4 27 13 2)
     Any further DFT definition will be discarded
     Please, verify this is what you really want


     Subspace diagonalization in iterative solution of the eigenvalue problem:
     a serial algorithm will be used

     Found symmetry operation: I + ( -0.5000  0.0000  0.0000)
     This is a supercell, fractional translations are disabled
 
     Parallelization info
     --------------------
     sticks:   dense  smooth     PW     G-vecs:    dense   smooth      PW
     Min          85      34     10                16073     4048     658
     Max          86      35     11                16088     4084     676
     Sum        2733    1089    325               514551   130055   21495
 


     bravais-lattice index     =            0
     lattice parameter (alat)  =       1.8897  a.u.
     unit-cell volume          =    4324.3786 (a.u.)^3
     number of atoms/cell      =           12
     number of atomic types    =            2
     number of electrons       =       108.00
     number of Kohn-Sham states=           84
     kinetic-energy cutoff     =      36.7493  Ry
     charge density cutoff     =     367.4932  Ry
     convergence threshold     =      1.0E-06
     mixing beta               =       0.1000
     number of iterations used =           10  plain     mixing
     Exchange-correlation      = BEEF-VDW ( 1  4 27 13 2)
     nstep                     =           50


     celldm(1)=   1.889726  celldm(2)=   0.000000  celldm(3)=   0.000000
     celldm(4)=   0.000000  celldm(5)=   0.000000  celldm(6)=   0.000000

     crystal axes: (cart. coord. in units of alat)
               a(1) = (   5.447399   0.000000   0.000000 )  
               a(2) = (  -2.723699   4.803948   0.000000 )  
               a(3) = (   0.000000   0.000000  24.487228 )  

     reciprocal axes: (cart. coord. in units 2 pi/alat)
               b(1) = (  0.183574  0.104081  0.000000 )  
               b(2) = (  0.000000  0.208162  0.000000 )  
               b(3) = (  0.000000  0.000000  0.040838 )  


     PseudoPot. # 1 for Al read from file:
     /afs/slac.stanford.edu/u/if/mamunm/psp/gbrv1.5pbe/Al.UPF
     MD5 check sum: 0a6289f5291fc8f409219462bc851e1f
     Pseudo is Ultrasoft + core correction, Zval =  3.0
     Generated by new atomic code, or converted to UPF format
     Using radial grid of  893 points,  3 beta functions with: 
                l(1) =   0
                l(2) =   1
                l(3) =   2
     Q(r) pseudized with  8 coefficients,  rinner =    0.900   0.900   0.900
                                                       0.900   0.900

     PseudoPot. # 2 for Re read from file:
     /afs/slac.stanford.edu/u/if/mamunm/psp/gbrv1.5pbe/Re.UPF
     MD5 check sum: 85f993410f3e006da9d71c142b4ad953
     Pseudo is Ultrasoft + core correction, Zval = 15.0
     Generated by new atomic code, or converted to UPF format
     Using radial grid of  981 points,  8 beta functions with: 
                l(1) =   0
                l(2) =   0
                l(3) =   1
                l(4) =   1
                l(5) =   2
                l(6) =   2
                l(7) =   3
                l(8) =   3
     Q(r) pseudized with  8 coefficients,  rinner =    1.150   1.150   1.150
                                                       1.150   1.150   1.150
                                                       1.150

     vdW kernel table read from file vdW_kernel_table
     MD5 check sum: 095c7af220d748ca6e76c0b4c6cfb241

     atomic species   valence    mass     pseudopotential
        Al1            3.00    26.98154     Al( 1.00)
        Re1           15.00   186.20700     Re( 1.00)

     No symmetry found



   Cartesian axes

     site n.     atom                  positions (alat units)
         1           Al1 tau(   1) = (   0.0000000   0.0000000  10.0000000  )
         2           Al1 tau(   2) = (   2.7236993   0.0000000  10.0000000  )
         3           Re1 tau(   3) = (   1.3618497   2.4019742  10.0000000  )
         4           Re1 tau(   4) = (  -1.3618497   2.4019742  10.0000000  )
         5           Al1 tau(   5) = (   2.7236993   1.5442585  12.2436140  )
         6           Al1 tau(   6) = (   0.0000000   1.5442585  12.2436140  )
         7           Re1 tau(   7) = (  -1.3618497   3.9462326  12.2436140  )
         8           Re1 tau(   8) = (   1.3618497   3.9462326  12.2436140  )
         9           Al1 tau(   9) = (   0.0000000   3.0885170  14.4872280  )
        10           Al1 tau(  10) = (   2.7236993   3.0885170  14.4872280  )
        11           Re1 tau(  11) = (   4.0855490   0.6865428  14.4872280  )
        12           Re1 tau(  12) = (   1.3618497   0.6865428  14.4872280  )

     number of k points=    20  Fermi-Dirac smearing, width (Ry)=  0.0110
                       cart. coord. in units 2pi/alat
        k(    1) = (   0.0000000   0.0000000   0.0000000), wk =   0.0555556
        k(    2) = (   0.0000000   0.0346937   0.0000000), wk =   0.1111111
        k(    3) = (   0.0000000   0.0693874   0.0000000), wk =   0.1111111
        k(    4) = (   0.0000000  -0.1040811   0.0000000), wk =   0.0555556
        k(    5) = (   0.0305956   0.0173468   0.0000000), wk =   0.1111111
        k(    6) = (   0.0305956   0.0520405   0.0000000), wk =   0.1111111
        k(    7) = (   0.0305956   0.0867342   0.0000000), wk =   0.1111111
        k(    8) = (   0.0305956  -0.0867342   0.0000000), wk =   0.1111111
        k(    9) = (   0.0305956  -0.0520405   0.0000000), wk =   0.1111111
        k(   10) = (   0.0305956  -0.0173468   0.0000000), wk =   0.1111111
        k(   11) = (   0.0611913   0.0346937   0.0000000), wk =   0.1111111
        k(   12) = (   0.0611913   0.0693874   0.0000000), wk =   0.1111111
        k(   13) = (   0.0611913   0.1040811   0.0000000), wk =   0.1111111
        k(   14) = (   0.0611913  -0.0693874   0.0000000), wk =   0.1111111
        k(   15) = (   0.0611913  -0.0346937   0.0000000), wk =   0.1111111
        k(   16) = (   0.0611913   0.0000000   0.0000000), wk =   0.1111111
        k(   17) = (  -0.0917869  -0.0520405   0.0000000), wk =   0.0555556
        k(   18) = (  -0.0917869  -0.0173468   0.0000000), wk =   0.1111111
        k(   19) = (  -0.0917869   0.0173468   0.0000000), wk =   0.1111111
        k(   20) = (  -0.0917869  -0.1561216   0.0000000), wk =   0.0555556

     Dense  grid:   514551 G-vectors     FFT dimensions: (  64,  64, 288)

     Smooth grid:   130055 G-vectors     FFT dimensions: (  40,  45, 180)

     Largest allocated arrays     est. size (Mb)     dimensions
        Kohn-Sham Wavefunctions         0.70 Mb     (     547,   84)
        NL pseudopotentials             2.05 Mb     (     547,  246)
        Each V/rho on FFT grid          0.56 Mb     (   36864)
        Each G-vector array             0.12 Mb     (   16086)
        G-vector shells                 0.06 Mb     (    7768)
     Largest temporary arrays     est. size (Mb)     dimensions
        Auxiliary wavefunctions         2.80 Mb     (     547,  336)
        Each subspace H/S matrix        1.72 Mb     (     336,  336)
        Each <psi_i|beta_j> matrix      0.32 Mb     (     246,   84)
        Arrays for rho mixing           5.62 Mb     (   36864,   10)

     Initial potential from superposition of free atoms
     Check: negative starting charge=   -0.769448

     starting charge  104.98494, renormalised to  108.00000

     negative rho (up, down):  7.915E-01 0.000E+00


     ************************************************************************
     *
     * You are using vdW-DF for exchange-correlation in this calculation.
     * Please cite the following three references that made this development
     * possible:
     *
     *   M. Dion, H. Rydberg, E. Schroder, D. C. Langreth, and
     *   B. I. Lundqvist, Phys. Rev. Lett. 92, 246401 (2004).
     *
     *   T. Thonhauser, V. R. Cooper, S. Li, A. Puzder, P. Hyldgaard, and
     *   D. C. Langreth, Phys. Rev. B 76, 125112 (2007).
     *
     *   G. Roman-Perez and J. M. Soler, Phys. Rev. Lett. 103, 096102 (2009).
     *
     *
     * If you are using vdW-DF2, please also cite:
     *
     *   K. Lee, E. D. Murray, L. Kong, B. I. Lundqvist, and
     *   D. C. Langreth, Phys. Rev. B 82, 081101(R) (2010).
     *
     *
     * If you are calculating the stress with vdW-DF, please also cite:
     *
     *   R. Sabatini, E. Kucukbenli, B. Kolb, T. Thonhauser, and
     *   S. de Gironcoli, J. Phys.: Condens. Matter 24, 424209 (2012).
     *
     ************************************************************************

     Carrying out vdW-DF run using the following parameters:

     Nqs =      20    Nr_points =    1024   r_max =   100.000
     q_mesh =
               0.00001000     0.04494208     0.09755937     0.15916263
               0.23128650     0.31572767     0.41458969     0.53033537
               0.66584808     0.82450364     1.01025438     1.22772762
               1.48234092     1.78043706     2.12944203     2.53805004
               3.01644009     3.57652955     4.23227104     5.00000000

     Gradients computed in reciprocal space

     ************************************************************************


 
     Adding external electric field

     Computed dipole along edir(3) : 
        Dipole                0.0000 Ry au,          0.0000 Debye
        Dipole field          0.0000 Ry au
 
        Potential amp.       -0.0000 Ry
        Total length         45.1173 bohr
 
     Starting wfc are  102 randomized atomic wfcs

     total cpu time spent up to now is       16.5 secs

     per-process dynamical memory:    42.7 Mb

     Self-consistent Calculation

     iteration #  1     ecut=    36.75 Ry     beta=0.10
     Davidson diagonalization with overlap
     ethr =  1.00E-02,  avg # of iterations =  6.5

     negative rho (up, down):  7.951E-01 0.000E+00
 
     Adding external electric field

     Computed dipole along edir(3) : 
        Dipole               -0.0002 Ry au,         -0.0004 Debye
        Dipole field         -0.0000 Ry au
 
        Potential amp.        0.0000 Ry
        Total length         45.1173 bohr
 

     total cpu time spent up to now is       64.1 secs

     total energy              =   -1194.26047499 Ry
     Harris-Foulkes estimate   =   -1194.52973970 Ry
     estimated scf accuracy    <       1.75128770 Ry

     iteration #  2     ecut=    36.75 Ry     beta=0.10
     Davidson diagonalization with overlap
     ethr =  1.62E-03,  avg # of iterations =  2.7

     negative rho (up, down):  7.978E-01 0.000E+00
 
     Adding external electric field

     Computed dipole along edir(3) : 
        Dipole                0.0008 Ry au,          0.0019 Debye
        Dipole field          0.0000 Ry au
 
        Potential amp.       -0.0002 Ry
        Total length         45.1173 bohr
 

     total cpu time spent up to now is       94.0 secs

     total energy              =   -1194.20764305 Ry
     Harris-Foulkes estimate   =   -1194.33429097 Ry
     estimated scf accuracy    <       0.85625850 Ry

     iteration #  3     ecut=    36.75 Ry     beta=0.10
     Davidson diagonalization with overlap
     ethr =  7.93E-04,  avg # of iterations =  2.5

     negative rho (up, down):  8.022E-01 0.000E+00
 
     Adding external electric field

     Computed dipole along edir(3) : 
        Dipole               -0.0072 Ry au,         -0.0183 Debye
        Dipole field         -0.0000 Ry au
 
        Potential amp.        0.0019 Ry
        Total length         45.1173 bohr
 

     total cpu time spent up to now is      125.1 secs

     total energy              =   -1194.09408509 Ry
     Harris-Foulkes estimate   =   -1194.23531564 Ry
     estimated scf accuracy    <       0.42510124 Ry

     iteration #  4     ecut=    36.75 Ry     beta=0.10
     Davidson diagonalization with overlap
     ethr =  3.94E-04,  avg # of iterations =  6.8

     negative rho (up, down):  7.972E-01 0.000E+00
 
     Adding external electric field

     Computed dipole along edir(3) : 
        Dipole                0.1101 Ry au,          0.2798 Debye
        Dipole field          0.0003 Ry au
 
        Potential amp.       -0.0289 Ry
        Total length         45.1173 bohr
 

     total cpu time spent up to now is      164.7 secs

     total energy              =   -1194.13136992 Ry
     Harris-Foulkes estimate   =   -1194.15395058 Ry
     estimated scf accuracy    <       0.09647626 Ry

     iteration #  5     ecut=    36.75 Ry     beta=0.10
     Davidson diagonalization with overlap
     ethr =  8.93E-05,  avg # of iterations =  4.2

     negative rho (up, down):  7.950E-01 0.000E+00
 
     Adding external electric field

     Computed dipole along edir(3) : 
        Dipole               -0.0059 Ry au,         -0.0149 Debye
        Dipole field         -0.0000 Ry au
 
        Potential amp.        0.0015 Ry
        Total length         45.1173 bohr
 

     total cpu time spent up to now is      198.5 secs

     total energy              =   -1194.13300526 Ry
     Harris-Foulkes estimate   =   -1194.15174434 Ry
     estimated scf accuracy    <       0.52453212 Ry

     iteration #  6     ecut=    36.75 Ry     beta=0.10
     Davidson diagonalization with overlap
     ethr =  8.93E-05,  avg # of iterations =  1.6

     negative rho (up, down):  7.967E-01 0.000E+00
 
     Adding external electric field

     Computed dipole along edir(3) : 
        Dipole               -0.0003 Ry au,         -0.0008 Debye
        Dipole field         -0.0000 Ry au
 
        Potential amp.        0.0001 Ry
        Total length         45.1173 bohr
 

     total cpu time spent up to now is      228.9 secs

     total energy              =   -1194.11421792 Ry
     Harris-Foulkes estimate   =   -1194.14385590 Ry
     estimated scf accuracy    <       0.06294259 Ry

     iteration #  7     ecut=    36.75 Ry     beta=0.10
     Davidson diagonalization with overlap
     ethr =  5.83E-05,  avg # of iterations =  5.8

     negative rho (up, down):  7.940E-01 0.000E+00
 
     Adding external electric field

     Computed dipole along edir(3) : 
        Dipole                0.0001 Ry au,          0.0003 Debye
        Dipole field          0.0000 Ry au
 
        Potential amp.       -0.0000 Ry
        Total length         45.1173 bohr
 

     total cpu time spent up to now is      272.0 secs

     total energy              =   -1194.13183536 Ry
     Harris-Foulkes estimate   =   -1194.14222126 Ry
     estimated scf accuracy    <       0.04033609 Ry

     iteration #  8     ecut=    36.75 Ry     beta=0.10
     Davidson diagonalization with overlap
     ethr =  3.73E-05,  avg # of iterations =  1.0

     negative rho (up, down):  7.930E-01 0.000E+00
 
     Adding external electric field

     Computed dipole along edir(3) : 
        Dipole               -0.0001 Ry au,         -0.0002 Debye
        Dipole field         -0.0000 Ry au
 
        Potential amp.        0.0000 Ry
        Total length         45.1173 bohr
 

     total cpu time spent up to now is      303.2 secs

     total energy              =   -1194.13136071 Ry
     Harris-Foulkes estimate   =   -1194.13426792 Ry
     estimated scf accuracy    <       0.01449826 Ry

     iteration #  9     ecut=    36.75 Ry     beta=0.10
     Davidson diagonalization with overlap
     ethr =  1.34E-05,  avg # of iterations =  1.8

     negative rho (up, down):  7.918E-01 0.000E+00
 
     Adding external electric field

     Computed dipole along edir(3) : 
        Dipole                0.0000 Ry au,          0.0001 Debye
        Dipole field          0.0000 Ry au
 
        Potential amp.       -0.0000 Ry
        Total length         45.1173 bohr
 

     total cpu time spent up to now is      333.6 secs

     total energy              =   -1194.13100696 Ry
     Harris-Foulkes estimate   =   -1194.13209402 Ry
     estimated scf accuracy    <       0.00351986 Ry

     iteration # 10     ecut=    36.75 Ry     beta=0.10
     Davidson diagonalization with overlap
     ethr =  3.26E-06,  avg # of iterations =  4.9

     negative rho (up, down):  7.913E-01 0.000E+00
 
     Adding external electric field

     Computed dipole along edir(3) : 
        Dipole               -0.0001 Ry au,         -0.0003 Debye
        Dipole field         -0.0000 Ry au
 
        Potential amp.        0.0000 Ry
        Total length         45.1173 bohr
 

     total cpu time spent up to now is      367.7 secs

     total energy              =   -1194.13150771 Ry
     Harris-Foulkes estimate   =   -1194.13159481 Ry
     estimated scf accuracy    <       0.00063633 Ry

     iteration # 11     ecut=    36.75 Ry     beta=0.10
     Davidson diagonalization with overlap
     ethr =  5.89E-07,  avg # of iterations =  2.2

     negative rho (up, down):  7.909E-01 0.000E+00
 
     Adding external electric field

     Computed dipole along edir(3) : 
        Dipole                0.0000 Ry au,          0.0001 Debye
        Dipole field          0.0000 Ry au
 
        Potential amp.       -0.0000 Ry
        Total length         45.1173 bohr
 

     total cpu time spent up to now is      396.9 secs

     total energy              =   -1194.13161378 Ry
     Harris-Foulkes estimate   =   -1194.13159312 Ry
     estimated scf accuracy    <       0.00011786 Ry

     iteration # 12     ecut=    36.75 Ry     beta=0.10
     Davidson diagonalization with overlap
     ethr =  1.09E-07,  avg # of iterations =  3.0

     negative rho (up, down):  7.910E-01 0.000E+00
 
     Adding external electric field

     Computed dipole along edir(3) : 
        Dipole                0.0000 Ry au,          0.0001 Debye
        Dipole field          0.0000 Ry au
 
        Potential amp.       -0.0000 Ry
        Total length         45.1173 bohr
 

     total cpu time spent up to now is      434.9 secs

     total energy              =   -1194.13159794 Ry
     Harris-Foulkes estimate   =   -1194.13168471 Ry
     estimated scf accuracy    <       0.00038974 Ry

     iteration # 13     ecut=    36.75 Ry     beta=0.10
     Davidson diagonalization with overlap
     ethr =  1.09E-07,  avg # of iterations =  2.5

     negative rho (up, down):  7.911E-01 0.000E+00
 
     Adding external electric field

     Computed dipole along edir(3) : 
        Dipole                0.0000 Ry au,          0.0001 Debye
        Dipole field          0.0000 Ry au
 
        Potential amp.       -0.0000 Ry
        Total length         45.1173 bohr
 

     total cpu time spent up to now is      467.5 secs

     total energy              =   -1194.13157171 Ry
     Harris-Foulkes estimate   =   -1194.13161353 Ry
     estimated scf accuracy    <       0.00012333 Ry

     iteration # 14     ecut=    36.75 Ry     beta=0.10
     Davidson diagonalization with overlap
     ethr =  1.09E-07,  avg # of iterations =  2.0

     negative rho (up, down):  7.911E-01 0.000E+00
 
     Adding external electric field

     Computed dipole along edir(3) : 
        Dipole                0.0000 Ry au,          0.0001 Debye
        Dipole field          0.0000 Ry au
 
        Potential amp.       -0.0000 Ry
        Total length         45.1173 bohr
 

     total cpu time spent up to now is      499.5 secs

     total energy              =   -1194.13158541 Ry
     Harris-Foulkes estimate   =   -1194.13158709 Ry
     estimated scf accuracy    <       0.00000448 Ry

     iteration # 15     ecut=    36.75 Ry     beta=0.10
     Davidson diagonalization with overlap
     ethr =  4.14E-09,  avg # of iterations =  3.0

     negative rho (up, down):  7.910E-01 0.000E+00
 
     Adding external electric field

     Computed dipole along edir(3) : 
        Dipole                0.0000 Ry au,          0.0000 Debye
        Dipole field          0.0000 Ry au
 
        Potential amp.       -0.0000 Ry
        Total length         45.1173 bohr
 

     total cpu time spent up to now is      534.5 secs

     total energy              =   -1194.13158622 Ry
     Harris-Foulkes estimate   =   -1194.13158661 Ry
     estimated scf accuracy    <       0.00000126 Ry

     iteration # 16     ecut=    36.75 Ry     beta=0.10
     Davidson diagonalization with overlap
     ethr =  1.17E-09,  avg # of iterations =  2.1

     negative rho (up, down):  7.908E-01 0.000E+00

     negative rho (up, down):  7.908E-01 0.000E+00

     negative rho (up, down):  7.908E-01 0.000E+00

     negative rho (up, down):  7.908E-01 0.000E+00

     negative rho (up, down):  7.908E-01 0.000E+00

     negative rho (up, down):  7.908E-01 0.000E+00

     negative rho (up, down):  7.908E-01 0.000E+00

     negative rho (up, down):  7.908E-01 0.000E+00

     negative rho (up, down):  7.908E-01 0.000E+00

     negative rho (up, down):  7.908E-01 0.000E+00

     negative rho (up, down):  7.908E-01 0.000E+00

     negative rho (up, down):  7.908E-01 0.000E+00

     negative rho (up, down):  7.908E-01 0.000E+00

     negative rho (up, down):  7.908E-01 0.000E+00

     negative rho (up, down):  7.908E-01 0.000E+00

     negative rho (up, down):  7.908E-01 0.000E+00

     negative rho (up, down):  7.908E-01 0.000E+00

     negative rho (up, down):  7.908E-01 0.000E+00

     negative rho (up, down):  7.908E-01 0.000E+00

     negative rho (up, down):  7.908E-01 0.000E+00

     negative rho (up, down):  7.908E-01 0.000E+00

     negative rho (up, down):  7.908E-01 0.000E+00

     negative rho (up, down):  7.908E-01 0.000E+00

     negative rho (up, down):  7.908E-01 0.000E+00

     negative rho (up, down):  7.908E-01 0.000E+00

     negative rho (up, down):  7.908E-01 0.000E+00

     negative rho (up, down):  7.908E-01 0.000E+00

     negative rho (up, down):  7.908E-01 0.000E+00

     negative rho (up, down):  7.908E-01 0.000E+00

     negative rho (up, down):  7.908E-01 0.000E+00

     negative rho (up, down):  7.908E-01 0.000E+00

     negative rho (up, down):  7.908E-01 0.000E+00

     negative rho (up, down):  7.908E-01 0.000E+00

     negative rho (up, down):  7.908E-01 0.000E+00

     negative rho (up, down):  7.908E-01 0.000E+00
 
     Adding external electric field

     Computed dipole along edir(3) : 
        Dipole                0.0002 Ry au,          0.0004 Debye
        Dipole field          0.0000 Ry au
 
        Potential amp.       -0.0000 Ry
        Total length         45.1173 bohr
 

     total cpu time spent up to now is      626.0 secs

     End of self-consistent calculation

          k = 0.0000 0.0000 0.0000 ( 16189 PWs)   bands (ev):

   -79.6185 -79.5759 -79.2522 -79.2516 -79.2099 -79.2093 -41.6585 -41.4905
   -41.4114 -41.3029 -41.3026 -41.3002 -41.2276 -40.9783 -40.9654 -40.9606
   -40.9295 -40.8915 -40.8861 -40.8574 -40.8223 -40.7571 -40.6307 -40.6293
    -9.2347  -7.2944  -5.8011  -5.3653  -4.5717  -4.0334  -3.9446  -3.3946
    -3.3866  -3.1272  -2.9646  -2.7817  -2.4627  -2.0701  -2.0567  -1.8718
    -1.4981  -1.2797  -1.1149  -0.7792  -0.3218  -0.3047  -0.0659   0.1602
     0.1735   0.2732   0.4856   0.6424   0.9199   1.1036   1.1193   1.2278
     1.5470   1.6047   1.7679   1.7804   2.2718   2.3408   2.4832   2.4988
     3.3800   3.3839   4.4058   4.4175   4.4589   4.7439   4.7896   5.1627
     5.2119   5.5911   5.8216   5.8672   6.5989   6.9558   7.3541   7.3582
     7.5306   7.8411   7.9116   7.9379

          k = 0.0000 0.0347 0.0000 ( 16221 PWs)   bands (ev):

   -79.6185 -79.5759 -79.2522 -79.2516 -79.2099 -79.2093 -41.6585 -41.4908
   -41.4112 -41.3033 -41.3029 -41.3001 -41.2272 -40.9784 -40.9659 -40.9605
   -40.9296 -40.8914 -40.8862 -40.8575 -40.8223 -40.7571 -40.6308 -40.6293
    -9.0199  -7.1059  -5.6906  -5.2141  -4.5545  -4.5298  -3.9437  -3.9134
    -3.7321  -3.1418  -2.7018  -2.6682  -2.5766  -2.2431  -2.1988  -1.9560
    -1.7053  -1.6608  -1.0172  -0.5113  -0.4471  -0.3091  -0.2534  -0.0853
     0.1166   0.1424   0.6370   0.9012   0.9196   1.0640   1.2176   1.3578
     1.6644   1.6927   2.2724   2.3326   2.3643   2.3722   2.4980   2.4995
     3.3851   3.4333   4.3017   4.6149   4.8247   4.9561   5.0550   5.2088
     5.4717   5.8884   5.9789   6.3293   6.7136   6.7747   6.8233   7.2627
     7.3097   7.6335   7.7779   8.0099

          k = 0.0000 0.0694 0.0000 ( 16252 PWs)   bands (ev):

   -79.6185 -79.5759 -79.2522 -79.2516 -79.2099 -79.2093 -41.6587 -41.4913
   -41.4110 -41.3045 -41.3029 -41.3002 -41.2265 -40.9783 -40.9664 -40.9604
   -40.9293 -40.8912 -40.8865 -40.8577 -40.8222 -40.7573 -40.6308 -40.6294
    -8.3985  -6.7100  -6.0154  -4.7941  -4.7705  -4.5974  -4.4394  -4.3911
    -3.7051  -3.0870  -2.9548  -2.7941  -2.7934  -2.6499  -2.6333  -2.2680
    -1.9932  -1.5798  -1.3642  -1.1374  -0.8762  -0.4962  -0.4646   0.0985
     0.2574   0.5167   0.9392   1.0221   1.1694   1.1973   1.4146   1.5754
     1.5798   2.2287   2.4543   2.5261   2.6998   2.9496   2.9882   3.0409
     3.3950   4.0408   4.4189   4.7226   5.2107   5.4080   5.5469   5.6202
     5.8505   6.2909   6.3600   6.3959   6.4211   6.8358   6.9059   7.1040
     7.2871   7.3114   7.7436   7.8216

          k = 0.0000-0.1041 0.0000 ( 16288 PWs)   bands (ev):

   -79.6185 -79.5759 -79.2522 -79.2516 -79.2099 -79.2093 -41.6588 -41.4915
   -41.4109 -41.3051 -41.3029 -41.3003 -41.2261 -40.9784 -40.9666 -40.9604
   -40.9291 -40.8911 -40.8869 -40.8577 -40.8222 -40.7575 -40.6308 -40.6295
    -7.5099  -7.3987  -5.7431  -5.2735  -4.8278  -4.4449  -4.3104  -4.0098
    -3.8728  -3.5112  -3.0763  -3.0549  -2.8502  -2.7852  -2.7413  -2.4079
    -2.0440  -1.6037  -1.5378  -1.3230  -1.1914  -0.7625  -0.6025   0.3028
     0.5312   0.8689   0.9587   1.1072   1.1138   1.1872   1.5260   1.6580
     1.7887   2.2049   2.4983   2.5295   2.6158   2.9715   3.2278   3.3999
     4.3933   4.7509   4.9590   4.9987   5.2570   5.2914   5.6235   5.7035
     5.7896   6.0260   6.4125   6.6772   6.7042   6.9345   6.9821   7.1431
     7.1795   7.2386   7.2914   7.5834

          k = 0.0306 0.0173 0.0000 ( 16234 PWs)   bands (ev):

   -79.6156 -79.5788 -79.2494 -79.2488 -79.2127 -79.2121 -41.6147 -41.4853
   -41.4168 -41.2978 -41.2595 -41.2569 -41.2327 -41.0260 -40.9607 -40.9556
   -40.9247 -40.8966 -40.8911 -40.8623 -40.8180 -40.7615 -40.6777 -40.6762
    -9.0175  -7.0989  -5.6499  -5.5796  -4.6164  -4.4499  -3.9349  -3.2819
    -3.1836  -3.0695  -2.6422  -2.6392  -2.4457  -2.0065  -1.9340  -1.8674
    -1.6346  -1.4761  -0.9590  -0.8180  -0.5843  -0.4641  -0.1062  -0.0712
    -0.0514   0.2254   0.2828   0.4367   0.7502   1.0828   1.1294   1.2156
     1.2810   1.5732   1.8769   2.0949   2.3221   2.3492   2.5338   2.8968
     3.1262   3.2363   4.2494   4.7287   4.8366   4.8400   5.0008   5.2888
     5.4784   5.5150   5.8569   6.1269   6.4283   6.7815   6.8161   7.4303
     7.5462   7.6990   7.7201   8.2639

          k = 0.0306 0.0520 0.0000 ( 16273 PWs)   bands (ev):

   -79.6156 -79.5788 -79.2494 -79.2488 -79.2127 -79.2121 -41.6148 -41.4858
   -41.4165 -41.2988 -41.2596 -41.2570 -41.2320 -41.0260 -40.9612 -40.9556
   -40.9246 -40.8963 -40.8914 -40.8624 -40.8180 -40.7616 -40.6777 -40.6763
    -8.5981  -6.7575  -5.6325  -5.6161  -4.7182  -4.6334  -4.2772  -3.8762
    -3.4047  -2.8513  -2.8395  -2.6834  -2.4940  -2.4560  -2.2668  -1.9638
    -1.7713  -1.6328  -1.1398  -0.8415  -0.7047  -0.4433  -0.2409  -0.1386
     0.1250   0.1535   0.6555   0.6653   1.1050   1.1697   1.2567   1.3783
     1.4659   1.8413   2.2113   2.2336   2.3001   2.3976   2.5138   3.1174
     3.3069   3.4041   4.5342   4.6656   4.9549   5.0591   5.4020   5.4972
     5.5201   5.8561   6.0085   6.2425   6.7980   6.8436   7.0363   7.1133
     7.3275   8.0086   8.0237   8.3336

          k = 0.0306 0.0867 0.0000 ( 16281 PWs)   bands (ev):

   -79.6156 -79.5788 -79.2494 -79.2488 -79.2127 -79.2121 -41.6150 -41.4862
   -41.4162 -41.2998 -41.2595 -41.2570 -41.2313 -41.0259 -40.9616 -40.9555
   -40.9244 -40.8961 -40.8917 -40.8624 -40.8179 -40.7617 -40.6777 -40.6763
    -7.8129  -6.8225  -5.7789  -5.7732  -4.8876  -4.6993  -4.0643  -3.9824
    -3.4355  -3.2587  -3.0716  -2.8696  -2.6539  -2.6236  -2.5744  -2.2702
    -1.8841  -1.6292  -1.4285  -1.2445  -0.8450  -0.5269  -0.5173   0.1274
     0.3305   0.4415   0.8007   0.9091   1.1104   1.2089   1.2246   1.4846
     1.6482   1.8598   2.0390   2.4625   2.6842   2.9654   3.1219   3.5519
     3.6741   4.4378   4.4752   4.6591   4.9191   5.0300   5.5532   5.6261
     5.7876   6.1162   6.3806   6.4771   6.8116   6.8382   7.1485   7.2320
     7.3604   7.6747   7.6870   7.7548

          k = 0.0306-0.0867 0.0000 ( 16281 PWs)   bands (ev):

   -79.6156 -79.5788 -79.2494 -79.2488 -79.2127 -79.2121 -41.6150 -41.4862
   -41.4162 -41.2998 -41.2595 -41.2570 -41.2313 -41.0259 -40.9616 -40.9555
   -40.9244 -40.8961 -40.8917 -40.8624 -40.8179 -40.7617 -40.6777 -40.6763
    -7.8129  -6.8225  -5.7789  -5.7732  -4.8876  -4.6993  -4.0643  -3.9824
    -3.4355  -3.2587  -3.0716  -2.8696  -2.6539  -2.6236  -2.5744  -2.2702
    -1.8841  -1.6292  -1.4285  -1.2445  -0.8450  -0.5269  -0.5173   0.1274
     0.3305   0.4415   0.8007   0.9091   1.1104   1.2089   1.2246   1.4846
     1.6482   1.8598   2.0390   2.4625   2.6842   2.9654   3.1219   3.5519
     3.6741   4.4378   4.4752   4.6591   4.9191   5.0300   5.5532   5.6261
     5.7876   6.1162   6.3806   6.4771   6.8116   6.8382   7.1485   7.2320
     7.3604   7.6747   7.6875   7.7547

          k = 0.0306-0.0520 0.0000 ( 16273 PWs)   bands (ev):

   -79.6156 -79.5788 -79.2494 -79.2488 -79.2127 -79.2121 -41.6148 -41.4858
   -41.4165 -41.2988 -41.2596 -41.2570 -41.2320 -41.0260 -40.9612 -40.9556
   -40.9246 -40.8963 -40.8914 -40.8624 -40.8180 -40.7616 -40.6777 -40.6763
    -8.5981  -6.7575  -5.6325  -5.6161  -4.7182  -4.6334  -4.2772  -3.8762
    -3.4047  -2.8513  -2.8395  -2.6834  -2.4940  -2.4560  -2.2668  -1.9638
    -1.7713  -1.6328  -1.1398  -0.8415  -0.7047  -0.4433  -0.2409  -0.1386
     0.1250   0.1535   0.6555   0.6653   1.1050   1.1697   1.2567   1.3783
     1.4659   1.8413   2.2113   2.2336   2.3001   2.3976   2.5138   3.1174
     3.3069   3.4041   4.5342   4.6656   4.9549   5.0591   5.4020   5.4972
     5.5201   5.8561   6.0085   6.2425   6.7980   6.8436   7.0363   7.1133
     7.3275   8.0086   8.0237   8.3336

          k = 0.0306-0.0173 0.0000 ( 16234 PWs)   bands (ev):

   -79.6156 -79.5788 -79.2494 -79.2488 -79.2127 -79.2121 -41.6147 -41.4853
   -41.4168 -41.2978 -41.2595 -41.2569 -41.2327 -41.0260 -40.9607 -40.9556
   -40.9247 -40.8966 -40.8911 -40.8623 -40.8180 -40.7615 -40.6777 -40.6762
    -9.0175  -7.0989  -5.6499  -5.5796  -4.6164  -4.4499  -3.9349  -3.2819
    -3.1836  -3.0695  -2.6422  -2.6392  -2.4457  -2.0065  -1.9340  -1.8674
    -1.6346  -1.4761  -0.9590  -0.8180  -0.5843  -0.4641  -0.1062  -0.0712
    -0.0514   0.2254   0.2828   0.4367   0.7502   1.0828   1.1294   1.2156
     1.2810   1.5732   1.8769   2.0949   2.3221   2.3492   2.5338   2.8968
     3.1262   3.2363   4.2494   4.7287   4.8366   4.8400   5.0008   5.2888
     5.4784   5.5150   5.8569   6.1269   6.4283   6.7815   6.8161   7.4303
     7.5462   7.6990   7.7201   8.2639

          k = 0.0612 0.0347 0.0000 ( 16266 PWs)   bands (ev):

   -79.6079 -79.5866 -79.2417 -79.2410 -79.2205 -79.2199 -41.4939 -41.4709
   -41.4314 -41.2842 -41.2466 -41.1542 -41.1400 -41.1378 -40.9472 -40.9422
   -40.9115 -40.9103 -40.9048 -40.8755 -40.8063 -40.8042 -40.8026 -40.7735
    -8.3933  -6.5595  -6.3630  -5.2620  -5.2243  -4.4885  -3.8514  -3.3978
    -3.0580  -2.7491  -2.4438  -2.2894  -2.2227  -1.8602  -1.7214  -1.6585
    -1.5031  -1.3579  -1.2860  -1.0629  -0.8610  -0.6151  -0.5144  -0.1151
    -0.1038   0.0082   0.1867   0.1915   0.5651   0.6057   1.0348   1.1189
     1.3471   1.3892   1.6135   1.9777   1.9863   2.0980   2.5587   2.8829
     2.9095   3.7870   3.9200   4.7026   4.9479   5.3698   5.5777   5.7393
     5.8072   5.9472   6.1251   6.4196   6.4372   6.5807   7.1387   7.3508
     7.4191   7.7522   7.8499   8.1382

          k = 0.0612 0.0694 0.0000 ( 16295 PWs)   bands (ev):

   -79.6078 -79.5866 -79.2417 -79.2410 -79.2205 -79.2199 -41.4941 -41.4714
   -41.4311 -41.2853 -41.2458 -41.1542 -41.1400 -41.1378 -40.9477 -40.9420
   -40.9114 -40.9099 -40.9052 -40.8756 -40.8062 -40.8042 -40.8027 -40.7737
    -7.8087  -6.7524  -6.2695  -5.4031  -5.2909  -4.3020  -4.2885  -3.6447
    -3.3512  -2.9790  -2.3945  -2.2672  -2.2516  -2.0808  -2.0344  -1.9907
    -1.5913  -1.4004  -1.1584  -0.9967  -0.9394  -0.5942  -0.3260  -0.2250
    -0.1108   0.2627   0.2805   0.5060   0.5703   0.9422   1.0818   1.1471
     1.2654   1.4370   1.4647   2.1266   2.2098   2.4227   2.5972   2.9672
     3.3732   3.7922   4.0172   4.3261   5.0039   5.3310   5.3318   5.5990
     5.8254   6.2060   6.6306   6.8682   6.8775   7.0329   7.2998   7.4124
     7.4764   7.6991   7.7738   7.9714

          k = 0.0612 0.1041 0.0000 ( 16308 PWs)   bands (ev):

   -79.6078 -79.5866 -79.2417 -79.2410 -79.2205 -79.2199 -41.4941 -41.4716
   -41.4309 -41.2859 -41.2454 -41.1542 -41.1401 -41.1377 -40.9480 -40.9419
   -40.9112 -40.9099 -40.9053 -40.8756 -40.8061 -40.8042 -40.8027 -40.7738
    -7.0778  -6.9060  -6.7759  -5.3618  -5.0255  -4.9049  -4.1707  -3.5212
    -3.3706  -2.7848  -2.5709  -2.5599  -2.3422  -2.3222  -2.1620  -1.9564
    -1.6460  -1.3954  -1.2975  -1.0536  -0.6858  -0.3663  -0.3257  -0.2434
    -0.0320   0.2198   0.2922   0.3257   0.3348   0.8175   0.8791   1.2656
     1.4065   1.5364   1.7027   1.7880   2.5490   2.6162   3.0474   3.2256
     4.0456   4.1216   4.1933   4.5025   4.9499   5.2268   5.3014   5.3200
     6.0311   6.1155   6.3499   6.4203   6.5336   6.9954   7.1424   7.2405
     7.5534   7.6748   7.7651   7.9710

          k = 0.0612-0.0694 0.0000 ( 16295 PWs)   bands (ev):

   -79.6078 -79.5866 -79.2417 -79.2410 -79.2205 -79.2199 -41.4941 -41.4714
   -41.4311 -41.2853 -41.2458 -41.1542 -41.1400 -41.1378 -40.9477 -40.9420
   -40.9114 -40.9099 -40.9052 -40.8756 -40.8062 -40.8042 -40.8027 -40.7737
    -7.8087  -6.7524  -6.2695  -5.4031  -5.2909  -4.3020  -4.2885  -3.6447
    -3.3512  -2.9790  -2.3945  -2.2672  -2.2516  -2.0808  -2.0344  -1.9907
    -1.5913  -1.4004  -1.1584  -0.9967  -0.9394  -0.5942  -0.3260  -0.2250
    -0.1108   0.2627   0.2805   0.5060   0.5703   0.9422   1.0818   1.1471
     1.2654   1.4370   1.4647   2.1266   2.2098   2.4227   2.5972   2.9672
     3.3732   3.7922   4.0172   4.3261   5.0039   5.3310   5.3318   5.5990
     5.8254   6.2060   6.6306   6.8682   6.8775   7.0329   7.2998   7.4124
     7.4764   7.6986   7.7738   7.9714

          k = 0.0612-0.0347 0.0000 ( 16266 PWs)   bands (ev):

   -79.6079 -79.5866 -79.2417 -79.2410 -79.2205 -79.2199 -41.4939 -41.4709
   -41.4314 -41.2842 -41.2466 -41.1542 -41.1400 -41.1378 -40.9472 -40.9422
   -40.9115 -40.9103 -40.9048 -40.8755 -40.8063 -40.8042 -40.8026 -40.7735
    -8.3933  -6.5595  -6.3630  -5.2620  -5.2243  -4.4885  -3.8514  -3.3978
    -3.0580  -2.7491  -2.4438  -2.2894  -2.2227  -1.8602  -1.7214  -1.6585
    -1.5031  -1.3579  -1.2860  -1.0629  -0.8610  -0.6151  -0.5144  -0.1151
    -0.1038   0.0082   0.1867   0.1915   0.5651   0.6057   1.0348   1.1189
     1.3471   1.3892   1.6135   1.9777   1.9863   2.0980   2.5587   2.8829
     2.9095   3.7870   3.9200   4.7026   4.9479   5.3698   5.5777   5.7393
     5.8072   5.9472   6.1251   6.4196   6.4372   6.5807   7.1387   7.3508
     7.4191   7.7522   7.8499   8.1382

          k = 0.0612 0.0000 0.0000 ( 16268 PWs)   bands (ev):

   -79.6079 -79.5866 -79.2417 -79.2410 -79.2205 -79.2199 -41.4938 -41.4708
   -41.4316 -41.2837 -41.2471 -41.1542 -41.1400 -41.1377 -40.9471 -40.9423
   -40.9116 -40.9103 -40.9047 -40.8754 -40.8063 -40.8042 -40.8026 -40.7735
    -8.5978  -6.7271  -6.0681  -5.3437  -5.3272  -4.5200  -3.5455  -3.1296
    -2.9106  -2.6257  -2.1965  -2.1755  -2.1500  -1.9015  -1.8968  -1.7890
    -1.3865  -1.3234  -1.1088  -1.0931  -0.6395  -0.6103  -0.5589  -0.4599
    -0.3984  -0.1928  -0.0408   0.1294   0.4290   0.5817   0.8267   0.9991
     1.2045   1.3378   1.7898   2.0969   2.1082   2.3506   2.8326   2.8658
     3.2950   3.5076   3.9557   4.8587   5.1677   5.1785   5.3430   5.5857
     5.7880   5.8771   5.8931   5.9261   6.2930   6.5856   7.1958   7.2909
     7.4771   7.6428   7.8061   7.8587

          k =-0.0918-0.0520 0.0000 ( 16260 PWs)   bands (ev):

   -79.5972 -79.5972 -79.2311 -79.2311 -79.2305 -79.2304 -41.4513 -41.4512
   -41.3259 -41.3259 -41.2655 -41.2655 -40.9740 -40.9740 -40.9721 -40.9721
   -40.9287 -40.9287 -40.9235 -40.9235 -40.8934 -40.8934 -40.7899 -40.7899
    -7.4478  -7.4478  -5.8436  -5.8436  -4.8122  -4.8122  -3.6275  -3.6275
    -3.0264  -3.0264  -2.0866  -2.0866  -1.8039  -1.8039  -1.6107  -1.6107
    -1.3760  -1.3760  -1.2207  -1.2207  -0.5487  -0.5487  -0.3797  -0.3797
    -0.2032  -0.2032  -0.0626  -0.0626   0.3360   0.3360   0.9132   0.9132
     1.3433   1.3433   1.7014   1.7014   1.7924   1.7924   2.5600   2.5600
     3.4373   3.4373   4.2098   4.2098   5.2309   5.2309   6.0106   6.0106
     6.2823   6.2823   6.6027   6.6027   6.8251   6.8251   7.1346   7.1346
     7.3373   7.3373   7.9544   7.9545

          k =-0.0918-0.0173 0.0000 ( 16289 PWs)   bands (ev):

   -79.5972 -79.5972 -79.2311 -79.2311 -79.2305 -79.2304 -41.4516 -41.4509
   -41.3260 -41.3258 -41.2664 -41.2647 -40.9740 -40.9739 -40.9721 -40.9720
   -40.9292 -40.9285 -40.9237 -40.9233 -40.8935 -40.8933 -40.7901 -40.7899
    -7.8118  -6.8229  -6.0661  -5.9381  -4.8044  -4.7759  -4.1091  -3.1852
    -2.8994  -2.7506  -2.1227  -1.9883  -1.9556  -1.8824  -1.7442  -1.6269
    -1.4324  -1.3909  -1.1219  -1.0659  -0.7593  -0.5546  -0.4284  -0.2587
    -0.2557  -0.1494  -0.0432  -0.0220  -0.0148   0.2726   0.3977   0.7376
     1.2440   1.4550   1.4976   1.8044   2.0664   2.5149   2.7063   2.8853
     3.5588   3.6393   4.5331   4.5367   4.8185   5.4071   5.4686   5.8214
     6.0585   6.1715   6.4144   6.5393   6.7139   6.8722   6.9564   7.1845
     7.4167   7.4221   7.5223   7.9343

          k =-0.0918 0.0173 0.0000 ( 16289 PWs)   bands (ev):

   -79.5972 -79.5972 -79.2311 -79.2311 -79.2305 -79.2304 -41.4516 -41.4509
   -41.3260 -41.3258 -41.2664 -41.2647 -40.9740 -40.9739 -40.9721 -40.9720
   -40.9292 -40.9285 -40.9237 -40.9233 -40.8935 -40.8933 -40.7901 -40.7899
    -7.8118  -6.8229  -6.0661  -5.9381  -4.8044  -4.7759  -4.1091  -3.1852
    -2.8994  -2.7506  -2.1227  -1.9883  -1.9556  -1.8824  -1.7442  -1.6269
    -1.4324  -1.3909  -1.1219  -1.0659  -0.7593  -0.5546  -0.4284  -0.2587
    -0.2557  -0.1494  -0.0432  -0.0220  -0.0148   0.2726   0.3977   0.7376
     1.2440   1.4550   1.4976   1.8044   2.0664   2.5149   2.7063   2.8853
     3.5588   3.6393   4.5331   4.5367   4.8185   5.4071   5.4686   5.8214
     6.0585   6.1715   6.4144   6.5393   6.7139   6.8722   6.9563   7.1845
     7.4167   7.4221   7.5223   7.9337

          k =-0.0918-0.1561 0.0000 ( 16260 PWs)   bands (ev):

   -79.5972 -79.5972 -79.2311 -79.2311 -79.2305 -79.2304 -41.4513 -41.4512
   -41.3259 -41.3259 -41.2655 -41.2655 -40.9740 -40.9740 -40.9721 -40.9721
   -40.9287 -40.9287 -40.9235 -40.9235 -40.8934 -40.8934 -40.7899 -40.7899
    -7.4478  -7.4478  -5.8436  -5.8436  -4.8122  -4.8122  -3.6275  -3.6275
    -3.0264  -3.0264  -2.0866  -2.0866  -1.8039  -1.8039  -1.6107  -1.6107
    -1.3760  -1.3760  -1.2207  -1.2207  -0.5487  -0.5487  -0.3797  -0.3797
    -0.2032  -0.2032  -0.0626  -0.0626   0.3360   0.3360   0.9132   0.9132
     1.3433   1.3433   1.7014   1.7014   1.7924   1.7924   2.5600   2.5600
     3.4373   3.4373   4.2098   4.2098   5.2309   5.2309   6.0106   6.0106
     6.2823   6.2823   6.6027   6.6027   6.8251   6.8251   7.1346   7.1346
     7.3373   7.3373   7.9543   7.9544

     the Fermi energy is     1.0189 ev

!    total energy              =   -1194.13158731 Ry
     Harris-Foulkes estimate   =   -1194.13158642 Ry
     estimated scf accuracy    <       0.00000055 Ry

     The total energy is the sum of the following terms:

     one-electron contribution =   -6835.73054025 Ry
     hartree contribution      =    3409.01108812 Ry
     xc contribution           =    -351.44183580 Ry
     ewald contribution        =    2584.09008631 Ry
     electric field correction =       0.00000000 Ry
     smearing contrib. (-TS)   =      -0.06038570 Ry

     convergence has been achieved in  16 iterations
 
 BEEF-vdW xc energy contributions
           1 :   -310.714119866989     
           2 :    287.212906933120     
           3 :   -245.821025144051     
           4 :    195.408297070131     
           5 :   -144.926086486465     
           6 :    100.926017324570     
           7 :   -66.5613619481431     
           8 :    41.9853651609634     
           9 :   -25.4935804827958     
          10 :    14.6989332370269     
          11 :   -7.36874876208731     
          12 :    1.89404433457617     
          13 :    2.51816605037959     
          14 :   -5.90601892144724     
          15 :    7.87364114864062     
          16 :   -8.08548086580197     
          17 :    6.69864256920926     
          18 :   -4.47532310034546     
          19 :    2.48924067057692     
          20 :   -1.60882099841785     
          21 :    2.08611118660542     
          22 :   -3.50016960323694     
          23 :    5.05856371998533     
          24 :   -6.04295181212785     
          25 :    6.12993993508144     
          26 :   -5.44357128059295     
          27 :    4.38113031764112     
          28 :   -3.36969859990023     
          29 :    2.69446768819984     
          30 :   -2.44351285931782     
          31 :   -27.2349108046631     
          32 :   -20.1237591971025     

     Forces acting on atoms (Ry/au):


     negative rho (up, down):  7.908E-01 0.000E+00
     atom    1 type  1   force =     0.00000017    0.00334564   -0.02436025
     atom    2 type  1   force =     0.00000035    0.00334605   -0.02436036
     atom    3 type  2   force =     0.00000010    0.00858178    0.04621010
     atom    4 type  2   force =    -0.00000111    0.00857227    0.04620196
     atom    5 type  1   force =    -0.00000002   -0.00001626   -0.00001229
     atom    6 type  1   force =     0.00000042   -0.00001680   -0.00001223
     atom    7 type  2   force =    -0.00000512   -0.00002288   -0.00007313
     atom    8 type  2   force =     0.00000293   -0.00002803   -0.00008513
     atom    9 type  1   force =     0.00000012   -0.00331979    0.02437676
     atom   10 type  1   force =     0.00000029   -0.00332003    0.02437635
     atom   11 type  2   force =     0.00000066   -0.00855839   -0.04612779
     atom   12 type  2   force =     0.00000120   -0.00856357   -0.04613398

     Total force =     0.106017     Total SCF correction =     0.002014


     entering subroutine stress ...


     negative rho (up, down):  7.908E-01 0.000E+00
          total   stress  (Ry/bohr**3)                   (kbar)     P=  -29.19
  -0.00025296   0.00000000  -0.00000000        -37.21      0.00     -0.00
   0.00000000  -0.00024097  -0.00004594          0.00    -35.45     -6.76
  -0.00000000  -0.00004594  -0.00010134         -0.00     -6.76    -14.91

 !ASE

     Writing output data file calc.save
 
     init_run     :     11.74s CPU     16.07s WALL (       1 calls)
     electrons    :    439.65s CPU    609.75s WALL (       1 calls)
     forces       :      4.56s CPU      5.25s WALL (       1 calls)
     stress       :     12.03s CPU     13.22s WALL (       1 calls)

     Called by init_run:
     wfcinit      :      8.64s CPU     12.31s WALL (       1 calls)
     potinit      :      1.65s CPU      2.20s WALL (       1 calls)

     Called by electrons:
     c_bands      :    306.59s CPU    422.97s WALL (      16 calls)
     sum_band     :     61.24s CPU     86.52s WALL (      16 calls)
     v_of_rho     :     20.17s CPU     29.90s WALL (      17 calls)
     newd         :     12.03s CPU     12.35s WALL (      17 calls)
     mix_rho      :      0.68s CPU      1.05s WALL (      16 calls)
     vdW_energy   :      2.56s CPU      2.77s WALL (      53 calls)
     vdW_ffts     :     40.59s CPU     60.56s WALL (     108 calls)
     vdW_v        :      6.80s CPU     10.34s WALL (      53 calls)

     Called by c_bands:
     init_us_2    :      0.71s CPU      0.74s WALL (     700 calls)
     cegterg      :    297.35s CPU    413.03s WALL (     320 calls)

     Called by *egterg:
     h_psi        :    230.30s CPU    339.65s WALL (    1395 calls)
     s_psi        :      7.36s CPU      7.43s WALL (    1395 calls)
     g_psi        :      0.38s CPU      0.37s WALL (    1055 calls)
     cdiaghg      :     35.61s CPU     37.17s WALL (    1375 calls)

     Called by h_psi:
     add_vuspsi   :      7.77s CPU      7.76s WALL (    1395 calls)

     General routines
     calbec       :     17.19s CPU     21.36s WALL (    1755 calls)
     fft          :     60.35s CPU     90.57s WALL (    3225 calls)
     ffts         :      0.18s CPU      0.29s WALL (      33 calls)
     fftw         :    246.72s CPU    375.84s WALL (  154420 calls)
     interpolate  :      0.81s CPU      1.16s WALL (      33 calls)
     davcio       :      0.00s CPU      0.02s WALL (      20 calls)
 
     Parallel routines
     fft_scatter  :    284.93s CPU    442.54s WALL (  157678 calls)
 
     PWSCF        :  7m48.86s CPU    10m45.70s WALL

 
   This run was terminated on:  18:10:20  18Dec2018            

=------------------------------------------------------------------------------=
   JOB DONE.
=------------------------------------------------------------------------------=
Job  /afs/slac/g/suncat/bin/suncat-tsmpirun -x LD_LIBRARY_PATH -wdir /scratch/qe529605_gE9TI pw.x -in pw.inp

TID   HOST_NAME   COMMAND_LINE            STATUS            TERMINATION_TIME
===== ========== ================  =======================  ===================
00000 suncat0024 pw.x -in pw.inp   Done                     12/18/2018 18:10:20
00001 suncat0024 pw.x -in pw.inp   Done                     12/18/2018 18:10:20
00002 suncat0024 pw.x -in pw.inp   Done                     12/18/2018 18:10:20
00003 suncat0024 pw.x -in pw.inp   Done                     12/18/2018 18:10:20
00004 suncat0024 pw.x -in pw.inp   Done                     12/18/2018 18:10:20
00005 suncat0024 pw.x -in pw.inp   Done                     12/18/2018 18:10:20
00006 suncat0024 pw.x -in pw.inp   Done                     12/18/2018 18:10:20
00007 suncat0024 pw.x -in pw.inp   Done                     12/18/2018 18:10:20
00008 suncat0023 pw.x -in pw.inp   Done                     12/18/2018 18:10:20
00009 suncat0023 pw.x -in pw.inp   Done                     12/18/2018 18:10:20
00010 suncat0023 pw.x -in pw.inp   Done                     12/18/2018 18:10:20
00011 suncat0023 pw.x -in pw.inp   Done                     12/18/2018 18:10:20
00012 suncat0023 pw.x -in pw.inp   Done                     12/18/2018 18:10:20
00013 suncat0023 pw.x -in pw.inp   Done                     12/18/2018 18:10:20
00014 suncat0023 pw.x -in pw.inp   Done                     12/18/2018 18:10:20
00015 suncat0023 pw.x -in pw.inp   Done                     12/18/2018 18:10:20
00016 suncat0022 pw.x -in pw.inp   Done                     12/18/2018 18:10:20
00017 suncat0022 pw.x -in pw.inp   Done                     12/18/2018 18:10:20
00018 suncat0022 pw.x -in pw.inp   Done                     12/18/2018 18:10:20
00019 suncat0022 pw.x -in pw.inp   Done                     12/18/2018 18:10:20
00020 suncat0022 pw.x -in pw.inp   Done                     12/18/2018 18:10:20
00021 suncat0022 pw.x -in pw.inp   Done                     12/18/2018 18:10:20
00022 suncat0022 pw.x -in pw.inp   Done                     12/18/2018 18:10:20
00023 suncat0022 pw.x -in pw.inp   Done                     12/18/2018 18:10:20
00024 suncat0021 pw.x -in pw.inp   Done                     12/18/2018 18:10:20
00025 suncat0021 pw.x -in pw.inp   Done                     12/18/2018 18:10:20
00026 suncat0021 pw.x -in pw.inp   Done                     12/18/2018 18:10:20
00027 suncat0021 pw.x -in pw.inp   Done                     12/18/2018 18:10:20
00028 suncat0021 pw.x -in pw.inp   Done                     12/18/2018 18:10:20
00029 suncat0021 pw.x -in pw.inp   Done                     12/18/2018 18:10:20
00030 suncat0021 pw.x -in pw.inp   Done                     12/18/2018 18:10:20
00031 suncat0021 pw.x -in pw.inp   Done                     12/18/2018 18:10:20

     Program PWSCF v.5.1rc2 (svn rev. 11289) starts on 18Dec2018 at 18:10:26 

     This program is part of the open-source Quantum ESPRESSO suite
     for quantum simulation of materials; please cite
         "P. Giannozzi et al., J. Phys.:Condens. Matter 21 395502 (2009);
          URL http://www.quantum-espresso.org", 
     in publications or presentations arising from this work. More details at
     http://www.quantum-espresso.org/quote

     Parallel version (MPI), running on    32 processors
     R & G space division:  proc/nbgrp/npool/nimage =      32
     Reading input from pw.inp
     Message from routine read_cards :
     DEPRECATED: no units specified in CELL_PARAMETERS card

     Current dimensions of program PWSCF are:
     Max number of different atomic species (ntypx) = 10
     Max number of k-points (npk) =  40000
     Max angular momentum in pseudopotentials (lmaxx) =  3
     Presently stress not available with electric field


     **************************************************************************
     Initializing libbeef V0.1.1 with the BEEF-vdW functional.
     Citation: Wellendorff et al., PRB 85, 235149 (2012).
     **************************************************************************


     IMPORTANT: XC functional enforced from input :
     Exchange-correlation      = BEEF-VDW ( 1  4 27 13 2)
     Any further DFT definition will be discarded
     Please, verify this is what you really want


     Subspace diagonalization in iterative solution of the eigenvalue problem:
     a serial algorithm will be used

     Found symmetry operation: I + ( -0.5000  0.0000  0.0000)
     This is a supercell, fractional translations are disabled
 
     Parallelization info
     --------------------
     sticks:   dense  smooth     PW     G-vecs:    dense   smooth      PW
     Min          85      34     10                16073     4048     658
     Max          86      35     11                16088     4084     676
     Sum        2733    1089    325               514551   130055   21495
 


     bravais-lattice index     =            0
     lattice parameter (alat)  =       1.8897  a.u.
     unit-cell volume          =    4324.3786 (a.u.)^3
     number of atoms/cell      =           12
     number of atomic types    =            2
     number of electrons       =       108.00
     number of Kohn-Sham states=           84
     kinetic-energy cutoff     =      36.7493  Ry
     charge density cutoff     =     367.4932  Ry
     convergence threshold     =      1.0E-06
     mixing beta               =       0.1000
     number of iterations used =           10  plain     mixing
     Exchange-correlation      = BEEF-VDW ( 1  4 27 13 2)
     nstep                     =           50


     celldm(1)=   1.889726  celldm(2)=   0.000000  celldm(3)=   0.000000
     celldm(4)=   0.000000  celldm(5)=   0.000000  celldm(6)=   0.000000

     crystal axes: (cart. coord. in units of alat)
               a(1) = (   5.447399   0.000000   0.000000 )  
               a(2) = (  -2.723699   4.803948   0.000000 )  
               a(3) = (   0.000000   0.000000  24.487228 )  

     reciprocal axes: (cart. coord. in units 2 pi/alat)
               b(1) = (  0.183574  0.104081  0.000000 )  
               b(2) = (  0.000000  0.208162  0.000000 )  
               b(3) = (  0.000000  0.000000  0.040838 )  


     PseudoPot. # 1 for Al read from file:
     /afs/slac.stanford.edu/u/if/mamunm/psp/gbrv1.5pbe/Al.UPF
     MD5 check sum: 0a6289f5291fc8f409219462bc851e1f
     Pseudo is Ultrasoft + core correction, Zval =  3.0
     Generated by new atomic code, or converted to UPF format
     Using radial grid of  893 points,  3 beta functions with: 
                l(1) =   0
                l(2) =   1
                l(3) =   2
     Q(r) pseudized with  8 coefficients,  rinner =    0.900   0.900   0.900
                                                       0.900   0.900

     PseudoPot. # 2 for Re read from file:
     /afs/slac.stanford.edu/u/if/mamunm/psp/gbrv1.5pbe/Re.UPF
     MD5 check sum: 85f993410f3e006da9d71c142b4ad953
     Pseudo is Ultrasoft + core correction, Zval = 15.0
     Generated by new atomic code, or converted to UPF format
     Using radial grid of  981 points,  8 beta functions with: 
                l(1) =   0
                l(2) =   0
                l(3) =   1
                l(4) =   1
                l(5) =   2
                l(6) =   2
                l(7) =   3
                l(8) =   3
     Q(r) pseudized with  8 coefficients,  rinner =    1.150   1.150   1.150
                                                       1.150   1.150   1.150
                                                       1.150

     vdW kernel table read from file vdW_kernel_table
     MD5 check sum: 095c7af220d748ca6e76c0b4c6cfb241

     atomic species   valence    mass     pseudopotential
        Al1            3.00    26.98154     Al( 1.00)
        Re1           15.00   186.20700     Re( 1.00)

     No symmetry found



   Cartesian axes

     site n.     atom                  positions (alat units)
         1           Al1 tau(   1) = (   0.0000000   0.0000000  10.0000000  )
         2           Al1 tau(   2) = (   2.7236993   0.0000000  10.0000000  )
         3           Re1 tau(   3) = (   1.3618497   2.4019742  10.0000000  )
         4           Re1 tau(   4) = (  -1.3618497   2.4019742  10.0000000  )
         5           Al1 tau(   5) = (   2.7236993   1.5442585  12.2436140  )
         6           Al1 tau(   6) = (   0.0000000   1.5442585  12.2436140  )
         7           Re1 tau(   7) = (  -1.3618497   3.9462326  12.2436140  )
         8           Re1 tau(   8) = (   1.3618497   3.9462326  12.2436140  )
         9           Al1 tau(   9) = (   0.0000003   3.0799815  14.5499031  )
        10           Al1 tau(  10) = (   2.7237001   3.0799808  14.5499021  )
        11           Re1 tau(  11) = (   4.0855507   0.6645383  14.3686286  )
        12           Re1 tau(  12) = (   1.3618527   0.6645250  14.3686127  )

     number of k points=    20  Fermi-Dirac smearing, width (Ry)=  0.0110
                       cart. coord. in units 2pi/alat
        k(    1) = (   0.0000000   0.0000000   0.0000000), wk =   0.0555556
        k(    2) = (   0.0000000   0.0346937   0.0000000), wk =   0.1111111
        k(    3) = (   0.0000000   0.0693874   0.0000000), wk =   0.1111111
        k(    4) = (   0.0000000  -0.1040811   0.0000000), wk =   0.0555556
        k(    5) = (   0.0305956   0.0173468   0.0000000), wk =   0.1111111
        k(    6) = (   0.0305956   0.0520405   0.0000000), wk =   0.1111111
        k(    7) = (   0.0305956   0.0867342   0.0000000), wk =   0.1111111
        k(    8) = (   0.0305956  -0.0867342   0.0000000), wk =   0.1111111
        k(    9) = (   0.0305956  -0.0520405   0.0000000), wk =   0.1111111
        k(   10) = (   0.0305956  -0.0173468   0.0000000), wk =   0.1111111
        k(   11) = (   0.0611913   0.0346937   0.0000000), wk =   0.1111111
        k(   12) = (   0.0611913   0.0693874   0.0000000), wk =   0.1111111
        k(   13) = (   0.0611913   0.1040811   0.0000000), wk =   0.1111111
        k(   14) = (   0.0611913  -0.0693874   0.0000000), wk =   0.1111111
        k(   15) = (   0.0611913  -0.0346937   0.0000000), wk =   0.1111111
        k(   16) = (   0.0611913   0.0000000   0.0000000), wk =   0.1111111
        k(   17) = (  -0.0917869  -0.0520405   0.0000000), wk =   0.0555556
        k(   18) = (  -0.0917869  -0.0173468   0.0000000), wk =   0.1111111
        k(   19) = (  -0.0917869   0.0173468   0.0000000), wk =   0.1111111
        k(   20) = (  -0.0917869  -0.1561216   0.0000000), wk =   0.0555556

     Dense  grid:   514551 G-vectors     FFT dimensions: (  64,  64, 288)

     Smooth grid:   130055 G-vectors     FFT dimensions: (  40,  45, 180)

     Largest allocated arrays     est. size (Mb)     dimensions
        Kohn-Sham Wavefunctions         0.70 Mb     (     547,   84)
        NL pseudopotentials             2.05 Mb     (     547,  246)
        Each V/rho on FFT grid          0.56 Mb     (   36864)
        Each G-vector array             0.12 Mb     (   16086)
        G-vector shells                 0.06 Mb     (    7768)
     Largest temporary arrays     est. size (Mb)     dimensions
        Auxiliary wavefunctions         2.80 Mb     (     547,  336)
        Each subspace H/S matrix        1.72 Mb     (     336,  336)
        Each <psi_i|beta_j> matrix      0.32 Mb     (     246,   84)
        Arrays for rho mixing           5.62 Mb     (   36864,   10)

     Initial potential from superposition of free atoms
     Check: negative starting charge=   -0.770389

     starting charge  104.98494, renormalised to  108.00000

     negative rho (up, down):  7.925E-01 0.000E+00


     ************************************************************************
     *
     * You are using vdW-DF for exchange-correlation in this calculation.
     * Please cite the following three references that made this development
     * possible:
     *
     *   M. Dion, H. Rydberg, E. Schroder, D. C. Langreth, and
     *   B. I. Lundqvist, Phys. Rev. Lett. 92, 246401 (2004).
     *
     *   T. Thonhauser, V. R. Cooper, S. Li, A. Puzder, P. Hyldgaard, and
     *   D. C. Langreth, Phys. Rev. B 76, 125112 (2007).
     *
     *   G. Roman-Perez and J. M. Soler, Phys. Rev. Lett. 103, 096102 (2009).
     *
     *
     * If you are using vdW-DF2, please also cite:
     *
     *   K. Lee, E. D. Murray, L. Kong, B. I. Lundqvist, and
     *   D. C. Langreth, Phys. Rev. B 82, 081101(R) (2010).
     *
     *
     * If you are calculating the stress with vdW-DF, please also cite:
     *
     *   R. Sabatini, E. Kucukbenli, B. Kolb, T. Thonhauser, and
     *   S. de Gironcoli, J. Phys.: Condens. Matter 24, 424209 (2012).
     *
     ************************************************************************

     Carrying out vdW-DF run using the following parameters:

     Nqs =      20    Nr_points =    1024   r_max =   100.000
     q_mesh =
               0.00001000     0.04494208     0.09755937     0.15916263
               0.23128650     0.31572767     0.41458969     0.53033537
               0.66584808     0.82450364     1.01025438     1.22772762
               1.48234092     1.78043706     2.12944203     2.53805004
               3.01644009     3.57652955     4.23227104     5.00000000

     Gradients computed in reciprocal space

     ************************************************************************


 
     Adding external electric field

     Computed dipole along edir(3) : 
        Dipole               -0.0573 Ry au,         -0.1456 Debye
        Dipole field         -0.0002 Ry au
 
        Potential amp.        0.0150 Ry
        Total length         45.1173 bohr
 
     Starting wfc are  102 randomized atomic wfcs

     total cpu time spent up to now is       15.8 secs

     per-process dynamical memory:    42.5 Mb

     Self-consistent Calculation

     iteration #  1     ecut=    36.75 Ry     beta=0.10
     Davidson diagonalization with overlap
     ethr =  1.00E-02,  avg # of iterations =  6.2

     negative rho (up, down):  7.961E-01 0.000E+00
 
     Adding external electric field

     Computed dipole along edir(3) : 
        Dipole                0.0875 Ry au,          0.2223 Debye
        Dipole field          0.0003 Ry au
 
        Potential amp.       -0.0229 Ry
        Total length         45.1173 bohr
 

     total cpu time spent up to now is       61.5 secs

     total energy              =   -1194.28313299 Ry
     Harris-Foulkes estimate   =   -1194.54655292 Ry
     estimated scf accuracy    <       1.71991061 Ry

     iteration #  2     ecut=    36.75 Ry     beta=0.10
     Davidson diagonalization with overlap
     ethr =  1.59E-03,  avg # of iterations =  2.5

     negative rho (up, down):  7.982E-01 0.000E+00
 
     Adding external electric field

     Computed dipole along edir(3) : 
        Dipole               -0.2440 Ry au,         -0.6201 Debye
        Dipole field         -0.0007 Ry au
 
        Potential amp.        0.0640 Ry
        Total length         45.1173 bohr
 

     total cpu time spent up to now is       92.7 secs

     total energy              =   -1194.22747429 Ry
     Harris-Foulkes estimate   =   -1194.35762557 Ry
     estimated scf accuracy    <       1.04955495 Ry

     iteration #  3     ecut=    36.75 Ry     beta=0.10
     Davidson diagonalization with overlap
     ethr =  9.72E-04,  avg # of iterations =  4.0

     negative rho (up, down):  7.998E-01 0.000E+00
 
     Adding external electric field

     Computed dipole along edir(3) : 
        Dipole                0.1070 Ry au,          0.2719 Debye
        Dipole field          0.0003 Ry au
 
        Potential amp.       -0.0281 Ry
        Total length         45.1173 bohr
 

     total cpu time spent up to now is      125.1 secs

     total energy              =   -1194.15114538 Ry
     Harris-Foulkes estimate   =   -1194.31387626 Ry
     estimated scf accuracy    <       2.51734025 Ry

     iteration #  4     ecut=    36.75 Ry     beta=0.10
     Davidson diagonalization with overlap
     ethr =  9.72E-04,  avg # of iterations =  2.8

     negative rho (up, down):  8.029E-01 0.000E+00
 
     Adding external electric field

     Computed dipole along edir(3) : 
        Dipole                0.0392 Ry au,          0.0998 Debye
        Dipole field          0.0001 Ry au
 
        Potential amp.       -0.0103 Ry
        Total length         45.1173 bohr
 

     total cpu time spent up to now is      156.5 secs

     total energy              =   -1194.13115762 Ry
     Harris-Foulkes estimate   =   -1194.23081920 Ry
     estimated scf accuracy    <       0.56476768 Ry

     iteration #  5     ecut=    36.75 Ry     beta=0.10
     Davidson diagonalization with overlap
     ethr =  5.23E-04,  avg # of iterations =  3.1

     negative rho (up, down):  7.993E-01 0.000E+00
 
     Adding external electric field

     Computed dipole along edir(3) : 
        Dipole                0.0533 Ry au,          0.1355 Debye
        Dipole field          0.0002 Ry au
 
        Potential amp.       -0.0140 Ry
        Total length         45.1173 bohr
 

     total cpu time spent up to now is      189.2 secs

     total energy              =   -1194.14332555 Ry
     Harris-Foulkes estimate   =   -1194.16847211 Ry
     estimated scf accuracy    <       0.08772358 Ry

     iteration #  6     ecut=    36.75 Ry     beta=0.10
     Davidson diagonalization with overlap
     ethr =  8.12E-05,  avg # of iterations =  6.0

     negative rho (up, down):  7.981E-01 0.000E+00
 
     Adding external electric field

     Computed dipole along edir(3) : 
        Dipole                0.0447 Ry au,          0.1137 Debye
        Dipole field          0.0001 Ry au
 
        Potential amp.       -0.0117 Ry
        Total length         45.1173 bohr
 

     total cpu time spent up to now is      224.1 secs

     total energy              =   -1194.14687266 Ry
     Harris-Foulkes estimate   =   -1194.15183518 Ry
     estimated scf accuracy    <       0.02745187 Ry

     iteration #  7     ecut=    36.75 Ry     beta=0.10
     Davidson diagonalization with overlap
     ethr =  2.54E-05,  avg # of iterations =  6.5

     negative rho (up, down):  7.962E-01 0.000E+00
 
     Adding external electric field

     Computed dipole along edir(3) : 
        Dipole                0.0584 Ry au,          0.1484 Debye
        Dipole field          0.0002 Ry au
 
        Potential amp.       -0.0153 Ry
        Total length         45.1173 bohr
 

     total cpu time spent up to now is      263.3 secs

     total energy              =   -1194.14922966 Ry
     Harris-Foulkes estimate   =   -1194.15170007 Ry
     estimated scf accuracy    <       0.00981886 Ry

     iteration #  8     ecut=    36.75 Ry     beta=0.10
     Davidson diagonalization with overlap
     ethr =  9.09E-06,  avg # of iterations =  2.5

     negative rho (up, down):  7.949E-01 0.000E+00
 
     Adding external electric field

     Computed dipole along edir(3) : 
        Dipole                0.0508 Ry au,          0.1291 Debye
        Dipole field          0.0001 Ry au
 
        Potential amp.       -0.0133 Ry
        Total length         45.1173 bohr
 

     total cpu time spent up to now is      294.1 secs

     total energy              =   -1194.14973748 Ry
     Harris-Foulkes estimate   =   -1194.15015165 Ry
     estimated scf accuracy    <       0.00232376 Ry

     iteration #  9     ecut=    36.75 Ry     beta=0.10
     Davidson diagonalization with overlap
     ethr =  2.15E-06,  avg # of iterations =  5.3

     negative rho (up, down):  7.947E-01 0.000E+00
 
     Adding external electric field

     Computed dipole along edir(3) : 
        Dipole                0.0495 Ry au,          0.1259 Debye
        Dipole field          0.0001 Ry au
 
        Potential amp.       -0.0130 Ry
        Total length         45.1173 bohr
 

     total cpu time spent up to now is      332.5 secs

     total energy              =   -1194.14992602 Ry
     Harris-Foulkes estimate   =   -1194.15026125 Ry
     estimated scf accuracy    <       0.00143459 Ry

     iteration # 10     ecut=    36.75 Ry     beta=0.10
     Davidson diagonalization with overlap
     ethr =  1.33E-06,  avg # of iterations =  2.1

     negative rho (up, down):  7.936E-01 0.000E+00
 
     Adding external electric field

     Computed dipole along edir(3) : 
        Dipole                0.0511 Ry au,          0.1300 Debye
        Dipole field          0.0001 Ry au
 
        Potential amp.       -0.0134 Ry
        Total length         45.1173 bohr
 

     total cpu time spent up to now is      367.3 secs

     total energy              =   -1194.14997995 Ry
     Harris-Foulkes estimate   =   -1194.15021665 Ry
     estimated scf accuracy    <       0.00055713 Ry

     iteration # 11     ecut=    36.75 Ry     beta=0.10
     Davidson diagonalization with overlap
     ethr =  5.16E-07,  avg # of iterations =  2.0

     negative rho (up, down):  7.937E-01 0.000E+00
 
     Adding external electric field

     Computed dipole along edir(3) : 
        Dipole                0.0518 Ry au,          0.1316 Debye
        Dipole field          0.0002 Ry au
 
        Potential amp.       -0.0136 Ry
        Total length         45.1173 bohr
 

     total cpu time spent up to now is      401.4 secs

     total energy              =   -1194.15010158 Ry
     Harris-Foulkes estimate   =   -1194.15023120 Ry
     estimated scf accuracy    <       0.00053133 Ry

     iteration # 12     ecut=    36.75 Ry     beta=0.10
     Davidson diagonalization with overlap
     ethr =  4.92E-07,  avg # of iterations =  1.3

     negative rho (up, down):  7.937E-01 0.000E+00
 
     Adding external electric field

     Computed dipole along edir(3) : 
        Dipole                0.0509 Ry au,          0.1295 Debye
        Dipole field          0.0001 Ry au
 
        Potential amp.       -0.0134 Ry
        Total length         45.1173 bohr
 

     total cpu time spent up to now is      428.8 secs

     total energy              =   -1194.15013627 Ry
     Harris-Foulkes estimate   =   -1194.15014899 Ry
     estimated scf accuracy    <       0.00004012 Ry

     iteration # 13     ecut=    36.75 Ry     beta=0.10
     Davidson diagonalization with overlap
     ethr =  3.72E-08,  avg # of iterations =  3.0

     negative rho (up, down):  7.935E-01 0.000E+00
 
     Adding external electric field

     Computed dipole along edir(3) : 
        Dipole                0.0512 Ry au,          0.1301 Debye
        Dipole field          0.0001 Ry au
 
        Potential amp.       -0.0134 Ry
        Total length         45.1173 bohr
 

     total cpu time spent up to now is      465.8 secs

     total energy              =   -1194.15014577 Ry
     Harris-Foulkes estimate   =   -1194.15014885 Ry
     estimated scf accuracy    <       0.00001638 Ry

     iteration # 14     ecut=    36.75 Ry     beta=0.10
     Davidson diagonalization with overlap
     ethr =  1.52E-08,  avg # of iterations =  1.6

     negative rho (up, down):  7.935E-01 0.000E+00
 
     Adding external electric field

     Computed dipole along edir(3) : 
        Dipole                0.0515 Ry au,          0.1310 Debye
        Dipole field          0.0001 Ry au
 
        Potential amp.       -0.0135 Ry
        Total length         45.1173 bohr
 

     total cpu time spent up to now is      495.9 secs

     total energy              =   -1194.15014719 Ry
     Harris-Foulkes estimate   =   -1194.15014720 Ry
     estimated scf accuracy    <       0.00000104 Ry

     iteration # 15     ecut=    36.75 Ry     beta=0.10
     Davidson diagonalization with overlap
     ethr =  9.65E-10,  avg # of iterations =  2.5

     negative rho (up, down):  7.931E-01 0.000E+00

     negative rho (up, down):  7.931E-01 0.000E+00

     negative rho (up, down):  7.931E-01 0.000E+00

     negative rho (up, down):  7.931E-01 0.000E+00

     negative rho (up, down):  7.931E-01 0.000E+00

     negative rho (up, down):  7.931E-01 0.000E+00

     negative rho (up, down):  7.931E-01 0.000E+00

     negative rho (up, down):  7.931E-01 0.000E+00

     negative rho (up, down):  7.931E-01 0.000E+00

     negative rho (up, down):  7.931E-01 0.000E+00

     negative rho (up, down):  7.931E-01 0.000E+00

     negative rho (up, down):  7.931E-01 0.000E+00

     negative rho (up, down):  7.931E-01 0.000E+00

     negative rho (up, down):  7.931E-01 0.000E+00

     negative rho (up, down):  7.931E-01 0.000E+00

     negative rho (up, down):  7.931E-01 0.000E+00

     negative rho (up, down):  7.931E-01 0.000E+00

     negative rho (up, down):  7.931E-01 0.000E+00

     negative rho (up, down):  7.931E-01 0.000E+00

     negative rho (up, down):  7.931E-01 0.000E+00

     negative rho (up, down):  7.931E-01 0.000E+00

     negative rho (up, down):  7.931E-01 0.000E+00

     negative rho (up, down):  7.931E-01 0.000E+00

     negative rho (up, down):  7.931E-01 0.000E+00

     negative rho (up, down):  7.931E-01 0.000E+00

     negative rho (up, down):  7.931E-01 0.000E+00

     negative rho (up, down):  7.931E-01 0.000E+00

     negative rho (up, down):  7.931E-01 0.000E+00

     negative rho (up, down):  7.931E-01 0.000E+00

     negative rho (up, down):  7.931E-01 0.000E+00

     negative rho (up, down):  7.931E-01 0.000E+00

     negative rho (up, down):  7.931E-01 0.000E+00

     negative rho (up, down):  7.931E-01 0.000E+00

     negative rho (up, down):  7.931E-01 0.000E+00

     negative rho (up, down):  7.931E-01 0.000E+00
 
     Adding external electric field

     Computed dipole along edir(3) : 
        Dipole                0.0517 Ry au,          0.1315 Debye
        Dipole field          0.0002 Ry au
 
        Potential amp.       -0.0136 Ry
        Total length         45.1173 bohr
 

     total cpu time spent up to now is      585.5 secs

     End of self-consistent calculation

          k = 0.0000 0.0000 0.0000 ( 16189 PWs)   bands (ev):

   -79.5829 -79.5404 -79.2204 -79.1780 -79.1688 -79.1265 -41.6097 -41.5180
   -41.4377 -41.2762 -41.2728 -41.2164 -41.2019 -40.9439 -40.9291 -40.8957
   -40.8724 -40.8685 -40.8222 -40.7995 -40.7390 -40.6744 -40.5985 -40.5448
    -9.2042  -7.2594  -5.8047  -5.3615  -4.6255  -4.0185  -3.8851  -3.4408
    -3.3273  -3.0896  -2.9669  -2.8149  -2.4765  -2.1129  -1.9560  -1.7870
    -1.3891  -1.3550  -1.0941  -0.7852  -0.3183  -0.2515  -0.0991  -0.0202
     0.1417   0.2959   0.5246   0.7709   1.0316   1.1237   1.1544   1.2074
     1.6635   1.8073   1.8217   1.8826   2.2638   2.3874   2.5060   2.6089
     3.5313   3.5745   4.0486   4.4891   4.6408   4.6442   4.7941   5.0756
     5.2470   5.6177   5.9579   6.0402   6.5525   7.1049   7.3318   7.4087
     7.6830   7.7823   7.8241   7.9873

          k = 0.0000 0.0347 0.0000 ( 16221 PWs)   bands (ev):

   -79.5829 -79.5404 -79.2204 -79.1780 -79.1688 -79.1265 -41.6098 -41.5184
   -41.4375 -41.2771 -41.2728 -41.2164 -41.2014 -40.9439 -40.9291 -40.8960
   -40.8724 -40.8686 -40.8221 -40.7996 -40.7391 -40.6745 -40.5985 -40.5448
    -8.9878  -7.0679  -5.6957  -5.2074  -4.5762  -4.5175  -3.9329  -3.8998
    -3.6793  -3.1399  -2.7421  -2.6605  -2.5860  -2.2397  -2.1559  -1.8995
    -1.7617  -1.6152  -1.0505  -0.5194  -0.4197  -0.2527  -0.2483  -0.1245
     0.1266   0.2368   0.5809   0.9357   0.9941   1.1129   1.1521   1.4555
     1.7198   1.7887   2.2816   2.4174   2.4915   2.5210   2.5424   2.5833
     3.5367   3.5774   4.2762   4.7780   4.8127   4.8869   5.0337   5.2238
     5.3944   5.8450   6.0932   6.4102   6.6712   6.7593   6.8462   7.2831
     7.3383   7.6374   7.8278   8.0670

          k = 0.0000 0.0694 0.0000 ( 16252 PWs)   bands (ev):

   -79.5829 -79.5404 -79.2204 -79.1780 -79.1688 -79.1265 -41.6100 -41.5189
   -41.4372 -41.2785 -41.2728 -41.2165 -41.2004 -40.9438 -40.9291 -40.8962
   -40.8720 -40.8690 -40.8220 -40.7998 -40.7390 -40.6748 -40.5986 -40.5448
    -8.3621  -6.6462  -6.0126  -4.7910  -4.7765  -4.5923  -4.4715  -4.3229
    -3.6854  -3.0671  -2.9752  -2.8162  -2.7869  -2.7037  -2.5959  -2.3043
    -1.9506  -1.6692  -1.3639  -1.1134  -0.9236  -0.4410  -0.3933   0.1347
     0.2776   0.5771   1.0587   1.0915   1.1003   1.2062   1.5193   1.5898
     1.6716   2.2512   2.4924   2.5583   2.9139   2.9208   3.1063   3.1310
     3.5475   4.1675   4.5506   4.6345   5.3659   5.4533   5.5657   5.6169
     5.8257   6.2762   6.3456   6.4089   6.4501   6.7870   6.9126   7.1530
     7.3035   7.3450   7.8273   7.8442

          k = 0.0000-0.1041 0.0000 ( 16288 PWs)   bands (ev):

   -79.5829 -79.5404 -79.2204 -79.1780 -79.1688 -79.1265 -41.6102 -41.5191
   -41.4372 -41.2792 -41.2728 -41.2166 -41.2000 -40.9437 -40.9291 -40.8964
   -40.8719 -40.8692 -40.8221 -40.7999 -40.7389 -40.6749 -40.5986 -40.5449
    -7.4984  -7.3110  -5.7226  -5.2605  -4.8246  -4.4302  -4.3174  -4.0225
    -3.8540  -3.4967  -3.1256  -3.0141  -2.8771  -2.7743  -2.7515  -2.4763
    -2.0032  -1.6392  -1.5720  -1.2787  -1.2614  -0.7181  -0.5367   0.3155
     0.5507   0.9772   0.9890   1.0809   1.2617   1.2929   1.5363   1.7010
     1.9004   2.2299   2.5203   2.5815   2.8738   2.9423   3.2349   3.5529
     4.5662   4.8478   4.8850   4.9548   5.1757   5.4009   5.7520   5.8021
     5.9007   6.0406   6.4172   6.6518   6.8861   6.9818   7.1067   7.1603
     7.1674   7.2893   7.2969   7.4802

          k = 0.0306 0.0173 0.0000 ( 16234 PWs)   bands (ev):

   -79.5801 -79.5432 -79.2176 -79.1808 -79.1660 -79.1293 -41.5659 -41.5128
   -41.4432 -41.2714 -41.2293 -41.2070 -41.1731 -40.9768 -40.9390 -40.8909
   -40.8736 -40.8676 -40.8271 -40.8044 -40.7348 -40.6788 -40.6456 -40.5917
    -8.9860  -7.0624  -5.6573  -5.5698  -4.6229  -4.4439  -3.8972  -3.2436
    -3.2047  -3.0747  -2.6759  -2.6595  -2.4276  -1.9948  -1.8877  -1.7935
    -1.6908  -1.3804  -0.9557  -0.7804  -0.5673  -0.5297  -0.2859  -0.1180
     0.0139   0.2284   0.3478   0.5010   0.7802   1.1156   1.2397   1.3177
     1.4074   1.5709   2.0076   2.1441   2.3644   2.4538   2.5460   2.9891
     3.2750   3.3983   4.3465   4.5529   4.8098   4.8706   4.9752   5.2842
     5.4744   5.6899   5.8244   6.2127   6.4790   6.7354   6.8544   7.4329
     7.5398   7.7633   7.7959   8.3534

          k = 0.0306 0.0520 0.0000 ( 16273 PWs)   bands (ev):

   -79.5801 -79.5432 -79.2176 -79.1808 -79.1660 -79.1293 -41.5661 -41.5133
   -41.4429 -41.2727 -41.2294 -41.2061 -41.1732 -40.9768 -40.9389 -40.8911
   -40.8739 -40.8674 -40.8270 -40.8046 -40.7348 -40.6790 -40.6457 -40.5917
    -8.5637  -6.7118  -5.6158  -5.6148  -4.6790  -4.6276  -4.3212  -3.8073
    -3.4232  -2.8975  -2.8483  -2.6682  -2.5530  -2.4413  -2.2079  -1.9733
    -1.7182  -1.7029  -1.1567  -0.8373  -0.6754  -0.4235  -0.2335  -0.1118
     0.1548   0.1956   0.6492   0.6536   1.2211   1.2616   1.3028   1.4080
     1.5017   1.8775   2.2649   2.3163   2.3787   2.4467   2.6234   3.2590
     3.4537   3.5204   4.6168   4.7287   4.9675   5.0044   5.4174   5.5350
     5.6122   5.8414   5.9818   6.2104   6.7370   6.8525   7.0721   7.1900
     7.3309   8.0827   8.1134   8.3368

          k = 0.0306 0.0867 0.0000 ( 16281 PWs)   bands (ev):

   -79.5801 -79.5432 -79.2176 -79.1808 -79.1660 -79.1293 -41.5663 -41.5137
   -41.4426 -41.2739 -41.2293 -41.2052 -41.1732 -40.9767 -40.9387 -40.8914
   -40.8741 -40.8671 -40.8270 -40.8047 -40.7347 -40.6791 -40.6457 -40.5917
    -7.7751  -6.7564  -5.7704  -5.7537  -4.8787  -4.6451  -4.0548  -4.0420
    -3.4739  -3.2819  -3.0657  -2.8327  -2.6580  -2.6256  -2.5864  -2.3340
    -1.8315  -1.7235  -1.4001  -1.2178  -0.8940  -0.4730  -0.4694   0.1591
     0.3660   0.3890   0.8918   0.9380   1.2174   1.2492   1.3902   1.4934
     1.7498   1.9132   2.0838   2.6246   2.7063   2.9947   3.2851   3.5328
     3.8032   4.3754   4.5863   4.7478   4.8921   5.1089   5.5683   5.7810
     5.8297   6.1188   6.3922   6.5288   6.8077   6.8660   7.1417   7.2469
     7.3870   7.6859   7.7150   7.7491

          k = 0.0306-0.0867 0.0000 ( 16281 PWs)   bands (ev):

   -79.5801 -79.5432 -79.2176 -79.1808 -79.1660 -79.1293 -41.5663 -41.5137
   -41.4426 -41.2739 -41.2293 -41.2052 -41.1732 -40.9767 -40.9387 -40.8914
   -40.8741 -40.8671 -40.8270 -40.8047 -40.7347 -40.6791 -40.6457 -40.5917
    -7.7751  -6.7564  -5.7704  -5.7537  -4.8787  -4.6451  -4.0548  -4.0420
    -3.4739  -3.2819  -3.0657  -2.8327  -2.6580  -2.6256  -2.5864  -2.3340
    -1.8315  -1.7235  -1.4001  -1.2178  -0.8940  -0.4730  -0.4694   0.1591
     0.3660   0.3890   0.8918   0.9380   1.2174   1.2492   1.3902   1.4934
     1.7498   1.9132   2.0838   2.6246   2.7063   2.9947   3.2851   3.5328
     3.8032   4.3754   4.5863   4.7478   4.8921   5.1089   5.5683   5.7810
     5.8297   6.1188   6.3922   6.5288   6.8077   6.8660   7.1417   7.2469
     7.3870   7.6859   7.7150   7.7491

          k = 0.0306-0.0520 0.0000 ( 16273 PWs)   bands (ev):

   -79.5801 -79.5432 -79.2176 -79.1808 -79.1660 -79.1293 -41.5661 -41.5133
   -41.4429 -41.2727 -41.2294 -41.2061 -41.1732 -40.9768 -40.9389 -40.8911
   -40.8739 -40.8674 -40.8270 -40.8046 -40.7348 -40.6790 -40.6457 -40.5917
    -8.5637  -6.7118  -5.6158  -5.6148  -4.6790  -4.6276  -4.3212  -3.8073
    -3.4232  -2.8975  -2.8483  -2.6682  -2.5530  -2.4413  -2.2079  -1.9733
    -1.7182  -1.7029  -1.1567  -0.8373  -0.6754  -0.4235  -0.2335  -0.1118
[...]
     3.8963   4.2949   4.7273   4.7594   4.7882   5.0635   5.5031   5.7619
     5.9349   6.0923   6.3259   6.4866   6.8039   6.8137   7.1327   7.2003
     7.4005   7.6233   7.6652   7.7658

          k = 0.0306-0.0867 0.0000 ( 16281 PWs)   bands (ev):

   -79.5477 -79.5109 -79.2026 -79.1659 -79.0964 -79.0597 -41.6035 -41.5317
   -41.5242 -41.2536 -41.1928 -41.1850 -41.1094 -40.9392 -40.9340 -40.8754
   -40.8332 -40.7977 -40.7683 -40.7356 -40.6286 -40.6110 -40.5743 -40.5276
    -7.7229  -6.6734  -5.7357  -5.7040  -4.8535  -4.5809  -4.0484  -4.0034
    -3.4393  -3.2614  -3.0801  -2.8273  -2.6892  -2.6226  -2.5093  -2.3908
    -1.8623  -1.7738  -1.3482  -1.1494  -0.9140  -0.5945  -0.4132   0.1312
     0.3161   0.4530   0.9046   0.9438   1.2330   1.4241   1.5596   1.5664
     1.8898   1.9685   2.1589   2.7130   2.7234   3.0905   3.4475   3.5444
     3.8963   4.2949   4.7273   4.7594   4.7882   5.0635   5.5031   5.7619
     5.9349   6.0923   6.3259   6.4866   6.8039   6.8137   7.1327   7.2003
     7.4005   7.6233   7.6652   7.7658

          k = 0.0306-0.0520 0.0000 ( 16273 PWs)   bands (ev):

   -79.5477 -79.5109 -79.2026 -79.1659 -79.0964 -79.0597 -41.6032 -41.5320
   -41.5240 -41.2523 -41.1928 -41.1858 -41.1094 -40.9395 -40.9340 -40.8751
   -40.8328 -40.7979 -40.7684 -40.7355 -40.6287 -40.6110 -40.5742 -40.5276
    -8.5072  -6.6754  -5.5789  -5.5424  -4.6353  -4.6072  -4.3029  -3.7245
    -3.4296  -2.8906  -2.8428  -2.6310  -2.6114  -2.4066  -2.1358  -1.9639
    -1.8092  -1.6956  -1.1510  -0.7940  -0.6467  -0.5085  -0.2465  -0.1056
     0.1917   0.2637   0.5528   0.7034   1.2946   1.3172   1.3783   1.4456
     1.6400   1.9275   2.2692   2.3462   2.5098   2.5492   2.7555   3.4065
     3.5535   3.5955   4.6277   4.7504   4.7963   5.0217   5.4301   5.4694
     5.5857   5.8394   5.9749   6.2002   6.6318   6.8268   7.0312   7.1652
     7.3411   8.0682   8.0930   8.3088

          k = 0.0306-0.0173 0.0000 ( 16234 PWs)   bands (ev):

   -79.5477 -79.5109 -79.2026 -79.1659 -79.0964 -79.0597 -41.6027 -41.5322
   -41.5238 -41.2510 -41.1928 -41.1867 -41.1093 -40.9398 -40.9340 -40.8748
   -40.8324 -40.7982 -40.7686 -40.7353 -40.6287 -40.6109 -40.5741 -40.5275
    -8.9305  -7.0290  -5.6161  -5.5487  -4.5653  -4.3934  -3.8768  -3.2194
    -3.1861  -3.0603  -2.7034  -2.6509  -2.3886  -1.9962  -1.8343  -1.6852
    -1.6493  -1.4063  -1.0036  -0.7738  -0.5726  -0.5367  -0.3912  -0.0889
     0.0641   0.2258   0.4247   0.5893   0.7098   1.1337   1.1989   1.3960
     1.4393   1.7260   2.1870   2.2202   2.4237   2.5632   2.6389   3.0176
     3.4177   3.4966   4.2671   4.5867   4.7030   4.9231   4.9881   5.2956
     5.4705   5.5307   5.7680   6.2072   6.4011   6.7255   6.8115   7.4354
     7.5268   7.7536   7.8739   8.3973

          k = 0.0612 0.0347 0.0000 ( 16266 PWs)   bands (ev):

   -79.5400 -79.5187 -79.1948 -79.1737 -79.0887 -79.0675 -41.5879 -41.5471
   -41.4030 -41.2376 -41.2005 -41.0733 -41.0626 -40.9899 -40.9261 -40.8886
   -40.8190 -40.7849 -40.7822 -40.7486 -40.7376 -40.6541 -40.6172 -40.5857
    -8.3054  -6.4806  -6.2989  -5.2245  -5.0972  -4.4499  -3.8409  -3.4526
    -2.9389  -2.8547  -2.4848  -2.2863  -2.2679  -1.7995  -1.6768  -1.5791
    -1.5789  -1.2836  -1.2202  -1.0577  -0.9641  -0.6488  -0.6005  -0.1652
    -0.1150   0.0793   0.2272   0.3429   0.6664   0.6862   1.2359   1.3129
     1.4371   1.6465   1.8773   2.0599   2.2613   2.2758   2.8204   2.9869
     3.0665   3.9198   4.0216   4.7216   4.9095   5.2098   5.6394   5.6887
     5.8346   5.9527   6.0326   6.3775   6.4468   6.5742   7.1261   7.3319
     7.4407   7.8070   7.8473   8.2230

          k = 0.0612 0.0694 0.0000 ( 16295 PWs)   bands (ev):

   -79.5399 -79.5187 -79.1948 -79.1737 -79.0887 -79.0675 -41.5883 -41.5468
   -41.4032 -41.2390 -41.1994 -41.0733 -41.0625 -40.9900 -40.9258 -40.8889
   -40.8194 -40.7847 -40.7820 -40.7488 -40.7377 -40.6542 -40.6171 -40.5859
    -7.7195  -6.6738  -6.1538  -5.3293  -5.1767  -4.3432  -4.2836  -3.5050
    -3.4442  -3.0236  -2.3811  -2.3482  -2.2725  -2.1131  -2.0454  -1.9783
    -1.7495  -1.3184  -1.1491  -0.9251  -0.9084  -0.6268  -0.3386  -0.2391
    -0.0747   0.3273   0.3779   0.6007   0.6856   1.0275   1.2363   1.3535
     1.4442   1.6546   1.9327   2.1845   2.2783   2.6920   2.7672   3.0907
     3.4463   3.8224   4.1108   4.3065   5.0392   5.0927   5.4297   5.7392
     5.9629   6.2195   6.4289   6.8046   6.9962   7.0237   7.3627   7.3740
     7.4978   7.6630   7.8338   7.9339

          k = 0.0612 0.1041 0.0000 ( 16308 PWs)   bands (ev):

   -79.5399 -79.5187 -79.1948 -79.1737 -79.0887 -79.0675 -41.5885 -41.5467
   -41.4033 -41.2397 -41.1989 -41.0733 -41.0625 -40.9900 -40.9256 -40.8891
   -40.8197 -40.7845 -40.7819 -40.7489 -40.7377 -40.6542 -40.6171 -40.5859
    -7.0416  -6.8252  -6.5755  -5.2493  -5.0137  -4.8159  -4.1849  -3.5991
    -3.3710  -2.8300  -2.6564  -2.5044  -2.3182  -2.2850  -2.1978  -2.0848
    -1.8108  -1.3357  -1.2461  -0.9753  -0.7572  -0.4154  -0.2639  -0.2627
     0.0291   0.2716   0.3954   0.4383   0.4801   0.9098   1.0854   1.5005
     1.7560   1.8527   1.9550   2.0109   2.5387   2.9371   3.1695   3.3659
     3.7436   4.0927   4.1935   4.5399   5.0171   5.2591   5.2724   5.4522
     6.1238   6.1350   6.2889   6.5082   6.5610   6.9570   7.1993   7.2278
     7.5976   7.6067   7.7368   7.9414

          k = 0.0612-0.0694 0.0000 ( 16295 PWs)   bands (ev):

   -79.5399 -79.5187 -79.1948 -79.1737 -79.0887 -79.0675 -41.5883 -41.5468
   -41.4032 -41.2390 -41.1994 -41.0733 -41.0625 -40.9900 -40.9258 -40.8889
   -40.8194 -40.7847 -40.7820 -40.7488 -40.7377 -40.6542 -40.6171 -40.5859
    -7.7195  -6.6738  -6.1538  -5.3293  -5.1767  -4.3432  -4.2836  -3.5050
    -3.4442  -3.0236  -2.3811  -2.3482  -2.2725  -2.1131  -2.0454  -1.9783
    -1.7495  -1.3184  -1.1491  -0.9251  -0.9084  -0.6268  -0.3386  -0.2391
    -0.0747   0.3273   0.3779   0.6007   0.6856   1.0275   1.2363   1.3535
     1.4442   1.6546   1.9327   2.1845   2.2783   2.6920   2.7672   3.0907
     3.4463   3.8224   4.1108   4.3065   5.0392   5.0927   5.4297   5.7392
     5.9628   6.2195   6.4289   6.8046   6.9962   7.0237   7.3627   7.3740
     7.4978   7.6629   7.8339   7.9339

          k = 0.0612-0.0347 0.0000 ( 16266 PWs)   bands (ev):

   -79.5400 -79.5187 -79.1948 -79.1737 -79.0887 -79.0675 -41.5879 -41.5471
   -41.4030 -41.2376 -41.2005 -41.0733 -41.0626 -40.9899 -40.9261 -40.8886
   -40.8190 -40.7849 -40.7822 -40.7486 -40.7376 -40.6541 -40.6172 -40.5857
    -8.3054  -6.4806  -6.2989  -5.2245  -5.0972  -4.4499  -3.8409  -3.4526
    -2.9389  -2.8547  -2.4848  -2.2863  -2.2679  -1.7995  -1.6768  -1.5791
    -1.5789  -1.2836  -1.2202  -1.0577  -0.9641  -0.6488  -0.6005  -0.1652
    -0.1150   0.0793   0.2271   0.3429   0.6664   0.6862   1.2359   1.3129
     1.4371   1.6465   1.8773   2.0599   2.2613   2.2758   2.8204   2.9869
     3.0665   3.9198   4.0216   4.7216   4.9095   5.2098   5.6394   5.6887
     5.8346   5.9527   6.0326   6.3775   6.4468   6.5742   7.1261   7.3319
     7.4407   7.8070   7.8473   8.2229

          k = 0.0612 0.0000 0.0000 ( 16268 PWs)   bands (ev):

   -79.5400 -79.5187 -79.1948 -79.1737 -79.0887 -79.0675 -41.5878 -41.5472
   -41.4029 -41.2370 -41.2010 -41.0733 -41.0626 -40.9899 -40.9263 -40.8884
   -40.8188 -40.7851 -40.7823 -40.7485 -40.7376 -40.6541 -40.6173 -40.5857
    -8.5115  -6.6524  -6.0341  -5.3197  -5.1676  -4.4690  -3.5861  -3.1385
    -2.9213  -2.6161  -2.2991  -2.2162  -2.1608  -1.7699  -1.7319  -1.6764
    -1.4952  -1.3035  -1.1030  -1.0586  -0.8312  -0.7608  -0.5316  -0.4687
    -0.3566  -0.1405   0.1659   0.1698   0.5199   0.6813   0.8782   1.2046
     1.4616   1.7333   1.8363   2.2920   2.4204   2.6002   2.9822   3.0375
     3.2587   3.6311   4.2297   4.5727   4.9737   5.2743   5.3024   5.5552
     5.7292   5.8402   5.9020   5.9787   6.2784   6.6602   7.0578   7.1409
     7.6146   7.6883   7.8415   8.0458

          k =-0.0918-0.0520 0.0000 ( 16260 PWs)   bands (ev):

   -79.5293 -79.5293 -79.1843 -79.1843 -79.0781 -79.0781 -41.5675 -41.5675
   -41.2347 -41.2347 -41.2191 -41.2191 -40.9089 -40.9089 -40.9057 -40.9057
   -40.8240 -40.8240 -40.8006 -40.8006 -40.7666 -40.7666 -40.6015 -40.6015
    -7.3633  -7.3633  -5.7438  -5.7438  -4.7565  -4.7565  -3.6817  -3.6817
    -2.9846  -2.9846  -2.1350  -2.1350  -1.8777  -1.8777  -1.5847  -1.5847
    -1.4736  -1.4736  -1.1950  -1.1950  -0.5928  -0.5928  -0.3242  -0.3241
    -0.0922  -0.0922   0.0869   0.0869   0.4332   0.4332   0.9936   0.9936
     1.5127   1.5127   1.9680   1.9680   2.1009   2.1009   2.6479   2.6480
     3.4587   3.4587   4.4050   4.4050   5.2122   5.2122   5.8272   5.8272
     6.2658   6.2658   6.6075   6.6075   6.8319   6.8320   7.2779   7.2779
     7.3631   7.3631   7.9053   7.9054

          k =-0.0918-0.0173 0.0000 ( 16289 PWs)   bands (ev):

   -79.5293 -79.5293 -79.1843 -79.1843 -79.0781 -79.0781 -41.5679 -41.5673
   -41.2348 -41.2345 -41.2202 -41.2181 -40.9091 -40.9088 -40.9059 -40.9056
   -40.8240 -40.8239 -40.8010 -40.8004 -40.7668 -40.7664 -40.6016 -40.6014
    -7.7267  -6.7570  -5.9773  -5.7865  -4.7905  -4.7023  -4.1124  -3.2220
    -2.9139  -2.7913  -2.1467  -2.0750  -1.9759  -1.8718  -1.7901  -1.7722
    -1.4546  -1.4036  -1.1579  -1.0411  -0.7630  -0.5309  -0.3849  -0.2283
    -0.1429  -0.0159   0.0604   0.0801   0.1815   0.3866   0.4817   0.8516
     1.4121   1.8654   1.8801   2.1182   2.1513   2.7166   2.7192   3.0309
     3.6421   3.6675   4.4062   4.5474   4.8248   5.4139   5.4728   5.8350
     5.9969   6.2413   6.4231   6.5460   6.7179   6.8298   6.9668   7.1931
     7.4073   7.4858   7.5930   7.8925

          k =-0.0918 0.0173 0.0000 ( 16289 PWs)   bands (ev):

   -79.5293 -79.5293 -79.1843 -79.1843 -79.0781 -79.0781 -41.5679 -41.5673
   -41.2348 -41.2345 -41.2202 -41.2181 -40.9091 -40.9088 -40.9059 -40.9056
   -40.8240 -40.8239 -40.8010 -40.8004 -40.7668 -40.7664 -40.6016 -40.6014
    -7.7267  -6.7570  -5.9773  -5.7865  -4.7905  -4.7023  -4.1124  -3.2220
    -2.9139  -2.7913  -2.1467  -2.0750  -1.9759  -1.8718  -1.7901  -1.7722
    -1.4546  -1.4036  -1.1579  -1.0411  -0.7630  -0.5309  -0.3849  -0.2283
    -0.1429  -0.0159   0.0604   0.0801   0.1815   0.3866   0.4817   0.8516
     1.4121   1.8654   1.8801   2.1182   2.1513   2.7166   2.7192   3.0309
     3.6421   3.6675   4.4062   4.5474   4.8248   5.4139   5.4728   5.8350
     5.9969   6.2413   6.4231   6.5460   6.7179   6.8298   6.9668   7.1931
     7.4073   7.4858   7.5932   7.8923

          k =-0.0918-0.1561 0.0000 ( 16260 PWs)   bands (ev):

   -79.5293 -79.5293 -79.1843 -79.1843 -79.0781 -79.0781 -41.5675 -41.5675
   -41.2347 -41.2347 -41.2191 -41.2191 -40.9089 -40.9089 -40.9057 -40.9057
   -40.8240 -40.8240 -40.8006 -40.8006 -40.7666 -40.7666 -40.6015 -40.6015
    -7.3633  -7.3633  -5.7438  -5.7438  -4.7565  -4.7565  -3.6817  -3.6817
    -2.9846  -2.9846  -2.1350  -2.1350  -1.8777  -1.8777  -1.5847  -1.5847
    -1.4736  -1.4736  -1.1950  -1.1950  -0.5928  -0.5928  -0.3242  -0.3241
    -0.0922  -0.0922   0.0869   0.0869   0.4332   0.4332   0.9935   0.9936
     1.5127   1.5127   1.9680   1.9680   2.1009   2.1009   2.6479   2.6480
     3.4587   3.4587   4.4050   4.4050   5.2122   5.2122   5.8272   5.8272
     6.2658   6.2658   6.6075   6.6075   6.8320   6.8320   7.2779   7.2779
     7.3631   7.3631   7.9053   7.9053

     the Fermi energy is     1.1383 ev

!    total energy              =   -1194.15932028 Ry
     Harris-Foulkes estimate   =   -1194.15932159 Ry
     estimated scf accuracy    <       0.00000046 Ry

     The total energy is the sum of the following terms:

     one-electron contribution =   -6935.62108650 Ry
     hartree contribution      =    3459.19525517 Ry
     xc contribution           =    -351.54364544 Ry
     ewald contribution        =    2633.86136211 Ry
     electric field correction =       0.00002041 Ry
     smearing contrib. (-TS)   =      -0.05122603 Ry

     convergence has been achieved in  15 iterations
 
 BEEF-vdW xc energy contributions
           1 :   -310.821495743899     
           2 :    287.361185830737     
           3 :   -246.022718945266     
           4 :    195.632861552492     
           5 :   -145.105565217431     
           6 :    100.981323308062     
           7 :   -66.4407750175548     
           8 :    41.6948371776993     
           9 :   -25.0984730259810     
          10 :    14.2936721120228     
          11 :   -7.03296236903026     
          12 :    1.66163690448076     
          13 :    2.66261613103580     
          14 :   -6.00883129683444     
          15 :    7.98825530133223     
          16 :   -8.25514594874033     
          17 :    6.94536151494441     
          18 :   -4.79103335934241     
          19 :    2.83175139242559     
          20 :   -1.91108635473245     
          21 :    2.28247696256830     
          22 :   -3.55939824565326     
          23 :    5.00329976578519     
          24 :   -5.94031568628105     
          25 :    6.05712980569029     
          26 :   -5.45000627160272     
          27 :    4.47017616813315     
          28 :   -3.50768238279392     
          29 :    2.83465995366709     
          30 :   -2.54641363721242     
          31 :   -27.2407770438045     
          32 :   -20.1379143452109     

     Forces acting on atoms (Ry/au):


     negative rho (up, down):  7.922E-01 0.000E+00
     atom    1 type  1   force =     0.00000006    0.00440287   -0.02854294
     atom    2 type  1   force =    -0.00000013    0.00440267   -0.02854284
     atom    3 type  2   force =    -0.00000320    0.00497919    0.04405341
     atom    4 type  2   force =     0.00000471    0.00498298    0.04405355
     atom    5 type  1   force =    -0.00000042    0.01337533   -0.01613557
     atom    6 type  1   force =     0.00000078    0.01337473   -0.01613478
     atom    7 type  2   force =    -0.00000477   -0.02197582    0.00340624
     atom    8 type  2   force =     0.00000236   -0.02197332    0.00340468
     atom    9 type  1   force =     0.00000145   -0.00039967   -0.00185944
     atom   10 type  1   force =     0.00000018   -0.00039874   -0.00185961
     atom   11 type  2   force =    -0.00000076   -0.00038424   -0.00091962
     atom   12 type  2   force =    -0.00000025   -0.00038597   -0.00092308

     Total force =     0.086463     Total SCF correction =     0.002424


     entering subroutine stress ...


     negative rho (up, down):  7.922E-01 0.000E+00
          total   stress  (Ry/bohr**3)                   (kbar)     P=  -22.71
  -0.00017178  -0.00000000   0.00000000        -25.27     -0.00      0.00
  -0.00000000  -0.00023830  -0.00002000         -0.00    -35.05     -2.94
   0.00000000  -0.00002000  -0.00005299          0.00     -2.94     -7.79

 !ASE

     Writing output data file calc.save
 
     init_run     :     10.24s CPU     14.61s WALL (       1 calls)
     electrons    :    399.62s CPU    573.09s WALL (       1 calls)
     forces       :      4.35s CPU      5.22s WALL (       1 calls)
     stress       :     12.19s CPU     13.65s WALL (       1 calls)

     Called by init_run:
     wfcinit      :      7.50s CPU     11.20s WALL (       1 calls)
     potinit      :      1.27s CPU      1.81s WALL (       1 calls)

     Called by electrons:
     c_bands      :    271.20s CPU    388.17s WALL (      15 calls)
     sum_band     :     56.97s CPU     82.52s WALL (      15 calls)
     v_of_rho     :     18.74s CPU     28.03s WALL (      16 calls)
     newd         :     11.30s CPU     11.59s WALL (      16 calls)
     mix_rho      :      0.69s CPU      1.01s WALL (      15 calls)
     vdW_energy   :      2.27s CPU      2.50s WALL (      52 calls)
     vdW_ffts     :     40.26s CPU     62.58s WALL (     106 calls)
     vdW_v        :      7.01s CPU     10.18s WALL (      52 calls)

     Called by c_bands:
     init_us_2    :      0.74s CPU      0.79s WALL (     660 calls)
     cegterg      :    262.75s CPU    378.83s WALL (     300 calls)

     Called by *egterg:
     h_psi        :    201.49s CPU    311.68s WALL (    1273 calls)
     s_psi        :      7.03s CPU      7.08s WALL (    1273 calls)
     g_psi        :      0.35s CPU      0.34s WALL (     953 calls)
     cdiaghg      :     31.32s CPU     32.63s WALL (    1253 calls)

     Called by h_psi:
     add_vuspsi   :      7.41s CPU      7.43s WALL (    1273 calls)

     General routines
     calbec       :     16.17s CPU     20.00s WALL (    1613 calls)
     fft          :     60.17s CPU     93.46s WALL (    3159 calls)
     ffts         :      0.15s CPU      0.24s WALL (      31 calls)
     fftw         :    216.65s CPU    346.73s WALL (  142200 calls)
     interpolate  :      0.64s CPU      0.99s WALL (      31 calls)
     davcio       :      0.00s CPU      0.02s WALL (      20 calls)
 
     Parallel routines
     fft_scatter  :    256.07s CPU    417.66s WALL (  145390 calls)
 
     PWSCF        :  7m 7.23s CPU    10m 7.96s WALL

 
   This run was terminated on:  19:11:36  18Dec2018            

=------------------------------------------------------------------------------=
   JOB DONE.
=------------------------------------------------------------------------------=
Job  /afs/slac/g/suncat/bin/suncat-tsmpirun -x LD_LIBRARY_PATH -wdir /scratch/qe529605_gE9TI pw.x -in pw.inp

TID   HOST_NAME   COMMAND_LINE            STATUS            TERMINATION_TIME
===== ========== ================  =======================  ===================
00000 suncat0024 pw.x -in pw.inp   Done                     12/18/2018 19:11:36
00001 suncat0024 pw.x -in pw.inp   Done                     12/18/2018 19:11:36
00002 suncat0024 pw.x -in pw.inp   Done                     12/18/2018 19:11:36
00003 suncat0024 pw.x -in pw.inp   Done                     12/18/2018 19:11:36
00004 suncat0024 pw.x -in pw.inp   Done                     12/18/2018 19:11:36
00005 suncat0024 pw.x -in pw.inp   Done                     12/18/2018 19:11:36
00006 suncat0024 pw.x -in pw.inp   Done                     12/18/2018 19:11:36
00007 suncat0024 pw.x -in pw.inp   Done                     12/18/2018 19:11:36
00008 suncat0023 pw.x -in pw.inp   Done                     12/18/2018 19:11:36
00009 suncat0023 pw.x -in pw.inp   Done                     12/18/2018 19:11:36
00010 suncat0023 pw.x -in pw.inp   Done                     12/18/2018 19:11:36
00011 suncat0023 pw.x -in pw.inp   Done                     12/18/2018 19:11:36
00012 suncat0023 pw.x -in pw.inp   Done                     12/18/2018 19:11:36
00013 suncat0023 pw.x -in pw.inp   Done                     12/18/2018 19:11:36
00014 suncat0023 pw.x -in pw.inp   Done                     12/18/2018 19:11:36
00015 suncat0023 pw.x -in pw.inp   Done                     12/18/2018 19:11:36
00016 suncat0022 pw.x -in pw.inp   Done                     12/18/2018 19:11:36
00017 suncat0022 pw.x -in pw.inp   Done                     12/18/2018 19:11:36
00018 suncat0022 pw.x -in pw.inp   Done                     12/18/2018 19:11:36
00019 suncat0022 pw.x -in pw.inp   Done                     12/18/2018 19:11:36
00020 suncat0022 pw.x -in pw.inp   Done                     12/18/2018 19:11:36
00021 suncat0022 pw.x -in pw.inp   Done                     12/18/2018 19:11:36
00022 suncat0022 pw.x -in pw.inp   Done                     12/18/2018 19:11:36
00023 suncat0022 pw.x -in pw.inp   Done                     12/18/2018 19:11:36
00024 suncat0021 pw.x -in pw.inp   Done                     12/18/2018 19:11:36
00025 suncat0021 pw.x -in pw.inp   Done                     12/18/2018 19:11:36
00026 suncat0021 pw.x -in pw.inp   Done                     12/18/2018 19:11:36
00027 suncat0021 pw.x -in pw.inp   Done                     12/18/2018 19:11:36
00028 suncat0021 pw.x -in pw.inp   Done                     12/18/2018 19:11:36
00029 suncat0021 pw.x -in pw.inp   Done                     12/18/2018 19:11:36
00030 suncat0021 pw.x -in pw.inp   Done                     12/18/2018 19:11:36
00031 suncat0021 pw.x -in pw.inp   Done                     12/18/2018 19:11:36
