  python dir          : /u/if/mamunm/src/espresso
  espresso dir        : /nfs/slac/g/suncatfs/sw/espv18/espresso-dynpy-beef/bin
  pseudo dir          : /afs/slac.stanford.edu/u/if/mamunm/psp/gbrv1.5pbe
  ase-espresso py git : GITVERSION



     Program PWSCF v.5.1rc2 (svn rev. 11289) starts on 25Dec2018 at  4:44:22 

     This program is part of the open-source Quantum ESPRESSO suite
     for quantum simulation of materials; please cite
         "P. Giannozzi et al., J. Phys.:Condens. Matter 21 395502 (2009);
          URL http://www.quantum-espresso.org", 
     in publications or presentations arising from this work. More details at
     http://www.quantum-espresso.org/quote

     Parallel version (MPI), running on    64 processors
     R & G space division:  proc/nbgrp/npool/nimage =      64
     Reading input from pw.inp
     Message from routine read_cards :
     DEPRECATED: no units specified in CELL_PARAMETERS card

     Current dimensions of program PWSCF are:
     Max number of different atomic species (ntypx) = 10
     Max number of k-points (npk) =  40000
     Max angular momentum in pseudopotentials (lmaxx) =  3
     Presently stress not available with electric field


     **************************************************************************
     Initializing libbeef V0.1.1 with the BEEF-vdW functional.
     Citation: Wellendorff et al., PRB 85, 235149 (2012).
     **************************************************************************


     IMPORTANT: XC functional enforced from input :
     Exchange-correlation      = BEEF-VDW ( 1  4 27 13 2)
     Any further DFT definition will be discarded
     Please, verify this is what you really want


     Subspace diagonalization in iterative solution of the eigenvalue problem:
     a serial algorithm will be used

     Found symmetry operation: I + ( -0.5000 -0.5000  0.0000)
     This is a supercell, fractional translations are disabled
 
     Parallelization info
     --------------------
     sticks:   dense  smooth     PW     G-vecs:    dense   smooth      PW
     Min          60      23      6                11626     2918     428
     Max          61      24      7                11640     2960     457
     Sum        3849    1527    437               744547   188077   28453
 


     bravais-lattice index     =            0
     lattice parameter (alat)  =       1.8897  a.u.
     unit-cell volume          =    6257.6182 (a.u.)^3
     number of atoms/cell      =           12
     number of atomic types    =            2
     number of electrons       =       192.00
     number of Kohn-Sham states=          126
     kinetic-energy cutoff     =      36.7493  Ry
     charge density cutoff     =     367.4932  Ry
     convergence threshold     =      1.0E-06
     mixing beta               =       0.1000
     number of iterations used =           10  plain     mixing
     Exchange-correlation      = BEEF-VDW ( 1  4 27 13 2)
     nstep                     =           50


     celldm(1)=   1.889726  celldm(2)=   0.000000  celldm(3)=   0.000000
     celldm(4)=   0.000000  celldm(5)=   0.000000  celldm(6)=   0.000000

     crystal axes: (cart. coord. in units of alat)
               a(1) = (   6.294938   0.000000   0.000000 )  
               a(2) = (   2.332247   5.846954   0.000000 )  
               a(3) = (   0.000000   0.000000  25.193661 )  

     reciprocal axes: (cart. coord. in units 2 pi/alat)
               b(1) = (  0.158858 -0.063366  0.000000 )  
               b(2) = (  0.000000  0.171029  0.000000 )  
               b(3) = (  0.000000  0.000000  0.039693 )  


     PseudoPot. # 1 for Zn read from file:
     /afs/slac.stanford.edu/u/if/mamunm/psp/gbrv1.5pbe/Zn.UPF
     MD5 check sum: df62231357ef9e81f77b2b3087fa5675
     Pseudo is Ultrasoft, Zval = 20.0
     Generated by new atomic code, or converted to UPF format
     Using radial grid of  943 points,  6 beta functions with: 
                l(1) =   0
                l(2) =   0
                l(3) =   1
                l(4) =   1
                l(5) =   2
                l(6) =   2
     Q(r) pseudized with  8 coefficients,  rinner =    1.100   1.100   1.100
                                                       1.100   1.100

     PseudoPot. # 2 for Hg read from file:
     /afs/slac.stanford.edu/u/if/mamunm/psp/gbrv1.5pbe/Hg.UPF
     MD5 check sum: 8f42caffe07f7fd9c0a564347f8c5498
     Pseudo is Ultrasoft + core correction, Zval = 12.0
     Generated by new atomic code, or converted to UPF format
     Using radial grid of  985 points,  6 beta functions with: 
                l(1) =   0
                l(2) =   0
                l(3) =   1
                l(4) =   1
                l(5) =   2
                l(6) =   2
     Q(r) pseudized with  8 coefficients,  rinner =    2.000   2.000   2.000
                                                       2.000   2.000

     vdW kernel table read from file vdW_kernel_table
     MD5 check sum: 095c7af220d748ca6e76c0b4c6cfb241

     atomic species   valence    mass     pseudopotential
        Zn1           20.00    65.38000     Zn( 1.00)
        Hg1           12.00   200.59200     Hg( 1.00)

     No symmetry found



   Cartesian axes

     site n.     atom                  positions (alat units)
         1           Zn1 tau(   1) = (   0.0000000   0.0000000  10.0000000  )
         2           Zn1 tau(   2) = (   4.3135929   2.9234771  10.0000000  )
         3           Hg1 tau(   3) = (   3.1474692   0.0000000  10.0000000  )
         4           Hg1 tau(   4) = (   1.1661236   2.9234771  10.0000000  )
         5           Zn1 tau(   5) = (   6.2949385   4.2663064  12.5968304  )
         6           Zn1 tau(   6) = (   1.9813456   1.3428292  12.5968304  )
         7           Hg1 tau(   7) = (   3.1474692   4.2663064  12.5968304  )
         8           Hg1 tau(   8) = (   5.1288149   1.3428292  12.5968304  )
         9           Zn1 tau(   9) = (   3.9626913   2.6856585  15.1936608  )
        10           Zn1 tau(  10) = (   8.2762841   5.6091356  15.1936608  )
        11           Hg1 tau(  11) = (   7.1101605   2.6856585  15.1936608  )
        12           Hg1 tau(  12) = (   5.1288149   5.6091356  15.1936608  )

     number of k points=    20  Fermi-Dirac smearing, width (Ry)=  0.0110
                       cart. coord. in units 2pi/alat
        k(    1) = (   0.0000000   0.0000000   0.0000000), wk =   0.0555556
        k(    2) = (   0.0000000   0.0285049   0.0000000), wk =   0.1111111
        k(    3) = (   0.0000000   0.0570097   0.0000000), wk =   0.1111111
        k(    4) = (   0.0000000  -0.0855146   0.0000000), wk =   0.0555556
        k(    5) = (   0.0264763  -0.0105609   0.0000000), wk =   0.1111111
        k(    6) = (   0.0264763   0.0179439   0.0000000), wk =   0.1111111
        k(    7) = (   0.0264763   0.0464488   0.0000000), wk =   0.1111111
        k(    8) = (   0.0264763  -0.0960755   0.0000000), wk =   0.1111111
        k(    9) = (   0.0264763  -0.0675707   0.0000000), wk =   0.1111111
        k(   10) = (   0.0264763  -0.0390658   0.0000000), wk =   0.1111111
        k(   11) = (   0.0529526  -0.0211219   0.0000000), wk =   0.1111111
        k(   12) = (   0.0529526   0.0073830   0.0000000), wk =   0.1111111
        k(   13) = (   0.0529526   0.0358879   0.0000000), wk =   0.1111111
        k(   14) = (   0.0529526  -0.1066365   0.0000000), wk =   0.1111111
        k(   15) = (   0.0529526  -0.0781316   0.0000000), wk =   0.1111111
        k(   16) = (   0.0529526  -0.0496267   0.0000000), wk =   0.1111111
        k(   17) = (  -0.0794289   0.0316828   0.0000000), wk =   0.0555556
        k(   18) = (  -0.0794289   0.0601877   0.0000000), wk =   0.1111111
        k(   19) = (  -0.0794289   0.0886925   0.0000000), wk =   0.1111111
        k(   20) = (  -0.0794289  -0.0538318   0.0000000), wk =   0.0555556

     Dense  grid:   744547 G-vectors     FFT dimensions: (  75,  75, 300)

     Smooth grid:   188077 G-vectors     FFT dimensions: (  45,  45, 192)

     Largest allocated arrays     est. size (Mb)     dimensions
        Kohn-Sham Wavefunctions         0.75 Mb     (     388,  126)
        NL pseudopotentials             1.28 Mb     (     388,  216)
        Each V/rho on FFT grid          0.43 Mb     (   28125)
        Each G-vector array             0.09 Mb     (   11640)
        G-vector shells                 0.04 Mb     (    5710)
     Largest temporary arrays     est. size (Mb)     dimensions
        Auxiliary wavefunctions         2.98 Mb     (     388,  504)
        Each subspace H/S matrix        3.88 Mb     (     504,  504)
        Each <psi_i|beta_j> matrix      0.42 Mb     (     216,  126)
        Arrays for rho mixing           4.29 Mb     (   28125,   10)

     Initial potential from superposition of free atoms
     Check: negative starting charge=   -0.000720

     starting charge  191.99880, renormalised to  192.00000

     negative rho (up, down):  7.203E-04 0.000E+00


     ************************************************************************
     *
     * You are using vdW-DF for exchange-correlation in this calculation.
     * Please cite the following three references that made this development
     * possible:
     *
     *   M. Dion, H. Rydberg, E. Schroder, D. C. Langreth, and
     *   B. I. Lundqvist, Phys. Rev. Lett. 92, 246401 (2004).
     *
     *   T. Thonhauser, V. R. Cooper, S. Li, A. Puzder, P. Hyldgaard, and
     *   D. C. Langreth, Phys. Rev. B 76, 125112 (2007).
     *
     *   G. Roman-Perez and J. M. Soler, Phys. Rev. Lett. 103, 096102 (2009).
     *
     *
     * If you are using vdW-DF2, please also cite:
     *
     *   K. Lee, E. D. Murray, L. Kong, B. I. Lundqvist, and
     *   D. C. Langreth, Phys. Rev. B 82, 081101(R) (2010).
     *
     *
     * If you are calculating the stress with vdW-DF, please also cite:
     *
     *   R. Sabatini, E. Kucukbenli, B. Kolb, T. Thonhauser, and
     *   S. de Gironcoli, J. Phys.: Condens. Matter 24, 424209 (2012).
     *
     ************************************************************************

     Carrying out vdW-DF run using the following parameters:

     Nqs =      20    Nr_points =    1024   r_max =   100.000
     q_mesh =
               0.00001000     0.04494208     0.09755937     0.15916263
               0.23128650     0.31572767     0.41458969     0.53033537
               0.66584808     0.82450364     1.01025438     1.22772762
               1.48234092     1.78043706     2.12944203     2.53805004
               3.01644009     3.57652955     4.23227104     5.00000000

     Gradients computed in reciprocal space

     ************************************************************************


 
     Adding external electric field

     Computed dipole along edir(3) : 
        Dipole               -0.0000 Ry au,         -0.0000 Debye
        Dipole field         -0.0000 Ry au
 
        Potential amp.        0.0000 Ry
        Total length         46.4189 bohr
 
     Starting wfc are  132 randomized atomic wfcs

     total cpu time spent up to now is       29.9 secs

     per-process dynamical memory:    44.2 Mb

     Self-consistent Calculation

     iteration #  1     ecut=    36.75 Ry     beta=0.10
     Davidson diagonalization with overlap
     ethr =  1.00E-02,  avg # of iterations =  8.4

     Threshold (ethr) on eigenvalues was too large:
     Diagonalizing with lowered threshold

     Davidson diagonalization with overlap
     ethr =  1.68E-05,  avg # of iterations = 10.1

     negative rho (up, down):  7.244E-04 0.000E+00
 
     Adding external electric field

     Computed dipole along edir(3) : 
        Dipole               -0.0000 Ry au,         -0.0000 Debye
        Dipole field         -0.0000 Ry au
 
        Potential amp.        0.0000 Ry
        Total length         46.4189 bohr
 

     total cpu time spent up to now is      258.5 secs

     total energy              =   -3431.16611173 Ry
     Harris-Foulkes estimate   =   -3431.16890579 Ry
     estimated scf accuracy    <       0.02841768 Ry

     iteration #  2     ecut=    36.75 Ry     beta=0.10
     Davidson diagonalization with overlap
     ethr =  1.48E-05,  avg # of iterations =  1.0

     negative rho (up, down):  8.278E-04 0.000E+00
 
     Adding external electric field

     Computed dipole along edir(3) : 
        Dipole                0.0000 Ry au,          0.0000 Debye
        Dipole field          0.0000 Ry au
 
        Potential amp.       -0.0000 Ry
        Total length         46.4189 bohr
 

     total cpu time spent up to now is      321.2 secs

     total energy              =   -3431.16164555 Ry
     Harris-Foulkes estimate   =   -3431.16639775 Ry
     estimated scf accuracy    <       0.01926242 Ry

     iteration #  3     ecut=    36.75 Ry     beta=0.10
     Davidson diagonalization with overlap
     ethr =  1.00E-05,  avg # of iterations =  2.8

     negative rho (up, down):  1.100E-03 0.000E+00
 
     Adding external electric field

     Computed dipole along edir(3) : 
        Dipole               -0.0000 Ry au,         -0.0001 Debye
        Dipole field         -0.0000 Ry au
 
        Potential amp.        0.0000 Ry
        Total length         46.4189 bohr
 

     total cpu time spent up to now is      387.7 secs

     total energy              =   -3431.16163316 Ry
     Harris-Foulkes estimate   =   -3431.16285145 Ry
     estimated scf accuracy    <       0.00659603 Ry

     iteration #  4     ecut=    36.75 Ry     beta=0.10
     Davidson diagonalization with overlap
     ethr =  3.44E-06,  avg # of iterations =  3.0

     negative rho (up, down):  1.264E-03 0.000E+00
 
     Adding external electric field

     Computed dipole along edir(3) : 
        Dipole                0.0001 Ry au,          0.0002 Debye
        Dipole field          0.0000 Ry au
 
        Potential amp.       -0.0000 Ry
        Total length         46.4189 bohr
 

     total cpu time spent up to now is      456.6 secs

     total energy              =   -3431.16168906 Ry
     Harris-Foulkes estimate   =   -3431.16193917 Ry
     estimated scf accuracy    <       0.00170454 Ry

     iteration #  5     ecut=    36.75 Ry     beta=0.10
     Davidson diagonalization with overlap
     ethr =  8.88E-07,  avg # of iterations =  3.8

     negative rho (up, down):  1.275E-03 0.000E+00
 
     Adding external electric field

     Computed dipole along edir(3) : 
        Dipole               -0.0001 Ry au,         -0.0004 Debye
        Dipole field         -0.0000 Ry au
 
        Potential amp.        0.0000 Ry
        Total length         46.4189 bohr
 

     total cpu time spent up to now is      519.2 secs

     total energy              =   -3431.16179692 Ry
     Harris-Foulkes estimate   =   -3431.16178994 Ry
     estimated scf accuracy    <       0.00022860 Ry

     iteration #  6     ecut=    36.75 Ry     beta=0.10
     Davidson diagonalization with overlap
     ethr =  1.19E-07,  avg # of iterations =  2.2

     negative rho (up, down):  1.202E-03 0.000E+00
 
     Adding external electric field

     Computed dipole along edir(3) : 
        Dipole                0.0007 Ry au,          0.0017 Debye
        Dipole field          0.0000 Ry au
 
        Potential amp.       -0.0001 Ry
        Total length         46.4189 bohr
 

     total cpu time spent up to now is      586.6 secs

     total energy              =   -3431.16182605 Ry
     Harris-Foulkes estimate   =   -3431.16182544 Ry
     estimated scf accuracy    <       0.00004618 Ry

     iteration #  7     ecut=    36.75 Ry     beta=0.10
     Davidson diagonalization with overlap
     ethr =  2.41E-08,  avg # of iterations =  2.0

     negative rho (up, down):  1.152E-03 0.000E+00
 
     Adding external electric field

     Computed dipole along edir(3) : 
        Dipole               -0.0006 Ry au,         -0.0016 Debye
        Dipole field         -0.0000 Ry au
 
        Potential amp.        0.0001 Ry
        Total length         46.4189 bohr
 

     total cpu time spent up to now is      657.0 secs

     total energy              =   -3431.16184044 Ry
     Harris-Foulkes estimate   =   -3431.16183098 Ry
     estimated scf accuracy    <       0.00001445 Ry

     iteration #  8     ecut=    36.75 Ry     beta=0.10
     Davidson diagonalization with overlap
     ethr =  7.52E-09,  avg # of iterations =  2.0

     negative rho (up, down):  1.092E-03 0.000E+00
 
     Adding external electric field

     Computed dipole along edir(3) : 
        Dipole                0.0001 Ry au,          0.0002 Debye
        Dipole field          0.0000 Ry au
 
        Potential amp.       -0.0000 Ry
        Total length         46.4189 bohr
 

     total cpu time spent up to now is      727.0 secs

     total energy              =   -3431.16184615 Ry
     Harris-Foulkes estimate   =   -3431.16184241 Ry
     estimated scf accuracy    <       0.00000386 Ry

     iteration #  9     ecut=    36.75 Ry     beta=0.10
     Davidson diagonalization with overlap
     ethr =  2.01E-09,  avg # of iterations =  1.5

     negative rho (up, down):  1.044E-03 0.000E+00
 
     Adding external electric field

     Computed dipole along edir(3) : 
        Dipole               -0.0000 Ry au,         -0.0000 Debye
        Dipole field         -0.0000 Ry au
 
        Potential amp.        0.0000 Ry
        Total length         46.4189 bohr
 

     total cpu time spent up to now is      791.7 secs

     total energy              =   -3431.16185052 Ry
     Harris-Foulkes estimate   =   -3431.16184629 Ry
     estimated scf accuracy    <       0.00000211 Ry

     iteration # 10     ecut=    36.75 Ry     beta=0.10
     Davidson diagonalization with overlap
     ethr =  1.10E-09,  avg # of iterations =  2.1

     negative rho (up, down):  8.175E-04 0.000E+00

     negative rho (up, down):  8.175E-04 0.000E+00

     negative rho (up, down):  8.175E-04 0.000E+00

     negative rho (up, down):  8.175E-04 0.000E+00

     negative rho (up, down):  8.175E-04 0.000E+00

     negative rho (up, down):  8.175E-04 0.000E+00

     negative rho (up, down):  8.175E-04 0.000E+00

     negative rho (up, down):  8.175E-04 0.000E+00

     negative rho (up, down):  8.175E-04 0.000E+00

     negative rho (up, down):  8.175E-04 0.000E+00

     negative rho (up, down):  8.175E-04 0.000E+00

     negative rho (up, down):  8.175E-04 0.000E+00

     negative rho (up, down):  8.175E-04 0.000E+00

     negative rho (up, down):  8.175E-04 0.000E+00

     negative rho (up, down):  8.175E-04 0.000E+00

     negative rho (up, down):  8.175E-04 0.000E+00

     negative rho (up, down):  8.175E-04 0.000E+00

     negative rho (up, down):  8.175E-04 0.000E+00

     negative rho (up, down):  8.175E-04 0.000E+00

     negative rho (up, down):  8.175E-04 0.000E+00

     negative rho (up, down):  8.175E-04 0.000E+00

     negative rho (up, down):  8.175E-04 0.000E+00

     negative rho (up, down):  8.175E-04 0.000E+00

     negative rho (up, down):  8.175E-04 0.000E+00

     negative rho (up, down):  8.175E-04 0.000E+00

     negative rho (up, down):  8.175E-04 0.000E+00

     negative rho (up, down):  8.175E-04 0.000E+00

     negative rho (up, down):  8.175E-04 0.000E+00

     negative rho (up, down):  8.175E-04 0.000E+00

     negative rho (up, down):  8.175E-04 0.000E+00

     negative rho (up, down):  8.175E-04 0.000E+00

     negative rho (up, down):  8.175E-04 0.000E+00

     negative rho (up, down):  8.175E-04 0.000E+00

     negative rho (up, down):  8.175E-04 0.000E+00

     negative rho (up, down):  8.175E-04 0.000E+00
 
     Adding external electric field

     Computed dipole along edir(3) : 
        Dipole               -0.0002 Ry au,         -0.0006 Debye
        Dipole field         -0.0000 Ry au
 
        Potential amp.        0.0000 Ry
        Total length         46.4189 bohr
 

     total cpu time spent up to now is      932.4 secs

     End of self-consistent calculation

          k = 0.0000 0.0000 0.0000 ( 23541 PWs)   bands (ev):

  -126.3757-126.3756-126.2193-126.2193-126.2193-126.2193 -80.5636 -80.5635
   -80.5611 -80.5606 -80.5568 -80.5568 -80.4132 -80.4132 -80.4131 -80.4130
   -80.4024 -80.4024 -80.4019 -80.4019 -80.3984 -80.3984 -80.3984 -80.3983
    -7.8628  -7.7118  -7.6770  -7.6471  -7.6369  -7.6299  -7.5817  -7.5685
    -7.5225  -7.4979  -7.4894  -7.4791  -7.4706  -7.4548  -7.4203  -7.4153
    -7.4024  -7.3905  -7.3745  -7.2967  -7.2900  -7.2852  -7.2216  -7.2193
    -7.2179  -7.2091  -7.1440  -7.1369  -7.1175  -7.0899  -7.0667  -7.0633
    -7.0044  -6.9774  -6.9527  -6.9278  -6.9230  -6.9089  -6.8545  -6.8510
    -6.8342  -6.7671  -6.7449  -6.7097  -6.7036  -6.7003  -6.6991  -6.6955
    -6.6478  -6.6425  -6.6347  -6.6087  -6.6056  -6.5774  -6.5546  -6.5279
    -6.5058  -6.4404  -6.4379  -6.4340  -6.3964  -6.0498  -3.8628  -2.9676
    -2.9363  -2.2474  -2.0538  -2.0467  -1.4440  -0.9456  -0.8993  -0.6642
    -0.6229  -0.4929  -0.3501   0.4988   0.5790   0.6612   1.2613   1.4216
     1.4451   2.1797   2.2342   3.3524   3.7992   4.0420   4.2358   4.3280
     4.6349   4.7071   4.7721   5.2066   5.3440   5.8017   6.2056   6.2611
     6.3043   6.6335   6.7772   6.9678   7.0179   7.4207

          k = 0.0000 0.0285 0.0000 ( 23587 PWs)   bands (ev):

  -126.3757-126.3756-126.2193-126.2193-126.2193-126.2193 -80.5636 -80.5636
   -80.5610 -80.5607 -80.5568 -80.5568 -80.4132 -80.4132 -80.4131 -80.4131
   -80.4024 -80.4024 -80.4020 -80.4020 -80.3984 -80.3984 -80.3984 -80.3984
    -7.7494  -7.6766  -7.6411  -7.6168  -7.6081  -7.5845  -7.5595  -7.5517
    -7.4955  -7.4807  -7.4777  -7.4657  -7.4421  -7.4084  -7.4039  -7.3949
    -7.3933  -7.3724  -7.3461  -7.2954  -7.2847  -7.2675  -7.2324  -7.2145
    -7.2130  -7.2031  -7.1471  -7.1382  -7.1222  -7.1032  -7.0755  -7.0627
    -6.9885  -6.9877  -6.9604  -6.9403  -6.9314  -6.8982  -6.8595  -6.8466
    -6.8438  -6.8031  -6.7672  -6.7494  -6.7264  -6.7168  -6.6988  -6.6837
    -6.6809  -6.6489  -6.6428  -6.6223  -6.6148  -6.5997  -6.5814  -6.5572
    -6.5295  -6.4862  -6.4826  -6.4739  -6.4451  -5.9120  -4.1164  -3.7784
    -3.1450  -2.8287  -2.0710  -1.8270  -1.5536  -1.1371  -0.9508  -0.2950
    -0.1778  -0.0375   0.0592   0.4763   0.7921   0.8049   1.3940   1.7245
     2.2878   2.6607   2.8323   3.2731   3.4737   3.9168   4.0187   4.0259
     4.2497   4.7580   4.8915   5.1009   5.4218   5.5609   5.9795   6.3571
     6.4353   6.4760   6.5714   6.8198   6.8881   7.0194

          k = 0.0000 0.0570 0.0000 ( 23543 PWs)   bands (ev):

  -126.3757-126.3756-126.2193-126.2193-126.2193-126.2193 -80.5636 -80.5635
   -80.5609 -80.5607 -80.5568 -80.5568 -80.4132 -80.4131 -80.4131 -80.4130
   -80.4023 -80.4022 -80.4021 -80.4021 -80.3985 -80.3984 -80.3983 -80.3983
    -7.6221  -7.5900  -7.5503  -7.5407  -7.5201  -7.5117  -7.4942  -7.4684
    -7.4481  -7.4387  -7.4330  -7.4076  -7.4069  -7.3776  -7.3699  -7.3601
    -7.3488  -7.3113  -7.2812  -7.2664  -7.2608  -7.2353  -7.2112  -7.1996
    -7.1803  -7.1659  -7.1623  -7.1334  -7.1169  -7.1065  -7.1040  -7.0268
    -7.0104  -6.9762  -6.9605  -6.9565  -6.9405  -6.9130  -6.8643  -6.8582
    -6.8459  -6.8278  -6.8247  -6.8131  -6.8096  -6.7701  -6.7270  -6.7094
    -6.7070  -6.6803  -6.6777  -6.6697  -6.6509  -6.6356  -6.6202  -6.5927
    -6.5816  -6.5677  -6.5613  -6.5544  -6.5454  -5.5363  -5.3497  -4.0023
    -3.5646  -3.3343  -2.5601  -1.8849  -1.7725  -1.4966  -1.0299   0.1379
     0.1899   0.5127   0.8022   1.4085   1.5039   1.8308   2.2163   2.4692
     2.4806   2.6047   3.0000   3.5179   3.8345   3.8601   4.0022   4.2756
     4.5784   4.7238   4.8269   5.0712   5.2479   5.2966   5.3424   5.6576
     5.7788   6.0121   6.1972   6.2781   6.5703   6.6080

          k = 0.0000-0.0855 0.0000 ( 23554 PWs)   bands (ev):

  -126.3757-126.3756-126.2193-126.2193-126.2193-126.2193 -80.5636 -80.5636
   -80.5608 -80.5608 -80.5568 -80.5568 -80.4132 -80.4131 -80.4131 -80.4130
   -80.4022 -80.4022 -80.4021 -80.4021 -80.3984 -80.3984 -80.3984 -80.3984
    -7.5839  -7.5839  -7.5083  -7.5083  -7.4423  -7.4422  -7.4366  -7.4366
    -7.4114  -7.4113  -7.4075  -7.4075  -7.3858  -7.3858  -7.3677  -7.3677
    -7.3355  -7.3354  -7.2356  -7.2356  -7.1947  -7.1945  -7.1923  -7.1921
    -7.1525  -7.1524  -7.1365  -7.1364  -7.1175  -7.1173  -7.0136  -7.0136
    -6.9822  -6.9822  -6.9619  -6.9619  -6.9197  -6.9195  -6.8952  -6.8952
    -6.8634  -6.8632  -6.8078  -6.8078  -6.7756  -6.7756  -6.7648  -6.7648
    -6.7450  -6.7449  -6.7289  -6.7289  -6.6762  -6.6761  -6.6131  -6.6131
    -6.5872  -6.5871  -6.5708  -6.5707  -6.2812  -6.2812  -4.9086  -4.9086
    -3.4146  -3.4146  -2.4835  -2.4835  -1.7960  -1.7960  -0.4029  -0.4029
     0.9411   0.9411   1.1670   1.1670   1.8825   1.8826   2.6597   2.6597
     2.9679   2.9679   3.7055   3.7055   4.0031   4.0031   4.3764   4.3765
     4.6107   4.6107   4.9071   4.9073   4.9566   4.9566   5.2181   5.2182
     5.7204   5.7206   5.9108   5.9110   5.9746   5.9747

          k = 0.0265-0.0106 0.0000 ( 23587 PWs)   bands (ev):

  -126.3757-126.3756-126.2193-126.2193-126.2193-126.2193 -80.5636 -80.5636
   -80.5610 -80.5607 -80.5568 -80.5568 -80.4132 -80.4132 -80.4131 -80.4131
   -80.4024 -80.4024 -80.4020 -80.4020 -80.3984 -80.3984 -80.3984 -80.3984
    -7.7494  -7.6766  -7.6411  -7.6168  -7.6081  -7.5845  -7.5595  -7.5517
    -7.4955  -7.4807  -7.4777  -7.4657  -7.4421  -7.4084  -7.4039  -7.3949
    -7.3933  -7.3724  -7.3461  -7.2954  -7.2847  -7.2675  -7.2324  -7.2145
    -7.2130  -7.2031  -7.1471  -7.1382  -7.1222  -7.1032  -7.0755  -7.0627
    -6.9885  -6.9877  -6.9604  -6.9403  -6.9314  -6.8982  -6.8595  -6.8466
    -6.8438  -6.8031  -6.7672  -6.7494  -6.7264  -6.7168  -6.6988  -6.6837
    -6.6809  -6.6489  -6.6428  -6.6223  -6.6148  -6.5997  -6.5814  -6.5572
    -6.5295  -6.4862  -6.4826  -6.4739  -6.4451  -5.9120  -4.1164  -3.7784
    -3.1450  -2.8287  -2.0710  -1.8270  -1.5536  -1.1371  -0.9508  -0.2950
    -0.1778  -0.0375   0.0592   0.4763   0.7921   0.8049   1.3940   1.7245
     2.2878   2.6607   2.8323   3.2731   3.4737   3.9168   4.0187   4.0259
     4.2497   4.7580   4.8915   5.1009   5.4218   5.5609   5.9795   6.3571
     6.4354   6.4760   6.5714   6.8198   6.8882   7.0194

          k = 0.0265 0.0179 0.0000 ( 23571 PWs)   bands (ev):

  -126.3757-126.3756-126.2193-126.2193-126.2193-126.2193 -80.5636 -80.5635
   -80.5611 -80.5607 -80.5569 -80.5568 -80.4132 -80.4132 -80.4131 -80.4130
   -80.4025 -80.4024 -80.4020 -80.4020 -80.3985 -80.3985 -80.3984 -80.3984
    -7.7339  -7.6568  -7.6334  -7.6131  -7.5966  -7.5690  -7.5441  -7.5409
    -7.4975  -7.4820  -7.4648  -7.4477  -7.4226  -7.4005  -7.3962  -7.3946
    -7.3811  -7.3559  -7.3355  -7.2983  -7.2655  -7.2474  -7.2144  -7.2127
    -7.2054  -7.2045  -7.1453  -7.1396  -7.1239  -7.0875  -7.0815  -7.0598
    -7.0184  -6.9861  -6.9667  -6.9608  -6.9603  -6.9289  -6.8802  -6.8707
    -6.8311  -6.8194  -6.8081  -6.7608  -6.7164  -6.7151  -6.6948  -6.6850
    -6.6840  -6.6574  -6.6507  -6.6431  -6.6412  -6.6239  -6.5789  -6.5529
    -6.5302  -6.4884  -6.4860  -6.4523  -6.4163  -5.8880  -3.8584  -3.7162
    -3.0904  -2.9404  -2.5101  -1.9615  -1.8600  -1.7197  -1.0430  -0.2594
    -0.0055   0.0501   0.1657   0.2889   0.4437   1.0942   2.0947   2.2970
     2.2982   2.3320   3.5034   3.5525   3.7750   3.8228   3.9521   4.0605
     4.7901   4.9239   4.9339   5.2711   5.7001   5.7642   5.8785   6.1602
     6.4268   6.5166   6.8135   6.8938   6.9165   7.0057

          k = 0.0265 0.0464 0.0000 ( 23540 PWs)   bands (ev):

  -126.3757-126.3756-126.2193-126.2193-126.2193-126.2193 -80.5636 -80.5635
   -80.5610 -80.5607 -80.5569 -80.5568 -80.4132 -80.4132 -80.4131 -80.4130
   -80.4023 -80.4023 -80.4020 -80.4020 -80.3985 -80.3984 -80.3984 -80.3984
    -7.6039  -7.6010  -7.5650  -7.5555  -7.5172  -7.5124  -7.4970  -7.4618
    -7.4590  -7.4422  -7.4358  -7.3957  -7.3808  -7.3705  -7.3577  -7.3542
    -7.3293  -7.3048  -7.2890  -7.2698  -7.2676  -7.2237  -7.1957  -7.1848
    -7.1699  -7.1640  -7.1615  -7.1531  -7.1141  -7.0955  -7.0781  -7.0738
    -7.0063  -7.0032  -6.9998  -6.9763  -6.9712  -6.9424  -6.9122  -6.8926
    -6.8800  -6.8587  -6.8433  -6.8037  -6.7912  -6.7485  -6.7402  -6.7291
    -6.7010  -6.6941  -6.6914  -6.6684  -6.6313  -6.6243  -6.6149  -6.6077
    -6.5652  -6.5522  -6.5487  -6.5010  -6.4610  -5.6084  -4.7899  -4.1003
    -3.4556  -3.1761  -2.5508  -2.4912  -2.1111  -1.3512  -1.1824  -0.6654
     0.1042   0.1390   0.8680   0.9522   1.9050   2.0147   2.3394   2.5931
     2.8147   2.9678   3.5945   3.7804   3.9011   3.9301   4.2259   4.4232
     4.7368   4.9032   4.9909   5.1014   5.1944   5.5247   5.7530   5.8205
     5.9058   6.1959   6.3306   6.5676   6.5794   6.7415

          k = 0.0265-0.0961 0.0000 ( 23527 PWs)   bands (ev):

  -126.3757-126.3756-126.2193-126.2193-126.2193-126.2193 -80.5636 -80.5635
   -80.5609 -80.5607 -80.5568 -80.5568 -80.4132 -80.4131 -80.4131 -80.4130
   -80.4023 -80.4023 -80.4021 -80.4020 -80.3984 -80.3984 -80.3983 -80.3983
    -7.5630  -7.5151  -7.5123  -7.4827  -7.4627  -7.4414  -7.4325  -7.4195
    -7.4119  -7.4031  -7.3975  -7.3837  -7.3792  -7.3646  -7.3444  -7.3245
    -7.3242  -7.2951  -7.2566  -7.2258  -7.2210  -7.2076  -7.1747  -7.1668
    -7.1508  -7.1435  -7.1416  -7.1250  -7.1232  -7.1064  -7.0390  -7.0292
    -7.0147  -6.9965  -6.9939  -6.9779  -6.9550  -6.9533  -6.9100  -6.8855
    -6.8775  -6.8712  -6.8575  -6.8559  -6.8451  -6.8240  -6.7945  -6.7877
    -6.7585  -6.7328  -6.7112  -6.6729  -6.6555  -6.6301  -6.6181  -6.6113
    -6.6048  -6.5908  -6.5841  -6.5356  -6.3959  -5.8361  -5.0841  -4.4687
    -4.4253  -2.9737  -2.7778  -2.6369  -1.5791  -1.4624  -1.0752  -0.8084
     0.7005   0.7550   1.4086   1.5356   2.0525   2.6356   2.6856   2.7223
     3.0040   3.4486   3.6141   3.8680   3.8864   4.1512   4.2453   4.2840
     4.6311   4.8243   4.8953   4.9315   5.0033   5.2743   5.6254   5.6553
     5.6727   5.8586   5.9478   6.0823   6.2744   6.3143

          k = 0.0265-0.0676 0.0000 ( 23564 PWs)   bands (ev):

  -126.3757-126.3756-126.2193-126.2193-126.2193-126.2193 -80.5636 -80.5636
   -80.5609 -80.5608 -80.5569 -80.5567 -80.4132 -80.4131 -80.4131 -80.4130
   -80.4023 -80.4022 -80.4021 -80.4021 -80.3985 -80.3984 -80.3983 -80.3983
    -7.5449  -7.5386  -7.5009  -7.4949  -7.4704  -7.4598  -7.4589  -7.4475
    -7.4385  -7.4113  -7.4092  -7.4058  -7.3652  -7.3442  -7.3313  -7.3230
    -7.3201  -7.3121  -7.2572  -7.2459  -7.2312  -7.2190  -7.2121  -7.2008
    -7.1928  -7.1821  -7.1800  -7.1543  -7.1307  -7.1072  -7.1065  -7.0105
    -6.9972  -6.9802  -6.9712  -6.9515  -6.9489  -6.9190  -6.9012  -6.8967
    -6.8814  -6.8303  -6.8115  -6.7720  -6.7605  -6.7532  -6.7469  -6.7321
    -6.7304  -6.7257  -6.7164  -6.7118  -6.6898  -6.6578  -6.6367  -6.6274
    -6.6194  -6.6153  -6.5895  -6.5590  -6.4933  -5.6100  -5.2120  -4.5991
    -4.2708  -3.1918  -3.0504  -2.0910  -1.4536  -1.2404  -0.5188  -0.2775
     0.5745   0.8592   1.4493   1.6191   1.6412   2.2690   2.3094   2.3552
     2.7406   2.8204   3.0144   3.7640   3.7925   3.9273   4.1158   4.1251
     4.4422   4.5756   4.8060   5.1105   5.1147   5.1374   5.3893   5.5213
     5.6297   5.7148   5.9731   6.2447   6.4543   6.4707

          k = 0.0265-0.0391 0.0000 ( 23547 PWs)   bands (ev):

  -126.3757-126.3756-126.2193-126.2193-126.2193-126.2193 -80.5636 -80.5635
   -80.5609 -80.5607 -80.5569 -80.5567 -80.4132 -80.4132 -80.4131 -80.4130
   -80.4022 -80.4022 -80.4021 -80.4020 -80.3985 -80.3984 -80.3983 -80.3983
    -7.6098  -7.6007  -7.5783  -7.5647  -7.5639  -7.5397  -7.5287  -7.4910
    -7.4895  -7.4457  -7.4455  -7.4419  -7.4209  -7.3825  -7.3691  -7.3644
    -7.3574  -7.3456  -7.2942  -7.2930  -7.2752  -7.2716  -7.2309  -7.2248
    -7.2087  -7.2070  -7.1873  -7.1441  -7.1184  -7.1135  -7.1015  -7.0279
    -7.0097  -6.9633  -6.9543  -6.9465  -6.9349  -6.9237  -6.8500  -6.8328
    -6.8227  -6.7934  -6.7919  -6.7885  -6.7382  -6.7292  -6.7213  -6.7193
    -6.6950  -6.6568  -6.6567  -6.6399  -6.6259  -6.6197  -6.6117  -6.5968
    -6.5786  -6.5738  -6.5571  -6.5419  -6.5412  -5.6838  -4.5206  -4.4429
    -3.5771  -3.4342  -2.6698  -1.2491  -1.2389  -1.1777  -0.4874  -0.0779
    -0.0047   0.4538   0.5143   0.6683   1.2687   1.4773   1.5730   2.4642
     2.6670   2.8966   2.9140   3.1224   3.3627   3.4653   3.6000   3.6848
     4.1272   4.8134   4.9409   4.9653   4.9726   5.0986   5.4249   6.0671
     6.0943   6.4524   6.5306   6.6317   6.9662   7.0587

          k = 0.0530-0.0211 0.0000 ( 23543 PWs)   bands (ev):

  -126.3757-126.3756-126.2193-126.2193-126.2193-126.2193 -80.5636 -80.5635
   -80.5609 -80.5607 -80.5568 -80.5568 -80.4132 -80.4131 -80.4131 -80.4130
   -80.4023 -80.4022 -80.4021 -80.4021 -80.3985 -80.3984 -80.3983 -80.3983
    -7.6221  -7.5900  -7.5503  -7.5407  -7.5201  -7.5117  -7.4942  -7.4684
    -7.4481  -7.4387  -7.4330  -7.4076  -7.4069  -7.3776  -7.3699  -7.3601
    -7.3488  -7.3113  -7.2812  -7.2664  -7.2608  -7.2353  -7.2112  -7.1996
    -7.1803  -7.1659  -7.1623  -7.1334  -7.1169  -7.1065  -7.1040  -7.0268
    -7.0104  -6.9762  -6.9605  -6.9565  -6.9405  -6.9130  -6.8643  -6.8582
    -6.8459  -6.8278  -6.8247  -6.8131  -6.8096  -6.7701  -6.7270  -6.7094
    -6.7070  -6.6803  -6.6777  -6.6697  -6.6509  -6.6356  -6.6202  -6.5927
    -6.5816  -6.5677  -6.5613  -6.5544  -6.5454  -5.5363  -5.3497  -4.0023
    -3.5646  -3.3343  -2.5601  -1.8849  -1.7725  -1.4966  -1.0299   0.1379
     0.1899   0.5127   0.8022   1.4085   1.5039   1.8308   2.2163   2.4692
     2.4806   2.6047   3.0000   3.5179   3.8345   3.8601   4.0022   4.2756
     4.5784   4.7238   4.8269   5.0712   5.2479   5.2966   5.3424   5.6576
     5.7788   6.0121   6.1972   6.2782   6.5706   6.6082

          k = 0.0530 0.0074 0.0000 ( 23540 PWs)   bands (ev):

  -126.3757-126.3756-126.2193-126.2193-126.2193-126.2193 -80.5636 -80.5635
   -80.5610 -80.5607 -80.5569 -80.5568 -80.4132 -80.4132 -80.4131 -80.4130
   -80.4023 -80.4023 -80.4020 -80.4020 -80.3985 -80.3984 -80.3984 -80.3984
    -7.6039  -7.6010  -7.5650  -7.5555  -7.5172  -7.5124  -7.4970  -7.4618
    -7.4590  -7.4422  -7.4358  -7.3957  -7.3808  -7.3705  -7.3577  -7.3542
    -7.3293  -7.3048  -7.2890  -7.2698  -7.2676  -7.2237  -7.1957  -7.1848
    -7.1699  -7.1640  -7.1615  -7.1531  -7.1141  -7.0955  -7.0781  -7.0738
    -7.0063  -7.0032  -6.9998  -6.9763  -6.9712  -6.9424  -6.9122  -6.8926
    -6.8800  -6.8587  -6.8433  -6.8037  -6.7912  -6.7485  -6.7402  -6.7291
    -6.7010  -6.6941  -6.6914  -6.6684  -6.6313  -6.6243  -6.6149  -6.6077
    -6.5652  -6.5522  -6.5487  -6.5010  -6.4610  -5.6084  -4.7899  -4.1003
    -3.4556  -3.1761  -2.5508  -2.4912  -2.1111  -1.3512  -1.1824  -0.6654
     0.1042   0.1390   0.8680   0.9522   1.9050   2.0147   2.3394   2.5931
     2.8147   2.9678   3.5945   3.7804   3.9011   3.9301   4.2259   4.4232
     4.7368   4.9032   4.9909   5.1014   5.1944   5.5247   5.7530   5.8205
     5.9058   6.1959   6.3306   6.5676   6.5794   6.7414

          k = 0.0530 0.0359 0.0000 ( 23537 PWs)   bands (ev):

  -126.3757-126.3756-126.2193-126.2193-126.2193-126.2193 -80.5636 -80.5636
   -80.5610 -80.5607 -80.5569 -80.5568 -80.4132 -80.4132 -80.4131 -80.4130
   -80.4024 -80.4023 -80.4021 -80.4020 -80.3984 -80.3984 -80.3984 -80.3983
    -7.5903  -7.5458  -7.5139  -7.4996  -7.4966  -7.4720  -7.4673  -7.4515
    -7.4420  -7.4288  -7.3614  -7.3592  -7.3558  -7.3374  -7.3289  -7.2903
    -7.2671  -7.2582  -7.2509  -7.2352  -7.2264  -7.1926  -7.1902  -7.1843
    -7.1695  -7.1666  -7.1510  -7.1427  -7.0971  -7.0950  -7.0817  -7.0543
    -7.0432  -7.0417  -7.0326  -7.0181  -6.9901  -6.9771  -6.9753  -6.9304
    -6.9249  -6.8990  -6.8419  -6.8367  -6.8189  -6.7894  -6.7832  -6.7477
    -6.7395  -6.7232  -6.7151  -6.6961  -6.6516  -6.6271  -6.6265  -6.6096
    -6.6002  -6.5832  -6.5326  -6.4758  -6.4305  -5.4361  -4.8162  -4.1595
    -3.7008  -3.3855  -3.1219  -2.9244  -2.2799  -1.4850  -1.4019  -0.7745
     0.3318   0.7692   0.7943   1.5916   1.7756   2.3382   2.7577   3.2634
     3.4939   3.5869   3.5917   3.7061   3.9661   4.4124   4.5085   4.6403
     4.7245   4.8068   5.2520   5.3792   5.4907   5.5654   5.5817   5.7151
     5.7792   6.0171   6.1388   6.2611   6.6201   6.6348

          k = 0.0530-0.1066 0.0000 ( 23473 PWs)   bands (ev):

  -126.3757-126.3756-126.2193-126.2193-126.2193-126.2193 -80.5636 -80.5635
   -80.5609 -80.5607 -80.5568 -80.5567 -80.4132 -80.4132 -80.4131 -80.4130
   -80.4023 -80.4022 -80.4020 -80.4020 -80.3984 -80.3983 -80.3983 -80.3983
    -7.5098  -7.5015  -7.4804  -7.4518  -7.4466  -7.4367  -7.4203  -7.4180
    -7.3997  -7.3699  -7.3627  -7.3572  -7.3506  -7.3291  -7.3039  -7.2995
    -7.2511  -7.2464  -7.2199  -7.2077  -7.1862  -7.1800  -7.1594  -7.1539
    -7.1440  -7.1270  -7.1241  -7.1201  -7.1108  -7.0890  -7.0747  -7.0637
    -7.0579  -7.0336  -7.0321  -7.0312  -7.0094  -6.9830  -6.9698  -6.9412
    -6.9380  -6.9197  -6.9162  -6.8881  -6.8654  -6.8305  -6.8212  -6.8027
    -6.7795  -6.7522  -6.7458  -6.7267  -6.6741  -6.6626  -6.6380  -6.6109
    -6.5889  -6.5555  -6.5121  -6.4684  -6.3102  -5.3607  -5.1089  -4.9772
    -3.8833  -3.7727  -2.8636  -2.7624  -1.9753  -1.8816  -1.5955  -0.7136
     0.8532   1.2008   1.6522   1.8700   2.0788   2.2542   2.7966   3.1541
     3.6019   3.7340   3.9715   3.9910   4.2540   4.3876   4.4666   4.8130
     4.8359   4.9840   5.0715   5.2805   5.4977   5.5859   5.6372   5.6874
     5.6906   5.7667   5.7971   5.9881   6.0041   6.2293

          k = 0.0530-0.0781 0.0000 ( 23507 PWs)   bands (ev):

  -126.3757-126.3756-126.2193-126.2193-126.2193-126.2193 -80.5636 -80.5635
   -80.5610 -80.5608 -80.5568 -80.5567 -80.4132 -80.4131 -80.4131 -80.4130
   -80.4023 -80.4023 -80.4021 -80.4021 -80.3984 -80.3984 -80.3982 -80.3982
    -7.4765  -7.4654  -7.4527  -7.4431  -7.4284  -7.4228  -7.4104  -7.4098
    -7.4079  -7.4068  -7.3912  -7.3788  -7.3519  -7.3359  -7.2913  -7.2837
    -7.2829  -7.2774  -7.2444  -7.2130  -7.2083  -7.1958  -7.1901  -7.1811
    -7.1750  -7.1707  -7.1490  -7.1420  -7.1156  -7.1074  -7.0974  -7.0468
    -7.0386  -7.0096  -7.0032  -6.9970  -6.9948  -6.9447  -6.9342  -6.9259
    -6.9127  -6.8871  -6.8809  -6.8471  -6.8394  -6.8265  -6.8251  -6.7586
    -6.7545  -6.7421  -6.7377  -6.7222  -6.6925  -6.6597  -6.6406  -6.6189
    -6.6142  -6.6026  -6.5884  -6.5377  -5.9684  -5.6067  -5.5873  -4.6220
    -4.4748  -3.8992  -2.6738  -2.1845  -2.0387  -1.6264  -0.7102  -0.6667
     1.1520   1.2449   1.6060   1.6429   1.7966   2.2305   2.5969   3.0821
     3.2788   3.3140   3.7672   4.0707   4.0759   4.1160   4.4591   4.5825
     4.6893   4.7344   5.1236   5.1832   5.2437   5.3230   5.4333   5.5019
     5.5239   5.8841   5.9442   6.0035   6.0229   6.2296

          k = 0.0530-0.0496 0.0000 ( 23564 PWs)   bands (ev):

  -126.3757-126.3756-126.2193-126.2193-126.2193-126.2193 -80.5636 -80.5636
   -80.5609 -80.5608 -80.5569 -80.5567 -80.4132 -80.4131 -80.4131 -80.4130
   -80.4023 -80.4022 -80.4021 -80.4021 -80.3985 -80.3984 -80.3983 -80.3983
    -7.5449  -7.5386  -7.5009  -7.4949  -7.4704  -7.4598  -7.4589  -7.4475
    -7.4385  -7.4113  -7.4092  -7.4058  -7.3652  -7.3442  -7.3313  -7.3230
    -7.3201  -7.3121  -7.2572  -7.2459  -7.2312  -7.2190  -7.2121  -7.2008
    -7.1928  -7.1821  -7.1800  -7.1543  -7.1307  -7.1072  -7.1065  -7.0105
    -6.9972  -6.9802  -6.9712  -6.9515  -6.9489  -6.9190  -6.9012  -6.8967
    -6.8814  -6.8303  -6.8115  -6.7720  -6.7605  -6.7532  -6.7469  -6.7321
    -6.7303  -6.7257  -6.7164  -6.7118  -6.6898  -6.6578  -6.6367  -6.6274
    -6.6194  -6.6153  -6.5895  -6.5590  -6.4933  -5.6100  -5.2120  -4.5991
    -4.2708  -3.1918  -3.0504  -2.0910  -1.4536  -1.2404  -0.5188  -0.2775
     0.5745   0.8592   1.4493   1.6191   1.6412   2.2690   2.3094   2.3552
     2.7406   2.8204   3.0144   3.7640   3.7925   3.9273   4.1158   4.1251
     4.4422   4.5756   4.8060   5.1105   5.1147   5.1374   5.3893   5.5213
     5.6297   5.7148   5.9731   6.2447   6.4544   6.4707

          k =-0.0794 0.0317 0.0000 ( 23554 PWs)   bands (ev):

  -126.3757-126.3756-126.2193-126.2193-126.2193-126.2193 -80.5636 -80.5636
   -80.5608 -80.5608 -80.5568 -80.5568 -80.4132 -80.4131 -80.4131 -80.4130
   -80.4022 -80.4022 -80.4021 -80.4021 -80.3984 -80.3984 -80.3984 -80.3984
    -7.5839  -7.5839  -7.5083  -7.5083  -7.4423  -7.4422  -7.4366  -7.4366
    -7.4114  -7.4113  -7.4075  -7.4075  -7.3858  -7.3858  -7.3677  -7.3677
    -7.3355  -7.3354  -7.2356  -7.2356  -7.1947  -7.1945  -7.1923  -7.1921
    -7.1525  -7.1524  -7.1365  -7.1364  -7.1175  -7.1173  -7.0136  -7.0136
    -6.9822  -6.9822  -6.9619  -6.9619  -6.9197  -6.9195  -6.8952  -6.8952
    -6.8634  -6.8632  -6.8078  -6.8078  -6.7756  -6.7756  -6.7648  -6.7648
    -6.7450  -6.7449  -6.7289  -6.7289  -6.6762  -6.6761  -6.6131  -6.6131
    -6.5871  -6.5871  -6.5708  -6.5707  -6.2812  -6.2812  -4.9086  -4.9086
    -3.4146  -3.4146  -2.4835  -2.4835  -1.7960  -1.7960  -0.4029  -0.4029
     0.9411   0.9411   1.1670   1.1670   1.8825   1.8826   2.6597   2.6597
     2.9679   2.9679   3.7055   3.7055   4.0031   4.0031   4.3764   4.3765
     4.6107   4.6107   4.9071   4.9073   4.9566   4.9566   5.2181   5.2182
     5.7204   5.7206   5.9108   5.9110   5.9746   5.9747

          k =-0.0794 0.0602 0.0000 ( 23527 PWs)   bands (ev):

  -126.3757-126.3756-126.2193-126.2193-126.2193-126.2193 -80.5636 -80.5635
   -80.5609 -80.5607 -80.5568 -80.5568 -80.4132 -80.4131 -80.4131 -80.4130
   -80.4023 -80.4023 -80.4021 -80.4020 -80.3984 -80.3984 -80.3983 -80.3983
    -7.5630  -7.5151  -7.5123  -7.4827  -7.4627  -7.4414  -7.4325  -7.4195
    -7.4119  -7.4031  -7.3975  -7.3837  -7.3792  -7.3646  -7.3444  -7.3245
    -7.3242  -7.2951  -7.2566  -7.2258  -7.2210  -7.2076  -7.1747  -7.1668
    -7.1508  -7.1435  -7.1416  -7.1250  -7.1232  -7.1064  -7.0390  -7.0292
    -7.0147  -6.9965  -6.9939  -6.9779  -6.9550  -6.9533  -6.9100  -6.8855
    -6.8775  -6.8712  -6.8575  -6.8559  -6.8451  -6.8240  -6.7945  -6.7877
    -6.7585  -6.7328  -6.7112  -6.6729  -6.6555  -6.6301  -6.6181  -6.6113
    -6.6048  -6.5908  -6.5841  -6.5356  -6.3959  -5.8361  -5.0841  -4.4687
    -4.4253  -2.9737  -2.7778  -2.6369  -1.5791  -1.4624  -1.0752  -0.8084
     0.7005   0.7550   1.4086   1.5356   2.0525   2.6356   2.6856   2.7223
     3.0040   3.4486   3.6141   3.8680   3.8864   4.1512   4.2453   4.2840
     4.6311   4.8243   4.8953   4.9315   5.0033   5.2743   5.6254   5.6553
     5.6727   5.8586   5.9477   6.0823   6.2744   6.3143

          k =-0.0794 0.0887 0.0000 ( 23473 PWs)   bands (ev):

  -126.3757-126.3756-126.2193-126.2193-126.2193-126.2193 -80.5636 -80.5635
   -80.5609 -80.5607 -80.5568 -80.5567 -80.4132 -80.4132 -80.4131 -80.4130
   -80.4023 -80.4022 -80.4020 -80.4020 -80.3984 -80.3983 -80.3983 -80.3983
    -7.5098  -7.5015  -7.4804  -7.4518  -7.4466  -7.4367  -7.4203  -7.4180
    -7.3997  -7.3699  -7.3627  -7.3572  -7.3506  -7.3291  -7.3039  -7.2995
    -7.2511  -7.2464  -7.2199  -7.2077  -7.1862  -7.1800  -7.1594  -7.1539
    -7.1440  -7.1270  -7.1241  -7.1201  -7.1108  -7.0890  -7.0747  -7.0637
    -7.0579  -7.0336  -7.0321  -7.0312  -7.0094  -6.9830  -6.9698  -6.9412
    -6.9380  -6.9197  -6.9162  -6.8881  -6.8654  -6.8305  -6.8212  -6.8027
    -6.7795  -6.7522  -6.7458  -6.7267  -6.6741  -6.6626  -6.6380  -6.6109
    -6.5889  -6.5555  -6.5121  -6.4684  -6.3102  -5.3607  -5.1089  -4.9772
    -3.8833  -3.7727  -2.8636  -2.7624  -1.9753  -1.8816  -1.5955  -0.7136
     0.8532   1.2008   1.6522   1.8700   2.0788   2.2542   2.7966   3.1541
     3.6019   3.7340   3.9715   3.9910   4.2540   4.3876   4.4666   4.8130
     4.8359   4.9840   5.0715   5.2805   5.4977   5.5859   5.6372   5.6874
     5.6906   5.7667   5.7971   5.9881   6.0041   6.2293

          k =-0.0794-0.0538 0.0000 ( 23396 PWs)   bands (ev):

  -126.3757-126.3756-126.2193-126.2193-126.2193-126.2193 -80.5636 -80.5635
   -80.5609 -80.5606 -80.5568 -80.5566 -80.4132 -80.4132 -80.4131 -80.4130
   -80.4023 -80.4022 -80.4019 -80.4019 -80.3984 -80.3983 -80.3982 -80.3982
    -7.5219  -7.5101  -7.4595  -7.4541  -7.4476  -7.4243  -7.4106  -7.3770
    -7.3673  -7.3672  -7.3479  -7.3429  -7.3365  -7.3198  -7.2835  -7.2700
    -7.2494  -7.2494  -7.1921  -7.1699  -7.1664  -7.1547  -7.1508  -7.1342
    -7.1243  -7.1237  -7.0969  -7.0871  -7.0863  -7.0846  -7.0810  -7.0758
    -7.0648  -7.0518  -7.0483  -7.0362  -7.0345  -7.0029  -6.9921  -6.9779
    -6.9709  -6.9551  -6.9187  -6.9022  -6.8785  -6.8649  -6.8643  -6.8306
    -6.8062  -6.7783  -6.7587  -6.7338  -6.6902  -6.6752  -6.6449  -6.6133
    -6.5776  -6.5345  -6.4867  -6.4332  -6.0452  -5.9375  -4.7920  -4.3731
    -4.2971  -3.9137  -3.0735  -2.5389  -2.4727  -2.3718  -1.4526  -0.8998
     1.1977   1.2709   1.7301   2.0650   2.5957   2.6163   2.9099   3.3409
     3.4950   3.4966   3.5266   3.8845   4.3802   4.4540   4.7035   4.7396
     4.7471   4.9662   5.1746   5.1842   5.5503   5.6320   5.9757   6.0347
     6.0488   6.1234   6.1460   6.1899   6.3126   6.3203

     the Fermi energy is    -0.1697 ev

!    total energy              =   -3431.16186047 Ry
     Harris-Foulkes estimate   =   -3431.16185109 Ry
     estimated scf accuracy    <       0.00000044 Ry

     The total energy is the sum of the following terms:

     one-electron contribution =  -16570.62299019 Ry
     hartree contribution      =    8318.27051778 Ry
     xc contribution           =    -502.60169601 Ry
     ewald contribution        =    5323.81330906 Ry
     electric field correction =       0.00000000 Ry
     smearing contrib. (-TS)   =      -0.02100111 Ry

     convergence has been achieved in  10 iterations
 
 BEEF-vdW xc energy contributions
           1 :   -443.568837719128     
           2 :    404.162464246313     
           3 :   -337.401434446546     
           4 :    261.611395675267     
           5 :   -193.493772191691     
           6 :    142.256321329990     
           7 :   -108.217702303443     
           8 :    85.7266192360185     
           9 :   -68.0574777106639     
          10 :    51.2853194659136     
          11 :   -35.2962741052132     
          12 :    22.1222295692089     
          13 :   -13.3654458365269     
          14 :    8.65220119978358     
          15 :   -5.94993416406510     
          16 :    3.12078022542426     
          17 :   0.662553237849181     
          18 :   -4.66278925026108     
          19 :    7.48547408354079     
          20 :   -8.31005221568370     
          21 :    7.50152895986321     
          22 :   -6.25460512735253     
          23 :    5.67818176195237     
          24 :   -6.08222805331172     
          25 :    6.96046606848364     
          26 :   -7.56226985441697     
          27 :    7.51522027605540     
          28 :   -7.01152578773110     
          29 :    6.49383901452228     
          30 :   -6.19399383265829     
          31 :   -37.5629331702617     
          32 :   -26.4445794679355     

     Forces acting on atoms (Ry/au):


     negative rho (up, down):  8.175E-04 0.000E+00
     atom    1 type  1   force =     0.00065408    0.00044413    0.00032112
     atom    2 type  1   force =     0.00066020    0.00044589    0.00031555
     atom    3 type  2   force =    -0.00095120   -0.00064504   -0.00557448
     atom    4 type  2   force =    -0.00095180   -0.00064447   -0.00557514
     atom    5 type  1   force =     0.00008947    0.00006467   -0.00000626
     atom    6 type  1   force =    -0.00008847   -0.00006401   -0.00000346
     atom    7 type  2   force =     0.00000349   -0.00000327    0.00000301
     atom    8 type  2   force =    -0.00000316    0.00000445    0.00000298
     atom    9 type  1   force =    -0.00069383   -0.00047152   -0.00032435
     atom   10 type  1   force =    -0.00062608   -0.00042351   -0.00032164
     atom   11 type  2   force =     0.00095279    0.00064737    0.00558101
     atom   12 type  2   force =     0.00095450    0.00064531    0.00558166

     Total force =     0.011521     Total SCF correction =     0.003877
     SCF correction compared to forces is large: reduce conv_thr to get better values


     entering subroutine stress ...


     negative rho (up, down):  8.175E-04 0.000E+00
          total   stress  (Ry/bohr**3)                   (kbar)     P=   -2.73
  -0.00002840  -0.00000922   0.00000162         -4.18     -1.36      0.24
  -0.00000922  -0.00002104   0.00000110         -1.36     -3.10      0.16
   0.00000162   0.00000110  -0.00000618          0.24      0.16     -0.91

 !ASE

     Writing output data file calc.save
 
     init_run     :     15.99s CPU     29.17s WALL (       1 calls)
     electrons    :    560.96s CPU    902.74s WALL (       1 calls)
     forces       :      3.25s CPU      4.12s WALL (       1 calls)
     stress       :      7.36s CPU      9.10s WALL (       1 calls)

     Called by init_run:
     wfcinit      :     13.32s CPU     25.23s WALL (       1 calls)
     potinit      :      1.47s CPU      2.42s WALL (       1 calls)

     Called by electrons:
     c_bands      :    432.72s CPU    690.63s WALL (      11 calls)
     sum_band     :     66.63s CPU    115.82s WALL (      11 calls)
     v_of_rho     :     13.69s CPU     23.42s WALL (      11 calls)
     newd         :      3.39s CPU      3.67s WALL (      11 calls)
     mix_rho      :      0.47s CPU      0.78s WALL (      11 calls)
     vdW_energy   :      1.52s CPU      1.53s WALL (      47 calls)
     vdW_ffts     :     40.86s CPU     66.60s WALL (      96 calls)
     vdW_v        :      6.97s CPU     10.75s WALL (      47 calls)

     Called by c_bands:
     init_us_2    :      0.31s CPU      0.34s WALL (     500 calls)
     cegterg      :    429.72s CPU    687.17s WALL (     220 calls)

     Called by *egterg:
     h_psi        :    297.82s CPU    537.73s WALL (    1018 calls)
     s_psi        :      4.90s CPU      4.97s WALL (    1018 calls)
     g_psi        :      0.30s CPU      0.29s WALL (     778 calls)
     cdiaghg      :     98.91s CPU    112.00s WALL (     978 calls)

     Called by h_psi:
     add_vuspsi   :      5.14s CPU      5.17s WALL (    1018 calls)

     General routines
     calbec       :     14.44s CPU     19.34s WALL (    1278 calls)
     fft          :     60.34s CPU     98.46s WALL (    2833 calls)
     ffts         :      0.13s CPU      0.22s WALL (      22 calls)
     fftw         :    335.35s CPU    618.16s WALL (  162446 calls)
     interpolate  :      0.56s CPU      0.91s WALL (      22 calls)
     davcio       :      0.00s CPU      0.02s WALL (      20 calls)
 
     Parallel routines
     fft_scatter  :    380.16s CPU    699.63s WALL (  165301 calls)
 
     PWSCF        :  9m48.81s CPU    15m47.11s WALL

 
   This run was terminated on:   5: 0: 9  25Dec2018            

=------------------------------------------------------------------------------=
   JOB DONE.
=------------------------------------------------------------------------------=
Job  /afs/slac/g/suncat/bin/suncat-tsmpirun -x LD_LIBRARY_PATH -wdir /scratch/qe109213_6jQiM pw.x -in pw.inp

TID   HOST_NAME   COMMAND_LINE            STATUS            TERMINATION_TIME
===== ========== ================  =======================  ===================
00000 suncat0081 pw.x -in pw.inp   Done                     12/25/2018 05:00:09
00001 suncat0081 pw.x -in pw.inp   Done                     12/25/2018 05:00:09
00002 suncat0081 pw.x -in pw.inp   Done                     12/25/2018 05:00:09
00003 suncat0081 pw.x -in pw.inp   Done                     12/25/2018 05:00:09
00004 suncat0081 pw.x -in pw.inp   Done                     12/25/2018 05:00:09
00005 suncat0081 pw.x -in pw.inp   Done                     12/25/2018 05:00:09
00006 suncat0081 pw.x -in pw.inp   Done                     12/25/2018 05:00:09
00007 suncat0081 pw.x -in pw.inp   Done                     12/25/2018 05:00:09
00008 suncat0080 pw.x -in pw.inp   Done                     12/25/2018 05:00:09
00009 suncat0080 pw.x -in pw.inp   Done                     12/25/2018 05:00:09
00010 suncat0080 pw.x -in pw.inp   Done                     12/25/2018 05:00:09
00011 suncat0080 pw.x -in pw.inp   Done                     12/25/2018 05:00:09
00012 suncat0080 pw.x -in pw.inp   Done                     12/25/2018 05:00:09
00013 suncat0080 pw.x -in pw.inp   Done                     12/25/2018 05:00:09
00014 suncat0080 pw.x -in pw.inp   Done                     12/25/2018 05:00:09
00015 suncat0080 pw.x -in pw.inp   Done                     12/25/2018 05:00:09
00016 suncat0172 pw.x -in pw.inp   Done                     12/25/2018 05:00:09
00017 suncat0172 pw.x -in pw.inp   Done                     12/25/2018 05:00:09
00018 suncat0172 pw.x -in pw.inp   Done                     12/25/2018 05:00:09
00019 suncat0172 pw.x -in pw.inp   Done                     12/25/2018 05:00:09
00020 suncat0172 pw.x -in pw.inp   Done                     12/25/2018 05:00:09
00021 suncat0172 pw.x -in pw.inp   Done                     12/25/2018 05:00:09
00022 suncat0172 pw.x -in pw.inp   Done                     12/25/2018 05:00:09
00023 suncat0172 pw.x -in pw.inp   Done                     12/25/2018 05:00:09
00024 suncat0171 pw.x -in pw.inp   Done                     12/25/2018 05:00:09
00025 suncat0171 pw.x -in pw.inp   Done                     12/25/2018 05:00:09
00026 suncat0171 pw.x -in pw.inp   Done                     12/25/2018 05:00:09
00027 suncat0171 pw.x -in pw.inp   Done                     12/25/2018 05:00:09
00028 suncat0171 pw.x -in pw.inp   Done                     12/25/2018 05:00:09
00029 suncat0171 pw.x -in pw.inp   Done                     12/25/2018 05:00:09
00030 suncat0171 pw.x -in pw.inp   Done                     12/25/2018 05:00:09
00031 suncat0171 pw.x -in pw.inp   Done                     12/25/2018 05:00:09
00032 suncat0270 pw.x -in pw.inp   Done                     12/25/2018 05:00:09
00033 suncat0270 pw.x -in pw.inp   Done                     12/25/2018 05:00:09
00034 suncat0270 pw.x -in pw.inp   Done                     12/25/2018 05:00:09
00035 suncat0270 pw.x -in pw.inp   Done                     12/25/2018 05:00:09
00036 suncat0270 pw.x -in pw.inp   Done                     12/25/2018 05:00:09
00037 suncat0270 pw.x -in pw.inp   Done                     12/25/2018 05:00:09
00038 suncat0270 pw.x -in pw.inp   Done                     12/25/2018 05:00:09
00039 suncat0270 pw.x -in pw.inp   Done                     12/25/2018 05:00:09
00040 suncat0268 pw.x -in pw.inp   Done                     12/25/2018 05:00:09
00041 suncat0268 pw.x -in pw.inp   Done                     12/25/2018 05:00:09
00042 suncat0268 pw.x -in pw.inp   Done                     12/25/2018 05:00:09
00043 suncat0268 pw.x -in pw.inp   Done                     12/25/2018 05:00:09
00044 suncat0268 pw.x -in pw.inp   Done                     12/25/2018 05:00:09
00045 suncat0268 pw.x -in pw.inp   Done                     12/25/2018 05:00:09
00046 suncat0268 pw.x -in pw.inp   Done                     12/25/2018 05:00:09
00047 suncat0268 pw.x -in pw.inp   Done                     12/25/2018 05:00:09
00048 suncat0207 pw.x -in pw.inp   Done                     12/25/2018 05:00:09
00049 suncat0207 pw.x -in pw.inp   Done                     12/25/2018 05:00:09
00050 suncat0207 pw.x -in pw.inp   Done                     12/25/2018 05:00:09
00051 suncat0207 pw.x -in pw.inp   Done                     12/25/2018 05:00:09
00052 suncat0207 pw.x -in pw.inp   Done                     12/25/2018 05:00:09
00053 suncat0207 pw.x -in pw.inp   Done                     12/25/2018 05:00:09
00054 suncat0207 pw.x -in pw.inp   Done                     12/25/2018 05:00:09
00055 suncat0207 pw.x -in pw.inp   Done                     12/25/2018 05:00:09
00056 suncat0206 pw.x -in pw.inp   Done                     12/25/2018 05:00:09
00057 suncat0206 pw.x -in pw.inp   Done                     12/25/2018 05:00:09
00058 suncat0206 pw.x -in pw.inp   Done                     12/25/2018 05:00:09
00059 suncat0206 pw.x -in pw.inp   Done                     12/25/2018 05:00:09
00060 suncat0206 pw.x -in pw.inp   Done                     12/25/2018 05:00:09
00061 suncat0206 pw.x -in pw.inp   Done                     12/25/2018 05:00:09
00062 suncat0206 pw.x -in pw.inp   Done                     12/25/2018 05:00:09
00063 suncat0206 pw.x -in pw.inp   Done                     12/25/2018 05:00:09

     Program PWSCF v.5.1rc2 (svn rev. 11289) starts on 25Dec2018 at  5: 0:16 

     This program is part of the open-source Quantum ESPRESSO suite
     for quantum simulation of materials; please cite
         "P. Giannozzi et al., J. Phys.:Condens. Matter 21 395502 (2009);
          URL http://www.quantum-espresso.org", 
     in publications or presentations arising from this work. More details at
     http://www.quantum-espresso.org/quote

     Parallel version (MPI), running on    64 processors
     R & G space division:  proc/nbgrp/npool/nimage =      64
     Reading input from pw.inp
     Message from routine read_cards :
     DEPRECATED: no units specified in CELL_PARAMETERS card

     Current dimensions of program PWSCF are:
     Max number of different atomic species (ntypx) = 10
     Max number of k-points (npk) =  40000
     Max angular momentum in pseudopotentials (lmaxx) =  3
     Presently stress not available with electric field


     **************************************************************************
     Initializing libbeef V0.1.1 with the BEEF-vdW functional.
     Citation: Wellendorff et al., PRB 85, 235149 (2012).
     **************************************************************************


     IMPORTANT: XC functional enforced from input :
     Exchange-correlation      = BEEF-VDW ( 1  4 27 13 2)
     Any further DFT definition will be discarded
     Please, verify this is what you really want


     Subspace diagonalization in iterative solution of the eigenvalue problem:
     a serial algorithm will be used

 
     Parallelization info
     --------------------
     sticks:   dense  smooth     PW     G-vecs:    dense   smooth      PW
     Min          60      23      6                11626     2918     428
     Max          61      24      7                11640     2960     457
     Sum        3849    1527    437               744547   188077   28453
 


     bravais-lattice index     =            0
     lattice parameter (alat)  =       1.8897  a.u.
     unit-cell volume          =    6257.6182 (a.u.)^3
     number of atoms/cell      =           12
     number of atomic types    =            2
     number of electrons       =       192.00
     number of Kohn-Sham states=          126
     kinetic-energy cutoff     =      36.7493  Ry
     charge density cutoff     =     367.4932  Ry
     convergence threshold     =      1.0E-06
     mixing beta               =       0.1000
     number of iterations used =           10  plain     mixing
     Exchange-correlation      = BEEF-VDW ( 1  4 27 13 2)
     nstep                     =           50


     celldm(1)=   1.889726  celldm(2)=   0.000000  celldm(3)=   0.000000
     celldm(4)=   0.000000  celldm(5)=   0.000000  celldm(6)=   0.000000

     crystal axes: (cart. coord. in units of alat)
               a(1) = (   6.294938   0.000000   0.000000 )  
               a(2) = (   2.332247   5.846954   0.000000 )  
               a(3) = (   0.000000   0.000000  25.193661 )  

     reciprocal axes: (cart. coord. in units 2 pi/alat)
               b(1) = (  0.158858 -0.063366  0.000000 )  
               b(2) = (  0.000000  0.171029  0.000000 )  
               b(3) = (  0.000000  0.000000  0.039693 )  


     PseudoPot. # 1 for Zn read from file:
     /afs/slac.stanford.edu/u/if/mamunm/psp/gbrv1.5pbe/Zn.UPF
     MD5 check sum: df62231357ef9e81f77b2b3087fa5675
     Pseudo is Ultrasoft, Zval = 20.0
     Generated by new atomic code, or converted to UPF format
     Using radial grid of  943 points,  6 beta functions with: 
                l(1) =   0
                l(2) =   0
                l(3) =   1
                l(4) =   1
                l(5) =   2
                l(6) =   2
     Q(r) pseudized with  8 coefficients,  rinner =    1.100   1.100   1.100
                                                       1.100   1.100

     PseudoPot. # 2 for Hg read from file:
     /afs/slac.stanford.edu/u/if/mamunm/psp/gbrv1.5pbe/Hg.UPF
     MD5 check sum: 8f42caffe07f7fd9c0a564347f8c5498
     Pseudo is Ultrasoft + core correction, Zval = 12.0
     Generated by new atomic code, or converted to UPF format
     Using radial grid of  985 points,  6 beta functions with: 
                l(1) =   0
                l(2) =   0
                l(3) =   1
                l(4) =   1
                l(5) =   2
                l(6) =   2
     Q(r) pseudized with  8 coefficients,  rinner =    2.000   2.000   2.000
                                                       2.000   2.000

     vdW kernel table read from file vdW_kernel_table
     MD5 check sum: 095c7af220d748ca6e76c0b4c6cfb241

     atomic species   valence    mass     pseudopotential
        Zn1           20.00    65.38000     Zn( 1.00)
        Hg1           12.00   200.59200     Hg( 1.00)

     No symmetry found



   Cartesian axes

     site n.     atom                  positions (alat units)
         1           Zn1 tau(   1) = (   0.0000000   0.0000000  10.0000000  )
         2           Zn1 tau(   2) = (   4.3135929   2.9234771  10.0000000  )
         3           Hg1 tau(   3) = (   3.1474692   0.0000000  10.0000000  )
         4           Hg1 tau(   4) = (   1.1661236   2.9234771  10.0000000  )
         5           Zn1 tau(   5) = (   6.2949385   4.2663064  12.5968304  )
         6           Zn1 tau(   6) = (   1.9813456   1.3428292  12.5968304  )
         7           Hg1 tau(   7) = (   3.1474692   4.2663064  12.5968304  )
         8           Hg1 tau(   8) = (   5.1288149   1.3428292  12.5968304  )
         9           Zn1 tau(   9) = (   3.9609074   2.6844462  15.1928268  )
        10           Zn1 tau(  10) = (   8.2746744   5.6080467  15.1928338  )
        11           Hg1 tau(  11) = (   7.1126103   2.6873229  15.2080101  )
        12           Hg1 tau(  12) = (   5.1312690   5.6107948  15.2080118  )

     number of k points=    20  Fermi-Dirac smearing, width (Ry)=  0.0110
                       cart. coord. in units 2pi/alat
        k(    1) = (   0.0000000   0.0000000   0.0000000), wk =   0.0555556
        k(    2) = (   0.0000000   0.0285049   0.0000000), wk =   0.1111111
        k(    3) = (   0.0000000   0.0570097   0.0000000), wk =   0.1111111
        k(    4) = (   0.0000000  -0.0855146   0.0000000), wk =   0.0555556
        k(    5) = (   0.0264763  -0.0105609   0.0000000), wk =   0.1111111
        k(    6) = (   0.0264763   0.0179439   0.0000000), wk =   0.1111111
        k(    7) = (   0.0264763   0.0464488   0.0000000), wk =   0.1111111
        k(    8) = (   0.0264763  -0.0960755   0.0000000), wk =   0.1111111
        k(    9) = (   0.0264763  -0.0675707   0.0000000), wk =   0.1111111
        k(   10) = (   0.0264763  -0.0390658   0.0000000), wk =   0.1111111
        k(   11) = (   0.0529526  -0.0211219   0.0000000), wk =   0.1111111
        k(   12) = (   0.0529526   0.0073830   0.0000000), wk =   0.1111111
        k(   13) = (   0.0529526   0.0358879   0.0000000), wk =   0.1111111
        k(   14) = (   0.0529526  -0.1066365   0.0000000), wk =   0.1111111
        k(   15) = (   0.0529526  -0.0781316   0.0000000), wk =   0.1111111
        k(   16) = (   0.0529526  -0.0496267   0.0000000), wk =   0.1111111
        k(   17) = (  -0.0794289   0.0316828   0.0000000), wk =   0.0555556
        k(   18) = (  -0.0794289   0.0601877   0.0000000), wk =   0.1111111
        k(   19) = (  -0.0794289   0.0886925   0.0000000), wk =   0.1111111
        k(   20) = (  -0.0794289  -0.0538318   0.0000000), wk =   0.0555556

     Dense  grid:   744547 G-vectors     FFT dimensions: (  75,  75, 300)

     Smooth grid:   188077 G-vectors     FFT dimensions: (  45,  45, 192)

     Largest allocated arrays     est. size (Mb)     dimensions
        Kohn-Sham Wavefunctions         0.75 Mb     (     388,  126)
        NL pseudopotentials             1.28 Mb     (     388,  216)
        Each V/rho on FFT grid          0.43 Mb     (   28125)
        Each G-vector array             0.09 Mb     (   11640)
        G-vector shells                 0.04 Mb     (    5710)
     Largest temporary arrays     est. size (Mb)     dimensions
        Auxiliary wavefunctions         2.98 Mb     (     388,  504)
        Each subspace H/S matrix        3.88 Mb     (     504,  504)
        Each <psi_i|beta_j> matrix      0.42 Mb     (     216,  126)
        Arrays for rho mixing           4.29 Mb     (   28125,   10)

     Initial potential from superposition of free atoms
     Check: negative starting charge=   -0.000720

     starting charge  191.99880, renormalised to  192.00000

     negative rho (up, down):  7.205E-04 0.000E+00


     ************************************************************************
     *
     * You are using vdW-DF for exchange-correlation in this calculation.
     * Please cite the following three references that made this development
     * possible:
     *
     *   M. Dion, H. Rydberg, E. Schroder, D. C. Langreth, and
     *   B. I. Lundqvist, Phys. Rev. Lett. 92, 246401 (2004).
     *
     *   T. Thonhauser, V. R. Cooper, S. Li, A. Puzder, P. Hyldgaard, and
     *   D. C. Langreth, Phys. Rev. B 76, 125112 (2007).
     *
     *   G. Roman-Perez and J. M. Soler, Phys. Rev. Lett. 103, 096102 (2009).
     *
     *
     * If you are using vdW-DF2, please also cite:
     *
     *   K. Lee, E. D. Murray, L. Kong, B. I. Lundqvist, and
     *   D. C. Langreth, Phys. Rev. B 82, 081101(R) (2010).
     *
     *
     * If you are calculating the stress with vdW-DF, please also cite:
     *
     *   R. Sabatini, E. Kucukbenli, B. Kolb, T. Thonhauser, and
     *   S. de Gironcoli, J. Phys.: Condens. Matter 24, 424209 (2012).
     *
     ************************************************************************

     Carrying out vdW-DF run using the following parameters:

     Nqs =      20    Nr_points =    1024   r_max =   100.000
     q_mesh =
               0.00001000     0.04494208     0.09755937     0.15916263
               0.23128650     0.31572767     0.41458969     0.53033537
               0.66584808     0.82450364     1.01025438     1.22772762
               1.48234092     1.78043706     2.12944203     2.53805004
               3.01644009     3.57652955     4.23227104     5.00000000

     Gradients computed in reciprocal space

     ************************************************************************


 
     Adding external electric field

     Computed dipole along edir(3) : 
        Dipole               -0.0000 Ry au,         -0.0000 Debye
        Dipole field         -0.0000 Ry au
 
        Potential amp.        0.0000 Ry
        Total length         46.4189 bohr
 
     Starting wfc are  132 randomized atomic wfcs

     total cpu time spent up to now is       27.8 secs

     per-process dynamical memory:    43.7 Mb

     Self-consistent Calculation

     iteration #  1     ecut=    36.75 Ry     beta=0.10
     Davidson diagonalization with overlap
     ethr =  1.00E-02,  avg # of iterations =  8.4

     Threshold (ethr) on eigenvalues was too large:
     Diagonalizing with lowered threshold

     Davidson diagonalization with overlap
     ethr =  1.68E-05,  avg # of iterations = 10.1

     negative rho (up, down):  7.246E-04 0.000E+00
 
     Adding external electric field

     Computed dipole along edir(3) : 
        Dipole               -0.0010 Ry au,         -0.0025 Debye
        Dipole field         -0.0000 Ry au
 
        Potential amp.        0.0002 Ry
        Total length         46.4189 bohr
 

     total cpu time spent up to now is      257.7 secs

     total energy              =   -3431.16642884 Ry
     Harris-Foulkes estimate   =   -3431.16922161 Ry
     estimated scf accuracy    <       0.02838660 Ry

     iteration #  2     ecut=    36.75 Ry     beta=0.10
     Davidson diagonalization with overlap
     ethr =  1.48E-05,  avg # of iterations =  1.0

     negative rho (up, down):  8.280E-04 0.000E+00
 
     Adding external electric field

     Computed dipole along edir(3) : 
        Dipole                0.0028 Ry au,          0.0072 Debye
        Dipole field          0.0000 Ry au
 
        Potential amp.       -0.0005 Ry
        Total length         46.4189 bohr
 

     total cpu time spent up to now is      320.2 secs

     total energy              =   -3431.16195916 Ry
     Harris-Foulkes estimate   =   -3431.16671373 Ry
     estimated scf accuracy    <       0.01923928 Ry

     iteration #  3     ecut=    36.75 Ry     beta=0.10
     Davidson diagonalization with overlap
     ethr =  1.00E-05,  avg # of iterations =  2.7

     negative rho (up, down):  1.061E-03 0.000E+00
 
     Adding external electric field

     Computed dipole along edir(3) : 
        Dipole               -0.0114 Ry au,         -0.0291 Debye
        Dipole field         -0.0000 Ry au
 
        Potential amp.        0.0021 Ry
        Total length         46.4189 bohr
 

     total cpu time spent up to now is      391.7 secs

     total energy              =   -3431.16203061 Ry
     Harris-Foulkes estimate   =   -3431.16317130 Ry
     estimated scf accuracy    <       0.00658722 Ry

     iteration #  4     ecut=    36.75 Ry     beta=0.10
     Davidson diagonalization with overlap
     ethr =  3.43E-06,  avg # of iterations =  3.6

     negative rho (up, down):  1.103E-03 0.000E+00
 
     Adding external electric field

     Computed dipole along edir(3) : 
        Dipole                0.0079 Ry au,          0.0200 Debye
        Dipole field          0.0000 Ry au
 
        Potential amp.       -0.0015 Ry
        Total length         46.4189 bohr
 

     total cpu time spent up to now is      459.4 secs

     total energy              =   -3431.16211839 Ry
     Harris-Foulkes estimate   =   -3431.16231070 Ry
     estimated scf accuracy    <       0.00223030 Ry

     iteration #  5     ecut=    36.75 Ry     beta=0.10
     Davidson diagonalization with overlap
     ethr =  1.16E-06,  avg # of iterations =  2.8

     negative rho (up, down):  1.229E-03 0.000E+00
 
     Adding external electric field

     Computed dipole along edir(3) : 
        Dipole               -0.0002 Ry au,         -0.0004 Debye
        Dipole field         -0.0000 Ry au
 
        Potential amp.        0.0000 Ry
        Total length         46.4189 bohr
 

     total cpu time spent up to now is      528.0 secs

     total energy              =   -3431.16203538 Ry
     Harris-Foulkes estimate   =   -3431.16219447 Ry
     estimated scf accuracy    <       0.00113807 Ry

     iteration #  6     ecut=    36.75 Ry     beta=0.10
     Davidson diagonalization with overlap
     ethr =  5.93E-07,  avg # of iterations =  2.0

     negative rho (up, down):  1.204E-03 0.000E+00
 
     Adding external electric field

     Computed dipole along edir(3) : 
        Dipole                0.0001 Ry au,          0.0003 Debye
        Dipole field          0.0000 Ry au
 
        Potential amp.       -0.0000 Ry
        Total length         46.4189 bohr
 

     total cpu time spent up to now is      597.1 secs

     total energy              =   -3431.16214961 Ry
     Harris-Foulkes estimate   =   -3431.16213122 Ry
     estimated scf accuracy    <       0.00008798 Ry

     iteration #  7     ecut=    36.75 Ry     beta=0.10
     Davidson diagonalization with overlap
     ethr =  4.58E-08,  avg # of iterations =  2.2

     negative rho (up, down):  1.139E-03 0.000E+00
 
     Adding external electric field

     Computed dipole along edir(3) : 
        Dipole                0.0002 Ry au,          0.0006 Debye
        Dipole field          0.0000 Ry au
 
        Potential amp.       -0.0000 Ry
        Total length         46.4189 bohr
 

     total cpu time spent up to now is      666.3 secs

     total energy              =   -3431.16216178 Ry
     Harris-Foulkes estimate   =   -3431.16216511 Ry
     estimated scf accuracy    <       0.00004362 Ry

     iteration #  8     ecut=    36.75 Ry     beta=0.10
     Davidson diagonalization with overlap
     ethr =  2.27E-08,  avg # of iterations =  2.0

     negative rho (up, down):  1.096E-03 0.000E+00
 
     Adding external electric field

     Computed dipole along edir(3) : 
        Dipole                0.0001 Ry au,          0.0002 Debye
        Dipole field          0.0000 Ry au
 
        Potential amp.       -0.0000 Ry
        Total length         46.4189 bohr
 

     total cpu time spent up to now is      734.8 secs

     total energy              =   -3431.16217207 Ry
     Harris-Foulkes estimate   =   -3431.16216543 Ry
     estimated scf accuracy    <       0.00001062 Ry

     iteration #  9     ecut=    36.75 Ry     beta=0.10
     Davidson diagonalization with overlap
     ethr =  5.53E-09,  avg # of iterations =  2.9

     negative rho (up, down):  1.042E-03 0.000E+00
 
     Adding external electric field

     Computed dipole along edir(3) : 
        Dipole                0.0001 Ry au,          0.0002 Debye
        Dipole field          0.0000 Ry au
 
        Potential amp.       -0.0000 Ry
        Total length         46.4189 bohr
 

     total cpu time spent up to now is      813.0 secs

     total energy              =   -3431.16217687 Ry
     Harris-Foulkes estimate   =   -3431.16217523 Ry
     estimated scf accuracy    <       0.00000492 Ry

     iteration # 10     ecut=    36.75 Ry     beta=0.10
     Davidson diagonalization with overlap
     ethr =  2.56E-09,  avg # of iterations =  2.0

     negative rho (up, down):  8.178E-04 0.000E+00

     negative rho (up, down):  8.178E-04 0.000E+00

     negative rho (up, down):  8.178E-04 0.000E+00

     negative rho (up, down):  8.178E-04 0.000E+00

     negative rho (up, down):  8.178E-04 0.000E+00

     negative rho (up, down):  8.178E-04 0.000E+00

     negative rho (up, down):  8.178E-04 0.000E+00

     negative rho (up, down):  8.178E-04 0.000E+00

     negative rho (up, down):  8.178E-04 0.000E+00

     negative rho (up, down):  8.178E-04 0.000E+00

     negative rho (up, down):  8.178E-04 0.000E+00

     negative rho (up, down):  8.178E-04 0.000E+00

     negative rho (up, down):  8.178E-04 0.000E+00

     negative rho (up, down):  8.178E-04 0.000E+00

     negative rho (up, down):  8.178E-04 0.000E+00

     negative rho (up, down):  8.178E-04 0.000E+00

     negative rho (up, down):  8.178E-04 0.000E+00

     negative rho (up, down):  8.178E-04 0.000E+00

     negative rho (up, down):  8.178E-04 0.000E+00

     negative rho (up, down):  8.178E-04 0.000E+00

     negative rho (up, down):  8.178E-04 0.000E+00

     negative rho (up, down):  8.178E-04 0.000E+00

     negative rho (up, down):  8.178E-04 0.000E+00

     negative rho (up, down):  8.178E-04 0.000E+00

     negative rho (up, down):  8.178E-04 0.000E+00

     negative rho (up, down):  8.178E-04 0.000E+00

     negative rho (up, down):  8.178E-04 0.000E+00

     negative rho (up, down):  8.178E-04 0.000E+00

     negative rho (up, down):  8.178E-04 0.000E+00

     negative rho (up, down):  8.178E-04 0.000E+00

     negative rho (up, down):  8.178E-04 0.000E+00

     negative rho (up, down):  8.178E-04 0.000E+00

     negative rho (up, down):  8.178E-04 0.000E+00

     negative rho (up, down):  8.178E-04 0.000E+00

     negative rho (up, down):  8.178E-04 0.000E+00
 
     Adding external electric field

     Computed dipole along edir(3) : 
        Dipole                0.0007 Ry au,          0.0018 Debye
        Dipole field          0.0000 Ry au
 
        Potential amp.       -0.0001 Ry
        Total length         46.4189 bohr
 

     total cpu time spent up to now is      946.5 secs

     End of self-consistent calculation

          k = 0.0000 0.0000 0.0000 ( 23541 PWs)   bands (ev):

  -126.3747-126.3747-126.2211-126.2211-126.2207-126.2207 -80.5628 -80.5627
   -80.5601 -80.5596 -80.5557 -80.5557 -80.4149 -80.4148 -80.4145 -80.4143
   -80.4042 -80.4038 -80.4037 -80.4033 -80.4001 -80.4001 -80.3997 -80.3997
    -7.8572  -7.7102  -7.6734  -7.6445  -7.6340  -7.6274  -7.5790  -7.5659
    -7.5201  -7.4951  -7.4879  -7.4779  -7.4697  -7.4538  -7.4195  -7.4157
    -7.4022  -7.3874  -7.3743  -7.2960  -7.2905  -7.2853  -7.2224  -7.2196
    -7.2175  -7.2092  -7.1439  -7.1372  -7.1164  -7.0912  -7.0658  -7.0647
    -7.0042  -6.9777  -6.9527  -6.9258  -6.9223  -6.9081  -6.8543  -6.8490
    -6.8331  -6.7667  -6.7444  -6.7076  -6.7013  -6.6999  -6.6977  -6.6922
    -6.6481  -6.6392  -6.6336  -6.6089  -6.6058  -6.5774  -6.5540  -6.5276
    -6.5053  -6.4404  -6.4353  -6.4322  -6.3951  -6.0473  -3.8700  -2.9646
    -2.9263  -2.2483  -2.0496  -2.0485  -1.4383  -0.9447  -0.8959  -0.6617
    -0.6192  -0.5014  -0.3408   0.4918   0.5791   0.6641   1.2573   1.4109
     1.4415   2.1725   2.2283   3.3513   3.7983   4.0416   4.2302   4.3253
     4.6321   4.7122   4.7718   5.1983   5.3395   5.8005   6.2060   6.2458
     6.3029   6.6300   6.7751   6.9664   7.0172   7.4165

          k = 0.0000 0.0285 0.0000 ( 23587 PWs)   bands (ev):

  -126.3748-126.3747-126.2211-126.2211-126.2207-126.2207 -80.5628 -80.5628
   -80.5601 -80.5597 -80.5558 -80.5558 -80.4149 -80.4148 -80.4145 -80.4144
   -80.4042 -80.4038 -80.4038 -80.4034 -80.4002 -80.4002 -80.3998 -80.3997
    -7.7444  -7.6750  -7.6375  -7.6144  -7.6053  -7.5812  -7.5572  -7.5491
    -7.4931  -7.4779  -7.4761  -7.4643  -7.4415  -7.4072  -7.4033  -7.3945
    -7.3907  -7.3728  -7.3459  -7.2948  -7.2847  -7.2677  -7.2325  -7.2150
    -7.2130  -7.2033  -7.1465  -7.1384  -7.1216  -7.1041  -7.0767  -7.0619
    -6.9889  -6.9876  -6.9603  -6.9383  -6.9305  -6.8975  -6.8586  -6.8458
    -6.8417  -6.8025  -6.7654  -6.7481  -6.7250  -6.7157  -6.6970  -6.6823
    -6.6795  -6.6485  -6.6402  -6.6222  -6.6146  -6.5991  -6.5807  -6.5568
    -6.5290  -6.4860  -6.4804  -6.4722  -6.4439  -5.9098  -4.1113  -3.7857
    -3.1388  -2.8298  -2.0654  -1.8248  -1.5528  -1.1395  -0.9517  -0.2955
    -0.1755  -0.0362   0.0642   0.4737   0.7941   0.8010   1.3940   1.7189
     2.2811   2.6558   2.8286   3.2693   3.4725   3.9160   4.0156   4.0277
     4.2484   4.7553   4.8912   5.0979   5.4224   5.5533   5.9726   6.3509
     6.4337   6.4748   6.5686   6.8182   6.8859   7.0195

          k = 0.0000 0.0570 0.0000 ( 23543 PWs)   bands (ev):

  -126.3747-126.3747-126.2211-126.2211-126.2207-126.2207 -80.5627 -80.5627
   -80.5599 -80.5598 -80.5558 -80.5557 -80.4149 -80.4147 -80.4144 -80.4143
   -80.4040 -80.4039 -80.4036 -80.4035 -80.4002 -80.4001 -80.3998 -80.3997
    -7.6201  -7.5869  -7.5479  -7.5387  -7.5172  -7.5086  -7.4924  -7.4661
    -7.4460  -7.4359  -7.4305  -7.4071  -7.4037  -7.3756  -7.3697  -7.3599
    -7.3477  -7.3102  -7.2800  -7.2665  -7.2613  -7.2355  -7.2112  -7.1982
    -7.1810  -7.1664  -7.1628  -7.1337  -7.1179  -7.1062  -7.1043  -7.0262
    -7.0106  -6.9754  -6.9603  -6.9550  -6.9400  -6.9114  -6.8631  -6.8564
    -6.8445  -6.8268  -6.8229  -6.8121  -6.8081  -6.7693  -6.7258  -6.7086
    -6.7065  -6.6784  -6.6763  -6.6668  -6.6496  -6.6332  -6.6190  -6.5924
    -6.5812  -6.5669  -6.5607  -6.5539  -6.5447  -5.5345  -5.3446  -4.0003
    -3.5712  -3.3323  -2.5556  -1.8856  -1.7759  -1.4964  -1.0296   0.1328
     0.1886   0.5116   0.8034   1.4129   1.5082   1.8290   2.2184   2.4646
     2.4806   2.5988   3.0002   3.5172   3.8331   3.8574   3.9985   4.2750
     4.5779   4.7207   4.8229   5.0698   5.2475   5.2963   5.3411   5.6554
     5.7783   6.0089   6.1936   6.2761   6.5685   6.6059

          k = 0.0000-0.0855 0.0000 ( 23554 PWs)   bands (ev):

  -126.3747-126.3747-126.2211-126.2211-126.2207-126.2207 -80.5628 -80.5628
   -80.5598 -80.5598 -80.5558 -80.5558 -80.4149 -80.4148 -80.4145 -80.4143
   -80.4040 -80.4039 -80.4036 -80.4035 -80.4002 -80.4001 -80.3998 -80.3997
    -7.5817  -7.5817  -7.5056  -7.5055  -7.4403  -7.4403  -7.4344  -7.4344
    -7.4086  -7.4086  -7.4047  -7.4047  -7.3846  -7.3846  -7.3674  -7.3673
    -7.3356  -7.3356  -7.2346  -7.2346  -7.1949  -7.1948  -7.1922  -7.1920
    -7.1537  -7.1536  -7.1369  -7.1368  -7.1185  -7.1183  -7.0110  -7.0110
[...]

  -126.2901-126.2896-126.2156-126.2155-126.1984-126.1979 -80.4819 -80.4815
   -80.4733 -80.4727 -80.4690 -80.4685 -80.4088 -80.4086 -80.3985 -80.3983
   -80.3953 -80.3951 -80.3872 -80.3867 -80.3819 -80.3817 -80.3814 -80.3812
    -7.5082  -7.4974  -7.4292  -7.3980  -7.3780  -7.3470  -7.3429  -7.3415
    -7.3140  -7.3063  -7.3044  -7.2708  -7.2658  -7.2611  -7.2470  -7.2313
    -7.1975  -7.1914  -7.1803  -7.1735  -7.1703  -7.1521  -7.1491  -7.1286
    -7.1202  -7.1187  -7.0994  -7.0816  -7.0724  -7.0511  -7.0479  -7.0224
    -7.0186  -6.9893  -6.9725  -6.9542  -6.9479  -6.9462  -6.8999  -6.8935
    -6.8780  -6.8454  -6.8258  -6.8206  -6.7885  -6.7446  -6.6915  -6.6523
    -6.6507  -6.6246  -6.5973  -6.5956  -6.5671  -6.5200  -6.5174  -6.4919
    -6.4525  -6.4306  -6.3877  -6.3133  -6.1392  -5.2048  -4.9476  -4.7366
    -3.7773  -3.5665  -2.9601  -2.7274  -2.2506  -2.0096  -1.4421  -0.6880
     0.6507   1.1526   1.3649   1.6098   2.2205   2.4015   2.7135   2.9580
     3.4536   3.6523   3.7115   3.8324   4.2268   4.2634   4.5566   4.7490
     4.8816   5.0996   5.1049   5.1715   5.3691   5.4750   5.5127   5.5955
     5.6595   5.7829   5.9332   6.0185   6.0701   6.1326

          k = 0.0530-0.0781 0.0000 ( 23507 PWs)   bands (ev):

  -126.2901-126.2896-126.2156-126.2155-126.1984-126.1979 -80.4819 -80.4815
   -80.4733 -80.4727 -80.4690 -80.4685 -80.4088 -80.4086 -80.3985 -80.3984
   -80.3953 -80.3951 -80.3872 -80.3867 -80.3819 -80.3817 -80.3814 -80.3811
    -7.4661  -7.4136  -7.4004  -7.3881  -7.3792  -7.3597  -7.3532  -7.3436
    -7.3297  -7.3290  -7.3056  -7.2968  -7.2871  -7.2489  -7.2445  -7.2422
    -7.2234  -7.2103  -7.2052  -7.1635  -7.1585  -7.1577  -7.1468  -7.1424
    -7.1360  -7.1281  -7.1176  -7.1038  -7.1005  -7.0844  -7.0394  -7.0007
    -6.9739  -6.9727  -6.9638  -6.9499  -6.9460  -6.8988  -6.8903  -6.8596
    -6.8389  -6.8279  -6.8129  -6.7847  -6.7284  -6.7073  -6.7029  -6.6760
    -6.6465  -6.6274  -6.6008  -6.5748  -6.5721  -6.5438  -6.5290  -6.5115
    -6.4890  -6.4582  -6.4430  -6.4092  -5.8175  -5.5758  -5.2828  -4.4102
    -4.2539  -3.7618  -2.9691  -2.5543  -2.0271  -1.5189  -0.6585  -0.6153
     1.0106   1.3183   1.3303   1.4641   1.9981   2.2435   2.6796   2.9918
     3.1017   3.1810   3.7512   3.9070   3.9208   4.1150   4.2350   4.5555
     4.6481   4.7639   5.0246   5.0363   5.2410   5.3629   5.4851   5.5290
     5.6891   5.8903   5.9301   5.9521   6.0908   6.2178

          k = 0.0530-0.0496 0.0000 ( 23564 PWs)   bands (ev):

  -126.2901-126.2896-126.2156-126.2155-126.1984-126.1979 -80.4819 -80.4815
   -80.4733 -80.4727 -80.4691 -80.4685 -80.4088 -80.4086 -80.3985 -80.3984
   -80.3953 -80.3952 -80.3873 -80.3867 -80.3819 -80.3817 -80.3814 -80.3812
    -7.4825  -7.4740  -7.4520  -7.4310  -7.4024  -7.3980  -7.3919  -7.3872
    -7.3803  -7.3609  -7.3324  -7.3318  -7.3071  -7.2919  -7.2618  -7.2582
    -7.2235  -7.1927  -7.1767  -7.1729  -7.1687  -7.1658  -7.1559  -7.1470
    -7.1411  -7.1315  -7.1202  -7.1189  -7.0899  -7.0836  -7.0282  -6.9662
    -6.9420  -6.9215  -6.9207  -6.9093  -6.8761  -6.8731  -6.8541  -6.8383
    -6.8221  -6.7851  -6.7427  -6.7371  -6.7159  -6.6981  -6.6589  -6.6562
    -6.6266  -6.6248  -6.5983  -6.5603  -6.5461  -6.5436  -6.5317  -6.5275
    -6.5233  -6.5146  -6.4799  -6.4582  -6.3485  -5.4631  -5.0010  -4.4669
    -4.0138  -3.5000  -2.9883  -2.2733  -1.3606  -1.3059  -0.7497  -0.2771
     0.7568   1.0866   1.3655   1.5821   1.7667   2.2245   2.2294   2.4542
     2.5406   2.9453   3.0570   3.4810   3.6861   3.9257   3.9507   4.2239
     4.4050   4.5490   4.5507   4.9168   5.0334   5.2182   5.3315   5.4657
     5.5538   5.7233   5.8436   6.1843   6.2740   6.4611

          k =-0.0794 0.0317 0.0000 ( 23554 PWs)   bands (ev):

  -126.2901-126.2896-126.2156-126.2155-126.1984-126.1979 -80.4820 -80.4815
   -80.4732 -80.4727 -80.4691 -80.4685 -80.4088 -80.4086 -80.3984 -80.3984
   -80.3953 -80.3952 -80.3873 -80.3867 -80.3819 -80.3817 -80.3814 -80.3812
    -7.5160  -7.5154  -7.4515  -7.4509  -7.3970  -7.3970  -7.3801  -7.3798
    -7.3614  -7.3612  -7.3457  -7.3456  -7.3021  -7.3020  -7.2573  -7.2571
    -7.1864  -7.1860  -7.1682  -7.1679  -7.1571  -7.1565  -7.1460  -7.1459
    -7.1321  -7.1319  -7.1141  -7.1137  -7.0875  -7.0872  -6.9459  -6.9456
    -6.9265  -6.9261  -6.9136  -6.9134  -6.8831  -6.8830  -6.8533  -6.8531
    -6.8236  -6.8229  -6.7676  -6.7674  -6.7208  -6.7205  -6.6455  -6.6454
    -6.6047  -6.6046  -6.5718  -6.5698  -6.5381  -6.5369  -6.5290  -6.5271
    -6.5032  -6.5028  -6.4930  -6.4924  -6.1072  -6.1066  -4.7022  -4.7001
    -3.5047  -3.5039  -2.5246  -2.5239  -1.6985  -1.6909  -0.5376  -0.5366
     0.8830   0.8840   1.2045   1.2067   2.0305   2.0347   2.5792   2.5813
     2.9878   2.9912   3.4704   3.4745   4.0078   4.0084   4.2541   4.2554
     4.5109   4.5129   4.7995   4.8036   5.0580   5.0660   5.3997   5.4006
     5.6306   5.6312   5.8045   5.8060   6.0204   6.0232

          k =-0.0794 0.0602 0.0000 ( 23527 PWs)   bands (ev):

  -126.2901-126.2896-126.2156-126.2155-126.1984-126.1979 -80.4819 -80.4815
   -80.4733 -80.4727 -80.4690 -80.4685 -80.4088 -80.4086 -80.3985 -80.3983
   -80.3953 -80.3952 -80.3872 -80.3867 -80.3819 -80.3817 -80.3814 -80.3812
    -7.5039  -7.4787  -7.4561  -7.4215  -7.4031  -7.3981  -7.3667  -7.3606
    -7.3462  -7.3406  -7.3357  -7.3173  -7.3004  -7.2912  -7.2571  -7.2558
    -7.2036  -7.2017  -7.1756  -7.1632  -7.1630  -7.1463  -7.1448  -7.1378
    -7.1292  -7.1208  -7.1174  -7.1048  -7.0978  -7.0644  -6.9795  -6.9743
    -6.9599  -6.9452  -6.9365  -6.9298  -6.9191  -6.8957  -6.8856  -6.8397
    -6.8372  -6.8232  -6.7988  -6.7859  -6.7478  -6.6994  -6.6682  -6.6383
    -6.6319  -6.6173  -6.6075  -6.5786  -6.5697  -6.5473  -6.5259  -6.5155
    -6.4734  -6.4708  -6.4517  -6.4004  -6.2222  -5.6745  -4.8977  -4.2814
    -4.2576  -3.1709  -2.9007  -2.6415  -1.4779  -1.3344  -1.2457  -0.8121
     0.6012   0.8326   1.2685   1.5466   2.0868   2.3262   2.6648   2.7825
     2.8142   3.4401   3.5512   3.7346   3.9731   4.1906   4.2017   4.2905
     4.5820   4.6831   4.7249   4.9834   5.2021   5.3485   5.4417   5.6190
     5.7311   5.8013   5.8560   5.9651   5.9875   6.2329

          k =-0.0794 0.0887 0.0000 ( 23473 PWs)   bands (ev):

  -126.2901-126.2896-126.2156-126.2155-126.1984-126.1979 -80.4819 -80.4815
   -80.4733 -80.4727 -80.4690 -80.4685 -80.4088 -80.4086 -80.3985 -80.3983
   -80.3953 -80.3951 -80.3872 -80.3867 -80.3819 -80.3817 -80.3814 -80.3812
    -7.5082  -7.4974  -7.4292  -7.3980  -7.3780  -7.3470  -7.3429  -7.3415
    -7.3140  -7.3063  -7.3044  -7.2708  -7.2658  -7.2611  -7.2470  -7.2313
    -7.1975  -7.1914  -7.1803  -7.1735  -7.1703  -7.1521  -7.1491  -7.1286
    -7.1202  -7.1187  -7.0994  -7.0816  -7.0724  -7.0511  -7.0479  -7.0224
    -7.0186  -6.9893  -6.9725  -6.9542  -6.9479  -6.9462  -6.8999  -6.8935
    -6.8780  -6.8454  -6.8258  -6.8206  -6.7885  -6.7446  -6.6915  -6.6523
    -6.6507  -6.6246  -6.5973  -6.5956  -6.5671  -6.5200  -6.5174  -6.4919
    -6.4525  -6.4306  -6.3877  -6.3133  -6.1392  -5.2048  -4.9476  -4.7366
    -3.7773  -3.5665  -2.9601  -2.7274  -2.2506  -2.0096  -1.4421  -0.6880
     0.6507   1.1526   1.3649   1.6098   2.2205   2.4015   2.7135   2.9580
     3.4536   3.6523   3.7115   3.8324   4.2268   4.2634   4.5566   4.7490
     4.8816   5.0996   5.1049   5.1715   5.3692   5.4750   5.5127   5.5955
     5.6598   5.7830   5.9332   6.0186   6.0702   6.1326

          k =-0.0794-0.0538 0.0000 ( 23396 PWs)   bands (ev):

  -126.2901-126.2896-126.2156-126.2155-126.1984-126.1979 -80.4819 -80.4815
   -80.4732 -80.4726 -80.4690 -80.4684 -80.4088 -80.4086 -80.3985 -80.3981
   -80.3953 -80.3951 -80.3872 -80.3867 -80.3819 -80.3816 -80.3813 -80.3811
    -7.5299  -7.5167  -7.4162  -7.3670  -7.3544  -7.3508  -7.3316  -7.3153
    -7.3064  -7.2900  -7.2837  -7.2606  -7.2596  -7.2512  -7.2493  -7.2178
    -7.1852  -7.1740  -7.1714  -7.1663  -7.1614  -7.1505  -7.1241  -7.1219
    -7.1066  -7.0900  -7.0775  -7.0769  -7.0760  -7.0645  -7.0611  -7.0486
    -7.0155  -7.0090  -6.9802  -6.9731  -6.9725  -6.9679  -6.9453  -6.9095
    -6.8728  -6.8699  -6.8652  -6.8618  -6.8459  -6.7316  -6.6992  -6.6546
    -6.6418  -6.6293  -6.6095  -6.5859  -6.5813  -6.5170  -6.5057  -6.4636
    -6.4481  -6.4074  -6.3647  -6.2822  -5.9138  -5.6950  -4.5780  -4.2081
    -4.0932  -3.8198  -2.8994  -2.8565  -2.3789  -2.3053  -1.7187  -0.9747
     0.9457   1.0585   1.6212   1.9327   2.3520   2.8266   2.9895   3.0676
     3.2054   3.4412   3.5521   4.0302   4.3754   4.4327   4.5419   4.6135
     4.6411   4.9955   5.0951   5.1579   5.3684   5.4236   5.7833   5.8462
     5.8883   6.0951   6.1006   6.1438   6.2421   6.4491

     the Fermi energy is    -0.1432 ev

!    total energy              =   -3431.16816744 Ry
     Harris-Foulkes estimate   =   -3431.16815647 Ry
     estimated scf accuracy    <       0.00000058 Ry

     The total energy is the sum of the following terms:

     one-electron contribution =  -16067.74139235 Ry
     hartree contribution      =    8067.20071837 Ry
     xc contribution           =    -502.51891843 Ry
     ewald contribution        =    5071.90944743 Ry
     electric field correction =       0.00000018 Ry
     smearing contrib. (-TS)   =      -0.01802264 Ry

     convergence has been achieved in  10 iterations
 
 BEEF-vdW xc energy contributions
           1 :   -443.453803324573     
           2 :    403.875693810855     
           3 :   -336.944338585149     
           4 :    261.163550311241     
           5 :   -193.266653703162     
           6 :    142.329745865215     
           7 :   -108.477939860528     
           8 :    85.9457600955283     
           9 :   -68.0535449991233     
          10 :    51.0478657919728     
          11 :   -34.9892750896097     
          12 :    21.9641252528618     
          13 :   -13.4727287466429     
          14 :    8.95870020708713     
          15 :   -6.25756816419903     
          16 :    3.24100238775333     
          17 :   0.781974311210149     
          18 :   -4.91363983374504     
          19 :    7.68662189055669     
          20 :   -8.33664854823030     
          21 :    7.36335981932916     
          22 :   -6.07452118040771     
          23 :    5.59504650480676     
          24 :   -6.15247668564803     
          25 :    7.12563949972309     
          26 :   -7.69838629152093     
          27 :    7.52252398392557     
          28 :   -6.87998628880194     
          29 :    6.30404624157524     
          30 :   -6.06121695719543     
          31 :   -37.5496204109375     
          32 :   -26.3873689804216     

     Forces acting on atoms (Ry/au):


     negative rho (up, down):  7.759E-04 0.000E+00
     atom    1 type  1   force =    -0.00009213   -0.00006229   -0.00002256
     atom    2 type  1   force =    -0.00010231   -0.00007003   -0.00001509
     atom    3 type  2   force =    -0.00052660   -0.00033279   -0.00741015
     atom    4 type  2   force =    -0.00050408   -0.00036592   -0.00741049
     atom    5 type  1   force =    -0.00067382   -0.00045563    0.00489490
     atom    6 type  1   force =    -0.00085687   -0.00058196    0.00490583
     atom    7 type  2   force =     0.00198665    0.00133934    0.00388613
     atom    8 type  2   force =     0.00197894    0.00134892    0.00388199
     atom    9 type  1   force =     0.00082391    0.00056126   -0.00081688
     atom   10 type  1   force =     0.00096839    0.00065279   -0.00080842
     atom   11 type  2   force =    -0.00150119   -0.00101547   -0.00054299
     atom   12 type  2   force =    -0.00150089   -0.00101822   -0.00054226

     Total force =     0.014590     Total SCF correction =     0.002658
     SCF correction compared to forces is large: reduce conv_thr to get better values


     entering subroutine stress ...


     negative rho (up, down):  7.759E-04 0.000E+00
          total   stress  (Ry/bohr**3)                   (kbar)     P=   -2.91
  -0.00003123  -0.00001517  -0.00000059         -4.59     -2.23     -0.09
  -0.00001517  -0.00001913  -0.00000040         -2.23     -2.81     -0.06
  -0.00000059  -0.00000040  -0.00000908         -0.09     -0.06     -1.34

 !ASE

     Writing output data file calc.save
 
     init_run     :     14.37s CPU     23.48s WALL (       1 calls)
     electrons    :    529.00s CPU    858.40s WALL (       1 calls)
     forces       :      3.33s CPU      4.24s WALL (       1 calls)
     stress       :      7.59s CPU      9.13s WALL (       1 calls)

     Called by init_run:
     wfcinit      :     11.67s CPU     19.80s WALL (       1 calls)
     potinit      :      1.58s CPU      2.28s WALL (       1 calls)

     Called by electrons:
     c_bands      :    409.42s CPU    663.48s WALL (      11 calls)
     sum_band     :     58.88s CPU    103.12s WALL (      11 calls)
     v_of_rho     :     13.40s CPU     21.41s WALL (      11 calls)
     newd         :      3.40s CPU      3.70s WALL (      11 calls)
     mix_rho      :      0.39s CPU      0.66s WALL (      11 calls)
     vdW_energy   :      1.75s CPU      1.76s WALL (      47 calls)
     vdW_ffts     :     39.26s CPU     61.99s WALL (      96 calls)
     vdW_v        :      7.17s CPU     10.50s WALL (      47 calls)

     Called by c_bands:
     init_us_2    :      0.31s CPU      0.35s WALL (     500 calls)
     cegterg      :    406.04s CPU    659.45s WALL (     220 calls)

     Called by *egterg:
     h_psi        :    275.56s CPU    508.64s WALL (     968 calls)
     s_psi        :      4.90s CPU      4.98s WALL (     968 calls)
     g_psi        :      0.28s CPU      0.29s WALL (     728 calls)
     cdiaghg      :     95.13s CPU    107.43s WALL (     928 calls)

     Called by h_psi:
     add_vuspsi   :      5.18s CPU      5.24s WALL (     968 calls)

     General routines
     calbec       :     14.00s CPU     18.52s WALL (    1228 calls)
     fft          :     58.83s CPU     92.87s WALL (    2833 calls)
     ffts         :      0.10s CPU      0.15s WALL (      22 calls)
     fftw         :    305.05s CPU    576.53s WALL (  161502 calls)
     interpolate  :      0.52s CPU      0.83s WALL (      22 calls)
     davcio       :      0.00s CPU      0.02s WALL (      20 calls)
 
     Parallel routines
     fft_scatter  :    348.43s CPU    652.46s WALL (  164357 calls)
 
     PWSCF        :  9m15.32s CPU    14m57.00s WALL

 
   This run was terminated on:   6:52:59  25Dec2018            

=------------------------------------------------------------------------------=
   JOB DONE.
=------------------------------------------------------------------------------=
Job  /afs/slac/g/suncat/bin/suncat-tsmpirun -x LD_LIBRARY_PATH -wdir /scratch/qe109213_6jQiM pw.x -in pw.inp

TID   HOST_NAME   COMMAND_LINE            STATUS            TERMINATION_TIME
===== ========== ================  =======================  ===================
00000 suncat0081 pw.x -in pw.inp   Done                     12/25/2018 06:52:59
00001 suncat0081 pw.x -in pw.inp   Done                     12/25/2018 06:52:59
00002 suncat0081 pw.x -in pw.inp   Done                     12/25/2018 06:52:59
00003 suncat0081 pw.x -in pw.inp   Done                     12/25/2018 06:52:59
00004 suncat0081 pw.x -in pw.inp   Done                     12/25/2018 06:52:59
00005 suncat0081 pw.x -in pw.inp   Done                     12/25/2018 06:52:59
00006 suncat0081 pw.x -in pw.inp   Done                     12/25/2018 06:52:59
00007 suncat0081 pw.x -in pw.inp   Done                     12/25/2018 06:52:59
00008 suncat0080 pw.x -in pw.inp   Done                     12/25/2018 06:52:59
00009 suncat0080 pw.x -in pw.inp   Done                     12/25/2018 06:52:59
00010 suncat0080 pw.x -in pw.inp   Done                     12/25/2018 06:52:59
00011 suncat0080 pw.x -in pw.inp   Done                     12/25/2018 06:52:59
00012 suncat0080 pw.x -in pw.inp   Done                     12/25/2018 06:52:59
00013 suncat0080 pw.x -in pw.inp   Done                     12/25/2018 06:52:59
00014 suncat0080 pw.x -in pw.inp   Done                     12/25/2018 06:52:59
00015 suncat0080 pw.x -in pw.inp   Done                     12/25/2018 06:52:59
00016 suncat0172 pw.x -in pw.inp   Done                     12/25/2018 06:52:59
00017 suncat0172 pw.x -in pw.inp   Done                     12/25/2018 06:52:59
00018 suncat0172 pw.x -in pw.inp   Done                     12/25/2018 06:52:59
00019 suncat0172 pw.x -in pw.inp   Done                     12/25/2018 06:52:59
00020 suncat0172 pw.x -in pw.inp   Done                     12/25/2018 06:52:59
00021 suncat0172 pw.x -in pw.inp   Done                     12/25/2018 06:52:59
00022 suncat0172 pw.x -in pw.inp   Done                     12/25/2018 06:52:59
00023 suncat0172 pw.x -in pw.inp   Done                     12/25/2018 06:52:59
00024 suncat0171 pw.x -in pw.inp   Done                     12/25/2018 06:52:59
00025 suncat0171 pw.x -in pw.inp   Done                     12/25/2018 06:52:59
00026 suncat0171 pw.x -in pw.inp   Done                     12/25/2018 06:52:59
00027 suncat0171 pw.x -in pw.inp   Done                     12/25/2018 06:52:59
00028 suncat0171 pw.x -in pw.inp   Done                     12/25/2018 06:52:59
00029 suncat0171 pw.x -in pw.inp   Done                     12/25/2018 06:52:59
00030 suncat0171 pw.x -in pw.inp   Done                     12/25/2018 06:52:59
00031 suncat0171 pw.x -in pw.inp   Done                     12/25/2018 06:52:59
00032 suncat0270 pw.x -in pw.inp   Done                     12/25/2018 06:52:59
00033 suncat0270 pw.x -in pw.inp   Done                     12/25/2018 06:52:59
00034 suncat0270 pw.x -in pw.inp   Done                     12/25/2018 06:52:59
00035 suncat0270 pw.x -in pw.inp   Done                     12/25/2018 06:52:59
00036 suncat0270 pw.x -in pw.inp   Done                     12/25/2018 06:52:59
00037 suncat0270 pw.x -in pw.inp   Done                     12/25/2018 06:52:59
00038 suncat0270 pw.x -in pw.inp   Done                     12/25/2018 06:52:59
00039 suncat0270 pw.x -in pw.inp   Done                     12/25/2018 06:52:59
00040 suncat0268 pw.x -in pw.inp   Done                     12/25/2018 06:52:59
00041 suncat0268 pw.x -in pw.inp   Done                     12/25/2018 06:52:59
00042 suncat0268 pw.x -in pw.inp   Done                     12/25/2018 06:52:59
00043 suncat0268 pw.x -in pw.inp   Done                     12/25/2018 06:52:59
00044 suncat0268 pw.x -in pw.inp   Done                     12/25/2018 06:52:59
00045 suncat0268 pw.x -in pw.inp   Done                     12/25/2018 06:52:59
00046 suncat0268 pw.x -in pw.inp   Done                     12/25/2018 06:52:59
00047 suncat0268 pw.x -in pw.inp   Done                     12/25/2018 06:52:59
00048 suncat0207 pw.x -in pw.inp   Done                     12/25/2018 06:52:59
00049 suncat0207 pw.x -in pw.inp   Done                     12/25/2018 06:52:59
00050 suncat0207 pw.x -in pw.inp   Done                     12/25/2018 06:52:59
00051 suncat0207 pw.x -in pw.inp   Done                     12/25/2018 06:52:59
00052 suncat0207 pw.x -in pw.inp   Done                     12/25/2018 06:52:59
00053 suncat0207 pw.x -in pw.inp   Done                     12/25/2018 06:52:59
00054 suncat0207 pw.x -in pw.inp   Done                     12/25/2018 06:52:59
00055 suncat0207 pw.x -in pw.inp   Done                     12/25/2018 06:52:59
00056 suncat0206 pw.x -in pw.inp   Done                     12/25/2018 06:52:59
00057 suncat0206 pw.x -in pw.inp   Done                     12/25/2018 06:52:59
00058 suncat0206 pw.x -in pw.inp   Done                     12/25/2018 06:52:59
00059 suncat0206 pw.x -in pw.inp   Done                     12/25/2018 06:52:59
00060 suncat0206 pw.x -in pw.inp   Done                     12/25/2018 06:52:59
00061 suncat0206 pw.x -in pw.inp   Done                     12/25/2018 06:52:59
00062 suncat0206 pw.x -in pw.inp   Done                     12/25/2018 06:52:59
00063 suncat0206 pw.x -in pw.inp   Done                     12/25/2018 06:52:59
