  python dir          : /u/if/mamunm/src/espresso
  espresso dir        : /nfs/slac/g/suncatfs/sw/espv18/espresso-dynpy-beef/bin
  pseudo dir          : /afs/slac.stanford.edu/u/if/mamunm/psp/gbrv1.5pbe
  ase-espresso py git : GITVERSION



     Program PWSCF v.5.1rc2 (svn rev. 11289) starts on 28Dec2018 at  4:32:11 

     This program is part of the open-source Quantum ESPRESSO suite
     for quantum simulation of materials; please cite
         "P. Giannozzi et al., J. Phys.:Condens. Matter 21 395502 (2009);
          URL http://www.quantum-espresso.org", 
     in publications or presentations arising from this work. More details at
     http://www.quantum-espresso.org/quote

     Parallel version (MPI), running on    64 processors
     R & G space division:  proc/nbgrp/npool/nimage =      64
     Reading input from pw.inp
     Message from routine read_cards :
     DEPRECATED: no units specified in CELL_PARAMETERS card

     Current dimensions of program PWSCF are:
     Max number of different atomic species (ntypx) = 10
     Max number of k-points (npk) =  40000
     Max angular momentum in pseudopotentials (lmaxx) =  3
     Presently stress not available with electric field


     **************************************************************************
     Initializing libbeef V0.1.1 with the BEEF-vdW functional.
     Citation: Wellendorff et al., PRB 85, 235149 (2012).
     **************************************************************************


     IMPORTANT: XC functional enforced from input :
     Exchange-correlation      = BEEF-VDW ( 1  4 27 13 2)
     Any further DFT definition will be discarded
     Please, verify this is what you really want


     Subspace diagonalization in iterative solution of the eigenvalue problem:
     a serial algorithm will be used

 
     Parallelization info
     --------------------
     sticks:   dense  smooth     PW     G-vecs:    dense   smooth      PW
     Min          74      29      8                14700     3687     546
     Max          75      30      9                14716     3744     567
     Sum        4751    1899    533               941463   238203   35451
 


     bravais-lattice index     =            0
     lattice parameter (alat)  =       1.8897  a.u.
     unit-cell volume          =    7912.4840 (a.u.)^3
     number of atoms/cell      =           12
     number of atomic types    =            2
     number of electrons       =       144.00
     number of Kohn-Sham states=          102
     kinetic-energy cutoff     =      36.7493  Ry
     charge density cutoff     =     367.4932  Ry
     convergence threshold     =      1.0E-06
     mixing beta               =       0.1000
     number of iterations used =           10  plain     mixing
     Exchange-correlation      = BEEF-VDW ( 1  4 27 13 2)
     nstep                     =           50


     celldm(1)=   1.889726  celldm(2)=   0.000000  celldm(3)=   0.000000
     celldm(4)=   0.000000  celldm(5)=   0.000000  celldm(6)=   0.000000

     crystal axes: (cart. coord. in units of alat)
               a(1) = (   7.024067   0.000000   0.000000 )  
               a(2) = (   2.741277   6.467064   0.000000 )  
               a(3) = (   0.000000   0.000000  25.811930 )  

     reciprocal axes: (cart. coord. in units 2 pi/alat)
               b(1) = (  0.142368 -0.060347  0.000000 )  
               b(2) = (  0.000000  0.154630  0.000000 )  
               b(3) = (  0.000000  0.000000  0.038742 )  


     PseudoPot. # 1 for La read from file:
     /afs/slac.stanford.edu/u/if/mamunm/psp/gbrv1.5pbe/La.UPF
     MD5 check sum: 5937b0c7494ba0601a847275249473aa
     Pseudo is Ultrasoft + core correction, Zval = 11.0
     Generated by new atomic code, or converted to UPF format
     Using radial grid of  995 points,  8 beta functions with: 
                l(1) =   0
                l(2) =   0
                l(3) =   1
                l(4) =   1
                l(5) =   2
                l(6) =   2
                l(7) =   3
                l(8) =   3
     Q(r) pseudized with  8 coefficients,  rinner =    1.700   1.700   1.700
                                                       1.700   1.700   1.700
                                                       1.700

     PseudoPot. # 2 for Tl read from file:
     /afs/slac.stanford.edu/u/if/mamunm/psp/gbrv1.5pbe/Tl.UPF
     MD5 check sum: b76cf1f7e72655a2b2c53cf6385d7059
     Pseudo is Ultrasoft + core correction, Zval = 13.0
     Generated by new atomic code, or converted to UPF format
     Using radial grid of  899 points,  6 beta functions with: 
                l(1) =   0
                l(2) =   0
                l(3) =   1
                l(4) =   1
                l(5) =   2
                l(6) =   2
     Q(r) pseudized with  6 coefficients,  rinner =    1.100   1.100   1.100
                                                       1.100   1.100

     vdW kernel table read from file vdW_kernel_table
     MD5 check sum: 095c7af220d748ca6e76c0b4c6cfb241

     atomic species   valence    mass     pseudopotential
        La1           11.00   138.90547     La( 1.00)
        Tl1           13.00   204.38000     Tl( 1.00)

     No symmetry found



   Cartesian axes

     site n.     atom                  positions (alat units)
         1           La1 tau(   1) = (   0.0000000   0.0000000  10.0000000  )
         2           La1 tau(   2) = (   4.8826716   3.2335319  10.0000000  )
         3           Tl1 tau(   3) = (   3.5120333   0.0000000  10.0000000  )
         4           Tl1 tau(   4) = (   1.3706383   3.2335319  10.0000000  )
         5           La1 tau(   5) = (   7.0240666   4.6516632  12.9059650  )
         6           La1 tau(   6) = (   2.1413950   1.4181312  12.9059650  )
         7           Tl1 tau(   7) = (   3.5120333   4.6516632  12.9059650  )
         8           Tl1 tau(   8) = (   5.6534283   1.4181312  12.9059650  )
         9           La1 tau(   9) = (   4.0870100   2.7066654  15.6962496  )
        10           La1 tau(  10) = (   8.9672708   5.9385419  15.6957352  )
        11           Tl1 tau(  11) = (   7.5501745   2.6725495  15.8623715  )
        12           Tl1 tau(  12) = (   5.4071804   5.9084736  15.8622768  )

     number of k points=    20  Fermi-Dirac smearing, width (Ry)=  0.0110
                       cart. coord. in units 2pi/alat
        k(    1) = (   0.0000000   0.0000000   0.0000000), wk =   0.0555556
        k(    2) = (   0.0000000   0.0257716   0.0000000), wk =   0.1111111
        k(    3) = (   0.0000000   0.0515432   0.0000000), wk =   0.1111111
        k(    4) = (   0.0000000  -0.0773148   0.0000000), wk =   0.0555556
        k(    5) = (   0.0237279  -0.0100579   0.0000000), wk =   0.1111111
        k(    6) = (   0.0237279   0.0157137   0.0000000), wk =   0.1111111
        k(    7) = (   0.0237279   0.0414854   0.0000000), wk =   0.1111111
        k(    8) = (   0.0237279  -0.0873727   0.0000000), wk =   0.1111111
        k(    9) = (   0.0237279  -0.0616011   0.0000000), wk =   0.1111111
        k(   10) = (   0.0237279  -0.0358295   0.0000000), wk =   0.1111111
        k(   11) = (   0.0474559  -0.0201157   0.0000000), wk =   0.1111111
        k(   12) = (   0.0474559   0.0056559   0.0000000), wk =   0.1111111
        k(   13) = (   0.0474559   0.0314275   0.0000000), wk =   0.1111111
        k(   14) = (   0.0474559  -0.0974306   0.0000000), wk =   0.1111111
        k(   15) = (   0.0474559  -0.0716590   0.0000000), wk =   0.1111111
        k(   16) = (   0.0474559  -0.0458873   0.0000000), wk =   0.1111111
        k(   17) = (  -0.0711838   0.0301736   0.0000000), wk =   0.0555556
        k(   18) = (  -0.0711838   0.0559452   0.0000000), wk =   0.1111111
        k(   19) = (  -0.0711838   0.0817168   0.0000000), wk =   0.1111111
        k(   20) = (  -0.0711838  -0.0471412   0.0000000), wk =   0.0555556

     Dense  grid:   941463 G-vectors     FFT dimensions: (  81,  81, 300)

     Smooth grid:   238203 G-vectors     FFT dimensions: (  54,  54, 192)

     Largest allocated arrays     est. size (Mb)     dimensions
        Kohn-Sham Wavefunctions         0.74 Mb     (     477,  102)
        NL pseudopotentials             2.18 Mb     (     477,  300)
        Each V/rho on FFT grid          0.50 Mb     (   32805)
        Each G-vector array             0.11 Mb     (   14716)
        G-vector shells                 0.06 Mb     (    7395)
     Largest temporary arrays     est. size (Mb)     dimensions
        Auxiliary wavefunctions         2.97 Mb     (     477,  408)
        Each subspace H/S matrix        2.54 Mb     (     408,  408)
        Each <psi_i|beta_j> matrix      0.47 Mb     (     300,  102)
        Arrays for rho mixing           5.01 Mb     (   32805,   10)

     Check: negative/imaginary core charge=   -0.000001    0.000000

     Initial potential from superposition of free atoms
     Check: negative starting charge=   -0.725453

     starting charge  143.77839, renormalised to  144.00000

     negative rho (up, down):  7.266E-01 0.000E+00


     ************************************************************************
     *
     * You are using vdW-DF for exchange-correlation in this calculation.
     * Please cite the following three references that made this development
     * possible:
     *
     *   M. Dion, H. Rydberg, E. Schroder, D. C. Langreth, and
     *   B. I. Lundqvist, Phys. Rev. Lett. 92, 246401 (2004).
     *
     *   T. Thonhauser, V. R. Cooper, S. Li, A. Puzder, P. Hyldgaard, and
     *   D. C. Langreth, Phys. Rev. B 76, 125112 (2007).
     *
     *   G. Roman-Perez and J. M. Soler, Phys. Rev. Lett. 103, 096102 (2009).
     *
     *
     * If you are using vdW-DF2, please also cite:
     *
     *   K. Lee, E. D. Murray, L. Kong, B. I. Lundqvist, and
     *   D. C. Langreth, Phys. Rev. B 82, 081101(R) (2010).
     *
     *
     * If you are calculating the stress with vdW-DF, please also cite:
     *
     *   R. Sabatini, E. Kucukbenli, B. Kolb, T. Thonhauser, and
     *   S. de Gironcoli, J. Phys.: Condens. Matter 24, 424209 (2012).
     *
     ************************************************************************

     Carrying out vdW-DF run using the following parameters:

     Nqs =      20    Nr_points =    1024   r_max =   100.000
     q_mesh =
               0.00001000     0.04494208     0.09755937     0.15916263
               0.23128650     0.31572767     0.41458969     0.53033537
               0.66584808     0.82450364     1.01025438     1.22772762
               1.48234092     1.78043706     2.12944203     2.53805004
               3.01644009     3.57652955     4.23227104     5.00000000

     Gradients computed in reciprocal space

     ************************************************************************


 
     Adding external electric field

     Computed dipole along edir(3) : 
        Dipole               -0.0095 Ry au,         -0.0242 Debye
        Dipole field         -0.0000 Ry au
 
        Potential amp.        0.0014 Ry
        Total length         47.5580 bohr
 
     Starting wfc are  174 randomized atomic wfcs

     total cpu time spent up to now is       34.8 secs

     per-process dynamical memory:    49.3 Mb

     Self-consistent Calculation

     iteration #  1     ecut=    36.75 Ry     beta=0.10
     Davidson diagonalization with overlap
     ethr =  1.00E-02,  avg # of iterations =  1.0

     negative rho (up, down):  6.647E-01 0.000E+00
 
     Adding external electric field

     Computed dipole along edir(3) : 
        Dipole               -0.4469 Ry au,         -1.1360 Debye
        Dipole field         -0.0007 Ry au
 
        Potential amp.        0.0675 Ry
        Total length         47.5580 bohr
 

     total cpu time spent up to now is       80.5 secs

     total energy              =   -1504.70137648 Ry
     Harris-Foulkes estimate   =   -1505.46714518 Ry
     estimated scf accuracy    <       4.24042246 Ry

     iteration #  2     ecut=    36.75 Ry     beta=0.10
     Davidson diagonalization with overlap
     ethr =  2.94E-03,  avg # of iterations =  9.8

     negative rho (up, down):  6.477E-01 0.000E+00
 
     Adding external electric field

     Computed dipole along edir(3) : 
        Dipole                0.6574 Ry au,          1.6709 Debye
        Dipole field          0.0010 Ry au
 
        Potential amp.       -0.0993 Ry
        Total length         47.5580 bohr
 

     total cpu time spent up to now is      165.0 secs

     total energy              =   -1504.61353395 Ry
     Harris-Foulkes estimate   =   -1505.38269064 Ry
     estimated scf accuracy    <      15.52455827 Ry

     iteration #  3     ecut=    36.75 Ry     beta=0.10
     Davidson diagonalization with overlap
     ethr =  2.94E-03,  avg # of iterations =  6.5

     negative rho (up, down):  6.231E-01 0.000E+00
 
     Adding external electric field

     Computed dipole along edir(3) : 
        Dipole               -0.0659 Ry au,         -0.1675 Debye
        Dipole field         -0.0001 Ry au
 
        Potential amp.        0.0100 Ry
        Total length         47.5580 bohr
 

     total cpu time spent up to now is      218.5 secs

     total energy              =   -1504.87930875 Ry
     Harris-Foulkes estimate   =   -1505.39629375 Ry
     estimated scf accuracy    <      14.12688833 Ry

     iteration #  4     ecut=    36.75 Ry     beta=0.10
     Davidson diagonalization with overlap
     ethr =  2.94E-03,  avg # of iterations =  1.2

     negative rho (up, down):  6.215E-01 0.000E+00
 
     Adding external electric field

     Computed dipole along edir(3) : 
        Dipole               -0.0311 Ry au,         -0.0789 Debye
        Dipole field         -0.0000 Ry au
 
        Potential amp.        0.0047 Ry
        Total length         47.5580 bohr
 

     total cpu time spent up to now is      267.1 secs

     total energy              =   -1505.15345527 Ry
     Harris-Foulkes estimate   =   -1505.17868134 Ry
     estimated scf accuracy    <       0.21145098 Ry

     iteration #  5     ecut=    36.75 Ry     beta=0.10
     Davidson diagonalization with overlap
     ethr =  1.47E-04,  avg # of iterations =  8.8

     negative rho (up, down):  6.181E-01 0.000E+00
 
     Adding external electric field

     Computed dipole along edir(3) : 
        Dipole               -0.0468 Ry au,         -0.1189 Debye
        Dipole field         -0.0001 Ry au
 
        Potential amp.        0.0071 Ry
        Total length         47.5580 bohr
 

     total cpu time spent up to now is      350.1 secs

     total energy              =   -1505.15042876 Ry
     Harris-Foulkes estimate   =   -1505.17458798 Ry
     estimated scf accuracy    <       0.13389445 Ry

     iteration #  6     ecut=    36.75 Ry     beta=0.10
     Davidson diagonalization with overlap
     ethr =  9.30E-05,  avg # of iterations =  2.3

     negative rho (up, down):  6.202E-01 0.000E+00
 
     Adding external electric field

     Computed dipole along edir(3) : 
        Dipole               -0.0700 Ry au,         -0.1780 Debye
        Dipole field         -0.0001 Ry au
 
        Potential amp.        0.0106 Ry
        Total length         47.5580 bohr
 

     total cpu time spent up to now is      399.8 secs

     total energy              =   -1505.14128518 Ry
     Harris-Foulkes estimate   =   -1505.15553215 Ry
     estimated scf accuracy    <       0.06445808 Ry

     iteration #  7     ecut=    36.75 Ry     beta=0.10
     Davidson diagonalization with overlap
     ethr =  4.48E-05,  avg # of iterations =  7.9

     negative rho (up, down):  6.204E-01 0.000E+00
 
     Adding external electric field

     Computed dipole along edir(3) : 
        Dipole               -0.0593 Ry au,         -0.1508 Debye
        Dipole field         -0.0001 Ry au
 
        Potential amp.        0.0090 Ry
        Total length         47.5580 bohr
 

     total cpu time spent up to now is      471.5 secs

     total energy              =   -1505.14585908 Ry
     Harris-Foulkes estimate   =   -1505.14860281 Ry
     estimated scf accuracy    <       0.02718211 Ry

     iteration #  8     ecut=    36.75 Ry     beta=0.10
     Davidson diagonalization with overlap
     c_bands:  2 eigenvalues not converged
     ethr =  1.89E-05,  avg # of iterations =  8.9

     negative rho (up, down):  6.127E-01 0.000E+00
 
     Adding external electric field

     Computed dipole along edir(3) : 
        Dipole               -0.0545 Ry au,         -0.1385 Debye
        Dipole field         -0.0001 Ry au
 
        Potential amp.        0.0082 Ry
        Total length         47.5580 bohr
 

     total cpu time spent up to now is      530.0 secs

     total energy              =   -1505.14732202 Ry
     Harris-Foulkes estimate   =   -1505.14789198 Ry
     estimated scf accuracy    <       0.00805162 Ry

     iteration #  9     ecut=    36.75 Ry     beta=0.10
     Davidson diagonalization with overlap
     c_bands:  1 eigenvalues not converged
     c_bands:  2 eigenvalues not converged
     ethr =  5.59E-06,  avg # of iterations = 13.2

     negative rho (up, down):  6.087E-01 0.000E+00
 
     Adding external electric field

     Computed dipole along edir(3) : 
        Dipole               -0.0472 Ry au,         -0.1199 Debye
        Dipole field         -0.0001 Ry au
 
        Potential amp.        0.0071 Ry
        Total length         47.5580 bohr
 

     total cpu time spent up to now is      645.6 secs

     total energy              =   -1505.14739635 Ry
     Harris-Foulkes estimate   =   -1505.14945301 Ry
     estimated scf accuracy    <       0.00673948 Ry

     iteration # 10     ecut=    36.75 Ry     beta=0.10
     Davidson diagonalization with overlap
     ethr =  4.68E-06,  avg # of iterations =  6.2

     negative rho (up, down):  6.038E-01 0.000E+00
 
     Adding external electric field

     Computed dipole along edir(3) : 
        Dipole               -0.0582 Ry au,         -0.1479 Debye
        Dipole field         -0.0001 Ry au
 
        Potential amp.        0.0088 Ry
        Total length         47.5580 bohr
 

     total cpu time spent up to now is      706.6 secs

     total energy              =   -1505.14781883 Ry
     Harris-Foulkes estimate   =   -1505.14847771 Ry
     estimated scf accuracy    <       0.00489416 Ry

     iteration # 11     ecut=    36.75 Ry     beta=0.10
     Davidson diagonalization with overlap
     c_bands:  2 eigenvalues not converged
     c_bands:  1 eigenvalues not converged
     c_bands:  2 eigenvalues not converged
     ethr =  3.40E-06,  avg # of iterations = 15.5

     negative rho (up, down):  6.040E-01 0.000E+00
 
     Adding external electric field

     Computed dipole along edir(3) : 
        Dipole               -0.0551 Ry au,         -0.1400 Debye
        Dipole field         -0.0001 Ry au
 
        Potential amp.        0.0083 Ry
        Total length         47.5580 bohr
 

     total cpu time spent up to now is      808.6 secs

     total energy              =   -1505.14843480 Ry
     Harris-Foulkes estimate   =   -1505.14840445 Ry
     estimated scf accuracy    <       0.00056527 Ry

     iteration # 12     ecut=    36.75 Ry     beta=0.10
     Davidson diagonalization with overlap
     ethr =  3.93E-07,  avg # of iterations =  4.5

     negative rho (up, down):  6.043E-01 0.000E+00
 
     Adding external electric field

     Computed dipole along edir(3) : 
        Dipole               -0.0537 Ry au,         -0.1365 Debye
        Dipole field         -0.0001 Ry au
 
        Potential amp.        0.0081 Ry
        Total length         47.5580 bohr
 

     total cpu time spent up to now is      861.9 secs

     total energy              =   -1505.14845004 Ry
     Harris-Foulkes estimate   =   -1505.14847561 Ry
     estimated scf accuracy    <       0.00048574 Ry

     iteration # 13     ecut=    36.75 Ry     beta=0.10
     Davidson diagonalization with overlap
     ethr =  3.37E-07,  avg # of iterations =  6.2

     negative rho (up, down):  6.038E-01 0.000E+00
 
     Adding external electric field

     Computed dipole along edir(3) : 
        Dipole               -0.0522 Ry au,         -0.1327 Debye
        Dipole field         -0.0001 Ry au
 
        Potential amp.        0.0079 Ry
        Total length         47.5580 bohr
 

     total cpu time spent up to now is      928.6 secs

     total energy              =   -1505.14860521 Ry
     Harris-Foulkes estimate   =   -1505.14855469 Ry
     estimated scf accuracy    <       0.00020134 Ry

     iteration # 14     ecut=    36.75 Ry     beta=0.10
     Davidson diagonalization with overlap
     ethr =  1.40E-07,  avg # of iterations =  2.4

     negative rho (up, down):  6.034E-01 0.000E+00
 
     Adding external electric field

     Computed dipole along edir(3) : 
        Dipole               -0.0516 Ry au,         -0.1312 Debye
        Dipole field         -0.0001 Ry au
 
        Potential amp.        0.0078 Ry
        Total length         47.5580 bohr
 

     total cpu time spent up to now is      976.9 secs

     total energy              =   -1505.14859103 Ry
     Harris-Foulkes estimate   =   -1505.14861226 Ry
     estimated scf accuracy    <       0.00017145 Ry

     iteration # 15     ecut=    36.75 Ry     beta=0.10
     Davidson diagonalization with overlap
     ethr =  1.19E-07,  avg # of iterations =  6.3

     negative rho (up, down):  6.034E-01 0.000E+00
 
     Adding external electric field

     Computed dipole along edir(3) : 
        Dipole               -0.0517 Ry au,         -0.1313 Debye
        Dipole field         -0.0001 Ry au
 
        Potential amp.        0.0078 Ry
        Total length         47.5580 bohr
 

     total cpu time spent up to now is     1035.4 secs

     total energy              =   -1505.14862145 Ry
     Harris-Foulkes estimate   =   -1505.14861062 Ry
     estimated scf accuracy    <       0.00000629 Ry

     iteration # 16     ecut=    36.75 Ry     beta=0.10
     Davidson diagonalization with overlap
     ethr =  4.37E-09,  avg # of iterations =  6.7

     negative rho (up, down):  6.034E-01 0.000E+00
 
     Adding external electric field

     Computed dipole along edir(3) : 
        Dipole               -0.0520 Ry au,         -0.1321 Debye
        Dipole field         -0.0001 Ry au
 
        Potential amp.        0.0078 Ry
        Total length         47.5580 bohr
 

     total cpu time spent up to now is     1105.8 secs

     total energy              =   -1505.14862700 Ry
     Harris-Foulkes estimate   =   -1505.14862358 Ry
     estimated scf accuracy    <       0.00000534 Ry

     iteration # 17     ecut=    36.75 Ry     beta=0.10
     Davidson diagonalization with overlap
     ethr =  3.71E-09,  avg # of iterations =  6.4

     negative rho (up, down):  6.036E-01 0.000E+00
 
     Adding external electric field

     Computed dipole along edir(3) : 
        Dipole               -0.0522 Ry au,         -0.1328 Debye
        Dipole field         -0.0001 Ry au
 
        Potential amp.        0.0079 Ry
        Total length         47.5580 bohr
 

     total cpu time spent up to now is     1168.2 secs

     total energy              =   -1505.14863080 Ry
     Harris-Foulkes estimate   =   -1505.14862787 Ry
     estimated scf accuracy    <       0.00000446 Ry

     iteration # 18     ecut=    36.75 Ry     beta=0.10
     Davidson diagonalization with overlap
     ethr =  3.09E-09,  avg # of iterations =  5.4

     negative rho (up, down):  6.037E-01 0.000E+00
 
     Adding external electric field

     Computed dipole along edir(3) : 
        Dipole               -0.0521 Ry au,         -0.1325 Debye
        Dipole field         -0.0001 Ry au
 
        Potential amp.        0.0079 Ry
        Total length         47.5580 bohr
 

     total cpu time spent up to now is     1228.7 secs

     total energy              =   -1505.14862940 Ry
     Harris-Foulkes estimate   =   -1505.14863167 Ry
     estimated scf accuracy    <       0.00000144 Ry

     iteration # 19     ecut=    36.75 Ry     beta=0.10
     Davidson diagonalization with overlap
     ethr =  9.99E-10,  avg # of iterations =  6.6

     negative rho (up, down):  6.033E-01 0.000E+00

     negative rho (up, down):  6.033E-01 0.000E+00

     negative rho (up, down):  6.033E-01 0.000E+00

     negative rho (up, down):  6.033E-01 0.000E+00

     negative rho (up, down):  6.033E-01 0.000E+00

     negative rho (up, down):  6.033E-01 0.000E+00

     negative rho (up, down):  6.033E-01 0.000E+00

     negative rho (up, down):  6.033E-01 0.000E+00

     negative rho (up, down):  6.033E-01 0.000E+00

     negative rho (up, down):  6.033E-01 0.000E+00

     negative rho (up, down):  6.033E-01 0.000E+00

     negative rho (up, down):  6.033E-01 0.000E+00

     negative rho (up, down):  6.033E-01 0.000E+00

     negative rho (up, down):  6.033E-01 0.000E+00

     negative rho (up, down):  6.033E-01 0.000E+00

     negative rho (up, down):  6.033E-01 0.000E+00

     negative rho (up, down):  6.033E-01 0.000E+00

     negative rho (up, down):  6.033E-01 0.000E+00

     negative rho (up, down):  6.033E-01 0.000E+00

     negative rho (up, down):  6.033E-01 0.000E+00

     negative rho (up, down):  6.033E-01 0.000E+00

     negative rho (up, down):  6.033E-01 0.000E+00

     negative rho (up, down):  6.033E-01 0.000E+00

     negative rho (up, down):  6.033E-01 0.000E+00

     negative rho (up, down):  6.033E-01 0.000E+00

     negative rho (up, down):  6.033E-01 0.000E+00

     negative rho (up, down):  6.033E-01 0.000E+00

     negative rho (up, down):  6.033E-01 0.000E+00

     negative rho (up, down):  6.033E-01 0.000E+00

     negative rho (up, down):  6.033E-01 0.000E+00

     negative rho (up, down):  6.033E-01 0.000E+00

     negative rho (up, down):  6.033E-01 0.000E+00

     negative rho (up, down):  6.033E-01 0.000E+00

     negative rho (up, down):  6.033E-01 0.000E+00

     negative rho (up, down):  6.033E-01 0.000E+00
 
     Adding external electric field

     Computed dipole along edir(3) : 
        Dipole               -0.0500 Ry au,         -0.1272 Debye
        Dipole field         -0.0001 Ry au
 
        Potential amp.        0.0076 Ry
        Total length         47.5580 bohr
 

     total cpu time spent up to now is     1357.2 secs

     End of self-consistent calculation

          k = 0.0000 0.0000 0.0000 ( 29757 PWs)   bands (ev):

   -32.3363 -32.2957 -32.2724 -32.2314 -31.9533 -31.9124 -16.0912 -16.0568
   -16.0460 -15.9998 -15.9787 -15.9121 -15.8980 -15.8513 -15.8492 -15.8050
   -15.7967 -15.5712 -15.5507 -15.5216 -15.4655 -15.4420 -15.3765 -15.2666
   -10.1907 -10.1771 -10.1562 -10.1548 -10.1321 -10.1263 -10.1179 -10.1179
   -10.1161 -10.1081 -10.1022 -10.1002 -10.0930 -10.0851 -10.0805 -10.0771
   -10.0634 -10.0586 -10.0539 -10.0492 -10.0443 -10.0403 -10.0345 -10.0330
   -10.0026 -10.0022  -9.9556  -9.9493  -9.9320  -9.8993  -5.9391  -5.1985
    -4.7621  -4.6461  -4.2043  -4.0228   0.1201   0.3020   0.3580   0.4429
     0.5740   0.8423   0.9882   1.0057   1.1367   1.2067   1.5384   1.5953
     1.7713   1.7919   1.8274   1.8807   1.9590   2.0722   2.1639   2.3908
     2.4297   2.4898   2.5283   2.5344   2.5641   2.5960   2.6009   2.6083
     2.6110   2.6150   2.6458   2.6488   2.6572   2.6888   2.6956   2.6973
     2.7049   2.7053   2.7160   2.7261   2.7485   2.7500

          k = 0.0000 0.0258 0.0000 ( 29737 PWs)   bands (ev):

   -32.3335 -32.2984 -32.2697 -32.2341 -31.9506 -31.9152 -16.0598 -16.0553
   -16.0152 -16.0045 -15.9738 -15.9162 -15.8962 -15.8542 -15.8510 -15.8037
   -15.7718 -15.6097 -15.5605 -15.5460 -15.4727 -15.4383 -15.3815 -15.3063
   -10.1792 -10.1664 -10.1450 -10.1440 -10.1228 -10.1204 -10.1142 -10.1096
   -10.1051 -10.1034 -10.1003 -10.0980 -10.0898 -10.0826 -10.0807 -10.0732
   -10.0597 -10.0591 -10.0549 -10.0488 -10.0421 -10.0383 -10.0382 -10.0305
   -10.0065 -10.0026  -9.9661  -9.9495  -9.9432  -9.9106  -5.8294  -5.1165
    -4.6940  -4.6756  -4.2650  -4.0420   0.1116   0.2774   0.3570   0.4048
     0.4786   0.8058   0.9073   1.0118   1.1442   1.2261   1.3856   1.4407
     1.5853   1.7238   1.8193   1.8530   2.0304   2.0600   2.1160   2.3950
     2.4220   2.4980   2.5122   2.5172   2.5564   2.5608   2.5819   2.5992
     2.6009   2.6074   2.6276   2.6286   2.6524   2.6608   2.6682   2.6938
     2.6995   2.7062   2.7194   2.7312   2.7525   2.7551

          k = 0.0000 0.0515 0.0000 ( 29775 PWs)   bands (ev):

   -32.3261 -32.3058 -32.2621 -32.2416 -31.9431 -31.9226 -16.0492 -16.0210
   -15.9713 -15.9610 -15.9301 -15.9225 -15.8906 -15.8660 -15.8474 -15.8194
   -15.7116 -15.6800 -15.6633 -15.5333 -15.4911 -15.4284 -15.4108 -15.3947
   -10.1534 -10.1456 -10.1242 -10.1203 -10.1146 -10.1098 -10.1042 -10.0994
   -10.0930 -10.0913 -10.0861 -10.0799 -10.0798 -10.0712 -10.0693 -10.0680
   -10.0641 -10.0567 -10.0504 -10.0488 -10.0487 -10.0325 -10.0317 -10.0259
   -10.0186 -10.0170  -9.9883  -9.9714  -9.9503  -9.9367  -5.5310  -4.9026
    -4.8186  -4.5140  -4.4281  -4.1218   0.1052   0.1403   0.2160   0.3071
     0.3818   0.6217   0.7880   0.8040   0.9609   1.2800   1.3967   1.4171
     1.6007   1.6426   1.7027   1.7975   2.0672   2.0724   2.1850   2.3369
     2.3829   2.4448   2.4673   2.5003   2.5114   2.5426   2.5555   2.5803
     2.5838   2.5984   2.6194   2.6263   2.6405   2.6548   2.6618   2.6844
     2.6889   2.7031   2.7106   2.7239   2.7371   2.7404

          k = 0.0000-0.0773 0.0000 ( 29764 PWs)   bands (ev):

   -32.3160 -32.3159 -32.2521 -32.2516 -31.9330 -31.9327 -16.0373 -16.0368
   -15.9445 -15.9444 -15.8818 -15.8817 -15.8433 -15.8432 -15.8377 -15.8372
   -15.7963 -15.7958 -15.5503 -15.5499 -15.5130 -15.5126 -15.4121 -15.4111
   -10.1304 -10.1303 -10.1290 -10.1289 -10.1050 -10.1049 -10.0870 -10.0870
   -10.0826 -10.0825 -10.0765 -10.0765 -10.0670 -10.0669 -10.0620 -10.0620
   -10.0592 -10.0591 -10.0540 -10.0539 -10.0349 -10.0346 -10.0271 -10.0269
   -10.0228 -10.0225 -10.0052 -10.0049  -9.9501  -9.9500  -5.1413  -5.1405
    -4.6473  -4.6458  -4.2936  -4.2919   0.0432   0.0434   0.1343   0.1345
     0.5757   0.5765   0.7282   0.7286   0.9161   0.9164   1.3925   1.3933
     1.6885   1.6889   1.8306   1.8317   2.0457   2.0462   2.3402   2.3404
     2.4091   2.4092   2.4688   2.4691   2.5077   2.5079   2.5248   2.5249
     2.5905   2.5906   2.6066   2.6066   2.6481   2.6481   2.6683   2.6684
     2.6909   2.6910   2.7055   2.7056   2.7309   2.7310

          k = 0.0237-0.0101 0.0000 ( 29737 PWs)   bands (ev):

   -32.3335 -32.2984 -32.2697 -32.2341 -31.9506 -31.9152 -16.0598 -16.0553
   -16.0152 -16.0045 -15.9738 -15.9162 -15.8962 -15.8542 -15.8510 -15.8037
   -15.7718 -15.6097 -15.5605 -15.5460 -15.4727 -15.4383 -15.3815 -15.3063
   -10.1792 -10.1664 -10.1450 -10.1440 -10.1228 -10.1204 -10.1142 -10.1096
   -10.1051 -10.1034 -10.1003 -10.0980 -10.0898 -10.0826 -10.0807 -10.0732
   -10.0597 -10.0591 -10.0549 -10.0488 -10.0421 -10.0383 -10.0382 -10.0305
   -10.0065 -10.0026  -9.9661  -9.9495  -9.9432  -9.9106  -5.8294  -5.1165
    -4.6940  -4.6756  -4.2650  -4.0420   0.1116   0.2774   0.3570   0.4048
     0.4786   0.8058   0.9073   1.0118   1.1442   1.2261   1.3856   1.4407
     1.5853   1.7238   1.8193   1.8530   2.0304   2.0599   2.1160   2.3950
     2.4220   2.4980   2.5122   2.5172   2.5564   2.5608   2.5819   2.5992
     2.6009   2.6074   2.6276   2.6286   2.6524   2.6608   2.6682   2.6938
     2.6995   2.7062   2.7194   2.7312   2.7526   2.7550

          k = 0.0237 0.0157 0.0000 ( 29715 PWs)   bands (ev):

   -32.3361 -32.2957 -32.2722 -32.2314 -31.9534 -31.9123 -16.0954 -16.0656
   -16.0499 -15.9997 -15.9774 -15.9124 -15.9050 -15.8623 -15.8463 -15.8073
   -15.7995 -15.5724 -15.5490 -15.5226 -15.4719 -15.4416 -15.3795 -15.2685
   -10.1892 -10.1596 -10.1564 -10.1394 -10.1198 -10.1189 -10.1146 -10.1098
   -10.1076 -10.1060 -10.0980 -10.0930 -10.0907 -10.0779 -10.0735 -10.0721
   -10.0629 -10.0560 -10.0498 -10.0479 -10.0406 -10.0368 -10.0337 -10.0296
   -10.0024  -9.9912  -9.9560  -9.9524  -9.9325  -9.8993  -5.8014  -5.1004
    -4.7075  -4.5840  -4.1701  -3.8973  -0.2842  -0.1421   0.0032   0.1594
     0.3203   0.5771   0.8245   0.9326   1.0259   1.2641   1.3423   1.4777
     1.4954   1.5939   1.7984   1.8495   1.9955   2.1094   2.2039   2.2720
     2.4878   2.5059   2.5309   2.5509   2.5748   2.5955   2.6025   2.6027
     2.6046   2.6227   2.6325   2.6474   2.6479   2.6589   2.6798   2.6962
     2.7029   2.7089   2.7137   2.7376   2.7534   2.7542

          k = 0.0237 0.0415 0.0000 ( 29724 PWs)   bands (ev):

   -32.3333 -32.2985 -32.2693 -32.2343 -31.9507 -31.9149 -16.0692 -16.0665
   -16.0208 -16.0042 -15.9717 -15.9161 -15.9096 -15.8665 -15.8499 -15.8059
   -15.7755 -15.6110 -15.5616 -15.5436 -15.4832 -15.4370 -15.3864 -15.3089
   -10.1771 -10.1438 -10.1417 -10.1228 -10.1119 -10.1101 -10.1091 -10.1060
   -10.0989 -10.0915 -10.0846 -10.0831 -10.0825 -10.0769 -10.0697 -10.0640
   -10.0579 -10.0554 -10.0504 -10.0462 -10.0394 -10.0348 -10.0320 -10.0240
   -10.0068  -9.9883  -9.9645  -9.9551  -9.9441  -9.9109  -5.5795  -4.9593
    -4.6135  -4.6123  -4.2149  -3.8524  -0.4051  -0.3754  -0.2398  -0.0066
     0.2143   0.3076   0.6016   0.6328   1.0574   1.1443   1.2079   1.3790
     1.4399   1.5395   1.8234   1.8586   2.0472   2.0532   2.1770   2.2228
     2.4723   2.4980   2.5017   2.5511   2.5637   2.5727   2.5850   2.6059
     2.6142   2.6145   2.6311   2.6492   2.6602   2.6668   2.6706   2.6725
     2.6971   2.7088   2.7112   2.7249   2.7430   2.7515

          k = 0.0237-0.0874 0.0000 ( 29763 PWs)   bands (ev):

   -32.3258 -32.3059 -32.2618 -32.2418 -31.9433 -31.9224 -16.0619 -16.0164
   -15.9777 -15.9588 -15.9339 -15.9237 -15.9058 -15.8608 -15.8592 -15.8166
   -15.7110 -15.6830 -15.6624 -15.5294 -15.5012 -15.4257 -15.4118 -15.3995
   -10.1517 -10.1256 -10.1210 -10.1141 -10.1090 -10.1057 -10.0969 -10.0898
   -10.0878 -10.0798 -10.0786 -10.0774 -10.0686 -10.0678 -10.0661 -10.0619
   -10.0591 -10.0549 -10.0484 -10.0477 -10.0449 -10.0291 -10.0275 -10.0226
   -10.0173 -10.0159  -9.9853  -9.9687  -9.9575  -9.9358  -5.2476  -4.8813
    -4.7850  -4.4646  -4.4144  -3.9999  -0.4232  -0.2309  -0.1062   0.0068
     0.2363   0.3519   0.5461   0.7115   0.9877   1.1672   1.2368   1.3478
     1.4572   1.5800   1.7313   1.7956   1.9784   2.0482   2.2538   2.2926
     2.3508   2.4238   2.4467   2.4918   2.5041   2.5445   2.5521   2.5812
     2.6117   2.6154   2.6186   2.6447   2.6657   2.6658   2.6756   2.6860
     2.6944   2.6971   2.7249   2.7251   2.7380   2.7403

          k = 0.0237-0.0616 0.0000 ( 29783 PWs)   bands (ev):

   -32.3161 -32.3158 -32.2522 -32.2515 -31.9331 -31.9326 -16.0445 -16.0296
   -15.9443 -15.9421 -15.8921 -15.8747 -15.8472 -15.8436 -15.8393 -15.8281
   -15.7997 -15.7939 -15.5505 -15.5485 -15.5199 -15.5078 -15.4149 -15.4082
   -10.1340 -10.1284 -10.1276 -10.1134 -10.1077 -10.0943 -10.0938 -10.0915
   -10.0853 -10.0825 -10.0803 -10.0732 -10.0717 -10.0650 -10.0648 -10.0615
   -10.0604 -10.0556 -10.0535 -10.0516 -10.0353 -10.0345 -10.0299 -10.0285
   -10.0224 -10.0218 -10.0096 -10.0051  -9.9556  -9.9446  -5.2907  -4.9494
    -4.7063  -4.6264  -4.3167  -4.2814  -0.1553   0.1104   0.1649   0.3591
     0.6209   0.6715   0.6911   0.9323   1.0724   1.0782   1.2722   1.3544
     1.6033   1.6064   1.7166   1.8578   1.8862   1.9715   2.1039   2.1931
     2.3534   2.3738   2.3926   2.4471   2.5006   2.5044   2.5354   2.5468
     2.5848   2.6062   2.6244   2.6273   2.6480   2.6541   2.6618   2.6758
     2.6804   2.6941   2.7033   2.7151   2.7384   2.7479

          k = 0.0237-0.0358 0.0000 ( 29766 PWs)   bands (ev):

   -32.3262 -32.3057 -32.2623 -32.2415 -31.9430 -31.9228 -16.0427 -16.0235
   -15.9678 -15.9613 -15.9266 -15.9218 -15.8859 -15.8717 -15.8388 -15.8193
   -15.7121 -15.6784 -15.6638 -15.5359 -15.4865 -15.4290 -15.4109 -15.3922
   -10.1543 -10.1518 -10.1316 -10.1154 -10.1123 -10.1103 -10.1063 -10.1058
   -10.1026 -10.0994 -10.0863 -10.0846 -10.0825 -10.0755 -10.0754 -10.0654
   -10.0615 -10.0606 -10.0509 -10.0480 -10.0457 -10.0385 -10.0357 -10.0308
   -10.0224 -10.0172  -9.9904  -9.9720  -9.9470  -9.9371  -5.6452  -4.9739
    -4.7863  -4.5448  -4.4359  -4.1871   0.2768   0.5057   0.5629   0.5710
     0.6389   0.7384   0.8866   0.9241   1.0302   1.2319   1.3348   1.3636
     1.4075   1.6792   1.7656   1.8956   2.0473   2.1055   2.1090   2.1813
     2.3194   2.3277   2.4452   2.4647   2.5051   2.5268   2.5675   2.5759
     2.5882   2.6116   2.6118   2.6297   2.6415   2.6648   2.6667   2.6819
     2.6907   2.6965   2.7037   2.7079   2.7485   2.7594

          k = 0.0475-0.0201 0.0000 ( 29775 PWs)   bands (ev):

   -32.3261 -32.3058 -32.2621 -32.2416 -31.9431 -31.9226 -16.0492 -16.0210
   -15.9713 -15.9610 -15.9301 -15.9225 -15.8906 -15.8660 -15.8474 -15.8194
   -15.7116 -15.6800 -15.6633 -15.5333 -15.4911 -15.4284 -15.4108 -15.3947
   -10.1534 -10.1456 -10.1242 -10.1203 -10.1146 -10.1098 -10.1042 -10.0994
   -10.0930 -10.0913 -10.0861 -10.0799 -10.0798 -10.0712 -10.0693 -10.0680
   -10.0641 -10.0567 -10.0504 -10.0488 -10.0487 -10.0325 -10.0317 -10.0259
   -10.0186 -10.0170  -9.9883  -9.9714  -9.9503  -9.9367  -5.5310  -4.9026
    -4.8186  -4.5140  -4.4281  -4.1218   0.1052   0.1403   0.2160   0.3071
     0.3818   0.6217   0.7880   0.8040   0.9609   1.2800   1.3967   1.4171
     1.6007   1.6426   1.7027   1.7975   2.0672   2.0724   2.1850   2.3369
     2.3829   2.4448   2.4673   2.5003   2.5114   2.5426   2.5555   2.5803
     2.5838   2.5983   2.6194   2.6263   2.6405   2.6548   2.6618   2.6845
     2.6889   2.7031   2.7106   2.7239   2.7369   2.7404

          k = 0.0475 0.0057 0.0000 ( 29724 PWs)   bands (ev):

   -32.3333 -32.2985 -32.2693 -32.2343 -31.9507 -31.9149 -16.0692 -16.0665
   -16.0208 -16.0042 -15.9717 -15.9161 -15.9096 -15.8665 -15.8499 -15.8059
   -15.7755 -15.6110 -15.5616 -15.5436 -15.4832 -15.4370 -15.3864 -15.3089
   -10.1771 -10.1438 -10.1417 -10.1228 -10.1119 -10.1101 -10.1091 -10.1060
   -10.0989 -10.0915 -10.0846 -10.0831 -10.0825 -10.0769 -10.0697 -10.0640
   -10.0579 -10.0554 -10.0504 -10.0462 -10.0394 -10.0348 -10.0320 -10.0240
   -10.0068  -9.9883  -9.9645  -9.9551  -9.9441  -9.9109  -5.5795  -4.9593
    -4.6135  -4.6123  -4.2149  -3.8524  -0.4051  -0.3755  -0.2398  -0.0066
     0.2143   0.3076   0.6016   0.6328   1.0574   1.1443   1.2079   1.3790
     1.4399   1.5395   1.8234   1.8586   2.0472   2.0532   2.1770   2.2228
     2.4723   2.4980   2.5017   2.5511   2.5637   2.5727   2.5850   2.6059
     2.6142   2.6145   2.6311   2.6492   2.6602   2.6668   2.6706   2.6725
     2.6971   2.7090   2.7112   2.7249   2.7430   2.7511

          k = 0.0475 0.0314 0.0000 ( 29730 PWs)   bands (ev):

   -32.3358 -32.2958 -32.2718 -32.2316 -31.9536 -31.9119 -16.1038 -16.0824
   -16.0575 -15.9997 -15.9744 -15.9246 -15.9102 -15.8784 -15.8462 -15.8118
   -15.8014 -15.5749 -15.5480 -15.5247 -15.4852 -15.4398 -15.3854 -15.2722
   -10.1859 -10.1561 -10.1298 -10.1223 -10.1140 -10.1135 -10.1061 -10.0908
   -10.0874 -10.0862 -10.0787 -10.0755 -10.0734 -10.0653 -10.0630 -10.0619
   -10.0597 -10.0507 -10.0454 -10.0423 -10.0371 -10.0299 -10.0278 -10.0233
   -10.0027  -9.9731  -9.9589  -9.9548  -9.9341  -9.8991  -5.4461  -4.9208
    -4.6053  -4.4518  -4.0739  -3.6175  -0.8133  -0.7906  -0.5851  -0.1962
    -0.0883   0.0506   0.1639   0.2128   0.6500   1.0479   1.1402   1.1979
     1.3542   1.5370   1.8378   1.9101   1.9958   2.1318   2.2803   2.3673
     2.5033   2.5350   2.5505   2.5577   2.5736   2.5822   2.5958   2.5991
     2.6164   2.6234   2.6365   2.6494   2.6681   2.6709   2.6766   2.6812
     2.6949   2.7078   2.7115   2.7360   2.7536   2.7588

          k = 0.0475-0.0974 0.0000 ( 29779 PWs)   bands (ev):

   -32.3330 -32.2986 -32.2690 -32.2344 -31.9509 -31.9146 -16.0823 -16.0731
   -16.0267 -16.0037 -15.9691 -15.9273 -15.9132 -15.8778 -15.8517 -15.8044
   -15.7792 -15.6124 -15.5627 -15.5428 -15.4942 -15.4348 -15.3912 -15.3115
   -10.1751 -10.1431 -10.1191 -10.1179 -10.1113 -10.1078 -10.0978 -10.0877
   -10.0807 -10.0760 -10.0752 -10.0674 -10.0638 -10.0622 -10.0614 -10.0596
   -10.0546 -10.0528 -10.0481 -10.0402 -10.0377 -10.0315 -10.0277 -10.0210
   -10.0072  -9.9810  -9.9614  -9.9562  -9.9467  -9.9111  -5.2065  -4.8813
    -4.5531  -4.5279  -4.1450  -3.6410  -0.9227  -0.6805  -0.6199  -0.3444
    -0.0547   0.0379   0.0429   0.1995   0.5174   1.0600   1.1015   1.1134
     1.3656   1.6534   1.7820   1.9142   1.9608   2.0389   2.2839   2.4151
     2.4361   2.4815   2.5042   2.5261   2.5475   2.5607   2.5916   2.6082
     2.6097   2.6198   2.6287   2.6517   2.6579   2.6593   2.6822   2.6968
     2.7111   2.7116   2.7366   2.7440   2.7550   2.7709

          k = 0.0475-0.0717 0.0000 ( 29794 PWs)   bands (ev):

   -32.3257 -32.3060 -32.2616 -32.2420 -31.9434 -31.9222 -16.0680 -16.0143
   -15.9806 -15.9569 -15.9356 -15.9229 -15.9152 -15.8635 -15.8614 -15.8132
   -15.7109 -15.6844 -15.6621 -15.5279 -15.5066 -15.4237 -15.4129 -15.4019
   -10.1511 -10.1243 -10.1096 -10.1094 -10.0998 -10.0996 -10.0928 -10.0887
   -10.0833 -10.0809 -10.0785 -10.0721 -10.0690 -10.0653 -10.0638 -10.0602
   -10.0548 -10.0470 -10.0458 -10.0451 -10.0420 -10.0333 -10.0282 -10.0227
   -10.0188 -10.0161  -9.9840  -9.9669  -9.9617  -9.9350  -5.0219  -4.9128
    -4.8068  -4.4341  -4.4095  -3.9421  -0.6605  -0.3414  -0.1554  -0.0715
     0.1311   0.2779   0.5089   0.5728   0.8061   1.0902   1.1789   1.2368
     1.5393   1.5859   1.7107   1.8632   1.9342   2.0635   2.1452   2.1763
     2.2208   2.3236   2.4816   2.4903   2.5179   2.5547   2.5581   2.5680
     2.6147   2.6236   2.6408   2.6492   2.6522   2.6566   2.6704   2.6873
     2.7081   2.7191   2.7196   2.7287   2.7301   2.7539

          k = 0.0475-0.0459 0.0000 ( 29783 PWs)   bands (ev):

   -32.3161 -32.3158 -32.2522 -32.2515 -31.9331 -31.9326 -16.0445 -16.0296
   -15.9443 -15.9421 -15.8921 -15.8747 -15.8472 -15.8436 -15.8393 -15.8281
   -15.7997 -15.7939 -15.5505 -15.5485 -15.5199 -15.5079 -15.4149 -15.4082
   -10.1340 -10.1284 -10.1276 -10.1134 -10.1077 -10.0943 -10.0938 -10.0915
   -10.0853 -10.0825 -10.0803 -10.0732 -10.0717 -10.0650 -10.0648 -10.0615
   -10.0604 -10.0556 -10.0535 -10.0516 -10.0353 -10.0345 -10.0299 -10.0285
   -10.0224 -10.0218 -10.0096 -10.0051  -9.9556  -9.9446  -5.2907  -4.9494
    -4.7063  -4.6264  -4.3167  -4.2814  -0.1553   0.1105   0.1649   0.3591
     0.6209   0.6715   0.6911   0.9323   1.0724   1.0782   1.2722   1.3544
     1.6033   1.6064   1.7166   1.8578   1.8862   1.9715   2.1039   2.1931
     2.3534   2.3738   2.3926   2.4471   2.5006   2.5044   2.5354   2.5468
     2.5848   2.6062   2.6244   2.6273   2.6480   2.6541   2.6618   2.6758
     2.6804   2.6941   2.7034   2.7151   2.7378   2.7478

          k =-0.0712 0.0302 0.0000 ( 29764 PWs)   bands (ev):

   -32.3160 -32.3159 -32.2521 -32.2516 -31.9330 -31.9327 -16.0373 -16.0368
   -15.9445 -15.9444 -15.8818 -15.8817 -15.8433 -15.8432 -15.8377 -15.8372
   -15.7963 -15.7958 -15.5503 -15.5499 -15.5130 -15.5126 -15.4121 -15.4111
   -10.1304 -10.1303 -10.1290 -10.1289 -10.1050 -10.1049 -10.0870 -10.0870
   -10.0826 -10.0825 -10.0765 -10.0765 -10.0670 -10.0669 -10.0620 -10.0620
   -10.0592 -10.0591 -10.0540 -10.0539 -10.0349 -10.0346 -10.0271 -10.0269
   -10.0228 -10.0225 -10.0052 -10.0049  -9.9501  -9.9500  -5.1414  -5.1405
    -4.6472  -4.6458  -4.2936  -4.2919   0.0432   0.0434   0.1343   0.1345
     0.5757   0.5765   0.7281   0.7286   0.9161   0.9165   1.3926   1.3933
     1.6885   1.6889   1.8306   1.8317   2.0457   2.0462   2.3402   2.3404
     2.4091   2.4092   2.4688   2.4692   2.5077   2.5079   2.5248   2.5249
     2.5905   2.5906   2.6066   2.6066   2.6481   2.6481   2.6683   2.6684
     2.6909   2.6910   2.7055   2.7055   2.7310   2.7311

          k =-0.0712 0.0559 0.0000 ( 29763 PWs)   bands (ev):

   -32.3258 -32.3059 -32.2618 -32.2418 -31.9433 -31.9224 -16.0619 -16.0164
   -15.9777 -15.9588 -15.9339 -15.9237 -15.9058 -15.8608 -15.8592 -15.8166
   -15.7110 -15.6830 -15.6624 -15.5294 -15.5012 -15.4257 -15.4118 -15.3995
   -10.1517 -10.1256 -10.1210 -10.1141 -10.1090 -10.1058 -10.0969 -10.0898
   -10.0878 -10.0798 -10.0786 -10.0774 -10.0686 -10.0678 -10.0661 -10.0619
   -10.0591 -10.0549 -10.0484 -10.0477 -10.0449 -10.0291 -10.0275 -10.0226
   -10.0173 -10.0159  -9.9853  -9.9687  -9.9575  -9.9358  -5.2477  -4.8813
    -4.7850  -4.4646  -4.4144  -3.9999  -0.4232  -0.2309  -0.1062   0.0068
     0.2363   0.3519   0.5461   0.7115   0.9877   1.1672   1.2368   1.3478
     1.4572   1.5800   1.7313   1.7956   1.9784   2.0482   2.2538   2.2926
     2.3508   2.4238   2.4467   2.4918   2.5041   2.5445   2.5521   2.5812
     2.6117   2.6154   2.6186   2.6448   2.6656   2.6658   2.6756   2.6860
     2.6944   2.6971   2.7250   2.7251   2.7380   2.7404

          k =-0.0712 0.0817 0.0000 ( 29779 PWs)   bands (ev):

   -32.3330 -32.2986 -32.2690 -32.2344 -31.9509 -31.9146 -16.0823 -16.0731
   -16.0267 -16.0037 -15.9691 -15.9273 -15.9132 -15.8778 -15.8517 -15.8044
   -15.7792 -15.6124 -15.5627 -15.5428 -15.4942 -15.4348 -15.3912 -15.3115
   -10.1751 -10.1431 -10.1191 -10.1179 -10.1113 -10.1078 -10.0978 -10.0877
   -10.0807 -10.0760 -10.0752 -10.0674 -10.0638 -10.0622 -10.0614 -10.0596
   -10.0546 -10.0528 -10.0481 -10.0402 -10.0377 -10.0315 -10.0277 -10.0210
   -10.0072  -9.9810  -9.9614  -9.9562  -9.9467  -9.9111  -5.2065  -4.8813
    -4.5531  -4.5279  -4.1450  -3.6410  -0.9227  -0.6805  -0.6199  -0.3444
    -0.0546   0.0379   0.0429   0.1995   0.5174   1.0600   1.1015   1.1134
     1.3656   1.6534   1.7820   1.9142   1.9608   2.0389   2.2839   2.4151
     2.4361   2.4815   2.5042   2.5261   2.5475   2.5607   2.5916   2.6082
     2.6098   2.6198   2.6287   2.6517   2.6580   2.6593   2.6822   2.6968
     2.7111   2.7116   2.7368   2.7439   2.7554   2.7702

          k =-0.0712-0.0471 0.0000 ( 29800 PWs)   bands (ev):

   -32.3357 -32.2958 -32.2716 -32.2317 -31.9537 -31.9118 -16.1080 -16.0903
   -16.0613 -15.9999 -15.9731 -15.9354 -15.9078 -15.8851 -15.8491 -15.8141
   -15.8004 -15.5761 -15.5483 -15.5258 -15.4921 -15.4385 -15.3883 -15.2741
   -10.1844 -10.1557 -10.1243 -10.1187 -10.1171 -10.1104 -10.0945 -10.0771
   -10.0757 -10.0742 -10.0714 -10.0609 -10.0604 -10.0592 -10.0587 -10.0581
   -10.0536 -10.0511 -10.0426 -10.0417 -10.0382 -10.0271 -10.0234 -10.0206
   -10.0028  -9.9676  -9.9623  -9.9493  -9.9369  -9.8991  -5.1260  -4.9605
    -4.5337  -4.3814  -4.0145  -3.4460  -1.1260  -0.9905  -0.7629  -0.4668
    -0.3563  -0.1923  -0.1521   0.0771   0.2761   1.0004   1.0133   1.0706
     1.2832   1.5871   1.8016   1.8844   1.9010   2.2393   2.3882   2.5111
     2.5149   2.5232   2.5362   2.5524   2.5726   2.5839   2.6076   2.6083
     2.6091   2.6181   2.6404   2.6504   2.6547   2.6559   2.6857   2.7027
     2.7182   2.7282   2.7354   2.7568   2.7580   2.7841

     the Fermi energy is     1.4388 ev

!    total energy              =   -1505.14859295 Ry
     Harris-Foulkes estimate   =   -1505.14863007 Ry
     estimated scf accuracy    <       0.00000072 Ry

     The total energy is the sum of the following terms:

     one-electron contribution =   -6152.21936688 Ry
     hartree contribution      =    3122.55705407 Ry
     xc contribution           =    -688.23678391 Ry
     ewald contribution        =    2212.83719789 Ry
     electric field correction =       0.00000398 Ry
     smearing contrib. (-TS)   =      -0.08669809 Ry

     convergence has been achieved in  19 iterations
 
 BEEF-vdW xc energy contributions
           1 :   -611.857438999398     
           2 :    565.868102313059     
           3 :   -484.704000920207     
           4 :    385.854889787287     
           5 :   -287.549749629420     
           6 :    203.571500359472     
           7 :   -140.603444656239     
           8 :    98.4108068509083     
           9 :   -72.1363193973397     
          10 :    55.3935993654627     
          11 :   -42.8616034419933     
          12 :    31.5290194994527     
          13 :   -20.5506345968580     
          14 :    10.3017744340675     
          15 :   -1.40541985017728     
          16 :   -5.79861097099615     
          17 :    11.2814408558746     
          18 :   -15.0997686593927     
          19 :    17.2134564539650     
          20 :   -17.5247863296117     
          21 :    16.0948157606770     
          22 :   -13.3577269729298     
          23 :    10.1456639374157     
          24 :   -7.47271802833006     
          25 :    6.16561270188822     
          26 :   -6.52259828954413     
          27 :    8.16780322284421     
          28 :   -10.1901585481658     
          29 :    11.5208129729344     
          30 :   -11.3949258375660     
          31 :   -50.2885336022717     
          32 :   -36.4587444694087     

     Forces acting on atoms (Ry/au):


     negative rho (up, down):  6.033E-01 0.000E+00
     atom    1 type  1   force =    -0.00156858   -0.00103866    0.00865680
     atom    2 type  1   force =    -0.00156315   -0.00103481    0.00865389
     atom    3 type  2   force =     0.00402647    0.00265487   -0.00344433
     atom    4 type  2   force =     0.00401748    0.00267261   -0.00344022
     atom    5 type  1   force =    -0.00193069   -0.00127925    0.00095345
     atom    6 type  1   force =    -0.00194505   -0.00128617    0.00097606
     atom    7 type  2   force =    -0.00018089   -0.00014212   -0.00206498
     atom    8 type  2   force =    -0.00020238   -0.00010858   -0.00206464
     atom    9 type  1   force =     0.00100224    0.00065767   -0.00197386
     atom   10 type  1   force =     0.00105147    0.00070113   -0.00197179
     atom   11 type  2   force =    -0.00134176   -0.00091683   -0.00213804
     atom   12 type  2   force =    -0.00136517   -0.00087987   -0.00214235

     Total force =     0.016543     Total SCF correction =     0.003552
     SCF correction compared to forces is large: reduce conv_thr to get better values


     entering subroutine stress ...


     negative rho (up, down):  6.033E-01 0.000E+00
          total   stress  (Ry/bohr**3)                   (kbar)     P=   -8.28
  -0.00007495  -0.00000729  -0.00000383        -11.03     -1.07     -0.56
  -0.00000729  -0.00006877  -0.00000254         -1.07    -10.12     -0.37
  -0.00000383  -0.00000254  -0.00002513         -0.56     -0.37     -3.70

 !ASE

     Writing output data file calc.save
 
     init_run     :     21.05s CPU     33.67s WALL (       1 calls)
     electrons    :    882.11s CPU   1322.75s WALL (       1 calls)
     forces       :      5.04s CPU      6.10s WALL (       1 calls)
     stress       :     17.58s CPU     20.81s WALL (       1 calls)

     Called by init_run:
     wfcinit      :     17.81s CPU     29.28s WALL (       1 calls)
     potinit      :      1.42s CPU      2.32s WALL (       1 calls)

     Called by electrons:
     c_bands      :    693.69s CPU   1028.90s WALL (      19 calls)
     sum_band     :     99.86s CPU    160.40s WALL (      19 calls)
     v_of_rho     :     26.02s CPU     43.82s WALL (      20 calls)
     newd         :     16.68s CPU     17.69s WALL (      20 calls)
     mix_rho      :      1.02s CPU      1.72s WALL (      19 calls)
     vdW_energy   :      2.68s CPU      2.69s WALL (      56 calls)
     vdW_ffts     :     49.04s CPU     80.82s WALL (     114 calls)
     vdW_v        :      8.07s CPU     13.05s WALL (      56 calls)

     Called by c_bands:
     init_us_2    :      0.93s CPU      0.99s WALL (     820 calls)
     cegterg      :    681.50s CPU   1015.43s WALL (     380 calls)

     Called by *egterg:
     h_psi        :    439.31s CPU    750.60s WALL (    2918 calls)
     s_psi        :     13.60s CPU     13.80s WALL (    2918 calls)
     g_psi        :      0.59s CPU      0.60s WALL (    2518 calls)
     cdiaghg      :    165.25s CPU    172.48s WALL (    2898 calls)

     Called by h_psi:
     add_vuspsi   :     14.20s CPU     14.39s WALL (    2918 calls)

     General routines
     calbec       :     38.06s CPU     49.73s WALL (    3338 calls)
     fft          :     74.96s CPU    123.76s WALL (    3423 calls)
     ffts         :      0.22s CPU      0.40s WALL (      39 calls)
     fftw         :    459.80s CPU    817.89s WALL (  244716 calls)
     interpolate  :      1.09s CPU      1.88s WALL (      39 calls)
     davcio       :      0.00s CPU      0.03s WALL (      20 calls)
 
     Parallel routines
     fft_scatter  :    502.60s CPU    907.04s WALL (  248178 calls)
 
     PWSCF        : 15m27.19s CPU    23m 5.65s WALL

 
   This run was terminated on:   4:55:17  28Dec2018            

=------------------------------------------------------------------------------=
   JOB DONE.
=------------------------------------------------------------------------------=
Job  /afs/slac/g/suncat/bin/suncat-tsmpirun -x LD_LIBRARY_PATH -wdir /scratch/qe758153_uKO2X pw.x -in pw.inp

TID   HOST_NAME   COMMAND_LINE            STATUS            TERMINATION_TIME
===== ========== ================  =======================  ===================
00000 suncat0193 pw.x -in pw.inp   Done                     12/28/2018 04:55:17
00001 suncat0193 pw.x -in pw.inp   Done                     12/28/2018 04:55:17
00002 suncat0193 pw.x -in pw.inp   Done                     12/28/2018 04:55:17
00003 suncat0193 pw.x -in pw.inp   Done                     12/28/2018 04:55:17
00004 suncat0193 pw.x -in pw.inp   Done                     12/28/2018 04:55:17
00005 suncat0193 pw.x -in pw.inp   Done                     12/28/2018 04:55:17
00006 suncat0193 pw.x -in pw.inp   Done                     12/28/2018 04:55:17
00007 suncat0193 pw.x -in pw.inp   Done                     12/28/2018 04:55:17
00008 suncat0192 pw.x -in pw.inp   Done                     12/28/2018 04:55:17
00009 suncat0192 pw.x -in pw.inp   Done                     12/28/2018 04:55:17
00010 suncat0192 pw.x -in pw.inp   Done                     12/28/2018 04:55:17
00011 suncat0192 pw.x -in pw.inp   Done                     12/28/2018 04:55:17
00012 suncat0192 pw.x -in pw.inp   Done                     12/28/2018 04:55:17
00013 suncat0192 pw.x -in pw.inp   Done                     12/28/2018 04:55:17
00014 suncat0192 pw.x -in pw.inp   Done                     12/28/2018 04:55:17
00015 suncat0192 pw.x -in pw.inp   Done                     12/28/2018 04:55:17
00016 suncat0163 pw.x -in pw.inp   Done                     12/28/2018 04:55:17
00017 suncat0163 pw.x -in pw.inp   Done                     12/28/2018 04:55:17
00018 suncat0163 pw.x -in pw.inp   Done                     12/28/2018 04:55:17
00019 suncat0163 pw.x -in pw.inp   Done                     12/28/2018 04:55:17
00020 suncat0163 pw.x -in pw.inp   Done                     12/28/2018 04:55:17
00021 suncat0163 pw.x -in pw.inp   Done                     12/28/2018 04:55:17
00022 suncat0163 pw.x -in pw.inp   Done                     12/28/2018 04:55:17
00023 suncat0163 pw.x -in pw.inp   Done                     12/28/2018 04:55:17
00024 suncat0162 pw.x -in pw.inp   Done                     12/28/2018 04:55:17
00025 suncat0162 pw.x -in pw.inp   Done                     12/28/2018 04:55:17
00026 suncat0162 pw.x -in pw.inp   Done                     12/28/2018 04:55:17
00027 suncat0162 pw.x -in pw.inp   Done                     12/28/2018 04:55:17
00028 suncat0162 pw.x -in pw.inp   Done                     12/28/2018 04:55:17
00029 suncat0162 pw.x -in pw.inp   Done                     12/28/2018 04:55:17
00030 suncat0162 pw.x -in pw.inp   Done                     12/28/2018 04:55:17
00031 suncat0162 pw.x -in pw.inp   Done                     12/28/2018 04:55:17
00032 suncat0159 pw.x -in pw.inp   Done                     12/28/2018 04:55:17
00033 suncat0159 pw.x -in pw.inp   Done                     12/28/2018 04:55:17
00034 suncat0159 pw.x -in pw.inp   Done                     12/28/2018 04:55:17
00035 suncat0159 pw.x -in pw.inp   Done                     12/28/2018 04:55:17
00036 suncat0159 pw.x -in pw.inp   Done                     12/28/2018 04:55:17
00037 suncat0159 pw.x -in pw.inp   Done                     12/28/2018 04:55:17
00038 suncat0159 pw.x -in pw.inp   Done                     12/28/2018 04:55:17
00039 suncat0159 pw.x -in pw.inp   Done                     12/28/2018 04:55:17
00040 suncat0155 pw.x -in pw.inp   Done                     12/28/2018 04:55:17
00041 suncat0155 pw.x -in pw.inp   Done                     12/28/2018 04:55:17
00042 suncat0155 pw.x -in pw.inp   Done                     12/28/2018 04:55:17
00043 suncat0155 pw.x -in pw.inp   Done                     12/28/2018 04:55:17
00044 suncat0155 pw.x -in pw.inp   Done                     12/28/2018 04:55:17
00045 suncat0155 pw.x -in pw.inp   Done                     12/28/2018 04:55:17
00046 suncat0155 pw.x -in pw.inp   Done                     12/28/2018 04:55:17
00047 suncat0155 pw.x -in pw.inp   Done                     12/28/2018 04:55:17
00048 suncat0141 pw.x -in pw.inp   Done                     12/28/2018 04:55:17
00049 suncat0141 pw.x -in pw.inp   Done                     12/28/2018 04:55:17
00050 suncat0141 pw.x -in pw.inp   Done                     12/28/2018 04:55:17
00051 suncat0141 pw.x -in pw.inp   Done                     12/28/2018 04:55:17
00052 suncat0141 pw.x -in pw.inp   Done                     12/28/2018 04:55:17
00053 suncat0141 pw.x -in pw.inp   Done                     12/28/2018 04:55:17
00054 suncat0141 pw.x -in pw.inp   Done                     12/28/2018 04:55:17
00055 suncat0141 pw.x -in pw.inp   Done                     12/28/2018 04:55:17
00056 suncat0140 pw.x -in pw.inp   Done                     12/28/2018 04:55:17
00057 suncat0140 pw.x -in pw.inp   Done                     12/28/2018 04:55:17
00058 suncat0140 pw.x -in pw.inp   Done                     12/28/2018 04:55:17
00059 suncat0140 pw.x -in pw.inp   Done                     12/28/2018 04:55:17
00060 suncat0140 pw.x -in pw.inp   Done                     12/28/2018 04:55:17
00061 suncat0140 pw.x -in pw.inp   Done                     12/28/2018 04:55:17
00062 suncat0140 pw.x -in pw.inp   Done                     12/28/2018 04:55:17
00063 suncat0140 pw.x -in pw.inp   Done                     12/28/2018 04:55:17

     Program PWSCF v.5.1rc2 (svn rev. 11289) starts on 28Dec2018 at  4:55:23 

     This program is part of the open-source Quantum ESPRESSO suite
     for quantum simulation of materials; please cite
         "P. Giannozzi et al., J. Phys.:Condens. Matter 21 395502 (2009);
          URL http://www.quantum-espresso.org", 
     in publications or presentations arising from this work. More details at
     http://www.quantum-espresso.org/quote

     Parallel version (MPI), running on    64 processors
     R & G space division:  proc/nbgrp/npool/nimage =      64
     Reading input from pw.inp
     Message from routine read_cards :
     DEPRECATED: no units specified in CELL_PARAMETERS card

     Current dimensions of program PWSCF are:
     Max number of different atomic species (ntypx) = 10
     Max number of k-points (npk) =  40000
     Max angular momentum in pseudopotentials (lmaxx) =  3
     Presently stress not available with electric field


     **************************************************************************
     Initializing libbeef V0.1.1 with the BEEF-vdW functional.
     Citation: Wellendorff et al., PRB 85, 235149 (2012).
     **************************************************************************


     IMPORTANT: XC functional enforced from input :
     Exchange-correlation      = BEEF-VDW ( 1  4 27 13 2)
     Any further DFT definition will be discarded
     Please, verify this is what you really want


     Subspace diagonalization in iterative solution of the eigenvalue problem:
     a serial algorithm will be used

 
     Parallelization info
     --------------------
     sticks:   dense  smooth     PW     G-vecs:    dense   smooth      PW
     Min          74      29      8                14700     3687     546
     Max          75      30      9                14716     3744     567
     Sum        4751    1899    533               941463   238203   35451
 


     bravais-lattice index     =            0
     lattice parameter (alat)  =       1.8897  a.u.
     unit-cell volume          =    7912.4840 (a.u.)^3
     number of atoms/cell      =           12
     number of atomic types    =            2
     number of electrons       =       144.00
     number of Kohn-Sham states=          102
     kinetic-energy cutoff     =      36.7493  Ry
     charge density cutoff     =     367.4932  Ry
     convergence threshold     =      1.0E-06
     mixing beta               =       0.1000
     number of iterations used =           10  plain     mixing
     Exchange-correlation      = BEEF-VDW ( 1  4 27 13 2)
     nstep                     =           50


     celldm(1)=   1.889726  celldm(2)=   0.000000  celldm(3)=   0.000000
     celldm(4)=   0.000000  celldm(5)=   0.000000  celldm(6)=   0.000000

     crystal axes: (cart. coord. in units of alat)
               a(1) = (   7.024067   0.000000   0.000000 )  
               a(2) = (   2.741277   6.467064   0.000000 )  
               a(3) = (   0.000000   0.000000  25.811930 )  

     reciprocal axes: (cart. coord. in units 2 pi/alat)
               b(1) = (  0.142368 -0.060347  0.000000 )  
               b(2) = (  0.000000  0.154630  0.000000 )  
               b(3) = (  0.000000  0.000000  0.038742 )  


     PseudoPot. # 1 for La read from file:
     /afs/slac.stanford.edu/u/if/mamunm/psp/gbrv1.5pbe/La.UPF
     MD5 check sum: 5937b0c7494ba0601a847275249473aa
     Pseudo is Ultrasoft + core correction, Zval = 11.0
     Generated by new atomic code, or converted to UPF format
     Using radial grid of  995 points,  8 beta functions with: 
                l(1) =   0
                l(2) =   0
                l(3) =   1
                l(4) =   1
                l(5) =   2
                l(6) =   2
                l(7) =   3
                l(8) =   3
     Q(r) pseudized with  8 coefficients,  rinner =    1.700   1.700   1.700
                                                       1.700   1.700   1.700
                                                       1.700

     PseudoPot. # 2 for Tl read from file:
     /afs/slac.stanford.edu/u/if/mamunm/psp/gbrv1.5pbe/Tl.UPF
     MD5 check sum: b76cf1f7e72655a2b2c53cf6385d7059
     Pseudo is Ultrasoft + core correction, Zval = 13.0
     Generated by new atomic code, or converted to UPF format
     Using radial grid of  899 points,  6 beta functions with: 
                l(1) =   0
                l(2) =   0
                l(3) =   1
                l(4) =   1
                l(5) =   2
                l(6) =   2
     Q(r) pseudized with  6 coefficients,  rinner =    1.100   1.100   1.100
                                                       1.100   1.100

     vdW kernel table read from file vdW_kernel_table
     MD5 check sum: 095c7af220d748ca6e76c0b4c6cfb241

     atomic species   valence    mass     pseudopotential
        La1           11.00   138.90547     La( 1.00)
        Tl1           13.00   204.38000     Tl( 1.00)

     No symmetry found



   Cartesian axes

     site n.     atom                  positions (alat units)
         1           La1 tau(   1) = (   0.0000000   0.0000000  10.0000000  )
         2           La1 tau(   2) = (   4.8826716   3.2335319  10.0000000  )
         3           Tl1 tau(   3) = (   3.5120333   0.0000000  10.0000000  )
         4           Tl1 tau(   4) = (   1.3706383   3.2335319  10.0000000  )
         5           La1 tau(   5) = (   7.0240666   4.6516632  12.9059650  )
         6           La1 tau(   6) = (   2.1413950   1.4181312  12.9059650  )
         7           Tl1 tau(   7) = (   3.5120333   4.6516632  12.9059650  )
         8           Tl1 tau(   8) = (   5.6534283   1.4181312  12.9059650  )
         9           La1 tau(   9) = (   4.0895869   2.7083563  15.6911746  )
        10           La1 tau(  10) = (   8.9699742   5.9403446  15.6906655  )
        11           Tl1 tau(  11) = (   7.5467247   2.6701922  15.8568744  )
        12           Tl1 tau(  12) = (   5.4036704   5.9062114  15.8567686  )

     number of k points=    20  Fermi-Dirac smearing, width (Ry)=  0.0110
                       cart. coord. in units 2pi/alat
        k(    1) = (   0.0000000   0.0000000   0.0000000), wk =   0.0555556
        k(    2) = (   0.0000000   0.0257716   0.0000000), wk =   0.1111111
        k(    3) = (   0.0000000   0.0515432   0.0000000), wk =   0.1111111
        k(    4) = (   0.0000000  -0.0773148   0.0000000), wk =   0.0555556
        k(    5) = (   0.0237279  -0.0100579   0.0000000), wk =   0.1111111
        k(    6) = (   0.0237279   0.0157137   0.0000000), wk =   0.1111111
        k(    7) = (   0.0237279   0.0414854   0.0000000), wk =   0.1111111
        k(    8) = (   0.0237279  -0.0873727   0.0000000), wk =   0.1111111
        k(    9) = (   0.0237279  -0.0616011   0.0000000), wk =   0.1111111
        k(   10) = (   0.0237279  -0.0358295   0.0000000), wk =   0.1111111
        k(   11) = (   0.0474559  -0.0201157   0.0000000), wk =   0.1111111
        k(   12) = (   0.0474559   0.0056559   0.0000000), wk =   0.1111111
        k(   13) = (   0.0474559   0.0314275   0.0000000), wk =   0.1111111
        k(   14) = (   0.0474559  -0.0974306   0.0000000), wk =   0.1111111
        k(   15) = (   0.0474559  -0.0716590   0.0000000), wk =   0.1111111
        k(   16) = (   0.0474559  -0.0458873   0.0000000), wk =   0.1111111
        k(   17) = (  -0.0711838   0.0301736   0.0000000), wk =   0.0555556
        k(   18) = (  -0.0711838   0.0559452   0.0000000), wk =   0.1111111
        k(   19) = (  -0.0711838   0.0817168   0.0000000), wk =   0.1111111
        k(   20) = (  -0.0711838  -0.0471412   0.0000000), wk =   0.0555556

     Dense  grid:   941463 G-vectors     FFT dimensions: (  81,  81, 300)

     Smooth grid:   238203 G-vectors     FFT dimensions: (  54,  54, 192)

     Largest allocated arrays     est. size (Mb)     dimensions
        Kohn-Sham Wavefunctions         0.74 Mb     (     477,  102)
        NL pseudopotentials             2.18 Mb     (     477,  300)
        Each V/rho on FFT grid          0.50 Mb     (   32805)
        Each G-vector array             0.11 Mb     (   14716)
        G-vector shells                 0.06 Mb     (    7395)
     Largest temporary arrays     est. size (Mb)     dimensions
        Auxiliary wavefunctions         2.97 Mb     (     477,  408)
        Each subspace H/S matrix        2.54 Mb     (     408,  408)
        Each <psi_i|beta_j> matrix      0.47 Mb     (     300,  102)
        Arrays for rho mixing           5.01 Mb     (   32805,   10)

     Check: negative/imaginary core charge=   -0.000001    0.000000

     Initial potential from superposition of free atoms
     Check: negative starting charge=   -0.724865

     starting charge  143.77839, renormalised to  144.00000

     negative rho (up, down):  7.260E-01 0.000E+00


     ************************************************************************
     *
     * You are using vdW-DF for exchange-correlation in this calculation.
     * Please cite the following three references that made this development
     * possible:
     *
     *   M. Dion, H. Rydberg, E. Schroder, D. C. Langreth, and
     *   B. I. Lundqvist, Phys. Rev. Lett. 92, 246401 (2004).
     *
     *   T. Thonhauser, V. R. Cooper, S. Li, A. Puzder, P. Hyldgaard, and
     *   D. C. Langreth, Phys. Rev. B 76, 125112 (2007).
     *
     *   G. Roman-Perez and J. M. Soler, Phys. Rev. Lett. 103, 096102 (2009).
     *
     *
     * If you are using vdW-DF2, please also cite:
     *
     *   K. Lee, E. D. Murray, L. Kong, B. I. Lundqvist, and
     *   D. C. Langreth, Phys. Rev. B 82, 081101(R) (2010).
     *
     *
     * If you are calculating the stress with vdW-DF, please also cite:
     *
     *   R. Sabatini, E. Kucukbenli, B. Kolb, T. Thonhauser, and
     *   S. de Gironcoli, J. Phys.: Condens. Matter 24, 424209 (2012).
     *
     ************************************************************************

     Carrying out vdW-DF run using the following parameters:

     Nqs =      20    Nr_points =    1024   r_max =   100.000
     q_mesh =
               0.00001000     0.04494208     0.09755937     0.15916263
               0.23128650     0.31572767     0.41458969     0.53033537
               0.66584808     0.82450364     1.01025438     1.22772762
               1.48234092     1.78043706     2.12944203     2.53805004
               3.01644009     3.57652955     4.23227104     5.00000000

     Gradients computed in reciprocal space

     ************************************************************************


 
     Adding external electric field

     Computed dipole along edir(3) : 
        Dipole               -0.0095 Ry au,         -0.0242 Debye
        Dipole field         -0.0000 Ry au
 
        Potential amp.        0.0014 Ry
        Total length         47.5580 bohr
 
     Starting wfc are  174 randomized atomic wfcs

     total cpu time spent up to now is       30.9 secs

     per-process dynamical memory:    49.8 Mb

     Self-consistent Calculation

     iteration #  1     ecut=    36.75 Ry     beta=0.10
     Davidson diagonalization with overlap
     ethr =  1.00E-02,  avg # of iterations =  1.0

     negative rho (up, down):  6.642E-01 0.000E+00
 
     Adding external electric field

     Computed dipole along edir(3) : 
        Dipole               -0.4645 Ry au,         -1.1806 Debye
        Dipole field         -0.0007 Ry au
 
        Potential amp.        0.0702 Ry
        Total length         47.5580 bohr
 

     total cpu time spent up to now is       72.7 secs

     total energy              =   -1504.70059776 Ry
     Harris-Foulkes estimate   =   -1505.46784886 Ry
     estimated scf accuracy    <       4.24857091 Ry

     iteration #  2     ecut=    36.75 Ry     beta=0.10
     Davidson diagonalization with overlap
     ethr =  2.95E-03,  avg # of iterations = 10.1

     negative rho (up, down):  6.472E-01 0.000E+00
 
     Adding external electric field

     Computed dipole along edir(3) : 
        Dipole                0.6393 Ry au,          1.6251 Debye
        Dipole field          0.0010 Ry au
 
        Potential amp.       -0.0966 Ry
        Total length         47.5580 bohr
 

     total cpu time spent up to now is      149.1 secs

     total energy              =   -1504.59888786 Ry
     Harris-Foulkes estimate   =   -1505.39217160 Ry
     estimated scf accuracy    <      16.54544713 Ry

     iteration #  3     ecut=    36.75 Ry     beta=0.10
     Davidson diagonalization with overlap
     ethr =  2.95E-03,  avg # of iterations =  6.0

     negative rho (up, down):  6.223E-01 0.000E+00
 
     Adding external electric field

     Computed dipole along edir(3) : 
        Dipole               -0.0771 Ry au,         -0.1960 Debye
        Dipole field         -0.0001 Ry au
 
        Potential amp.        0.0116 Ry
        Total length         47.5580 bohr
 

     total cpu time spent up to now is      198.7 secs

     total energy              =   -1504.88820341 Ry
     Harris-Foulkes estimate   =   -1505.38648187 Ry
     estimated scf accuracy    <      13.29415321 Ry

     iteration #  4     ecut=    36.75 Ry     beta=0.10
     Davidson diagonalization with overlap
     ethr =  2.95E-03,  avg # of iterations =  1.1

     negative rho (up, down):  6.207E-01 0.000E+00
 
     Adding external electric field

     Computed dipole along edir(3) : 
        Dipole               -0.0276 Ry au,         -0.0702 Debye
        Dipole field         -0.0000 Ry au
 
        Potential amp.        0.0042 Ry
        Total length         47.5580 bohr
 

     total cpu time spent up to now is      241.8 secs

     total energy              =   -1505.15313017 Ry
     Harris-Foulkes estimate   =   -1505.17879813 Ry
     estimated scf accuracy    <       0.21767994 Ry

     iteration #  5     ecut=    36.75 Ry     beta=0.10
     Davidson diagonalization with overlap
     ethr =  1.51E-04,  avg # of iterations =  8.6

     negative rho (up, down):  6.175E-01 0.000E+00
 
     Adding external electric field

     Computed dipole along edir(3) : 
        Dipole               -0.0479 Ry au,         -0.1217 Debye
        Dipole field         -0.0001 Ry au
 
        Potential amp.        0.0072 Ry
        Total length         47.5580 bohr
 

     total cpu time spent up to now is      311.6 secs

     total energy              =   -1505.15188619 Ry
     Harris-Foulkes estimate   =   -1505.17475118 Ry
     estimated scf accuracy    <       0.13496549 Ry

     iteration #  6     ecut=    36.75 Ry     beta=0.10
     Davidson diagonalization with overlap
     ethr =  9.37E-05,  avg # of iterations =  2.4

     negative rho (up, down):  6.194E-01 0.000E+00
 
     Adding external electric field

     Computed dipole along edir(3) : 
        Dipole               -0.0709 Ry au,         -0.1803 Debye
        Dipole field         -0.0001 Ry au
 
        Potential amp.        0.0107 Ry
        Total length         47.5580 bohr
 

     total cpu time spent up to now is      356.2 secs

     total energy              =   -1505.14079449 Ry
     Harris-Foulkes estimate   =   -1505.15642678 Ry
     estimated scf accuracy    <       0.06665609 Ry

     iteration #  7     ecut=    36.75 Ry     beta=0.10
     Davidson diagonalization with overlap
     ethr =  4.63E-05,  avg # of iterations =  7.0

     negative rho (up, down):  6.199E-01 0.000E+00
 
     Adding external electric field

     Computed dipole along edir(3) : 
        Dipole               -0.0599 Ry au,         -0.1523 Debye
        Dipole field         -0.0001 Ry au
 
        Potential amp.        0.0091 Ry
        Total length         47.5580 bohr
 

     total cpu time spent up to now is      418.9 secs

     total energy              =   -1505.14566677 Ry
     Harris-Foulkes estimate   =   -1505.14884617 Ry
     estimated scf accuracy    <       0.02930623 Ry

     iteration #  8     ecut=    36.75 Ry     beta=0.10
     Davidson diagonalization with overlap
     ethr =  2.04E-05,  avg # of iterations =  9.6

     negative rho (up, down):  6.126E-01 0.000E+00
 
     Adding external electric field

     Computed dipole along edir(3) : 
        Dipole               -0.0543 Ry au,         -0.1381 Debye
        Dipole field         -0.0001 Ry au
 
        Potential amp.        0.0082 Ry
        Total length         47.5580 bohr
 

     total cpu time spent up to now is      479.2 secs

     total energy              =   -1505.14732601 Ry
     Harris-Foulkes estimate   =   -1505.14799433 Ry
     estimated scf accuracy    <       0.00858151 Ry

     iteration #  9     ecut=    36.75 Ry     beta=0.10
     Davidson diagonalization with overlap
     c_bands:  1 eigenvalues not converged
     ethr =  5.96E-06,  avg # of iterations = 14.9

     negative rho (up, down):  6.080E-01 0.000E+00
 
     Adding external electric field

     Computed dipole along edir(3) : 
        Dipole               -0.0447 Ry au,         -0.1137 Debye
        Dipole field         -0.0001 Ry au
 
        Potential amp.        0.0068 Ry
        Total length         47.5580 bohr
 

     total cpu time spent up to now is      585.3 secs

     total energy              =   -1505.14709190 Ry
     Harris-Foulkes estimate   =   -1505.14955157 Ry
     estimated scf accuracy    <       0.00713778 Ry

     iteration # 10     ecut=    36.75 Ry     beta=0.10
     Davidson diagonalization with overlap
     ethr =  4.96E-06,  avg # of iterations =  6.4

     negative rho (up, down):  6.034E-01 0.000E+00
 
     Adding external electric field

     Computed dipole along edir(3) : 
        Dipole               -0.0573 Ry au,         -0.1455 Debye
        Dipole field         -0.0001 Ry au
 
        Potential amp.        0.0086 Ry
        Total length         47.5580 bohr
 

     total cpu time spent up to now is      645.9 secs

     total energy              =   -1505.14790611 Ry
     Harris-Foulkes estimate   =   -1505.14861845 Ry
     estimated scf accuracy    <       0.00598108 Ry

     iteration # 11     ecut=    36.75 Ry     beta=0.10
     Davidson diagonalization with overlap
     c_bands:  1 eigenvalues not converged
     ethr =  4.15E-06,  avg # of iterations = 11.2

     negative rho (up, down):  6.034E-01 0.000E+00
 
     Adding external electric field

     Computed dipole along edir(3) : 
        Dipole               -0.0549 Ry au,         -0.1395 Debye
        Dipole field         -0.0001 Ry au
 
        Potential amp.        0.0083 Ry
        Total length         47.5580 bohr
 

     total cpu time spent up to now is      710.2 secs

     total energy              =   -1505.14843271 Ry
     Harris-Foulkes estimate   =   -1505.14841496 Ry
     estimated scf accuracy    <       0.00062877 Ry

     iteration # 12     ecut=    36.75 Ry     beta=0.10
     Davidson diagonalization with overlap
     c_bands:  1 eigenvalues not converged
     ethr =  4.37E-07,  avg # of iterations = 15.2

     negative rho (up, down):  6.041E-01 0.000E+00
 
     Adding external electric field

     Computed dipole along edir(3) : 
        Dipole               -0.0511 Ry au,         -0.1299 Debye
        Dipole field         -0.0001 Ry au
 
        Potential amp.        0.0077 Ry
        Total length         47.5580 bohr
 

     total cpu time spent up to now is      806.0 secs

     total energy              =   -1505.14847317 Ry
     Harris-Foulkes estimate   =   -1505.14856011 Ry
     estimated scf accuracy    <       0.00052750 Ry

     iteration # 13     ecut=    36.75 Ry     beta=0.10
     Davidson diagonalization with overlap
     ethr =  3.66E-07,  avg # of iterations =  7.5

     negative rho (up, down):  6.030E-01 0.000E+00
 
     Adding external electric field

     Computed dipole along edir(3) : 
        Dipole               -0.0523 Ry au,         -0.1329 Debye
        Dipole field         -0.0001 Ry au
 
        Potential amp.        0.0079 Ry
        Total length         47.5580 bohr
 

     total cpu time spent up to now is      865.8 secs

     total energy              =   -1505.14864046 Ry
     Harris-Foulkes estimate   =   -1505.14865073 Ry
     estimated scf accuracy    <       0.00033065 Ry

     iteration # 14     ecut=    36.75 Ry     beta=0.10
     Davidson diagonalization with overlap
     ethr =  2.30E-07,  avg # of iterations =  5.5

     negative rho (up, down):  6.025E-01 0.000E+00
 
     Adding external electric field

     Computed dipole along edir(3) : 
        Dipole               -0.0523 Ry au,         -0.1330 Debye
        Dipole field         -0.0001 Ry au
 
        Potential amp.        0.0079 Ry
        Total length         47.5580 bohr
 

     total cpu time spent up to now is      914.6 secs

     total energy              =   -1505.14868242 Ry
     Harris-Foulkes estimate   =   -1505.14868693 Ry
     estimated scf accuracy    <       0.00017989 Ry

     iteration # 15     ecut=    36.75 Ry     beta=0.10
     Davidson diagonalization with overlap
     ethr =  1.25E-07,  avg # of iterations =  4.8

     negative rho (up, down):  6.026E-01 0.000E+00
 
     Adding external electric field

     Computed dipole along edir(3) : 
        Dipole               -0.0512 Ry au,         -0.1301 Debye
        Dipole field         -0.0001 Ry au
 
        Potential amp.        0.0077 Ry
        Total length         47.5580 bohr
 

     total cpu time spent up to now is      981.2 secs

     total energy              =   -1505.14868704 Ry
     Harris-Foulkes estimate   =   -1505.14869085 Ry
     estimated scf accuracy    <       0.00008717 Ry

     iteration # 16     ecut=    36.75 Ry     beta=0.10
     Davidson diagonalization with overlap
     ethr =  6.05E-08,  avg # of iterations =  5.7

     negative rho (up, down):  6.026E-01 0.000E+00
 
     Adding external electric field

     Computed dipole along edir(3) : 
        Dipole               -0.0512 Ry au,         -0.1301 Debye
        Dipole field         -0.0001 Ry au
 
        Potential amp.        0.0077 Ry
        Total length         47.5580 bohr
 

[...]
   -10.0071  -9.9870  -9.9639  -9.9532  -9.9439  -9.9094  -5.5849  -4.9595
    -4.6204  -4.6082  -4.2164  -3.8496  -0.4052  -0.3782  -0.2407  -0.0093
     0.2138   0.3091   0.5999   0.6368   1.0566   1.1452   1.2073   1.3804
     1.4493   1.5386   1.8289   1.8608   2.0490   2.0555   2.1866   2.2261
     2.4736   2.5020   2.5038   2.5546   2.5663   2.5756   2.5880   2.6117
     2.6164   2.6175   2.6351   2.6524   2.6655   2.6697   2.6744   2.6772
     2.7010   2.7136   2.7147   2.7304   2.7486   2.7536

          k = 0.0475 0.0314 0.0000 ( 29730 PWs)   bands (ev):

   -32.3339 -32.2939 -32.2647 -32.2245 -31.9482 -31.9065 -16.1017 -16.0805
   -16.0532 -15.9975 -15.9720 -15.9219 -15.9078 -15.8743 -15.8437 -15.8074
   -15.7969 -15.5728 -15.5424 -15.5193 -15.4799 -15.4340 -15.3797 -15.2674
   -10.1870 -10.1560 -10.1295 -10.1223 -10.1155 -10.1130 -10.1058 -10.0904
   -10.0877 -10.0856 -10.0779 -10.0754 -10.0727 -10.0656 -10.0632 -10.0622
   -10.0593 -10.0503 -10.0461 -10.0425 -10.0372 -10.0296 -10.0272 -10.0227
   -10.0030  -9.9716  -9.9570  -9.9542  -9.9339  -9.8978  -5.4517  -4.9219
    -4.5993  -4.4599  -4.0765  -3.6148  -0.8140  -0.7929  -0.5852  -0.1979
    -0.0917   0.0527   0.1642   0.2170   0.6519   1.0508   1.1422   1.1997
     1.3634   1.5359   1.8381   1.9147   2.0035   2.1343   2.2852   2.3714
     2.5056   2.5378   2.5482   2.5604   2.5774   2.5850   2.6013   2.6029
     2.6188   2.6275   2.6411   2.6522   2.6744   2.6765   2.6820   2.6823
     2.7005   2.7129   2.7140   2.7393   2.7603   2.7606

          k = 0.0475-0.0974 0.0000 ( 29779 PWs)   bands (ev):

   -32.3312 -32.2967 -32.2619 -32.2273 -31.9455 -31.9091 -16.0806 -16.0710
   -16.0223 -16.0015 -15.9667 -15.9246 -15.9107 -15.8737 -15.8491 -15.7998
   -15.7747 -15.6104 -15.5573 -15.5370 -15.4890 -15.4290 -15.3855 -15.3067
   -10.1764 -10.1429 -10.1201 -10.1185 -10.1113 -10.1079 -10.0968 -10.0870
   -10.0807 -10.0752 -10.0742 -10.0675 -10.0642 -10.0628 -10.0610 -10.0595
   -10.0541 -10.0525 -10.0488 -10.0403 -10.0380 -10.0310 -10.0274 -10.0203
   -10.0075  -9.9795  -9.9594  -9.9559  -9.9463  -9.9097  -5.2130  -4.8824
    -4.5601  -4.5218  -4.1479  -3.6379  -0.9235  -0.6838  -0.6198  -0.3485
    -0.0541   0.0353   0.0469   0.2023   0.5201   1.0679   1.1021   1.1147
     1.3721   1.6524   1.7813   1.9225   1.9639   2.0374   2.2868   2.4207
     2.4381   2.4819   2.5076   2.5288   2.5513   2.5635   2.5973   2.6110
     2.6126   2.6241   2.6330   2.6572   2.6608   2.6639   2.6882   2.6995
     2.7143   2.7172   2.7423   2.7463   2.7598   2.7757

          k = 0.0475-0.0717 0.0000 ( 29794 PWs)   bands (ev):

   -32.3238 -32.3041 -32.2545 -32.2348 -31.9380 -31.9168 -16.0662 -16.0121
   -15.9785 -15.9545 -15.9317 -15.9199 -15.9126 -15.8595 -15.8588 -15.8086
   -15.7088 -15.6798 -15.6569 -15.5220 -15.5015 -15.4180 -15.4081 -15.3962
   -10.1529 -10.1264 -10.1092 -10.1089 -10.1000 -10.0989 -10.0915 -10.0883
   -10.0833 -10.0802 -10.0780 -10.0723 -10.0687 -10.0661 -10.0647 -10.0604
   -10.0544 -10.0464 -10.0457 -10.0445 -10.0421 -10.0335 -10.0277 -10.0226
   -10.0189 -10.0147  -9.9839  -9.9667  -9.9597  -9.9330  -5.0300  -4.9187
    -4.8066  -4.4286  -4.4112  -3.9386  -0.6608  -0.3416  -0.1602  -0.0765
     0.1303   0.2808   0.5010   0.5809   0.8113   1.0944   1.1823   1.2354
     1.5433   1.5809   1.7094   1.8706   1.9330   2.0662   2.1456   2.1796
     2.2271   2.3275   2.4834   2.4920   2.5220   2.5593   2.5623   2.5740
     2.6170   2.6267   2.6451   2.6541   2.6557   2.6587   2.6764   2.6898
     2.7120   2.7235   2.7252   2.7369   2.7374   2.7610

          k = 0.0475-0.0459 0.0000 ( 29783 PWs)   bands (ev):

   -32.3142 -32.3139 -32.2451 -32.2443 -31.9277 -31.9272 -16.0426 -16.0273
   -15.9419 -15.9397 -15.8895 -15.8722 -15.8451 -15.8408 -15.8360 -15.8237
   -15.7948 -15.7889 -15.5458 -15.5439 -15.5148 -15.5021 -15.4092 -15.4025
   -10.1363 -10.1300 -10.1276 -10.1131 -10.1076 -10.0939 -10.0933 -10.0911
   -10.0846 -10.0828 -10.0800 -10.0733 -10.0716 -10.0646 -10.0645 -10.0609
   -10.0595 -10.0557 -10.0534 -10.0512 -10.0354 -10.0344 -10.0290 -10.0279
   -10.0223 -10.0217 -10.0093 -10.0052  -9.9536  -9.9427  -5.2962  -4.9568
    -4.7068  -4.6269  -4.3121  -4.2774  -0.1549   0.1096   0.1615   0.3580
     0.6158   0.6698   0.6909   0.9337   1.0740   1.0761   1.2721   1.3535
     1.6072   1.6082   1.7185   1.8590   1.8901   1.9730   2.1071   2.1985
     2.3561   2.3773   2.3955   2.4496   2.5061   2.5080   2.5392   2.5507
     2.5892   2.6088   2.6267   2.6318   2.6504   2.6589   2.6653   2.6778
     2.6857   2.6994   2.7083   2.7218   2.7427   2.7532

          k =-0.0712 0.0302 0.0000 ( 29764 PWs)   bands (ev):

   -32.3141 -32.3140 -32.2450 -32.2444 -31.9275 -31.9274 -16.0351 -16.0347
   -15.9421 -15.9420 -15.8793 -15.8791 -15.8411 -15.8411 -15.8335 -15.8330
   -15.7914 -15.7909 -15.5455 -15.5454 -15.5075 -15.5073 -15.4062 -15.4055
   -10.1327 -10.1326 -10.1285 -10.1285 -10.1047 -10.1046 -10.0867 -10.0867
   -10.0826 -10.0825 -10.0759 -10.0758 -10.0666 -10.0665 -10.0613 -10.0612
   -10.0591 -10.0590 -10.0541 -10.0541 -10.0349 -10.0345 -10.0266 -10.0264
   -10.0225 -10.0222 -10.0052 -10.0048  -9.9482  -9.9481  -5.1473  -5.1464
    -4.6482  -4.6467  -4.2895  -4.2876   0.0432   0.0434   0.1316   0.1319
     0.5739   0.5747   0.7275   0.7279   0.9172   0.9175   1.3901   1.3907
     1.6934   1.6939   1.8333   1.8345   2.0494   2.0498   2.3428   2.3429
     2.4129   2.4130   2.4708   2.4711   2.5120   2.5122   2.5288   2.5288
     2.5951   2.5952   2.6093   2.6094   2.6512   2.6512   2.6731   2.6732
     2.6941   2.6942   2.7086   2.7087   2.7359   2.7360

          k =-0.0712 0.0559 0.0000 ( 29763 PWs)   bands (ev):

   -32.3240 -32.3041 -32.2547 -32.2347 -31.9379 -31.9169 -16.0600 -16.0142
   -15.9756 -15.9564 -15.9303 -15.9203 -15.9031 -15.8582 -15.8551 -15.8121
   -15.7089 -15.6784 -15.6572 -15.5237 -15.4959 -15.4201 -15.4070 -15.3938
   -10.1536 -10.1254 -10.1230 -10.1137 -10.1084 -10.1050 -10.0965 -10.0896
   -10.0883 -10.0797 -10.0777 -10.0768 -10.0690 -10.0675 -10.0656 -10.0623
   -10.0587 -10.0550 -10.0482 -10.0477 -10.0448 -10.0290 -10.0269 -10.0224
   -10.0173 -10.0146  -9.9852  -9.9685  -9.9556  -9.9338  -5.2535  -4.8877
    -4.7861  -4.4594  -4.4159  -3.9964  -0.4230  -0.2319  -0.1102   0.0025
     0.2360   0.3528   0.5488   0.7121   0.9902   1.1657   1.2370   1.3484
     1.4568   1.5848   1.7328   1.7973   1.9841   2.0518   2.2567   2.2988
     2.3522   2.4275   2.4483   2.4935   2.5069   2.5507   2.5554   2.5856
     2.6160   2.6179   2.6218   2.6479   2.6695   2.6711   2.6803   2.6884
     2.6985   2.7025   2.7273   2.7333   2.7417   2.7548

          k =-0.0712 0.0817 0.0000 ( 29779 PWs)   bands (ev):

   -32.3312 -32.2967 -32.2619 -32.2273 -31.9455 -31.9091 -16.0806 -16.0710
   -16.0223 -16.0015 -15.9667 -15.9246 -15.9107 -15.8737 -15.8491 -15.7998
   -15.7747 -15.6104 -15.5573 -15.5370 -15.4890 -15.4290 -15.3855 -15.3067
   -10.1764 -10.1429 -10.1201 -10.1185 -10.1113 -10.1079 -10.0968 -10.0870
   -10.0807 -10.0752 -10.0742 -10.0675 -10.0642 -10.0628 -10.0610 -10.0595
   -10.0541 -10.0525 -10.0488 -10.0403 -10.0380 -10.0310 -10.0274 -10.0203
   -10.0075  -9.9795  -9.9594  -9.9559  -9.9463  -9.9097  -5.2130  -4.8824
    -4.5601  -4.5218  -4.1479  -3.6379  -0.9235  -0.6838  -0.6198  -0.3485
    -0.0541   0.0353   0.0469   0.2023   0.5201   1.0679   1.1021   1.1147
     1.3721   1.6524   1.7813   1.9225   1.9639   2.0374   2.2868   2.4207
     2.4381   2.4819   2.5076   2.5288   2.5513   2.5635   2.5973   2.6110
     2.6126   2.6241   2.6330   2.6573   2.6608   2.6639   2.6882   2.6995
     2.7143   2.7173   2.7423   2.7463   2.7598   2.7751

          k =-0.0712-0.0471 0.0000 ( 29800 PWs)   bands (ev):

   -32.3338 -32.2940 -32.2645 -32.2246 -31.9483 -31.9063 -16.1058 -16.0886
   -16.0571 -15.9977 -15.9707 -15.9327 -15.9053 -15.8811 -15.8465 -15.8096
   -15.7958 -15.5740 -15.5425 -15.5203 -15.4869 -15.4326 -15.3826 -15.2693
   -10.1856 -10.1555 -10.1243 -10.1191 -10.1175 -10.1115 -10.0930 -10.0774
   -10.0744 -10.0728 -10.0706 -10.0619 -10.0616 -10.0591 -10.0585 -10.0576
   -10.0531 -10.0506 -10.0433 -10.0423 -10.0384 -10.0268 -10.0228 -10.0199
   -10.0031  -9.9661  -9.9602  -9.9487  -9.9368  -9.8977  -5.1344  -4.9598
    -4.5273  -4.3888  -4.0183  -3.4428  -1.1271  -0.9928  -0.7626  -0.4713
    -0.3579  -0.1878  -0.1495   0.0790   0.2776   1.0026   1.0242   1.0703
     1.2897   1.5860   1.8006   1.8933   1.9037   2.2444   2.3904   2.5111
     2.5137   2.5284   2.5391   2.5544   2.5778   2.5871   2.6107   2.6108
     2.6167   2.6224   2.6445   2.6553   2.6593   2.6620   2.6908   2.7037
     2.7237   2.7350   2.7388   2.7581   2.7621   2.8057

     the Fermi energy is     1.4405 ev

!    total energy              =   -1505.14873307 Ry
     Harris-Foulkes estimate   =   -1505.14876947 Ry
     estimated scf accuracy    <       0.00000042 Ry

     The total energy is the sum of the following terms:

     one-electron contribution =   -6165.41915957 Ry
     hartree contribution      =    3129.16032098 Ry
     xc contribution           =    -688.24924522 Ry
     ewald contribution        =    2219.44570376 Ry
     electric field correction =       0.00000410 Ry
     smearing contrib. (-TS)   =      -0.08635712 Ry

     convergence has been achieved in  19 iterations
 
 BEEF-vdW xc energy contributions
           1 :   -611.870471251948     
           2 :    565.887829581860     
           3 :   -484.731121888394     
           4 :    385.882489653008     
           5 :   -287.567255812994     
           6 :    203.571805553286     
           7 :   -140.588178883893     
           8 :    98.3899020498895     
           9 :   -72.1222043524535     
          10 :    55.3937877511116     
          11 :   -42.8745009843323     
          12 :    31.5455981130607     
          13 :   -20.5603654812345     
          14 :    10.2989501439830     
          15 :   -1.39212880001378     
          16 :   -5.81437228426762     
          17 :    11.2908615056152     
          18 :   -15.0983193574355     
          19 :    17.2030827779528     
          20 :   -17.5123722837548     
          21 :    16.0881490354384     
          22 :   -13.3612859572982     
          23 :    10.1583595705479     
          24 :   -7.48858858037033     
          25 :    6.17696412046701     
          26 :   -6.52405986893939     
          27 :    8.15932805717739     
          28 :   -10.1775210274311     
          29 :    11.5131664132853     
          30 :   -11.4003398570663     
          31 :   -50.2897111815934     
          32 :   -36.4614633963531     

     Forces acting on atoms (Ry/au):


     negative rho (up, down):  6.018E-01 0.000E+00
     atom    1 type  1   force =    -0.00166991   -0.00110707    0.00881352
     atom    2 type  1   force =    -0.00165478   -0.00109568    0.00882979
     atom    3 type  2   force =     0.00396108    0.00263694   -0.00338307
     atom    4 type  2   force =     0.00397349    0.00261812   -0.00338314
     atom    5 type  1   force =    -0.00153234   -0.00101696    0.00048640
     atom    6 type  1   force =    -0.00154700   -0.00102352    0.00047366
     atom    7 type  2   force =    -0.00003056   -0.00006997   -0.00342878
     atom    8 type  2   force =    -0.00007559    0.00000096   -0.00342572
     atom    9 type  1   force =    -0.00058288   -0.00038591   -0.00100902
     atom   10 type  1   force =    -0.00058212   -0.00038827   -0.00099198
     atom   11 type  2   force =    -0.00013755   -0.00007087   -0.00149323
     atom   12 type  2   force =    -0.00012183   -0.00009777   -0.00148843

     Total force =     0.016433     Total SCF correction =     0.004129
     SCF correction compared to forces is large: reduce conv_thr to get better values


     entering subroutine stress ...


     negative rho (up, down):  6.018E-01 0.000E+00
          total   stress  (Ry/bohr**3)                   (kbar)     P=   -8.56
  -0.00007700  -0.00000717  -0.00000399        -11.33     -1.06     -0.59
  -0.00000717  -0.00007091  -0.00000264         -1.06    -10.43     -0.39
  -0.00000399  -0.00000264  -0.00002673         -0.59     -0.39     -3.93

 !ASE

     Writing output data file calc.save
 
     init_run     :     17.10s CPU     26.39s WALL (       1 calls)
     electrons    :    747.45s CPU   1089.62s WALL (       1 calls)
     forces       :      4.68s CPU      5.58s WALL (       1 calls)
     stress       :     14.35s CPU     16.55s WALL (       1 calls)

     Called by init_run:
     wfcinit      :     13.85s CPU     22.15s WALL (       1 calls)
     potinit      :      1.27s CPU      2.03s WALL (       1 calls)

     Called by electrons:
     c_bands      :    589.49s CPU    851.82s WALL (      19 calls)
     sum_band     :     79.15s CPU    125.45s WALL (      19 calls)
     v_of_rho     :     23.15s CPU     36.00s WALL (      20 calls)
     newd         :     16.53s CPU     17.67s WALL (      20 calls)
     mix_rho      :      0.94s CPU      1.45s WALL (      19 calls)
     vdW_energy   :      2.28s CPU      2.29s WALL (      56 calls)
     vdW_ffts     :     41.92s CPU     65.53s WALL (     114 calls)
     vdW_v        :      7.24s CPU     10.80s WALL (      56 calls)

     Called by c_bands:
     init_us_2    :      0.95s CPU      0.98s WALL (     820 calls)
     cegterg      :    577.62s CPU    838.68s WALL (     380 calls)

     Called by *egterg:
     h_psi        :    318.16s CPU    558.13s WALL (    3099 calls)
     s_psi        :     13.97s CPU     14.19s WALL (    3099 calls)
     g_psi        :      0.59s CPU      0.60s WALL (    2699 calls)
     cdiaghg      :    181.06s CPU    187.11s WALL (    3079 calls)

     Called by h_psi:
     add_vuspsi   :     14.45s CPU     14.60s WALL (    3099 calls)

     General routines
     calbec       :     33.91s CPU     43.00s WALL (    3519 calls)
     fft          :     64.83s CPU    101.40s WALL (    3423 calls)
     ffts         :      0.18s CPU      0.31s WALL (      39 calls)
     fftw         :    318.68s CPU    593.36s WALL (  245538 calls)
     interpolate  :      0.86s CPU      1.39s WALL (      39 calls)
     davcio       :      0.00s CPU      0.02s WALL (      20 calls)
 
     Parallel routines
     fft_scatter  :    351.16s CPU    660.80s WALL (  249000 calls)
 
     PWSCF        : 13m 4.67s CPU    18m59.85s WALL

 
   This run was terminated on:   5:57:44  28Dec2018            

=------------------------------------------------------------------------------=
   JOB DONE.
=------------------------------------------------------------------------------=
Job  /afs/slac/g/suncat/bin/suncat-tsmpirun -x LD_LIBRARY_PATH -wdir /scratch/qe758153_uKO2X pw.x -in pw.inp

TID   HOST_NAME   COMMAND_LINE            STATUS            TERMINATION_TIME
===== ========== ================  =======================  ===================
00000 suncat0193 pw.x -in pw.inp   Done                     12/28/2018 05:57:44
00001 suncat0193 pw.x -in pw.inp   Done                     12/28/2018 05:57:44
00002 suncat0193 pw.x -in pw.inp   Done                     12/28/2018 05:57:44
00003 suncat0193 pw.x -in pw.inp   Done                     12/28/2018 05:57:44
00004 suncat0193 pw.x -in pw.inp   Done                     12/28/2018 05:57:44
00005 suncat0193 pw.x -in pw.inp   Done                     12/28/2018 05:57:44
00006 suncat0193 pw.x -in pw.inp   Done                     12/28/2018 05:57:44
00007 suncat0193 pw.x -in pw.inp   Done                     12/28/2018 05:57:44
00008 suncat0192 pw.x -in pw.inp   Done                     12/28/2018 05:57:44
00009 suncat0192 pw.x -in pw.inp   Done                     12/28/2018 05:57:44
00010 suncat0192 pw.x -in pw.inp   Done                     12/28/2018 05:57:44
00011 suncat0192 pw.x -in pw.inp   Done                     12/28/2018 05:57:44
00012 suncat0192 pw.x -in pw.inp   Done                     12/28/2018 05:57:44
00013 suncat0192 pw.x -in pw.inp   Done                     12/28/2018 05:57:44
00014 suncat0192 pw.x -in pw.inp   Done                     12/28/2018 05:57:44
00015 suncat0192 pw.x -in pw.inp   Done                     12/28/2018 05:57:44
00016 suncat0163 pw.x -in pw.inp   Done                     12/28/2018 05:57:44
00017 suncat0163 pw.x -in pw.inp   Done                     12/28/2018 05:57:44
00018 suncat0163 pw.x -in pw.inp   Done                     12/28/2018 05:57:44
00019 suncat0163 pw.x -in pw.inp   Done                     12/28/2018 05:57:44
00020 suncat0163 pw.x -in pw.inp   Done                     12/28/2018 05:57:44
00021 suncat0163 pw.x -in pw.inp   Done                     12/28/2018 05:57:44
00022 suncat0163 pw.x -in pw.inp   Done                     12/28/2018 05:57:44
00023 suncat0163 pw.x -in pw.inp   Done                     12/28/2018 05:57:44
00024 suncat0162 pw.x -in pw.inp   Done                     12/28/2018 05:57:44
00025 suncat0162 pw.x -in pw.inp   Done                     12/28/2018 05:57:44
00026 suncat0162 pw.x -in pw.inp   Done                     12/28/2018 05:57:44
00027 suncat0162 pw.x -in pw.inp   Done                     12/28/2018 05:57:44
00028 suncat0162 pw.x -in pw.inp   Done                     12/28/2018 05:57:44
00029 suncat0162 pw.x -in pw.inp   Done                     12/28/2018 05:57:44
00030 suncat0162 pw.x -in pw.inp   Done                     12/28/2018 05:57:44
00031 suncat0162 pw.x -in pw.inp   Done                     12/28/2018 05:57:44
00032 suncat0159 pw.x -in pw.inp   Done                     12/28/2018 05:57:44
00033 suncat0159 pw.x -in pw.inp   Done                     12/28/2018 05:57:44
00034 suncat0159 pw.x -in pw.inp   Done                     12/28/2018 05:57:44
00035 suncat0159 pw.x -in pw.inp   Done                     12/28/2018 05:57:44
00036 suncat0159 pw.x -in pw.inp   Done                     12/28/2018 05:57:44
00037 suncat0159 pw.x -in pw.inp   Done                     12/28/2018 05:57:44
00038 suncat0159 pw.x -in pw.inp   Done                     12/28/2018 05:57:44
00039 suncat0159 pw.x -in pw.inp   Done                     12/28/2018 05:57:44
00040 suncat0155 pw.x -in pw.inp   Done                     12/28/2018 05:57:44
00041 suncat0155 pw.x -in pw.inp   Done                     12/28/2018 05:57:44
00042 suncat0155 pw.x -in pw.inp   Done                     12/28/2018 05:57:44
00043 suncat0155 pw.x -in pw.inp   Done                     12/28/2018 05:57:44
00044 suncat0155 pw.x -in pw.inp   Done                     12/28/2018 05:57:44
00045 suncat0155 pw.x -in pw.inp   Done                     12/28/2018 05:57:44
00046 suncat0155 pw.x -in pw.inp   Done                     12/28/2018 05:57:44
00047 suncat0155 pw.x -in pw.inp   Done                     12/28/2018 05:57:44
00048 suncat0141 pw.x -in pw.inp   Done                     12/28/2018 05:57:44
00049 suncat0141 pw.x -in pw.inp   Done                     12/28/2018 05:57:44
00050 suncat0141 pw.x -in pw.inp   Done                     12/28/2018 05:57:44
00051 suncat0141 pw.x -in pw.inp   Done                     12/28/2018 05:57:44
00052 suncat0141 pw.x -in pw.inp   Done                     12/28/2018 05:57:44
00053 suncat0141 pw.x -in pw.inp   Done                     12/28/2018 05:57:44
00054 suncat0141 pw.x -in pw.inp   Done                     12/28/2018 05:57:44
00055 suncat0141 pw.x -in pw.inp   Done                     12/28/2018 05:57:44
00056 suncat0140 pw.x -in pw.inp   Done                     12/28/2018 05:57:44
00057 suncat0140 pw.x -in pw.inp   Done                     12/28/2018 05:57:44
00058 suncat0140 pw.x -in pw.inp   Done                     12/28/2018 05:57:44
00059 suncat0140 pw.x -in pw.inp   Done                     12/28/2018 05:57:44
00060 suncat0140 pw.x -in pw.inp   Done                     12/28/2018 05:57:44
00061 suncat0140 pw.x -in pw.inp   Done                     12/28/2018 05:57:44
00062 suncat0140 pw.x -in pw.inp   Done                     12/28/2018 05:57:44
00063 suncat0140 pw.x -in pw.inp   Done                     12/28/2018 05:57:44
