  python dir          : /u/if/mamunm/src/espresso
  espresso dir        : /nfs/slac/g/suncatfs/sw/espv18/espresso-dynpy-beef/bin
  pseudo dir          : /afs/slac.stanford.edu/u/if/mamunm/psp/gbrv1.5pbe
  ase-espresso py git : GITVERSION



     Program PWSCF v.5.1rc2 (svn rev. 11289) starts on 26Dec2018 at  8:41: 7 

     This program is part of the open-source Quantum ESPRESSO suite
     for quantum simulation of materials; please cite
         "P. Giannozzi et al., J. Phys.:Condens. Matter 21 395502 (2009);
          URL http://www.quantum-espresso.org", 
     in publications or presentations arising from this work. More details at
     http://www.quantum-espresso.org/quote

     Parallel version (MPI), running on    64 processors
     R & G space division:  proc/nbgrp/npool/nimage =      64
     Reading input from pw.inp
     Message from routine read_cards :
     DEPRECATED: no units specified in CELL_PARAMETERS card

     Current dimensions of program PWSCF are:
     Max number of different atomic species (ntypx) = 10
     Max number of k-points (npk) =  40000
     Max angular momentum in pseudopotentials (lmaxx) =  3
     Presently stress not available with electric field


     **************************************************************************
     Initializing libbeef V0.1.1 with the BEEF-vdW functional.
     Citation: Wellendorff et al., PRB 85, 235149 (2012).
     **************************************************************************


     IMPORTANT: XC functional enforced from input :
     Exchange-correlation      = BEEF-VDW ( 1  4 27 13 2)
     Any further DFT definition will be discarded
     Please, verify this is what you really want


     Subspace diagonalization in iterative solution of the eigenvalue problem:
     a serial algorithm will be used

 
     Parallelization info
     --------------------
     sticks:   dense  smooth     PW     G-vecs:    dense   smooth      PW
     Min          59      23      6                11611     2915     446
     Max          60      24      7                11646     2966     475
     Sum        3829    1531    439               744147   188243   29915
 


     bravais-lattice index     =            0
     lattice parameter (alat)  =       1.8897  a.u.
     unit-cell volume          =    6252.2204 (a.u.)^3
     number of atoms/cell      =           12
     number of atomic types    =            2
     number of electrons       =       141.00
     number of Kohn-Sham states=          100
     kinetic-energy cutoff     =      36.7493  Ry
     charge density cutoff     =     367.4932  Ry
     convergence threshold     =      1.0E-06
     mixing beta               =       0.1000
     number of iterations used =           10  plain     mixing
     Exchange-correlation      = BEEF-VDW ( 1  4 27 13 2)
     nstep                     =           50


     celldm(1)=   1.889726  celldm(2)=   0.000000  celldm(3)=   0.000000
     celldm(4)=   0.000000  celldm(5)=   0.000000  celldm(6)=   0.000000

     crystal axes: (cart. coord. in units of alat)
               a(1) = (   6.501597   0.000000   0.000000 )  
               a(2) = (  -3.250799   5.630548   0.000000 )  
               a(3) = (   0.000000   0.000000  25.308532 )  

     reciprocal axes: (cart. coord. in units 2 pi/alat)
               b(1) = (  0.153808  0.088801  0.000000 )  
               b(2) = (  0.000000  0.177603  0.000000 )  
               b(3) = (  0.000000  0.000000  0.039512 )  


     PseudoPot. # 1 for Hf read from file:
     /afs/slac.stanford.edu/u/if/mamunm/psp/gbrv1.5pbe/Hf.UPF
     MD5 check sum: 8ee9378dfe14276e333edf04c5e4aa26
     Pseudo is Ultrasoft + core correction, Zval = 12.0
     Generated by new atomic code, or converted to UPF format
     Using radial grid of  921 points,  8 beta functions with: 
                l(1) =   0
                l(2) =   0
                l(3) =   0
                l(4) =   1
                l(5) =   1
                l(6) =   2
                l(7) =   2
                l(8) =   3
     Q(r) pseudized with  6 coefficients,  rinner =    1.200   1.200   1.200
                                                       1.200   1.200   1.200
                                                       1.200

     PseudoPot. # 2 for Y  read from file:
     /afs/slac.stanford.edu/u/if/mamunm/psp/gbrv1.5pbe/Y.UPF
     MD5 check sum: d034151ed7554c50b6e82763ed42c788
     Pseudo is Ultrasoft + core correction, Zval = 11.0
     Generated by new atomic code, or converted to UPF format
     Using radial grid of  885 points,  6 beta functions with: 
                l(1) =   0
                l(2) =   0
                l(3) =   1
                l(4) =   1
                l(5) =   2
                l(6) =   2
     Q(r) pseudized with  8 coefficients,  rinner =    1.200   1.200   1.200
                                                       1.200   1.200

     vdW kernel table read from file vdW_kernel_table
     MD5 check sum: 095c7af220d748ca6e76c0b4c6cfb241

     atomic species   valence    mass     pseudopotential
        Hf1           12.00   178.49000     Hf( 1.00)
        Y1            11.00    88.90584     Y ( 1.00)

     No symmetry found



   Cartesian axes

     site n.     atom                  positions (alat units)
         1           Hf1 tau(   1) = (   0.0000000   0.0000000  10.0000000  )
         2           Hf1 tau(   2) = (  -1.6253993   2.8152741  10.0000000  )
         3           Hf1 tau(   3) = (   1.6253993   2.8152741  10.0000000  )
         4           Y1  tau(   4) = (   3.2507985   0.0000000  10.0000000  )
         5           Hf1 tau(   5) = (   3.2507985   1.8768494  12.6542659  )
         6           Hf1 tau(   6) = (   1.6253993   4.6921235  12.6542659  )
         7           Hf1 tau(   7) = (  -1.6253993   4.6921235  12.6542659  )
         8           Y1  tau(   8) = (   0.0000000   1.8768494  12.6542659  )
         9           Hf1 tau(   9) = (  -0.0000000   3.7536988  15.3085318  )
        10           Hf1 tau(  10) = (   1.6253993   0.9384247  15.3085318  )
        11           Hf1 tau(  11) = (   4.8761978   0.9384247  15.3085318  )
        12           Y1  tau(  12) = (   3.2507985   3.7536988  15.3085318  )

     number of k points=    20  Fermi-Dirac smearing, width (Ry)=  0.0110
                       cart. coord. in units 2pi/alat
        k(    1) = (   0.0000000   0.0000000   0.0000000), wk =   0.0555556
        k(    2) = (   0.0000000   0.0296004   0.0000000), wk =   0.1111111
        k(    3) = (   0.0000000   0.0592009   0.0000000), wk =   0.1111111
        k(    4) = (   0.0000000  -0.0888013   0.0000000), wk =   0.0555556
        k(    5) = (   0.0256347   0.0148002   0.0000000), wk =   0.1111111
        k(    6) = (   0.0256347   0.0444006   0.0000000), wk =   0.1111111
        k(    7) = (   0.0256347   0.0740011   0.0000000), wk =   0.1111111
        k(    8) = (   0.0256347  -0.0740011   0.0000000), wk =   0.1111111
        k(    9) = (   0.0256347  -0.0444006   0.0000000), wk =   0.1111111
        k(   10) = (   0.0256347  -0.0148002   0.0000000), wk =   0.1111111
        k(   11) = (   0.0512695   0.0296004   0.0000000), wk =   0.1111111
        k(   12) = (   0.0512695   0.0592009   0.0000000), wk =   0.1111111
        k(   13) = (   0.0512695   0.0888013   0.0000000), wk =   0.1111111
        k(   14) = (   0.0512695  -0.0592009   0.0000000), wk =   0.1111111
        k(   15) = (   0.0512695  -0.0296004   0.0000000), wk =   0.1111111
        k(   16) = (   0.0512695   0.0000000   0.0000000), wk =   0.1111111
        k(   17) = (  -0.0769042  -0.0444006   0.0000000), wk =   0.0555556
        k(   18) = (  -0.0769042  -0.0148002   0.0000000), wk =   0.1111111
        k(   19) = (  -0.0769042   0.0148002   0.0000000), wk =   0.1111111
        k(   20) = (  -0.0769042  -0.1332019   0.0000000), wk =   0.0555556

     Dense  grid:   744147 G-vectors     FFT dimensions: (  75,  75, 300)

     Smooth grid:   188243 G-vectors     FFT dimensions: (  48,  48, 192)

     Largest allocated arrays     est. size (Mb)     dimensions
        Kohn-Sham Wavefunctions         0.59 Mb     (     388,  100)
        NL pseudopotentials             1.71 Mb     (     388,  288)
        Each V/rho on FFT grid          0.43 Mb     (   28125)
        Each G-vector array             0.09 Mb     (   11632)
        G-vector shells                 0.04 Mb     (    5480)
     Largest temporary arrays     est. size (Mb)     dimensions
        Auxiliary wavefunctions         2.37 Mb     (     388,  400)
        Each subspace H/S matrix        2.44 Mb     (     400,  400)
        Each <psi_i|beta_j> matrix      0.44 Mb     (     288,  100)
        Arrays for rho mixing           4.29 Mb     (   28125,   10)

     Check: negative/imaginary core charge=   -0.000003    0.000000

     Initial potential from superposition of free atoms
     Check: negative starting charge=   -0.963030

     starting charge  122.98657, renormalised to  141.00000

     negative rho (up, down):  1.104E+00 0.000E+00


     ************************************************************************
     *
     * You are using vdW-DF for exchange-correlation in this calculation.
     * Please cite the following three references that made this development
     * possible:
     *
     *   M. Dion, H. Rydberg, E. Schroder, D. C. Langreth, and
     *   B. I. Lundqvist, Phys. Rev. Lett. 92, 246401 (2004).
     *
     *   T. Thonhauser, V. R. Cooper, S. Li, A. Puzder, P. Hyldgaard, and
     *   D. C. Langreth, Phys. Rev. B 76, 125112 (2007).
     *
     *   G. Roman-Perez and J. M. Soler, Phys. Rev. Lett. 103, 096102 (2009).
     *
     *
     * If you are using vdW-DF2, please also cite:
     *
     *   K. Lee, E. D. Murray, L. Kong, B. I. Lundqvist, and
     *   D. C. Langreth, Phys. Rev. B 82, 081101(R) (2010).
     *
     *
     * If you are calculating the stress with vdW-DF, please also cite:
     *
     *   R. Sabatini, E. Kucukbenli, B. Kolb, T. Thonhauser, and
     *   S. de Gironcoli, J. Phys.: Condens. Matter 24, 424209 (2012).
     *
     ************************************************************************

     Carrying out vdW-DF run using the following parameters:

     Nqs =      20    Nr_points =    1024   r_max =   100.000
     q_mesh =
               0.00001000     0.04494208     0.09755937     0.15916263
               0.23128650     0.31572767     0.41458969     0.53033537
               0.66584808     0.82450364     1.01025438     1.22772762
               1.48234092     1.78043706     2.12944203     2.53805004
               3.01644009     3.57652955     4.23227104     5.00000000

     Gradients computed in reciprocal space

     ************************************************************************


 
     Adding external electric field

     Computed dipole along edir(3) : 
        Dipole                0.0000 Ry au,          0.0000 Debye
        Dipole field          0.0000 Ry au
 
        Potential amp.       -0.0000 Ry
        Total length         46.6305 bohr
 
     Starting wfc are  156 randomized atomic wfcs

     total cpu time spent up to now is       34.1 secs

     per-process dynamical memory:    43.9 Mb

     Self-consistent Calculation

     iteration #  1     ecut=    36.75 Ry     beta=0.10
     Davidson diagonalization with overlap
     ethr =  1.00E-02,  avg # of iterations =  8.3

     negative rho (up, down):  1.085E+00 0.000E+00
 
     Adding external electric field

     Computed dipole along edir(3) : 
        Dipole               -0.3904 Ry au,         -0.9923 Debye
        Dipole field         -0.0008 Ry au
 
        Potential amp.        0.0732 Ry
        Total length         46.6305 bohr
 

     total cpu time spent up to now is      134.5 secs

     total energy              =   -1728.31196336 Ry
     Harris-Foulkes estimate   =   -1734.74715203 Ry
     estimated scf accuracy    <      39.91167972 Ry

     iteration #  2     ecut=    36.75 Ry     beta=0.10
     Davidson diagonalization with overlap
     ethr =  1.00E-02,  avg # of iterations =  3.7

     negative rho (up, down):  1.076E+00 0.000E+00
 
     Adding external electric field

     Computed dipole along edir(3) : 
        Dipole                0.0306 Ry au,          0.0778 Debye
        Dipole field          0.0001 Ry au
 
        Potential amp.       -0.0057 Ry
        Total length         46.6305 bohr
 

     total cpu time spent up to now is      195.6 secs

     total energy              =   -1729.83538206 Ry
     Harris-Foulkes estimate   =   -1732.15973729 Ry
     estimated scf accuracy    <      22.25674780 Ry

     iteration #  3     ecut=    36.75 Ry     beta=0.10
     Davidson diagonalization with overlap
     ethr =  1.00E-02,  avg # of iterations =  1.1

     negative rho (up, down):  1.066E+00 0.000E+00
 
     Adding external electric field

     Computed dipole along edir(3) : 
        Dipole               -1.6036 Ry au,         -4.0760 Debye
        Dipole field         -0.0032 Ry au
 
        Potential amp.        0.3006 Ry
        Total length         46.6305 bohr
 

     total cpu time spent up to now is      252.1 secs

     total energy              =   -1728.92039391 Ry
     Harris-Foulkes estimate   =   -1730.43771519 Ry
     estimated scf accuracy    <      13.04205751 Ry

     iteration #  4     ecut=    36.75 Ry     beta=0.10
     Davidson diagonalization with overlap
     ethr =  9.25E-03,  avg # of iterations =  1.1

     negative rho (up, down):  1.054E+00 0.000E+00
 
     Adding external electric field

     Computed dipole along edir(3) : 
        Dipole               -0.2029 Ry au,         -0.5157 Debye
        Dipole field         -0.0004 Ry au
 
        Potential amp.        0.0380 Ry
        Total length         46.6305 bohr
 

     total cpu time spent up to now is      301.7 secs

     total energy              =   -1727.44981286 Ry
     Harris-Foulkes estimate   =   -1730.31210508 Ry
     estimated scf accuracy    <      62.57306961 Ry

     iteration #  5     ecut=    36.75 Ry     beta=0.10
     Davidson diagonalization with overlap
     ethr =  9.25E-03,  avg # of iterations =  1.0

     negative rho (up, down):  1.004E+00 0.000E+00
 
     Adding external electric field

     Computed dipole along edir(3) : 
        Dipole                0.0349 Ry au,          0.0888 Debye
        Dipole field          0.0001 Ry au
 
        Potential amp.       -0.0065 Ry
        Total length         46.6305 bohr
 

     total cpu time spent up to now is      354.9 secs

     total energy              =   -1724.90665575 Ry
     Harris-Foulkes estimate   =   -1728.22847878 Ry
     estimated scf accuracy    <       5.30042272 Ry

     iteration #  6     ecut=    36.75 Ry     beta=0.10
     Davidson diagonalization with overlap
     ethr =  3.76E-03,  avg # of iterations =  4.2

     negative rho (up, down):  1.008E+00 0.000E+00
 
     Adding external electric field

     Computed dipole along edir(3) : 
        Dipole               -0.0808 Ry au,         -0.2053 Debye
        Dipole field         -0.0002 Ry au
 
        Potential amp.        0.0151 Ry
        Total length         46.6305 bohr
 

     total cpu time spent up to now is      425.9 secs

     total energy              =   -1725.89864963 Ry
     Harris-Foulkes estimate   =   -1725.97328120 Ry
     estimated scf accuracy    <       1.33710074 Ry

     iteration #  7     ecut=    36.75 Ry     beta=0.10
     Davidson diagonalization with overlap
     c_bands:  3 eigenvalues not converged
     ethr =  9.48E-04,  avg # of iterations =  6.5

     negative rho (up, down):  1.010E+00 0.000E+00
 
     Adding external electric field

     Computed dipole along edir(3) : 
        Dipole                0.0117 Ry au,          0.0297 Debye
        Dipole field          0.0000 Ry au
 
        Potential amp.       -0.0022 Ry
        Total length         46.6305 bohr
 

     total cpu time spent up to now is      488.7 secs

     total energy              =   -1725.89352951 Ry
     Harris-Foulkes estimate   =   -1725.93531270 Ry
     estimated scf accuracy    <       0.23520486 Ry

     iteration #  8     ecut=    36.75 Ry     beta=0.10
     Davidson diagonalization with overlap
     ethr =  1.67E-04,  avg # of iterations =  8.6

     negative rho (up, down):  1.011E+00 0.000E+00
 
     Adding external electric field

     Computed dipole along edir(3) : 
        Dipole               -0.0825 Ry au,         -0.2096 Debye
        Dipole field         -0.0002 Ry au
 
        Potential amp.        0.0155 Ry
        Total length         46.6305 bohr
 

     total cpu time spent up to now is      566.0 secs

     total energy              =   -1725.89824380 Ry
     Harris-Foulkes estimate   =   -1725.91455624 Ry
     estimated scf accuracy    <       0.44601249 Ry

     iteration #  9     ecut=    36.75 Ry     beta=0.10
     Davidson diagonalization with overlap
     ethr =  1.67E-04,  avg # of iterations =  1.0

     negative rho (up, down):  1.013E+00 0.000E+00
 
     Adding external electric field

     Computed dipole along edir(3) : 
        Dipole                0.0097 Ry au,          0.0246 Debye
        Dipole field          0.0000 Ry au
 
        Potential amp.       -0.0018 Ry
        Total length         46.6305 bohr
 

     total cpu time spent up to now is      618.5 secs

     total energy              =   -1725.89690904 Ry
     Harris-Foulkes estimate   =   -1725.90846084 Ry
     estimated scf accuracy    <       0.16996782 Ry

     iteration # 10     ecut=    36.75 Ry     beta=0.10
     Davidson diagonalization with overlap
     ethr =  1.21E-04,  avg # of iterations =  1.4

     negative rho (up, down):  1.017E+00 0.000E+00
 
     Adding external electric field

     Computed dipole along edir(3) : 
        Dipole               -0.0215 Ry au,         -0.0547 Debye
        Dipole field         -0.0000 Ry au
 
        Potential amp.        0.0040 Ry
        Total length         46.6305 bohr
 

     total cpu time spent up to now is      663.3 secs

     total energy              =   -1725.89448386 Ry
     Harris-Foulkes estimate   =   -1725.90478906 Ry
     estimated scf accuracy    <       0.16382296 Ry

     iteration # 11     ecut=    36.75 Ry     beta=0.10
     Davidson diagonalization with overlap
     ethr =  1.16E-04,  avg # of iterations =  1.5

     negative rho (up, down):  1.018E+00 0.000E+00
 
     Adding external electric field

     Computed dipole along edir(3) : 
        Dipole               -0.0162 Ry au,         -0.0412 Debye
        Dipole field         -0.0000 Ry au
 
        Potential amp.        0.0030 Ry
        Total length         46.6305 bohr
 

     total cpu time spent up to now is      719.4 secs

     total energy              =   -1725.89808848 Ry
     Harris-Foulkes estimate   =   -1725.90231681 Ry
     estimated scf accuracy    <       0.04765108 Ry

     iteration # 12     ecut=    36.75 Ry     beta=0.10
     Davidson diagonalization with overlap
     ethr =  3.38E-05,  avg # of iterations =  2.3

     negative rho (up, down):  1.019E+00 0.000E+00
 
     Adding external electric field

     Computed dipole along edir(3) : 
        Dipole               -0.0058 Ry au,         -0.0149 Debye
        Dipole field         -0.0000 Ry au
 
        Potential amp.        0.0011 Ry
        Total length         46.6305 bohr
 

     total cpu time spent up to now is      772.0 secs

     total energy              =   -1725.90025083 Ry
     Harris-Foulkes estimate   =   -1725.90050630 Ry
     estimated scf accuracy    <       0.00361107 Ry

     iteration # 13     ecut=    36.75 Ry     beta=0.10
     Davidson diagonalization with overlap
     ethr =  2.56E-06,  avg # of iterations =  8.6

     negative rho (up, down):  1.020E+00 0.000E+00
 
     Adding external electric field

     Computed dipole along edir(3) : 
        Dipole               -0.0044 Ry au,         -0.0112 Debye
        Dipole field         -0.0000 Ry au
 
        Potential amp.        0.0008 Ry
        Total length         46.6305 bohr
 

     total cpu time spent up to now is      837.7 secs

     total energy              =   -1725.88832333 Ry
     Harris-Foulkes estimate   =   -1725.90048040 Ry
     estimated scf accuracy    <       0.00464689 Ry

     iteration # 14     ecut=    36.75 Ry     beta=0.10
     Davidson diagonalization with overlap
     ethr =  2.56E-06,  avg # of iterations =  1.0

     negative rho (up, down):  1.021E+00 0.000E+00
 
     Adding external electric field

     Computed dipole along edir(3) : 
        Dipole                0.0026 Ry au,          0.0066 Debye
        Dipole field          0.0000 Ry au
 
        Potential amp.       -0.0005 Ry
        Total length         46.6305 bohr
 

     total cpu time spent up to now is      889.2 secs

     total energy              =   -1725.90021166 Ry
     Harris-Foulkes estimate   =   -1725.88864468 Ry
     estimated scf accuracy    <       0.00151741 Ry

     iteration # 15     ecut=    36.75 Ry     beta=0.10
     Davidson diagonalization with overlap
     ethr =  1.08E-06,  avg # of iterations =  1.0

     negative rho (up, down):  1.021E+00 0.000E+00
 
     Adding external electric field

     Computed dipole along edir(3) : 
        Dipole               -0.0012 Ry au,         -0.0031 Debye
        Dipole field         -0.0000 Ry au
 
        Potential amp.        0.0002 Ry
        Total length         46.6305 bohr
 

     total cpu time spent up to now is      938.6 secs

     total energy              =   -1725.90025346 Ry
     Harris-Foulkes estimate   =   -1725.90028041 Ry
     estimated scf accuracy    <       0.00055976 Ry

     iteration # 16     ecut=    36.75 Ry     beta=0.10
     Davidson diagonalization with overlap
     ethr =  3.97E-07,  avg # of iterations =  1.0

     negative rho (up, down):  1.021E+00 0.000E+00
 
     Adding external electric field

     Computed dipole along edir(3) : 
        Dipole               -0.0004 Ry au,         -0.0010 Debye
        Dipole field         -0.0000 Ry au
 
        Potential amp.        0.0001 Ry
        Total length         46.6305 bohr
 

     total cpu time spent up to now is      992.3 secs

     total energy              =   -1725.90026875 Ry
     Harris-Foulkes estimate   =   -1725.90027112 Ry
     estimated scf accuracy    <       0.00002852 Ry

     iteration # 17     ecut=    36.75 Ry     beta=0.10
     Davidson diagonalization with overlap
     ethr =  2.02E-08,  avg # of iterations =  3.4

     negative rho (up, down):  1.021E+00 0.000E+00
 
     Adding external electric field

     Computed dipole along edir(3) : 
        Dipole                0.0001 Ry au,          0.0003 Debye
        Dipole field          0.0000 Ry au
 
        Potential amp.       -0.0000 Ry
        Total length         46.6305 bohr
 

     total cpu time spent up to now is     1054.8 secs

     total energy              =   -1725.90027198 Ry
     Harris-Foulkes estimate   =   -1725.90027211 Ry
     estimated scf accuracy    <       0.00000771 Ry

     iteration # 18     ecut=    36.75 Ry     beta=0.10
     Davidson diagonalization with overlap
     ethr =  5.47E-09,  avg # of iterations =  2.0

     negative rho (up, down):  1.022E+00 0.000E+00
 
     Adding external electric field

     Computed dipole along edir(3) : 
        Dipole                0.0001 Ry au,          0.0002 Debye
        Dipole field          0.0000 Ry au
 
        Potential amp.       -0.0000 Ry
        Total length         46.6305 bohr
 

     total cpu time spent up to now is     1113.9 secs

     total energy              =   -1725.90027327 Ry
     Harris-Foulkes estimate   =   -1725.90027308 Ry
     estimated scf accuracy    <       0.00000641 Ry

     iteration # 19     ecut=    36.75 Ry     beta=0.10
     Davidson diagonalization with overlap
     ethr =  4.54E-09,  avg # of iterations =  1.2

     negative rho (up, down):  1.022E+00 0.000E+00
 
     Adding external electric field

     Computed dipole along edir(3) : 
        Dipole               -0.0002 Ry au,         -0.0005 Debye
        Dipole field         -0.0000 Ry au
 
        Potential amp.        0.0000 Ry
        Total length         46.6305 bohr
 

     total cpu time spent up to now is     1170.2 secs

     total energy              =   -1725.88861516 Ry
     Harris-Foulkes estimate   =   -1725.90027370 Ry
     estimated scf accuracy    <       0.00000171 Ry

     iteration # 20     ecut=    36.75 Ry     beta=0.10
     Davidson diagonalization with overlap
     ethr =  1.22E-09,  avg # of iterations =  3.0

     negative rho (up, down):  1.022E+00 0.000E+00

     negative rho (up, down):  1.022E+00 0.000E+00

     negative rho (up, down):  1.022E+00 0.000E+00

     negative rho (up, down):  1.022E+00 0.000E+00

     negative rho (up, down):  1.022E+00 0.000E+00

     negative rho (up, down):  1.022E+00 0.000E+00

     negative rho (up, down):  1.022E+00 0.000E+00

     negative rho (up, down):  1.022E+00 0.000E+00

     negative rho (up, down):  1.022E+00 0.000E+00

     negative rho (up, down):  1.022E+00 0.000E+00

     negative rho (up, down):  1.022E+00 0.000E+00

     negative rho (up, down):  1.022E+00 0.000E+00

     negative rho (up, down):  1.022E+00 0.000E+00

     negative rho (up, down):  1.022E+00 0.000E+00

     negative rho (up, down):  1.022E+00 0.000E+00

     negative rho (up, down):  1.022E+00 0.000E+00

     negative rho (up, down):  1.022E+00 0.000E+00

     negative rho (up, down):  1.022E+00 0.000E+00

     negative rho (up, down):  1.022E+00 0.000E+00

     negative rho (up, down):  1.022E+00 0.000E+00

     negative rho (up, down):  1.022E+00 0.000E+00

     negative rho (up, down):  1.022E+00 0.000E+00

     negative rho (up, down):  1.022E+00 0.000E+00

     negative rho (up, down):  1.022E+00 0.000E+00

     negative rho (up, down):  1.022E+00 0.000E+00

     negative rho (up, down):  1.022E+00 0.000E+00

     negative rho (up, down):  1.022E+00 0.000E+00

     negative rho (up, down):  1.022E+00 0.000E+00

     negative rho (up, down):  1.022E+00 0.000E+00

     negative rho (up, down):  1.022E+00 0.000E+00

     negative rho (up, down):  1.022E+00 0.000E+00

     negative rho (up, down):  1.022E+00 0.000E+00

     negative rho (up, down):  1.022E+00 0.000E+00

     negative rho (up, down):  1.022E+00 0.000E+00

     negative rho (up, down):  1.022E+00 0.000E+00
 
     Adding external electric field

     Computed dipole along edir(3) : 
        Dipole                0.0004 Ry au,          0.0011 Debye
        Dipole field          0.0000 Ry au
 
        Potential amp.       -0.0001 Ry
        Total length         46.6305 bohr
 

     total cpu time spent up to now is     1301.7 secs

     End of self-consistent calculation

          k = 0.0000 0.0000 0.0000 ( 23523 PWs)   bands (ev):

   -61.4263 -61.4260 -61.4061 -61.4061 -61.4058 -61.4058 -61.0192 -60.9995
   -60.9985 -41.2561 -41.2557 -40.5995 -30.0998 -30.0932 -30.0385 -30.0322
   -30.0322 -30.0163 -30.0163 -29.9884 -29.9767 -29.9767 -29.9450 -29.9450
   -29.8246 -29.8190 -29.7392 -29.7026 -29.7026 -29.6945 -29.6945 -29.6076
   -29.6073 -29.4990 -29.4838 -29.4833 -29.4262 -29.3237 -29.3232 -21.2732
   -21.2581 -21.2438 -21.2438 -21.2399 -21.2399 -20.6441 -20.6272 -20.6272
    -4.6670  -3.4876  -2.3340  -1.5904  -1.5904  -1.2633  -1.2633  -0.9698
    -0.9185  -0.9185  -0.8183  -0.4786  -0.1742  -0.1712  -0.1712   0.4970
     0.5469   0.5469   1.3212   1.3946   1.6995   1.7441   1.7726   1.7726
     1.9052   1.9053   2.0043   2.3123   2.4966   2.4966   2.6002   2.7539
     2.7539   2.7856   2.8286   2.8402   2.8402   2.9602   2.9602   3.0369
     3.0369   3.2053   3.2053   3.9711   4.2765   4.2767   4.3391   4.3391
     4.6211   4.8166   4.9143   4.9144

          k = 0.0000 0.0296 0.0000 ( 23515 PWs)   bands (ev):

   -61.4251 -61.4248 -61.4073 -61.4070 -61.4061 -61.4058 -61.0180 -61.0007
   -60.9985 -41.2561 -41.2559 -40.5997 -30.0803 -30.0744 -30.0340 -30.0258
   -30.0177 -30.0104 -30.0026 -29.9868 -29.9779 -29.9741 -29.9487 -29.9465
   -29.8339 -29.8299 -29.7263 -29.7219 -29.7188 -29.7056 -29.6996 -29.6052
   -29.5964 -29.4958 -29.4867 -29.4831 -29.4353 -29.3474 -29.3274 -21.2725
   -21.2594 -21.2489 -21.2457 -21.2457 -21.2418 -20.6442 -20.6330 -20.6292
    -4.4737  -3.2980  -2.1516  -1.7040  -1.4832  -1.2805  -1.1402  -1.0190
    -0.7971  -0.6982  -0.6164  -0.3272  -0.0755  -0.0606  -0.0565   0.5356
     0.5914   0.5950   1.3114   1.3972   1.4961   1.5761   1.6606   1.7321
     1.8345   1.8948   1.9359   2.2805   2.2967   2.3176   2.4509   2.4557
     2.4940   2.5490   2.6165   2.8164   2.8221   2.9087   2.9156   3.1250
     3.1409   3.1690   3.2195   3.6722   3.9641   4.2376   4.3872   4.6288
     4.6367   4.7153   4.7435   4.7701

          k = 0.0000 0.0592 0.0000 ( 23516 PWs)   bands (ev):

   -61.4220 -61.4217 -61.4104 -61.4101 -61.4061 -61.4058 -61.0148 -61.0039
   -60.9985 -41.2563 -41.2561 -40.5999 -30.0509 -30.0440 -30.0193 -29.9945
   -29.9872 -29.9805 -29.9804 -29.9700 -29.9683 -29.9645 -29.9550 -29.9493
   -29.8632 -29.8629 -29.7921 -29.7896 -29.7115 -29.7082 -29.6780 -29.5878
   -29.5640 -29.4984 -29.4869 -29.4861 -29.4608 -29.4068 -29.3345 -21.2711
   -21.2639 -21.2577 -21.2570 -21.2495 -21.2457 -20.6447 -20.6443 -20.6331
    -3.9303  -2.7990  -2.2695  -1.5826  -1.4714  -1.2462  -0.8795  -0.7979
    -0.5050  -0.3869  -0.1269   0.1199   0.1995   0.2464   0.2584   0.6313
     0.6616   0.7298   1.1171   1.2368   1.2624   1.2753   1.3020   1.4320
     1.5093   1.6331   1.6443   1.8821   1.9332   1.9650   2.0599   2.1064
     2.1115   2.3118   2.4785   2.5196   2.6055   2.8005   2.9322   3.2791
     3.3083   3.4130   3.5727   3.6826   3.7303   4.0115   4.1401   4.2122
     4.3241   4.3938   4.6151   4.6403

          k = 0.0000-0.0888 0.0000 ( 23492 PWs)   bands (ev):

   -61.4195 -61.4193 -61.4128 -61.4126 -61.4060 -61.4058 -61.0120 -61.0067
   -60.9985 -41.2564 -41.2562 -40.6000 -30.0439 -30.0372 -30.0008 -30.0006
   -29.9837 -29.9637 -29.9636 -29.9586 -29.9378 -29.9256 -29.9226 -29.9130
   -29.9013 -29.8945 -29.8624 -29.8543 -29.7143 -29.7118 -29.6587 -29.5373
   -29.5358 -29.5229 -29.5142 -29.4756 -29.4719 -29.4516 -29.3375 -21.2706
   -21.2678 -21.2620 -21.2607 -21.2515 -21.2476 -20.6506 -20.6443 -20.6351
    -3.2202  -3.0799  -2.0998  -1.9467  -1.1100  -1.0861  -0.8953  -0.5378
    -0.3712  -0.2914   0.3558   0.4617   0.5158   0.5308   0.5605   0.6688
     0.7025   0.8694   0.9145   0.9830   1.0180   1.0189   1.1120   1.1854
     1.3369   1.3414   1.4164   1.4928   1.5450   1.6301   1.8338   1.8794
     2.1727   2.2776   2.4383   2.4423   2.5720   2.6230   3.2285   3.4369
     3.4528   3.4942   3.6476   3.7574   3.8470   3.9262   4.0026   4.1281
     4.1947   4.2928   4.3871   4.5799

          k = 0.0256 0.0148 0.0000 ( 23515 PWs)   bands (ev):

   -61.4251 -61.4248 -61.4072 -61.4070 -61.4061 -61.4058 -61.0180 -61.0001
   -60.9990 -41.2561 -41.2559 -40.5997 -30.0803 -30.0744 -30.0340 -30.0258
   -30.0177 -30.0104 -30.0026 -29.9868 -29.9779 -29.9741 -29.9487 -29.9465
   -29.8339 -29.8299 -29.7263 -29.7219 -29.7188 -29.7056 -29.6996 -29.6054
   -29.5962 -29.4958 -29.4863 -29.4834 -29.4353 -29.3470 -29.3278 -21.2725
   -21.2594 -21.2490 -21.2457 -21.2457 -21.2418 -20.6442 -20.6330 -20.6291
    -4.4737  -3.2980  -2.1516  -1.7040  -1.4832  -1.2805  -1.1402  -1.0190
    -0.7971  -0.6982  -0.6164  -0.3272  -0.0755  -0.0606  -0.0565   0.5356
     0.5914   0.5950   1.3114   1.3972   1.4961   1.5761   1.6606   1.7321
     1.8345   1.8948   1.9359   2.2805   2.2967   2.3176   2.4509   2.4557
     2.4940   2.5490   2.6165   2.8164   2.8221   2.9087   2.9156   3.1250
     3.1409   3.1690   3.2195   3.6723   3.9640   4.2376   4.3872   4.6288
     4.6367   4.7154   4.7436   4.7701

          k = 0.0256 0.0444 0.0000 ( 23506 PWs)   bands (ev):

   -61.4229 -61.4226 -61.4094 -61.4092 -61.4061 -61.4058 -61.0158 -61.0026
   -60.9987 -41.2563 -41.2560 -40.5998 -30.0494 -30.0444 -30.0257 -30.0182
   -30.0025 -29.9845 -29.9844 -29.9808 -29.9699 -29.9686 -29.9537 -29.9484
   -29.8549 -29.8540 -29.7646 -29.7635 -29.7145 -29.7108 -29.6865 -29.6009
   -29.5711 -29.4948 -29.4898 -29.4831 -29.4545 -29.3834 -29.3372 -21.2714
   -21.2621 -21.2550 -21.2539 -21.2489 -21.2459 -20.6443 -20.6408 -20.6331
    -4.1040  -2.9450  -1.9027  -1.8820  -1.5250  -1.2174  -1.1101  -0.7365
    -0.5569  -0.3966  -0.3495  -0.0332   0.1214   0.1214   0.1742   0.6007
     0.6681   0.6686   1.2442   1.2708   1.2857   1.3777   1.4192   1.4910
     1.6364   1.6942   1.8442   2.0011   2.0127   2.0513   2.1450   2.1560
     2.1753   2.4103   2.4258   2.6074   2.7401   2.7427   3.0697   3.1563
     3.2086   3.3703   3.5040   3.5587   3.7889   4.0657   4.2553   4.2662
     4.3232   4.5819   4.6598   4.6727

          k = 0.0256 0.0740 0.0000 ( 23554 PWs)   bands (ev):

   -61.4195 -61.4193 -61.4128 -61.4126 -61.4061 -61.4058 -61.0122 -61.0064
   -60.9987 -41.2564 -41.2562 -40.6000 -30.0269 -30.0224 -30.0068 -29.9935
   -29.9847 -29.9758 -29.9747 -29.9657 -29.9579 -29.9535 -29.9194 -29.9107
   -29.9019 -29.8995 -29.8270 -29.8241 -29.7239 -29.7225 -29.6474 -29.5805
   -29.5287 -29.5259 -29.4905 -29.4777 -29.4755 -29.4324 -29.3474 -21.2700
   -21.2664 -21.2604 -21.2598 -21.2534 -21.2503 -20.6480 -20.6443 -20.6377
    -3.4362  -2.6460  -2.2351  -1.8391  -1.5219  -1.0745  -0.8594  -0.4863
    -0.2056  -0.1422   0.1342   0.3553   0.4420   0.4477   0.4877   0.6091
     0.7679   0.8130   0.9221   0.9689   1.0760   1.1316   1.1537   1.2640
     1.2872   1.4051   1.4771   1.5607   1.6562   1.7048   1.7837   1.8366
     1.8771   2.1772   2.4879   2.6181   2.6613   2.9027   3.0023   3.3284
     3.4819   3.5399   3.5792   3.6684   3.8229   3.8472   3.9084   4.1919
     4.2218   4.2973   4.3626   4.7219

          k = 0.0256-0.0740 0.0000 ( 23554 PWs)   bands (ev):

   -61.4195 -61.4193 -61.4128 -61.4126 -61.4061 -61.4058 -61.0122 -61.0064
   -60.9987 -41.2564 -41.2562 -40.6000 -30.0269 -30.0224 -30.0068 -29.9935
   -29.9847 -29.9758 -29.9747 -29.9657 -29.9579 -29.9535 -29.9194 -29.9107
   -29.9019 -29.8995 -29.8270 -29.8241 -29.7239 -29.7225 -29.6474 -29.5805
   -29.5287 -29.5259 -29.4905 -29.4777 -29.4755 -29.4324 -29.3474 -21.2700
   -21.2664 -21.2604 -21.2598 -21.2534 -21.2503 -20.6480 -20.6443 -20.6377
    -3.4362  -2.6460  -2.2351  -1.8391  -1.5219  -1.0745  -0.8594  -0.4863
    -0.2056  -0.1422   0.1342   0.3553   0.4420   0.4477   0.4877   0.6091
     0.7679   0.8130   0.9221   0.9689   1.0760   1.1316   1.1537   1.2640
     1.2872   1.4051   1.4771   1.5607   1.6562   1.7048   1.7837   1.8366
     1.8771   2.1772   2.4879   2.6181   2.6613   2.9027   3.0023   3.3284
     3.4819   3.5399   3.5792   3.6684   3.8229   3.8472   3.9084   4.1919
     4.2218   4.2973   4.3626   4.7219

          k = 0.0256-0.0444 0.0000 ( 23506 PWs)   bands (ev):

   -61.4229 -61.4226 -61.4094 -61.4092 -61.4061 -61.4058 -61.0158 -61.0026
   -60.9987 -41.2563 -41.2560 -40.5998 -30.0494 -30.0444 -30.0257 -30.0182
   -30.0025 -29.9845 -29.9844 -29.9808 -29.9699 -29.9686 -29.9537 -29.9484
   -29.8549 -29.8540 -29.7646 -29.7635 -29.7145 -29.7108 -29.6865 -29.6009
   -29.5711 -29.4948 -29.4898 -29.4831 -29.4545 -29.3834 -29.3372 -21.2714
   -21.2621 -21.2550 -21.2539 -21.2489 -21.2459 -20.6443 -20.6408 -20.6331
    -4.1040  -2.9450  -1.9027  -1.8820  -1.5250  -1.2174  -1.1102  -0.7365
    -0.5569  -0.3966  -0.3495  -0.0332   0.1214   0.1214   0.1742   0.6007
     0.6680   0.6686   1.2442   1.2708   1.2857   1.3777   1.4192   1.4910
     1.6364   1.6942   1.8442   2.0011   2.0127   2.0513   2.1450   2.1560
     2.1753   2.4103   2.4258   2.6074   2.7401   2.7427   3.0697   3.1563
     3.2086   3.3703   3.5040   3.5587   3.7889   4.0657   4.2553   4.2662
     4.3232   4.5819   4.6597   4.6727

          k = 0.0256-0.0148 0.0000 ( 23515 PWs)   bands (ev):

   -61.4251 -61.4248 -61.4072 -61.4070 -61.4061 -61.4058 -61.0180 -61.0001
   -60.9990 -41.2561 -41.2559 -40.5997 -30.0803 -30.0744 -30.0340 -30.0258
   -30.0177 -30.0104 -30.0026 -29.9868 -29.9779 -29.9741 -29.9487 -29.9465
   -29.8339 -29.8299 -29.7263 -29.7219 -29.7188 -29.7056 -29.6996 -29.6054
   -29.5962 -29.4958 -29.4863 -29.4834 -29.4353 -29.3470 -29.3278 -21.2725
   -21.2594 -21.2490 -21.2457 -21.2457 -21.2418 -20.6442 -20.6330 -20.6291
    -4.4737  -3.2980  -2.1516  -1.7040  -1.4832  -1.2805  -1.1402  -1.0190
    -0.7971  -0.6982  -0.6164  -0.3272  -0.0755  -0.0606  -0.0565   0.5356
     0.5914   0.5950   1.3114   1.3972   1.4961   1.5761   1.6606   1.7321
     1.8345   1.8948   1.9359   2.2805   2.2967   2.3176   2.4509   2.4557
     2.4940   2.5490   2.6165   2.8164   2.8221   2.9087   2.9156   3.1250
     3.1409   3.1690   3.2195   3.6723   3.9640   4.2376   4.3872   4.6288
     4.6366   4.7153   4.7435   4.7701

          k = 0.0513 0.0296 0.0000 ( 23516 PWs)   bands (ev):

   -61.4220 -61.4217 -61.4103 -61.4101 -61.4061 -61.4058 -61.0150 -61.0029
   -60.9992 -41.2563 -41.2561 -40.5999 -30.0509 -30.0440 -30.0193 -29.9945
   -29.9872 -29.9805 -29.9804 -29.9700 -29.9683 -29.9645 -29.9550 -29.9493
   -29.8632 -29.8629 -29.7921 -29.7896 -29.7115 -29.7082 -29.6783 -29.5878
   -29.5637 -29.4980 -29.4871 -29.4862 -29.4609 -29.4063 -29.3350 -21.2711
   -21.2639 -21.2577 -21.2570 -21.2495 -21.2457 -20.6448 -20.6443 -20.6331
    -3.9303  -2.7990  -2.2695  -1.5826  -1.4714  -1.2462  -0.8795  -0.7979
    -0.5050  -0.3869  -0.1269   0.1199   0.1995   0.2464   0.2584   0.6313
     0.6616   0.7298   1.1171   1.2368   1.2624   1.2753   1.3020   1.4319
     1.5093   1.6331   1.6443   1.8821   1.9332   1.9650   2.0599   2.1064
     2.1115   2.3118   2.4785   2.5196   2.6055   2.8005   2.9322   3.2791
     3.3082   3.4130   3.5728   3.6826   3.7302   4.0115   4.1401   4.2122
     4.3242   4.3938   4.6151   4.6403

          k = 0.0513 0.0592 0.0000 ( 23554 PWs)   bands (ev):

   -61.4195 -61.4193 -61.4128 -61.4126 -61.4061 -61.4058 -61.0126 -61.0056
   -60.9990 -41.2564 -41.2562 -40.6000 -30.0269 -30.0224 -30.0068 -29.9936
   -29.9847 -29.9759 -29.9747 -29.9657 -29.9579 -29.9535 -29.9194 -29.9107
   -29.9019 -29.8995 -29.8271 -29.8241 -29.7239 -29.7225 -29.6477 -29.5802
   -29.5285 -29.5259 -29.4902 -29.4775 -29.4762 -29.4320 -29.3477 -21.2700
   -21.2664 -21.2604 -21.2598 -21.2533 -21.2503 -20.6480 -20.6443 -20.6377
    -3.4362  -2.6460  -2.2351  -1.8391  -1.5219  -1.0745  -0.8594  -0.4863
    -0.2056  -0.1422   0.1341   0.3553   0.4420   0.4477   0.4877   0.6091
     0.7679   0.8130   0.9221   0.9689   1.0760   1.1316   1.1537   1.2640
     1.2872   1.4051   1.4771   1.5607   1.6562   1.7048   1.7837   1.8366
     1.8771   2.1772   2.4879   2.6181   2.6613   2.9027   3.0023   3.3284
     3.4819   3.5399   3.5792   3.6684   3.8229   3.8472   3.9084   4.1919
     4.2218   4.2973   4.3626   4.7219

          k = 0.0513 0.0888 0.0000 ( 23574 PWs)   bands (ev):

   -61.4162 -61.4162 -61.4160 -61.4159 -61.4061 -61.4058 -61.0096 -61.0086
   -60.9990 -41.2564 -41.2563 -40.6000 -30.0012 -30.0011 -29.9906 -29.9831
   -29.9745 -29.9745 -29.9723 -29.9660 -29.9660 -29.9541 -29.9505 -29.9505
   -29.8585 -29.8582 -29.8580 -29.8573 -29.7374 -29.7372 -29.5989 -29.5985
   -29.5656 -29.4916 -29.4915 -29.4909 -29.4547 -29.4544 -29.3612 -21.2678
   -21.2677 -21.2607 -21.2574 -21.2573 -21.2571 -20.6448 -20.6448 -20.6443
    -2.7785  -2.7784  -2.4994  -1.7435  -1.4590  -1.4589  -0.3055  -0.2639
    -0.2639   0.1475   0.1816   0.1817   0.6073   0.6184   0.6184   0.7310
     0.7310   0.7746   0.7798   0.7798   0.9264   1.0663   1.0663   1.2664
     1.2664   1.3434   1.4582   1.4610   1.4611   1.6001   1.6231   1.6231
     1.7245   1.9114   2.5879   2.7674   2.7674   3.2078   3.2078   3.2206
     3.3679   3.3679   3.3762   3.5429   3.7282   3.7282   4.0230   4.0230
     4.3223   4.6114   4.6114   4.9470

          k = 0.0513-0.0592 0.0000 ( 23554 PWs)   bands (ev):

   -61.4195 -61.4193 -61.4128 -61.4126 -61.4061 -61.4058 -61.0126 -61.0056
   -60.9990 -41.2564 -41.2562 -40.6000 -30.0269 -30.0224 -30.0068 -29.9936
   -29.9847 -29.9759 -29.9747 -29.9657 -29.9579 -29.9535 -29.9194 -29.9107
   -29.9019 -29.8995 -29.8271 -29.8241 -29.7239 -29.7225 -29.6477 -29.5802
   -29.5286 -29.5260 -29.4902 -29.4775 -29.4762 -29.4320 -29.3477 -21.2700
   -21.2664 -21.2604 -21.2598 -21.2533 -21.2503 -20.6480 -20.6443 -20.6377
    -3.4362  -2.6460  -2.2351  -1.8391  -1.5219  -1.0745  -0.8594  -0.4863
    -0.2056  -0.1422   0.1341   0.3553   0.4420   0.4477   0.4877   0.6091
     0.7679   0.8130   0.9221   0.9689   1.0760   1.1316   1.1537   1.2640
     1.2872   1.4051   1.4771   1.5607   1.6562   1.7048   1.7837   1.8366
     1.8771   2.1772   2.4879   2.6181   2.6613   2.9027   3.0023   3.3284
     3.4819   3.5399   3.5792   3.6684   3.8229   3.8472   3.9084   4.1919
     4.2218   4.2973   4.3626   4.7219

          k = 0.0513-0.0296 0.0000 ( 23516 PWs)   bands (ev):

   -61.4220 -61.4217 -61.4103 -61.4101 -61.4061 -61.4058 -61.0150 -61.0030
   -60.9992 -41.2563 -41.2561 -40.5999 -30.0509 -30.0440 -30.0193 -29.9945
   -29.9872 -29.9805 -29.9804 -29.9700 -29.9683 -29.9645 -29.9550 -29.9493
   -29.8632 -29.8629 -29.7921 -29.7896 -29.7115 -29.7082 -29.6783 -29.5878
   -29.5637 -29.4980 -29.4871 -29.4862 -29.4609 -29.4063 -29.3350 -21.2711
   -21.2639 -21.2577 -21.2570 -21.2495 -21.2457 -20.6448 -20.6443 -20.6331
    -3.9303  -2.7990  -2.2695  -1.5826  -1.4714  -1.2462  -0.8795  -0.7979
    -0.5050  -0.3869  -0.1269   0.1199   0.1995   0.2464   0.2584   0.6313
     0.6616   0.7298   1.1171   1.2368   1.2624   1.2753   1.3020   1.4319
     1.5093   1.6331   1.6443   1.8821   1.9332   1.9649   2.0599   2.1064
     2.1115   2.3118   2.4785   2.5196   2.6055   2.8005   2.9322   3.2791
     3.3082   3.4130   3.5728   3.6826   3.7302   4.0115   4.1401   4.2122
     4.3242   4.3938   4.6151   4.6403

          k = 0.0513 0.0000 0.0000 ( 23506 PWs)   bands (ev):

   -61.4229 -61.4226 -61.4094 -61.4092 -61.4061 -61.4058 -61.0160 -61.0019
   -60.9994 -41.2563 -41.2560 -40.5998 -30.0494 -30.0444 -30.0257 -30.0182
   -30.0025 -29.9846 -29.9845 -29.9808 -29.9699 -29.9686 -29.9537 -29.9484
   -29.8549 -29.8540 -29.7646 -29.7635 -29.7145 -29.7108 -29.6867 -29.6011
   -29.5707 -29.4944 -29.4898 -29.4834 -29.4544 -29.3831 -29.3375 -21.2714
   -21.2621 -21.2550 -21.2539 -21.2489 -21.2459 -20.6443 -20.6409 -20.6331
    -4.1040  -2.9450  -1.9027  -1.8819  -1.5250  -1.2174  -1.1101  -0.7365
    -0.5569  -0.3966  -0.3495  -0.0332   0.1214   0.1214   0.1742   0.6007
     0.6680   0.6686   1.2442   1.2708   1.2858   1.3777   1.4192   1.4910
     1.6364   1.6942   1.8442   2.0011   2.0127   2.0513   2.1450   2.1560
     2.1753   2.4103   2.4258   2.6074   2.7401   2.7427   3.0697   3.1563
     3.2086   3.3703   3.5040   3.5587   3.7889   4.0657   4.2553   4.2662
     4.3232   4.5819   4.6597   4.6727

          k =-0.0769-0.0444 0.0000 ( 23492 PWs)   bands (ev):

   -61.4195 -61.4193 -61.4128 -61.4125 -61.4061 -61.4058 -61.0128 -61.0052
   -60.9992 -41.2564 -41.2562 -40.6000 -30.0438 -30.0372 -30.0008 -30.0006
   -29.9838 -29.9637 -29.9636 -29.9586 -29.9378 -29.9256 -29.9226 -29.9130
   -29.9013 -29.8945 -29.8624 -29.8543 -29.7143 -29.7118 -29.6592 -29.5378
   -29.5348 -29.5220 -29.5147 -29.4761 -29.4723 -29.4507 -29.3380 -21.2706
   -21.2678 -21.2621 -21.2607 -21.2514 -21.2476 -20.6506 -20.6443 -20.6351
    -3.2202  -3.0799  -2.0998  -1.9467  -1.1100  -1.0861  -0.8953  -0.5379
    -0.3712  -0.2914   0.3558   0.4617   0.5158   0.5308   0.5605   0.6688
     0.7025   0.8694   0.9145   0.9831   1.0180   1.0189   1.1119   1.1854
     1.3369   1.3413   1.4164   1.4928   1.5450   1.6301   1.8338   1.8795
     2.1728   2.2776   2.4383   2.4423   2.5720   2.6230   3.2285   3.4369
     3.4528   3.4942   3.6476   3.7574   3.8471   3.9262   4.0027   4.1281
     4.1947   4.2928   4.3871   4.5799

          k =-0.0769-0.0148 0.0000 ( 23554 PWs)   bands (ev):

   -61.4195 -61.4193 -61.4128 -61.4126 -61.4061 -61.4058 -61.0128 -61.0052
   -60.9992 -41.2564 -41.2562 -40.6000 -30.0269 -30.0224 -30.0068 -29.9935
   -29.9847 -29.9759 -29.9747 -29.9657 -29.9579 -29.9535 -29.9194 -29.9107
   -29.9019 -29.8995 -29.8270 -29.8241 -29.7239 -29.7225 -29.6478 -29.5806
   -29.5281 -29.5255 -29.4907 -29.4779 -29.4757 -29.4320 -29.3478 -21.2700
   -21.2664 -21.2604 -21.2598 -21.2533 -21.2503 -20.6480 -20.6443 -20.6377
    -3.4362  -2.6460  -2.2351  -1.8391  -1.5219  -1.0745  -0.8594  -0.4863
    -0.2056  -0.1422   0.1341   0.3554   0.4420   0.4477   0.4877   0.6091
     0.7679   0.8130   0.9221   0.9689   1.0760   1.1316   1.1537   1.2640
     1.2872   1.4051   1.4771   1.5607   1.6562   1.7048   1.7837   1.8366
     1.8771   2.1772   2.4879   2.6181   2.6613   2.9027   3.0023   3.3284
     3.4819   3.5399   3.5792   3.6684   3.8229   3.8472   3.9084   4.1919
     4.2218   4.2973   4.3627   4.7219

          k =-0.0769 0.0148 0.0000 ( 23554 PWs)   bands (ev):

   -61.4195 -61.4193 -61.4128 -61.4126 -61.4061 -61.4058 -61.0128 -61.0052
   -60.9992 -41.2564 -41.2562 -40.6000 -30.0269 -30.0224 -30.0068 -29.9935
   -29.9847 -29.9759 -29.9747 -29.9657 -29.9579 -29.9535 -29.9194 -29.9107
   -29.9019 -29.8995 -29.8270 -29.8241 -29.7239 -29.7225 -29.6478 -29.5806
   -29.5281 -29.5255 -29.4907 -29.4779 -29.4756 -29.4320 -29.3478 -21.2700
   -21.2664 -21.2604 -21.2598 -21.2533 -21.2503 -20.6480 -20.6443 -20.6377
    -3.4362  -2.6460  -2.2351  -1.8391  -1.5219  -1.0745  -0.8594  -0.4863
    -0.2056  -0.1422   0.1341   0.3554   0.4420   0.4477   0.4877   0.6091
     0.7679   0.8130   0.9221   0.9689   1.0760   1.1316   1.1537   1.2640
     1.2872   1.4051   1.4771   1.5607   1.6562   1.7048   1.7837   1.8366
     1.8771   2.1772   2.4879   2.6181   2.6613   2.9027   3.0023   3.3284
     3.4819   3.5399   3.5792   3.6684   3.8229   3.8472   3.9084   4.1919
     4.2218   4.2973   4.3626   4.7219

          k =-0.0769-0.1332 0.0000 ( 23492 PWs)   bands (ev):

   -61.4195 -61.4193 -61.4128 -61.4126 -61.4061 -61.4058 -61.0128 -61.0052
   -60.9992 -41.2564 -41.2562 -40.6000 -30.0438 -30.0372 -30.0008 -30.0006
   -29.9838 -29.9637 -29.9636 -29.9586 -29.9378 -29.9256 -29.9226 -29.9130
   -29.9013 -29.8945 -29.8624 -29.8543 -29.7142 -29.7118 -29.6592 -29.5378
   -29.5348 -29.5220 -29.5147 -29.4761 -29.4723 -29.4507 -29.3380 -21.2706
   -21.2678 -21.2621 -21.2607 -21.2514 -21.2476 -20.6506 -20.6443 -20.6351
    -3.2202  -3.0799  -2.0998  -1.9467  -1.1100  -1.0861  -0.8953  -0.5379
    -0.3712  -0.2914   0.3558   0.4617   0.5158   0.5308   0.5605   0.6688
     0.7025   0.8694   0.9145   0.9831   1.0180   1.0189   1.1119   1.1854
     1.3369   1.3413   1.4164   1.4928   1.5450   1.6301   1.8338   1.8795
     2.1728   2.2776   2.4383   2.4423   2.5720   2.6230   3.2285   3.4370
     3.4528   3.4942   3.6476   3.7574   3.8471   3.9262   4.0027   4.1281
     4.1947   4.2928   4.3872   4.5799

     the Fermi energy is     1.3178 ev

!    total energy              =   -1725.88861627 Ry
     Harris-Foulkes estimate   =   -1725.88861547 Ry
     estimated scf accuracy    <       0.00000046 Ry

     The total energy is the sum of the following terms:

     one-electron contribution =   -7635.17458347 Ry
     hartree contribution      =    3803.18815041 Ry
     xc contribution           =    -780.60255356 Ry
     ewald contribution        =    2886.82266063 Ry
     electric field correction =       0.00000000 Ry
     smearing contrib. (-TS)   =      -0.12229027 Ry

     convergence has been achieved in  20 iterations
 
 BEEF-vdW xc energy contributions
           1 :   -703.010605623274     
           2 :    651.267574837302     
           3 :   -559.761954430371     
           4 :    447.737626865473     
           5 :   -335.014109711355     
           6 :    236.328370448757     
           7 :   -158.945734321673     
           8 :    103.617129379413     
           9 :   -67.3940655534777     
          10 :    46.2762743740275     
          11 :   -36.4977814337828     
          12 :    34.4521281243997     
          13 :   -36.1967599211566     
          14 :    37.4832830557650     
          15 :   -34.6480609935170     
          16 :    25.8655232520327     
          17 :   -11.9180498745027     
          18 :   -4.12833911176631     
          19 :    18.2584561098040     
          20 :   -27.1870686033977     
          21 :    29.5414506080317     
          22 :   -26.0684986849703     
          23 :    18.9473711572649     
          24 :   -10.7420328548299     
          25 :    3.57072322799888     
          26 :    1.20951374869685     
          27 :   -2.91762953554291     
          28 :    1.38533507123134     
          29 :    3.03789761965265     
          30 :   -9.35123154790926     
          31 :   -52.1651781429018     
          32 :   -37.2677391990552     

     Forces acting on atoms (Ry/au):


     negative rho (up, down):  1.022E+00 0.000E+00
     atom    1 type  1   force =    -0.00000180   -0.01132990    0.02571644
     atom    2 type  1   force =    -0.00982672    0.00567489    0.02572789
     atom    3 type  1   force =     0.00982737    0.00567687    0.02572831
     atom    4 type  2   force =     0.00000189   -0.00000912   -0.01731793
     atom    5 type  1   force =     0.00000022    0.00001192    0.00008281
     atom    6 type  1   force =     0.00001153   -0.00000434    0.00007209
     atom    7 type  1   force =    -0.00001162   -0.00000509    0.00007202
     atom    8 type  2   force =    -0.00000052   -0.00000178    0.00006038
     atom    9 type  1   force =     0.00000069    0.01133867   -0.02578006
     atom   10 type  1   force =     0.00983394   -0.00567940   -0.02579351
     atom   11 type  1   force =    -0.00983432   -0.00568113   -0.02579341
     atom   12 type  2   force =    -0.00000065    0.00000840    0.01722498

     Total force =     0.073140     Total SCF correction =     0.001302


     entering subroutine stress ...


     negative rho (up, down):  1.022E+00 0.000E+00
          total   stress  (Ry/bohr**3)                   (kbar)     P=  -14.27
  -0.00008648   0.00000000   0.00000000        -12.72      0.00      0.00
   0.00000000  -0.00008638   0.00000000          0.00    -12.71      0.00
   0.00000000   0.00000000  -0.00011818          0.00      0.00    -17.39

 !ASE

     Writing output data file calc.save
 
     init_run     :     21.89s CPU     33.58s WALL (       1 calls)
     electrons    :    835.71s CPU   1267.89s WALL (       1 calls)
     forces       :      3.79s CPU      4.71s WALL (       1 calls)
     stress       :      9.59s CPU     11.35s WALL (       1 calls)

     Called by init_run:
     wfcinit      :     19.17s CPU     29.94s WALL (       1 calls)
     potinit      :      1.44s CPU      2.22s WALL (       1 calls)

     Called by electrons:
     c_bands      :    637.44s CPU    961.75s WALL (      20 calls)
     sum_band     :    121.56s CPU    188.47s WALL (      20 calls)
     v_of_rho     :     25.75s CPU     40.75s WALL (      21 calls)
     newd         :     10.86s CPU     11.28s WALL (      21 calls)
     mix_rho      :      1.04s CPU      1.70s WALL (      20 calls)
     vdW_energy   :      2.09s CPU      2.10s WALL (      57 calls)
     vdW_ffts     :     43.68s CPU     73.34s WALL (     116 calls)
     vdW_v        :      8.16s CPU     12.53s WALL (      57 calls)

     Called by c_bands:
     init_us_2    :      0.73s CPU      0.78s WALL (     860 calls)
     cegterg      :    627.31s CPU    950.31s WALL (     400 calls)

     Called by *egterg:
     h_psi        :    517.77s CPU    829.96s WALL (    1658 calls)
     s_psi        :      9.05s CPU      9.41s WALL (    1658 calls)
     g_psi        :      0.37s CPU      0.39s WALL (    1238 calls)
     cdiaghg      :     67.24s CPU     70.77s WALL (    1638 calls)

     Called by h_psi:
     add_vuspsi   :      9.55s CPU      9.59s WALL (    1658 calls)

     General routines
     calbec       :     26.71s CPU     34.99s WALL (    2098 calls)
     fft          :     66.53s CPU    110.64s WALL (    3489 calls)
     ffts         :      0.28s CPU      0.42s WALL (      41 calls)
     fftw         :    583.66s CPU    952.52s WALL (  224842 calls)
     interpolate  :      0.99s CPU      1.60s WALL (      41 calls)
     davcio       :      0.00s CPU      0.02s WALL (      20 calls)
 
     Parallel routines
     fft_scatter  :    628.95s CPU   1040.12s WALL (  228372 calls)
 
     PWSCF        : 14m32.01s CPU    21m59.27s WALL

 
   This run was terminated on:   9: 3: 7  26Dec2018            

=------------------------------------------------------------------------------=
   JOB DONE.
=------------------------------------------------------------------------------=
Job  /afs/slac/g/suncat/bin/suncat-tsmpirun -x LD_LIBRARY_PATH -wdir /scratch/qe109782_ho7Nu pw.x -in pw.inp

TID   HOST_NAME   COMMAND_LINE            STATUS            TERMINATION_TIME
===== ========== ================  =======================  ===================
00000 suncat0163 pw.x -in pw.inp   Done                     12/26/2018 09:03:07
00001 suncat0163 pw.x -in pw.inp   Done                     12/26/2018 09:03:07
00002 suncat0163 pw.x -in pw.inp   Done                     12/26/2018 09:03:07
00003 suncat0163 pw.x -in pw.inp   Done                     12/26/2018 09:03:07
00004 suncat0163 pw.x -in pw.inp   Done                     12/26/2018 09:03:07
00005 suncat0163 pw.x -in pw.inp   Done                     12/26/2018 09:03:07
00006 suncat0163 pw.x -in pw.inp   Done                     12/26/2018 09:03:07
00007 suncat0163 pw.x -in pw.inp   Done                     12/26/2018 09:03:07
00008 suncat0162 pw.x -in pw.inp   Done                     12/26/2018 09:03:07
00009 suncat0162 pw.x -in pw.inp   Done                     12/26/2018 09:03:07
00010 suncat0162 pw.x -in pw.inp   Done                     12/26/2018 09:03:07
00011 suncat0162 pw.x -in pw.inp   Done                     12/26/2018 09:03:07
00012 suncat0162 pw.x -in pw.inp   Done                     12/26/2018 09:03:07
00013 suncat0162 pw.x -in pw.inp   Done                     12/26/2018 09:03:07
00014 suncat0162 pw.x -in pw.inp   Done                     12/26/2018 09:03:07
00015 suncat0162 pw.x -in pw.inp   Done                     12/26/2018 09:03:07
00016 suncat0145 pw.x -in pw.inp   Done                     12/26/2018 09:03:07
00017 suncat0145 pw.x -in pw.inp   Done                     12/26/2018 09:03:07
00018 suncat0145 pw.x -in pw.inp   Done                     12/26/2018 09:03:07
00019 suncat0145 pw.x -in pw.inp   Done                     12/26/2018 09:03:07
00020 suncat0145 pw.x -in pw.inp   Done                     12/26/2018 09:03:07
00021 suncat0145 pw.x -in pw.inp   Done                     12/26/2018 09:03:07
00022 suncat0145 pw.x -in pw.inp   Done                     12/26/2018 09:03:07
00023 suncat0145 pw.x -in pw.inp   Done                     12/26/2018 09:03:07
00024 suncat0144 pw.x -in pw.inp   Done                     12/26/2018 09:03:07
00025 suncat0144 pw.x -in pw.inp   Done                     12/26/2018 09:03:07
00026 suncat0144 pw.x -in pw.inp   Done                     12/26/2018 09:03:07
00027 suncat0144 pw.x -in pw.inp   Done                     12/26/2018 09:03:07
00028 suncat0144 pw.x -in pw.inp   Done                     12/26/2018 09:03:07
00029 suncat0144 pw.x -in pw.inp   Done                     12/26/2018 09:03:07
00030 suncat0144 pw.x -in pw.inp   Done                     12/26/2018 09:03:07
00031 suncat0144 pw.x -in pw.inp   Done                     12/26/2018 09:03:07
00032 suncat0133 pw.x -in pw.inp   Done                     12/26/2018 09:03:07
00033 suncat0133 pw.x -in pw.inp   Done                     12/26/2018 09:03:07
00034 suncat0133 pw.x -in pw.inp   Done                     12/26/2018 09:03:07
00035 suncat0133 pw.x -in pw.inp   Done                     12/26/2018 09:03:07
00036 suncat0133 pw.x -in pw.inp   Done                     12/26/2018 09:03:07
00037 suncat0133 pw.x -in pw.inp   Done                     12/26/2018 09:03:07
00038 suncat0133 pw.x -in pw.inp   Done                     12/26/2018 09:03:07
00039 suncat0133 pw.x -in pw.inp   Done                     12/26/2018 09:03:07
00040 suncat0132 pw.x -in pw.inp   Done                     12/26/2018 09:03:07
00041 suncat0132 pw.x -in pw.inp   Done                     12/26/2018 09:03:07
00042 suncat0132 pw.x -in pw.inp   Done                     12/26/2018 09:03:07
00043 suncat0132 pw.x -in pw.inp   Done                     12/26/2018 09:03:07
00044 suncat0132 pw.x -in pw.inp   Done                     12/26/2018 09:03:07
00045 suncat0132 pw.x -in pw.inp   Done                     12/26/2018 09:03:07
00046 suncat0132 pw.x -in pw.inp   Done                     12/26/2018 09:03:07
00047 suncat0132 pw.x -in pw.inp   Done                     12/26/2018 09:03:07
00048 suncat0131 pw.x -in pw.inp   Done                     12/26/2018 09:03:07
00049 suncat0131 pw.x -in pw.inp   Done                     12/26/2018 09:03:07
00050 suncat0131 pw.x -in pw.inp   Done                     12/26/2018 09:03:07
00051 suncat0131 pw.x -in pw.inp   Done                     12/26/2018 09:03:07
00052 suncat0131 pw.x -in pw.inp   Done                     12/26/2018 09:03:07
00053 suncat0131 pw.x -in pw.inp   Done                     12/26/2018 09:03:07
00054 suncat0131 pw.x -in pw.inp   Done                     12/26/2018 09:03:07
00055 suncat0131 pw.x -in pw.inp   Done                     12/26/2018 09:03:07
00056 suncat0130 pw.x -in pw.inp   Done                     12/26/2018 09:03:07
00057 suncat0130 pw.x -in pw.inp   Done                     12/26/2018 09:03:07
00058 suncat0130 pw.x -in pw.inp   Done                     12/26/2018 09:03:07
00059 suncat0130 pw.x -in pw.inp   Done                     12/26/2018 09:03:07
00060 suncat0130 pw.x -in pw.inp   Done                     12/26/2018 09:03:07
00061 suncat0130 pw.x -in pw.inp   Done                     12/26/2018 09:03:07
00062 suncat0130 pw.x -in pw.inp   Done                     12/26/2018 09:03:07
00063 suncat0130 pw.x -in pw.inp   Done                     12/26/2018 09:03:07

     Program PWSCF v.5.1rc2 (svn rev. 11289) starts on 26Dec2018 at  9: 3:14 

     This program is part of the open-source Quantum ESPRESSO suite
     for quantum simulation of materials; please cite
         "P. Giannozzi et al., J. Phys.:Condens. Matter 21 395502 (2009);
          URL http://www.quantum-espresso.org", 
     in publications or presentations arising from this work. More details at
     http://www.quantum-espresso.org/quote

     Parallel version (MPI), running on    64 processors
     R & G space division:  proc/nbgrp/npool/nimage =      64
     Reading input from pw.inp
     Message from routine read_cards :
     DEPRECATED: no units specified in CELL_PARAMETERS card

     Current dimensions of program PWSCF are:
     Max number of different atomic species (ntypx) = 10
     Max number of k-points (npk) =  40000
     Max angular momentum in pseudopotentials (lmaxx) =  3
     Presently stress not available with electric field


     **************************************************************************
     Initializing libbeef V0.1.1 with the BEEF-vdW functional.
     Citation: Wellendorff et al., PRB 85, 235149 (2012).
     **************************************************************************


     IMPORTANT: XC functional enforced from input :
     Exchange-correlation      = BEEF-VDW ( 1  4 27 13 2)
     Any further DFT definition will be discarded
     Please, verify this is what you really want


     Subspace diagonalization in iterative solution of the eigenvalue problem:
     a serial algorithm will be used

 
     Parallelization info
     --------------------
     sticks:   dense  smooth     PW     G-vecs:    dense   smooth      PW
     Min          59      23      6                11611     2915     446
     Max          60      24      7                11646     2966     475
     Sum        3829    1531    439               744147   188243   29915
 


     bravais-lattice index     =            0
     lattice parameter (alat)  =       1.8897  a.u.
     unit-cell volume          =    6252.2204 (a.u.)^3
     number of atoms/cell      =           12
     number of atomic types    =            2
     number of electrons       =       141.00
     number of Kohn-Sham states=          100
     kinetic-energy cutoff     =      36.7493  Ry
     charge density cutoff     =     367.4932  Ry
     convergence threshold     =      1.0E-06
     mixing beta               =       0.1000
     number of iterations used =           10  plain     mixing
     Exchange-correlation      = BEEF-VDW ( 1  4 27 13 2)
     nstep                     =           50


     celldm(1)=   1.889726  celldm(2)=   0.000000  celldm(3)=   0.000000
     celldm(4)=   0.000000  celldm(5)=   0.000000  celldm(6)=   0.000000

     crystal axes: (cart. coord. in units of alat)
               a(1) = (   6.501597   0.000000   0.000000 )  
               a(2) = (  -3.250799   5.630548   0.000000 )  
               a(3) = (   0.000000   0.000000  25.308532 )  

     reciprocal axes: (cart. coord. in units 2 pi/alat)
               b(1) = (  0.153808  0.088801  0.000000 )  
               b(2) = (  0.000000  0.177603  0.000000 )  
               b(3) = (  0.000000  0.000000  0.039512 )  


     PseudoPot. # 1 for Hf read from file:
     /afs/slac.stanford.edu/u/if/mamunm/psp/gbrv1.5pbe/Hf.UPF
     MD5 check sum: 8ee9378dfe14276e333edf04c5e4aa26
     Pseudo is Ultrasoft + core correction, Zval = 12.0
     Generated by new atomic code, or converted to UPF format
     Using radial grid of  921 points,  8 beta functions with: 
                l(1) =   0
                l(2) =   0
                l(3) =   0
                l(4) =   1
                l(5) =   1
                l(6) =   2
                l(7) =   2
                l(8) =   3
     Q(r) pseudized with  6 coefficients,  rinner =    1.200   1.200   1.200
                                                       1.200   1.200   1.200
                                                       1.200

     PseudoPot. # 2 for Y  read from file:
     /afs/slac.stanford.edu/u/if/mamunm/psp/gbrv1.5pbe/Y.UPF
     MD5 check sum: d034151ed7554c50b6e82763ed42c788
     Pseudo is Ultrasoft + core correction, Zval = 11.0
     Generated by new atomic code, or converted to UPF format
     Using radial grid of  885 points,  6 beta functions with: 
                l(1) =   0
                l(2) =   0
                l(3) =   1
                l(4) =   1
                l(5) =   2
                l(6) =   2
     Q(r) pseudized with  8 coefficients,  rinner =    1.200   1.200   1.200
                                                       1.200   1.200

     vdW kernel table read from file vdW_kernel_table
     MD5 check sum: 095c7af220d748ca6e76c0b4c6cfb241

     atomic species   valence    mass     pseudopotential
        Hf1           12.00   178.49000     Hf( 1.00)
        Y1            11.00    88.90584     Y ( 1.00)

     No symmetry found



   Cartesian axes

     site n.     atom                  positions (alat units)
         1           Hf1 tau(   1) = (   0.0000000   0.0000000  10.0000000  )
         2           Hf1 tau(   2) = (  -1.6253993   2.8152741  10.0000000  )
         3           Hf1 tau(   3) = (   1.6253993   2.8152741  10.0000000  )
         4           Y1  tau(   4) = (   3.2507985   0.0000000  10.0000000  )
         5           Hf1 tau(   5) = (   3.2507985   1.8768494  12.6542659  )
         6           Hf1 tau(   6) = (   1.6253993   4.6921235  12.6542659  )
         7           Hf1 tau(   7) = (  -1.6253993   4.6921235  12.6542659  )
         8           Y1  tau(   8) = (   0.0000000   1.8768494  12.6542659  )
         9           Hf1 tau(   9) = (   0.0000018   3.7828517  15.2422486  )
        10           Hf1 tau(  10) = (   1.6506833   0.9238224  15.2422140  )
        11           Hf1 tau(  11) = (   4.8509127   0.9238179  15.2422142  )
        12           Y1  tau(  12) = (   3.2507968   3.7537204  15.3528190  )

     number of k points=    20  Fermi-Dirac smearing, width (Ry)=  0.0110
                       cart. coord. in units 2pi/alat
        k(    1) = (   0.0000000   0.0000000   0.0000000), wk =   0.0555556
        k(    2) = (   0.0000000   0.0296004   0.0000000), wk =   0.1111111
        k(    3) = (   0.0000000   0.0592009   0.0000000), wk =   0.1111111
        k(    4) = (   0.0000000  -0.0888013   0.0000000), wk =   0.0555556
        k(    5) = (   0.0256347   0.0148002   0.0000000), wk =   0.1111111
        k(    6) = (   0.0256347   0.0444006   0.0000000), wk =   0.1111111
        k(    7) = (   0.0256347   0.0740011   0.0000000), wk =   0.1111111
        k(    8) = (   0.0256347  -0.0740011   0.0000000), wk =   0.1111111
        k(    9) = (   0.0256347  -0.0444006   0.0000000), wk =   0.1111111
        k(   10) = (   0.0256347  -0.0148002   0.0000000), wk =   0.1111111
        k(   11) = (   0.0512695   0.0296004   0.0000000), wk =   0.1111111
        k(   12) = (   0.0512695   0.0592009   0.0000000), wk =   0.1111111
        k(   13) = (   0.0512695   0.0888013   0.0000000), wk =   0.1111111
        k(   14) = (   0.0512695  -0.0592009   0.0000000), wk =   0.1111111
        k(   15) = (   0.0512695  -0.0296004   0.0000000), wk =   0.1111111
        k(   16) = (   0.0512695   0.0000000   0.0000000), wk =   0.1111111
        k(   17) = (  -0.0769042  -0.0444006   0.0000000), wk =   0.0555556
        k(   18) = (  -0.0769042  -0.0148002   0.0000000), wk =   0.1111111
        k(   19) = (  -0.0769042   0.0148002   0.0000000), wk =   0.1111111
        k(   20) = (  -0.0769042  -0.1332019   0.0000000), wk =   0.0555556

     Dense  grid:   744147 G-vectors     FFT dimensions: (  75,  75, 300)

     Smooth grid:   188243 G-vectors     FFT dimensions: (  48,  48, 192)

     Largest allocated arrays     est. size (Mb)     dimensions
        Kohn-Sham Wavefunctions         0.59 Mb     (     388,  100)
        NL pseudopotentials             1.71 Mb     (     388,  288)
        Each V/rho on FFT grid          0.43 Mb     (   28125)
        Each G-vector array             0.09 Mb     (   11632)
        G-vector shells                 0.04 Mb     (    5480)
     Largest temporary arrays     est. size (Mb)     dimensions
        Auxiliary wavefunctions         2.37 Mb     (     388,  400)
        Each subspace H/S matrix        2.44 Mb     (     400,  400)
        Each <psi_i|beta_j> matrix      0.44 Mb     (     288,  100)
        Arrays for rho mixing           4.29 Mb     (   28125,   10)

     Check: negative/imaginary core charge=   -0.000003    0.000000

     Initial potential from superposition of free atoms
     Check: negative starting charge=   -0.965796

     starting charge  122.98657, renormalised to  141.00000

     negative rho (up, down):  1.107E+00 0.000E+00


     ************************************************************************
     *
     * You are using vdW-DF for exchange-correlation in this calculation.
     * Please cite the following three references that made this development
     * possible:
     *
     *   M. Dion, H. Rydberg, E. Schroder, D. C. Langreth, and
     *   B. I. Lundqvist, Phys. Rev. Lett. 92, 246401 (2004).
     *
     *   T. Thonhauser, V. R. Cooper, S. Li, A. Puzder, P. Hyldgaard, and
     *   D. C. Langreth, Phys. Rev. B 76, 125112 (2007).
     *
     *   G. Roman-Perez and J. M. Soler, Phys. Rev. Lett. 103, 096102 (2009).
     *
     *
     * If you are using vdW-DF2, please also cite:
     *
     *   K. Lee, E. D. Murray, L. Kong, B. I. Lundqvist, and
     *   D. C. Langreth, Phys. Rev. B 82, 081101(R) (2010).
     *
     *
     * If you are calculating the stress with vdW-DF, please also cite:
     *
     *   R. Sabatini, E. Kucukbenli, B. Kolb, T. Thonhauser, and
     *   S. de Gironcoli, J. Phys.: Condens. Matter 24, 424209 (2012).
     *
     ************************************************************************

     Carrying out vdW-DF run using the following parameters:

     Nqs =      20    Nr_points =    1024   r_max =   100.000
     q_mesh =
               0.00001000     0.04494208     0.09755937     0.15916263
               0.23128650     0.31572767     0.41458969     0.53033537
               0.66584808     0.82450364     1.01025438     1.22772762
               1.48234092     1.78043706     2.12944203     2.53805004
               3.01644009     3.57652955     4.23227104     5.00000000

     Gradients computed in reciprocal space

     ************************************************************************


 
     Adding external electric field

     Computed dipole along edir(3) : 
        Dipole               -0.3356 Ry au,         -0.8531 Debye
        Dipole field         -0.0007 Ry au
 
        Potential amp.        0.0629 Ry
        Total length         46.6305 bohr
 
     Starting wfc are  156 randomized atomic wfcs

     total cpu time spent up to now is       36.6 secs

     per-process dynamical memory:    44.6 Mb

     Self-consistent Calculation

     iteration #  1     ecut=    36.75 Ry     beta=0.10
     Davidson diagonalization with overlap
     ethr =  1.00E-02,  avg # of iterations =  8.1

     negative rho (up, down):  1.089E+00 0.000E+00
 
     Adding external electric field

     Computed dipole along edir(3) : 
        Dipole                3.3742 Ry au,          8.5765 Debye
        Dipole field          0.0068 Ry au
 
        Potential amp.       -0.6325 Ry
        Total length         46.6305 bohr
 

     total cpu time spent up to now is      140.9 secs

     total energy              =   -1728.40048389 Ry
     Harris-Foulkes estimate   =   -1734.59572667 Ry
     estimated scf accuracy    <      38.44208849 Ry

     iteration #  2     ecut=    36.75 Ry     beta=0.10
     Davidson diagonalization with overlap
     ethr =  1.00E-02,  avg # of iterations =  3.7

     negative rho (up, down):  1.084E+00 0.000E+00
 
     Adding external electric field

     Computed dipole along edir(3) : 
        Dipole                0.0191 Ry au,          0.0485 Debye
        Dipole field          0.0000 Ry au
 
        Potential amp.       -0.0036 Ry
        Total length         46.6305 bohr
 

     total cpu time spent up to now is      205.8 secs

     total energy              =   -1728.42665830 Ry
     Harris-Foulkes estimate   =   -1733.66188921 Ry
     estimated scf accuracy    <      88.48105831 Ry

     iteration #  3     ecut=    36.75 Ry     beta=0.10
     Davidson diagonalization with overlap
     ethr =  1.00E-02,  avg # of iterations =  3.5

     negative rho (up, down):  1.074E+00 0.000E+00
 
     Adding external electric field

     Computed dipole along edir(3) : 
        Dipole                1.1326 Ry au,          2.8787 Debye
        Dipole field          0.0023 Ry au
 
        Potential amp.       -0.2123 Ry
        Total length         46.6305 bohr
 

     total cpu time spent up to now is      258.9 secs

     total energy              =   -1729.19448261 Ry
     Harris-Foulkes estimate   =   -1731.74453689 Ry
     estimated scf accuracy    <      40.73441758 Ry

     iteration #  4     ecut=    36.75 Ry     beta=0.10
     Davidson diagonalization with overlap
     ethr =  1.00E-02,  avg # of iterations =  1.6

     negative rho (up, down):  1.048E+00 0.000E+00
 
     Adding external electric field

     Computed dipole along edir(3) : 
        Dipole               -0.0203 Ry au,         -0.0517 Debye
        Dipole field         -0.0000 Ry au
 
        Potential amp.        0.0038 Ry
        Total length         46.6305 bohr
 

     total cpu time spent up to now is      310.0 secs

     total energy              =   -1727.12246230 Ry
     Harris-Foulkes estimate   =   -1729.91872114 Ry
     estimated scf accuracy    <       9.95231887 Ry

     iteration #  5     ecut=    36.75 Ry     beta=0.10
     Davidson diagonalization with overlap
     ethr =  7.06E-03,  avg # of iterations =  1.1

     negative rho (up, down):  1.035E+00 0.000E+00
 
     Adding external electric field

     Computed dipole along edir(3) : 
        Dipole                1.4372 Ry au,          3.6531 Debye
        Dipole field          0.0029 Ry au
 
        Potential amp.       -0.2694 Ry
        Total length         46.6305 bohr
 

     total cpu time spent up to now is      358.3 secs

     total energy              =   -1725.56062960 Ry
     Harris-Foulkes estimate   =   -1727.74722291 Ry
     estimated scf accuracy    <      16.59077248 Ry

     iteration #  6     ecut=    36.75 Ry     beta=0.10
     Davidson diagonalization with overlap
     ethr =  7.06E-03,  avg # of iterations =  1.1

     negative rho (up, down):  1.009E+00 0.000E+00
 
     Adding external electric field

     Computed dipole along edir(3) : 
        Dipole               -0.1022 Ry au,         -0.2598 Debye
        Dipole field         -0.0002 Ry au
 
        Potential amp.        0.0192 Ry
        Total length         46.6305 bohr
 

     total cpu time spent up to now is      408.8 secs

     total energy              =   -1724.92466376 Ry
     Harris-Foulkes estimate   =   -1727.22375808 Ry
     estimated scf accuracy    <      28.76494502 Ry

     iteration #  7     ecut=    36.75 Ry     beta=0.10
     Davidson diagonalization with overlap
     ethr =  7.06E-03,  avg # of iterations =  1.3

     negative rho (up, down):  1.011E+00 0.000E+00
 
     Adding external electric field

     Computed dipole along edir(3) : 
        Dipole                0.3241 Ry au,          0.8237 Debye
        Dipole field          0.0007 Ry au
 
        Potential amp.       -0.0607 Ry
        Total length         46.6305 bohr
 

     total cpu time spent up to now is      461.8 secs

     total energy              =   -1725.74922951 Ry
     Harris-Foulkes estimate   =   -1725.96329353 Ry
     estimated scf accuracy    <       6.98960137 Ry

     iteration #  8     ecut=    36.75 Ry     beta=0.10
     Davidson diagonalization with overlap
     ethr =  4.96E-03,  avg # of iterations =  1.0

     negative rho (up, down):  1.016E+00 0.000E+00
 
     Adding external electric field

     Computed dipole along edir(3) : 
        Dipole                0.0734 Ry au,          0.1867 Debye
        Dipole field          0.0001 Ry au
 
        Potential amp.       -0.0138 Ry
        Total length         46.6305 bohr
 

     total cpu time spent up to now is      512.6 secs

     total energy              =   -1725.86355719 Ry
     Harris-Foulkes estimate   =   -1725.92988517 Ry
     estimated scf accuracy    <       1.37853298 Ry

     iteration #  9     ecut=    36.75 Ry     beta=0.10
     Davidson diagonalization with overlap
     ethr =  9.78E-04,  avg # of iterations =  8.1

     negative rho (up, down):  1.016E+00 0.000E+00
 
     Adding external electric field

     Computed dipole along edir(3) : 
        Dipole                0.1477 Ry au,          0.3755 Debye
        Dipole field          0.0003 Ry au
 
        Potential amp.       -0.0277 Ry
        Total length         46.6305 bohr
 

     total cpu time spent up to now is      572.2 secs

     total energy              =   -1725.90424433 Ry
     Harris-Foulkes estimate   =   -1725.91993625 Ry
     estimated scf accuracy    <       0.67561378 Ry

     iteration # 10     ecut=    36.75 Ry     beta=0.10
     Davidson diagonalization with overlap
     ethr =  4.79E-04,  avg # of iterations =  4.5

     negative rho (up, down):  1.020E+00 0.000E+00
 
     Adding external electric field

     Computed dipole along edir(3) : 
        Dipole                0.0703 Ry au,          0.1788 Debye
        Dipole field          0.0001 Ry au
 
        Potential amp.       -0.0132 Ry
        Total length         46.6305 bohr
 

     total cpu time spent up to now is      626.1 secs

     total energy              =   -1725.90853524 Ry
     Harris-Foulkes estimate   =   -1725.91592958 Ry
     estimated scf accuracy    <       0.02924238 Ry

     iteration # 11     ecut=    36.75 Ry     beta=0.10
     Davidson diagonalization with overlap
     ethr =  2.07E-05,  avg # of iterations =  8.4

     negative rho (up, down):  1.022E+00 0.000E+00
 
     Adding external electric field

     Computed dipole along edir(3) : 
        Dipole                0.0010 Ry au,          0.0026 Debye
        Dipole field          0.0000 Ry au
 
        Potential amp.       -0.0002 Ry
        Total length         46.6305 bohr
 

     total cpu time spent up to now is      708.0 secs

     total energy              =   -1725.90332468 Ry
     Harris-Foulkes estimate   =   -1725.91632647 Ry
     estimated scf accuracy    <       0.08583617 Ry

     iteration # 12     ecut=    36.75 Ry     beta=0.10
     Davidson diagonalization with overlap
     ethr =  2.07E-05,  avg # of iterations =  4.7

     negative rho (up, down):  1.022E+00 0.000E+00
 
     Adding external electric field

     Computed dipole along edir(3) : 
        Dipole                0.0123 Ry au,          0.0313 Debye
        Dipole field          0.0000 Ry au
 
        Potential amp.       -0.0023 Ry
        Total length         46.6305 bohr
 

     total cpu time spent up to now is      770.4 secs

     total energy              =   -1725.91223498 Ry
     Harris-Foulkes estimate   =   -1725.91563279 Ry
     estimated scf accuracy    <       0.10838778 Ry

     iteration # 13     ecut=    36.75 Ry     beta=0.10
     Davidson diagonalization with overlap
     ethr =  2.07E-05,  avg # of iterations =  1.0

     negative rho (up, down):  1.023E+00 0.000E+00
 
     Adding external electric field

     Computed dipole along edir(3) : 
        Dipole                0.0596 Ry au,          0.1514 Debye
        Dipole field          0.0001 Ry au
 
        Potential amp.       -0.0112 Ry
        Total length         46.6305 bohr
 

     total cpu time spent up to now is      823.1 secs

     total energy              =   -1725.90961373 Ry
     Harris-Foulkes estimate   =   -1725.91321664 Ry
     estimated scf accuracy    <       0.05483237 Ry

     iteration # 14     ecut=    36.75 Ry     beta=0.10
     Davidson diagonalization with overlap
     ethr =  2.07E-05,  avg # of iterations =  3.0

     negative rho (up, down):  1.023E+00 0.000E+00
 
     Adding external electric field

     Computed dipole along edir(3) : 
        Dipole                0.0248 Ry au,          0.0629 Debye
        Dipole field          0.0000 Ry au
 
        Potential amp.       -0.0046 Ry
        Total length         46.6305 bohr
 

     total cpu time spent up to now is      879.5 secs

     total energy              =   -1725.91184335 Ry
     Harris-Foulkes estimate   =   -1725.91273642 Ry
     estimated scf accuracy    <       0.03862621 Ry

     iteration # 15     ecut=    36.75 Ry     beta=0.10
     Davidson diagonalization with overlap
     ethr =  2.07E-05,  avg # of iterations =  1.0

     negative rho (up, down):  1.024E+00 0.000E+00
 
     Adding external electric field

     Computed dipole along edir(3) : 
        Dipole                0.0067 Ry au,          0.0170 Debye
        Dipole field          0.0000 Ry au
 
        Potential amp.       -0.0013 Ry
        Total length         46.6305 bohr
 

     total cpu time spent up to now is      933.6 secs

     total energy              =   -1725.91204134 Ry
     Harris-Foulkes estimate   =   -1725.91220074 Ry
     estimated scf accuracy    <       0.00318685 Ry

     iteration # 16     ecut=    36.75 Ry     beta=0.10
     Davidson diagonalization with overlap
     ethr =  2.26E-06,  avg # of iterations =  3.6

     negative rho (up, down):  1.024E+00 0.000E+00
 
     Adding external electric field

     Computed dipole along edir(3) : 
        Dipole                0.0135 Ry au,          0.0343 Debye
        Dipole field          0.0000 Ry au
 
        Potential amp.       -0.0025 Ry
        Total length         46.6305 bohr
 

     total cpu time spent up to now is      988.1 secs

     total energy              =   -1725.91210449 Ry
[...]
   -29.7494 -29.7351 -29.6898 -29.6269 -29.5663 -29.5112 -29.4828 -29.4263
   -29.3723 -29.3675 -29.3266 -29.3019 -29.2977 -29.2644 -29.2073 -21.4697
   -21.4471 -21.4384 -21.2438 -21.2343 -21.2244 -20.5889 -20.5548 -20.5443
    -3.4444  -2.6548  -2.1666  -1.8184  -1.4747  -1.0145  -0.8289  -0.4448
    -0.2776  -0.1345   0.1521   0.3097   0.4094   0.4758   0.5125   0.6113
     0.7732   0.8223   0.9131   1.0158   1.0775   1.1565   1.1739   1.2607
     1.3548   1.4081   1.5386   1.6377   1.6871   1.7454   1.8753   1.8932
     2.0064   2.1865   2.6587   2.7465   2.8355   2.9597   3.1961   3.2853
     3.4625   3.6427   3.7114   3.8057   3.8270   4.0076   4.0933   4.1680
     4.2686   4.3967   4.5254   4.8178

          k = 0.0513 0.0888 0.0000 ( 23574 PWs)   bands (ev):

   -61.3879 -61.3879 -61.3778 -61.1556 -61.1409 -61.1355 -60.8562 -60.8558
   -60.8461 -41.4715 -41.2300 -40.5040 -29.9687 -29.9626 -29.9539 -29.9356
   -29.9328 -29.9313 -29.8289 -29.8288 -29.8283 -29.7819 -29.7786 -29.7764
   -29.7511 -29.7373 -29.7032 -29.6235 -29.5743 -29.5019 -29.4641 -29.4530
   -29.3951 -29.3334 -29.3278 -29.3162 -29.2971 -29.2679 -29.2183 -21.4697
   -21.4451 -21.4437 -21.2438 -21.2313 -21.2313 -20.5889 -20.5516 -20.5515
    -2.8299  -2.7707  -2.4673  -1.6511  -1.4197  -1.4152  -0.2541  -0.2532
    -0.2015   0.0816   0.1320   0.2194   0.5053   0.6107   0.6688   0.6860
     0.7134   0.7394   0.7879   0.8258   1.0100   1.0224   1.1274   1.2514
     1.3286   1.3557   1.3768   1.5967   1.6126   1.6496   1.6556   1.7420
     1.8160   1.9714   2.7418   2.8608   2.9318   3.2311   3.2452   3.3680
     3.3832   3.4922   3.5292   3.5736   3.7968   4.0462   4.0857   4.3236
     4.3562   4.5733   4.5905   4.9645

          k = 0.0513-0.0592 0.0000 ( 23554 PWs)   bands (ev):

   -61.3913 -61.3846 -61.3778 -61.1564 -61.1401 -61.1355 -60.8593 -60.8527
   -60.8460 -41.4715 -41.2300 -40.5039 -29.9925 -29.9737 -29.9570 -29.9444
   -29.9353 -29.8857 -29.8725 -29.8458 -29.8054 -29.7892 -29.7802 -29.7635
   -29.7494 -29.7351 -29.6898 -29.6269 -29.5663 -29.5112 -29.4828 -29.4263
   -29.3723 -29.3676 -29.3266 -29.3019 -29.2977 -29.2644 -29.2073 -21.4697
   -21.4471 -21.4384 -21.2438 -21.2343 -21.2244 -20.5889 -20.5548 -20.5443
    -3.4444  -2.6548  -2.1666  -1.8184  -1.4747  -1.0145  -0.8289  -0.4448
    -0.2776  -0.1345   0.1521   0.3097   0.4094   0.4758   0.5125   0.6113
     0.7732   0.8223   0.9131   1.0158   1.0775   1.1565   1.1739   1.2607
     1.3548   1.4081   1.5386   1.6377   1.6871   1.7454   1.8753   1.8932
     2.0064   2.1865   2.6587   2.7465   2.8355   2.9597   3.1961   3.2853
     3.4625   3.6427   3.7114   3.8057   3.8270   4.0076   4.0933   4.1680
     4.2686   4.3967   4.5254   4.8179

          k = 0.0513-0.0296 0.0000 ( 23516 PWs)   bands (ev):

   -61.3937 -61.3821 -61.3778 -61.1577 -61.1387 -61.1356 -60.8617 -60.8503
   -60.8460 -41.4714 -41.2299 -40.5038 -30.0157 -29.9824 -29.9547 -29.9453
   -29.9427 -29.9355 -29.8673 -29.8347 -29.8070 -29.7875 -29.7758 -29.7610
   -29.7475 -29.7394 -29.6767 -29.6117 -29.5526 -29.5325 -29.4762 -29.4261
   -29.3974 -29.3335 -29.3222 -29.2997 -29.2948 -29.2517 -29.1966 -21.4698
   -21.4443 -21.4346 -21.2437 -21.2312 -21.2200 -20.5889 -20.5515 -20.5396
    -3.9360  -2.7520  -2.2429  -1.5036  -1.4302  -1.2638  -0.8416  -0.7775
    -0.5944  -0.3614  -0.0709   0.0811   0.1904   0.2506   0.2994   0.6428
     0.7414   0.7926   1.0730   1.2319   1.2710   1.2955   1.3567   1.5033
     1.5304   1.6497   1.7120   1.8781   1.9483   2.0306   2.1544   2.1561
     2.2594   2.4824   2.4829   2.6649   2.7425   2.9413   3.1751   3.2004
     3.2770   3.4632   3.6450   3.7606   3.8042   4.0915   4.1763   4.2100
     4.4554   4.5456   4.6527   4.8180

          k = 0.0513 0.0000 0.0000 ( 23506 PWs)   bands (ev):

   -61.3946 -61.3812 -61.3778 -61.1584 -61.1381 -61.1356 -60.8626 -60.8494
   -60.8460 -41.4714 -41.2298 -40.5038 -30.0153 -29.9854 -29.9799 -29.9491
   -29.9432 -29.9374 -29.8728 -29.8263 -29.8056 -29.8025 -29.7804 -29.7536
   -29.7421 -29.7283 -29.6786 -29.6044 -29.5555 -29.5229 -29.4788 -29.4320
   -29.4035 -29.3290 -29.3116 -29.3006 -29.2927 -29.2366 -29.1991 -21.4699
   -21.4410 -21.4346 -21.2436 -21.2274 -21.2199 -20.5889 -20.5476 -20.5396
    -4.1094  -2.8845  -1.8879  -1.8327  -1.4912  -1.1934  -1.0924  -0.7142
    -0.6304  -0.3485  -0.3329  -0.0480   0.1082   0.1466   0.2047   0.6198
     0.7423   0.7508   1.1516   1.3068   1.3347   1.3992   1.4915   1.5582
     1.6420   1.7112   1.8846   2.0099   2.0710   2.0937   2.1979   2.2391
     2.3629   2.5557   2.6117   2.6881   2.7792   2.9277   3.1221   3.1422
     3.2213   3.4174   3.5452   3.6970   3.8067   4.1060   4.2526   4.3506
     4.4354   4.5954   4.7849   4.8806

          k =-0.0769-0.0444 0.0000 ( 23492 PWs)   bands (ev):

   -61.3913 -61.3846 -61.3778 -61.1564 -61.1401 -61.1355 -60.8593 -60.8527
   -60.8460 -41.4715 -41.2300 -40.5039 -30.0086 -29.9733 -29.9586 -29.9361
   -29.9027 -29.8892 -29.8699 -29.8550 -29.8305 -29.7962 -29.7682 -29.7599
   -29.7486 -29.7321 -29.6804 -29.6308 -29.5819 -29.5129 -29.4764 -29.3969
   -29.3766 -29.3643 -29.3552 -29.2980 -29.2974 -29.2704 -29.1988 -21.4697
   -21.4493 -21.4363 -21.2438 -21.2369 -21.2219 -20.5889 -20.5575 -20.5416
    -3.2429  -3.0695  -2.0135  -1.9066  -1.1321  -1.0305  -0.8253  -0.5153
    -0.3780  -0.3257   0.3390   0.3731   0.4628   0.5706   0.6038   0.7076
     0.7502   0.7737   0.9446   1.0059   1.0232   1.0495   1.1408   1.2979
     1.3111   1.4037   1.5054   1.5173   1.6195   1.6977   1.9278   2.0047
     2.0302   2.2848   2.4950   2.6431   2.7714   2.8959   3.2968   3.4145
     3.4157   3.6067   3.8449   3.8873   3.9495   4.0727   4.1104   4.1751
     4.2428   4.3659   4.4436   4.6280

          k =-0.0769-0.0148 0.0000 ( 23554 PWs)   bands (ev):

   -61.3913 -61.3846 -61.3778 -61.1564 -61.1401 -61.1356 -60.8593 -60.8527
   -60.8460 -41.4715 -41.2300 -40.5039 -29.9925 -29.9737 -29.9570 -29.9444
   -29.9353 -29.8857 -29.8725 -29.8458 -29.8054 -29.7892 -29.7802 -29.7636
   -29.7493 -29.7351 -29.6898 -29.6269 -29.5663 -29.5112 -29.4829 -29.4263
   -29.3723 -29.3676 -29.3265 -29.3019 -29.2977 -29.2644 -29.2073 -21.4697
   -21.4471 -21.4384 -21.2438 -21.2343 -21.2244 -20.5889 -20.5548 -20.5443
    -3.4444  -2.6548  -2.1666  -1.8185  -1.4747  -1.0146  -0.8289  -0.4448
    -0.2776  -0.1345   0.1521   0.3097   0.4094   0.4757   0.5125   0.6113
     0.7732   0.8223   0.9131   1.0158   1.0775   1.1565   1.1739   1.2607
     1.3548   1.4081   1.5386   1.6377   1.6871   1.7454   1.8753   1.8932
     2.0064   2.1865   2.6588   2.7464   2.8355   2.9597   3.1962   3.2854
     3.4624   3.6427   3.7114   3.8057   3.8270   4.0077   4.0932   4.1680
     4.2686   4.3967   4.5254   4.8178

          k =-0.0769 0.0148 0.0000 ( 23554 PWs)   bands (ev):

   -61.3913 -61.3846 -61.3778 -61.1564 -61.1401 -61.1356 -60.8593 -60.8527
   -60.8460 -41.4715 -41.2300 -40.5039 -29.9925 -29.9737 -29.9570 -29.9444
   -29.9353 -29.8857 -29.8725 -29.8458 -29.8054 -29.7892 -29.7802 -29.7636
   -29.7493 -29.7351 -29.6898 -29.6269 -29.5663 -29.5112 -29.4829 -29.4263
   -29.3723 -29.3676 -29.3266 -29.3019 -29.2977 -29.2644 -29.2073 -21.4697
   -21.4471 -21.4384 -21.2438 -21.2343 -21.2244 -20.5889 -20.5548 -20.5443
    -3.4444  -2.6548  -2.1666  -1.8184  -1.4747  -1.0146  -0.8289  -0.4448
    -0.2776  -0.1345   0.1521   0.3097   0.4094   0.4757   0.5125   0.6113
     0.7732   0.8223   0.9131   1.0158   1.0775   1.1565   1.1739   1.2607
     1.3548   1.4081   1.5386   1.6377   1.6871   1.7454   1.8753   1.8932
     2.0064   2.1865   2.6588   2.7464   2.8355   2.9597   3.1962   3.2854
     3.4624   3.6427   3.7114   3.8057   3.8270   4.0077   4.0932   4.1680
     4.2686   4.3967   4.5254   4.8178

          k =-0.0769-0.1332 0.0000 ( 23492 PWs)   bands (ev):

   -61.3913 -61.3846 -61.3778 -61.1564 -61.1401 -61.1355 -60.8593 -60.8527
   -60.8460 -41.4715 -41.2300 -40.5039 -30.0086 -29.9733 -29.9586 -29.9361
   -29.9027 -29.8892 -29.8699 -29.8550 -29.8305 -29.7962 -29.7682 -29.7599
   -29.7486 -29.7321 -29.6804 -29.6309 -29.5819 -29.5129 -29.4764 -29.3969
   -29.3766 -29.3643 -29.3552 -29.2980 -29.2974 -29.2705 -29.1988 -21.4697
   -21.4493 -21.4363 -21.2438 -21.2369 -21.2219 -20.5889 -20.5575 -20.5416
    -3.2429  -3.0695  -2.0135  -1.9066  -1.1321  -1.0305  -0.8253  -0.5153
    -0.3780  -0.3257   0.3390   0.3731   0.4628   0.5706   0.6038   0.7076
     0.7502   0.7737   0.9446   1.0059   1.0232   1.0495   1.1408   1.2979
     1.3111   1.4037   1.5054   1.5173   1.6195   1.6977   1.9278   2.0047
     2.0302   2.2848   2.4950   2.6431   2.7714   2.8959   3.2969   3.4145
     3.4157   3.6067   3.8449   3.8873   3.9495   4.0727   4.1104   4.1751
     4.2428   4.3659   4.4437   4.6280

     the Fermi energy is     1.3487 ev

!    total energy              =   -1725.92495248 Ry
     Harris-Foulkes estimate   =   -1725.92495223 Ry
     estimated scf accuracy    <       0.00000026 Ry

     The total energy is the sum of the following terms:

     one-electron contribution =   -7771.29081939 Ry
     hartree contribution      =    3871.73402160 Ry
     xc contribution           =    -780.83136853 Ry
     ewald contribution        =    2954.57856692 Ry
     electric field correction =       0.00000396 Ry
     smearing contrib. (-TS)   =      -0.11535704 Ry

     convergence has been achieved in  22 iterations
 
 BEEF-vdW xc energy contributions
           1 :   -703.575570340023     
           2 :    651.898115663786     
           3 :   -560.453707984007     
           4 :    448.399291151600     
           5 :   -335.523056656405     
           6 :    236.621033383194     
           7 :   -159.073302967302     
           8 :    103.715988930722     
           9 :   -67.5916344814732     
          10 :    46.6074406085299     
          11 :   -36.8946550193109     
          12 :    34.8054244246911     
          13 :   -36.4357523624392     
          14 :    37.6187715012420     
          15 :   -34.7576630400981     
          16 :    26.0377415676733     
          17 :   -12.1923956263693     
          18 :   -3.78827965496794     
          19 :    17.9398003164421     
          20 :   -26.9658970653588     
          21 :    29.4262634684058     
          22 :   -25.9892652329736     
          23 :    18.8002847462218     
          24 :   -10.4611250946951     
          25 :    3.17624690739763     
          26 :    1.62302648057164     
          27 :   -3.24913917224330     
          28 :    1.60244306285983     
          29 :    2.87409116774120     
          30 :   -9.13193025958083     
          31 :   -52.1975274464321     
          32 :   -37.3101887660407     

     Forces acting on atoms (Ry/au):


     negative rho (up, down):  1.026E+00 0.000E+00
     atom    1 type  1   force =    -0.00000497   -0.00961152    0.02140466
     atom    2 type  1   force =    -0.00831022    0.00480736    0.02138445
     atom    3 type  1   force =     0.00830902    0.00481292    0.02138603
     atom    4 type  2   force =     0.00000436   -0.00001557   -0.01892721
     atom    5 type  1   force =     0.00000390    0.00273276   -0.00871785
     atom    6 type  1   force =     0.00235195   -0.00136950   -0.00867714
     atom    7 type  1   force =    -0.00235216   -0.00137297   -0.00867878
     atom    8 type  2   force =    -0.00000408   -0.00001034   -0.01863323
     atom    9 type  1   force =     0.00000595    0.00147968   -0.00064959
     atom   10 type  1   force =     0.00118438   -0.00071603   -0.00059240
     atom   11 type  1   force =    -0.00118453   -0.00072196   -0.00059562
     atom   12 type  2   force =    -0.00000359   -0.00001485    0.00129668

     Total force =     0.051115     Total SCF correction =     0.001502


     entering subroutine stress ...


     negative rho (up, down):  1.026E+00 0.000E+00
          total   stress  (Ry/bohr**3)                   (kbar)     P=   -9.24
  -0.00006669   0.00000000   0.00000000         -9.81      0.00      0.00
   0.00000000  -0.00006667   0.00000001          0.00     -9.81      0.00
   0.00000000   0.00000001  -0.00005518          0.00      0.00     -8.12

 !ASE

     Writing output data file calc.save
 
     init_run     :     22.76s CPU     33.98s WALL (       1 calls)
     electrons    :    855.11s CPU   1404.24s WALL (       1 calls)
     forces       :      3.70s CPU      4.60s WALL (       1 calls)
     stress       :      9.10s CPU     10.97s WALL (       1 calls)

     Called by init_run:
     wfcinit      :     19.98s CPU     30.34s WALL (       1 calls)
     potinit      :      1.44s CPU      2.13s WALL (       1 calls)

     Called by electrons:
     c_bands      :    649.55s CPU   1066.17s WALL (      22 calls)
     sum_band     :    127.34s CPU    217.38s WALL (      22 calls)
     v_of_rho     :     26.66s CPU     43.03s WALL (      23 calls)
     newd         :     11.65s CPU     12.09s WALL (      23 calls)
     mix_rho      :      1.09s CPU      1.85s WALL (      22 calls)
     vdW_energy   :      1.88s CPU      1.89s WALL (      59 calls)
     vdW_ffts     :     45.27s CPU     75.66s WALL (     120 calls)
     vdW_v        :      7.58s CPU     12.18s WALL (      59 calls)

     Called by c_bands:
     init_us_2    :      0.86s CPU      0.92s WALL (     940 calls)
     cegterg      :    639.00s CPU   1053.89s WALL (     440 calls)

     Called by *egterg:
     h_psi        :    512.46s CPU    911.55s WALL (    1878 calls)
     s_psi        :     10.32s CPU     10.58s WALL (    1878 calls)
     g_psi        :      0.44s CPU      0.44s WALL (    1418 calls)
     cdiaghg      :     79.44s CPU     83.29s WALL (    1858 calls)

     Called by h_psi:
     add_vuspsi   :     10.73s CPU     10.83s WALL (    1878 calls)

     General routines
     calbec       :     28.99s CPU     38.57s WALL (    2358 calls)
     fft          :     67.91s CPU    113.80s WALL (    3621 calls)
     ffts         :      0.22s CPU      0.40s WALL (      45 calls)
     fftw         :    578.36s CPU   1055.42s WALL (  249866 calls)
     interpolate  :      1.02s CPU      1.70s WALL (      45 calls)
     davcio       :      0.00s CPU      0.02s WALL (      20 calls)
 
     Parallel routines
     fft_scatter  :    622.96s CPU   1143.48s WALL (  253532 calls)
 
     PWSCF        : 14m51.69s CPU    24m15.53s WALL

 
   This run was terminated on:  10:12:55  26Dec2018            

=------------------------------------------------------------------------------=
   JOB DONE.
=------------------------------------------------------------------------------=
Job  /afs/slac/g/suncat/bin/suncat-tsmpirun -x LD_LIBRARY_PATH -wdir /scratch/qe109782_ho7Nu pw.x -in pw.inp

TID   HOST_NAME   COMMAND_LINE            STATUS            TERMINATION_TIME
===== ========== ================  =======================  ===================
00000 suncat0163 pw.x -in pw.inp   Done                     12/26/2018 10:12:55
00001 suncat0163 pw.x -in pw.inp   Done                     12/26/2018 10:12:55
00002 suncat0163 pw.x -in pw.inp   Done                     12/26/2018 10:12:55
00003 suncat0163 pw.x -in pw.inp   Done                     12/26/2018 10:12:55
00004 suncat0163 pw.x -in pw.inp   Done                     12/26/2018 10:12:55
00005 suncat0163 pw.x -in pw.inp   Done                     12/26/2018 10:12:55
00006 suncat0163 pw.x -in pw.inp   Done                     12/26/2018 10:12:55
00007 suncat0163 pw.x -in pw.inp   Done                     12/26/2018 10:12:55
00008 suncat0162 pw.x -in pw.inp   Done                     12/26/2018 10:12:55
00009 suncat0162 pw.x -in pw.inp   Done                     12/26/2018 10:12:55
00010 suncat0162 pw.x -in pw.inp   Done                     12/26/2018 10:12:55
00011 suncat0162 pw.x -in pw.inp   Done                     12/26/2018 10:12:55
00012 suncat0162 pw.x -in pw.inp   Done                     12/26/2018 10:12:55
00013 suncat0162 pw.x -in pw.inp   Done                     12/26/2018 10:12:55
00014 suncat0162 pw.x -in pw.inp   Done                     12/26/2018 10:12:55
00015 suncat0162 pw.x -in pw.inp   Done                     12/26/2018 10:12:55
00016 suncat0145 pw.x -in pw.inp   Done                     12/26/2018 10:12:55
00017 suncat0145 pw.x -in pw.inp   Done                     12/26/2018 10:12:55
00018 suncat0145 pw.x -in pw.inp   Done                     12/26/2018 10:12:55
00019 suncat0145 pw.x -in pw.inp   Done                     12/26/2018 10:12:55
00020 suncat0145 pw.x -in pw.inp   Done                     12/26/2018 10:12:55
00021 suncat0145 pw.x -in pw.inp   Done                     12/26/2018 10:12:55
00022 suncat0145 pw.x -in pw.inp   Done                     12/26/2018 10:12:55
00023 suncat0145 pw.x -in pw.inp   Done                     12/26/2018 10:12:55
00024 suncat0144 pw.x -in pw.inp   Done                     12/26/2018 10:12:55
00025 suncat0144 pw.x -in pw.inp   Done                     12/26/2018 10:12:55
00026 suncat0144 pw.x -in pw.inp   Done                     12/26/2018 10:12:55
00027 suncat0144 pw.x -in pw.inp   Done                     12/26/2018 10:12:55
00028 suncat0144 pw.x -in pw.inp   Done                     12/26/2018 10:12:55
00029 suncat0144 pw.x -in pw.inp   Done                     12/26/2018 10:12:55
00030 suncat0144 pw.x -in pw.inp   Done                     12/26/2018 10:12:55
00031 suncat0144 pw.x -in pw.inp   Done                     12/26/2018 10:12:55
00032 suncat0133 pw.x -in pw.inp   Done                     12/26/2018 10:12:55
00033 suncat0133 pw.x -in pw.inp   Done                     12/26/2018 10:12:55
00034 suncat0133 pw.x -in pw.inp   Done                     12/26/2018 10:12:55
00035 suncat0133 pw.x -in pw.inp   Done                     12/26/2018 10:12:55
00036 suncat0133 pw.x -in pw.inp   Done                     12/26/2018 10:12:55
00037 suncat0133 pw.x -in pw.inp   Done                     12/26/2018 10:12:55
00038 suncat0133 pw.x -in pw.inp   Done                     12/26/2018 10:12:55
00039 suncat0133 pw.x -in pw.inp   Done                     12/26/2018 10:12:55
00040 suncat0132 pw.x -in pw.inp   Done                     12/26/2018 10:12:55
00041 suncat0132 pw.x -in pw.inp   Done                     12/26/2018 10:12:55
00042 suncat0132 pw.x -in pw.inp   Done                     12/26/2018 10:12:55
00043 suncat0132 pw.x -in pw.inp   Done                     12/26/2018 10:12:55
00044 suncat0132 pw.x -in pw.inp   Done                     12/26/2018 10:12:55
00045 suncat0132 pw.x -in pw.inp   Done                     12/26/2018 10:12:55
00046 suncat0132 pw.x -in pw.inp   Done                     12/26/2018 10:12:55
00047 suncat0132 pw.x -in pw.inp   Done                     12/26/2018 10:12:55
00048 suncat0131 pw.x -in pw.inp   Done                     12/26/2018 10:12:55
00049 suncat0131 pw.x -in pw.inp   Done                     12/26/2018 10:12:55
00050 suncat0131 pw.x -in pw.inp   Done                     12/26/2018 10:12:55
00051 suncat0131 pw.x -in pw.inp   Done                     12/26/2018 10:12:55
00052 suncat0131 pw.x -in pw.inp   Done                     12/26/2018 10:12:55
00053 suncat0131 pw.x -in pw.inp   Done                     12/26/2018 10:12:55
00054 suncat0131 pw.x -in pw.inp   Done                     12/26/2018 10:12:55
00055 suncat0131 pw.x -in pw.inp   Done                     12/26/2018 10:12:55
00056 suncat0130 pw.x -in pw.inp   Done                     12/26/2018 10:12:55
00057 suncat0130 pw.x -in pw.inp   Done                     12/26/2018 10:12:55
00058 suncat0130 pw.x -in pw.inp   Done                     12/26/2018 10:12:55
00059 suncat0130 pw.x -in pw.inp   Done                     12/26/2018 10:12:55
00060 suncat0130 pw.x -in pw.inp   Done                     12/26/2018 10:12:55
00061 suncat0130 pw.x -in pw.inp   Done                     12/26/2018 10:12:55
00062 suncat0130 pw.x -in pw.inp   Done                     12/26/2018 10:12:55
00063 suncat0130 pw.x -in pw.inp   Done                     12/26/2018 10:12:55
