  python dir          : /u/if/mamunm/src/espresso
  espresso dir        : /nfs/slac/g/suncatfs/sw/espv18/espresso-dynpy-beef/bin
  pseudo dir          : /afs/slac.stanford.edu/u/if/mamunm/psp/gbrv1.5pbe
  ase-espresso py git : GITVERSION



     Program PWSCF v.5.1rc2 (svn rev. 11289) starts on  2Jan2019 at  4:52:10 

     This program is part of the open-source Quantum ESPRESSO suite
     for quantum simulation of materials; please cite
         "P. Giannozzi et al., J. Phys.:Condens. Matter 21 395502 (2009);
          URL http://www.quantum-espresso.org", 
     in publications or presentations arising from this work. More details at
     http://www.quantum-espresso.org/quote

     Parallel version (MPI), running on    64 processors
     R & G space division:  proc/nbgrp/npool/nimage =      64
     Reading input from pw.inp
     Message from routine read_cards :
     DEPRECATED: no units specified in CELL_PARAMETERS card

     Current dimensions of program PWSCF are:
     Max number of different atomic species (ntypx) = 10
     Max number of k-points (npk) =  40000
     Max angular momentum in pseudopotentials (lmaxx) =  3
     Presently stress not available with electric field


     **************************************************************************
     Initializing libbeef V0.1.1 with the BEEF-vdW functional.
     Citation: Wellendorff et al., PRB 85, 235149 (2012).
     **************************************************************************


     IMPORTANT: XC functional enforced from input :
     Exchange-correlation      = BEEF-VDW ( 1  4 27 13 2)
     Any further DFT definition will be discarded
     Please, verify this is what you really want


     Subspace diagonalization in iterative solution of the eigenvalue problem:
     a serial algorithm will be used

 
     Parallelization info
     --------------------
     sticks:   dense  smooth     PW     G-vecs:    dense   smooth      PW
     Min          42      16      4                 7994     1982     308
     Max          43      17      5                 8023     2045     343
     Sum        2713    1075    313               512323   129245   21363
 


     bravais-lattice index     =            0
     lattice parameter (alat)  =       1.8897  a.u.
     unit-cell volume          =    4305.2917 (a.u.)^3
     number of atoms/cell      =           12
     number of atomic types    =            2
     number of electrons       =       159.00
     number of Kohn-Sham states=          109
     kinetic-energy cutoff     =      36.7493  Ry
     charge density cutoff     =     367.4932  Ry
     convergence threshold     =      1.0E-06
     mixing beta               =       0.1000
     number of iterations used =           10  plain     mixing
     Exchange-correlation      = BEEF-VDW ( 1  4 27 13 2)
     nstep                     =           50


     celldm(1)=   1.889726  celldm(2)=   0.000000  celldm(3)=   0.000000
     celldm(4)=   0.000000  celldm(5)=   0.000000  celldm(6)=   0.000000

     crystal axes: (cart. coord. in units of alat)
               a(1) = (   5.485796   0.000000   0.000000 )  
               a(2) = (  -2.742898   4.750839   0.000000 )  
               a(3) = (   0.000000   0.000000  24.479134 )  

     reciprocal axes: (cart. coord. in units 2 pi/alat)
               b(1) = (  0.182289  0.105245  0.000000 )  
               b(2) = (  0.000000  0.210489  0.000000 )  
               b(3) = (  0.000000  0.000000  0.040851 )  


     PseudoPot. # 1 for V  read from file:
     /afs/slac.stanford.edu/u/if/mamunm/psp/gbrv1.5pbe/V.UPF
     MD5 check sum: 22b79981416ebb76fdaf5b1b8640f6fb
     Pseudo is Ultrasoft + core correction, Zval = 13.0
     Generated by new atomic code, or converted to UPF format
     Using radial grid of  853 points,  6 beta functions with: 
                l(1) =   0
                l(2) =   0
                l(3) =   1
                l(4) =   1
                l(5) =   2
                l(6) =   2
     Q(r) pseudized with  8 coefficients,  rinner =    1.100   1.100   1.100
                                                       1.100   1.100

     PseudoPot. # 2 for Mo read from file:
     /afs/slac.stanford.edu/u/if/mamunm/psp/gbrv1.5pbe/Mo.UPF
     MD5 check sum: 30c4dcd161f5d35cd49bb5239c51a633
     Pseudo is Ultrasoft + core correction, Zval = 14.0
     Generated by new atomic code, or converted to UPF format
     Using radial grid of  889 points,  6 beta functions with: 
                l(1) =   0
                l(2) =   0
                l(3) =   1
                l(4) =   1
                l(5) =   2
                l(6) =   2
     Q(r) pseudized with  6 coefficients,  rinner =    1.000   1.000   1.000
                                                       1.000   1.000

     vdW kernel table read from file vdW_kernel_table
     MD5 check sum: 095c7af220d748ca6e76c0b4c6cfb241

     atomic species   valence    mass     pseudopotential
        V1            13.00    50.94150     V ( 1.00)
        Mo1           14.00    95.95000     Mo( 1.00)

     No symmetry found



   Cartesian axes

     site n.     atom                  positions (alat units)
         1           V1  tau(   1) = (   0.0000000   0.0000000  10.0000000  )
         2           V1  tau(   2) = (  -1.3714490   2.3754193  10.0000000  )
         3           V1  tau(   3) = (   1.3714490   2.3754193  10.0000000  )
         4           Mo1 tau(   4) = (   2.7428980   0.0000000  10.0000000  )
         5           V1  tau(   5) = (   2.7428980   1.5836129  12.2395668  )
         6           V1  tau(   6) = (   1.3714490   3.9590322  12.2395668  )
         7           V1  tau(   7) = (  -1.3714490   3.9590322  12.2395668  )
         8           Mo1 tau(   8) = (   0.0000000   1.5836129  12.2395668  )
         9           V1  tau(   9) = (  -0.0000000   3.1672258  14.4791337  )
        10           V1  tau(  10) = (   1.3714490   0.7918064  14.4791337  )
        11           V1  tau(  11) = (   4.1143470   0.7918064  14.4791337  )
        12           Mo1 tau(  12) = (   2.7428980   3.1672258  14.4791337  )

     number of k points=    20  Fermi-Dirac smearing, width (Ry)=  0.0110
                       cart. coord. in units 2pi/alat
        k(    1) = (   0.0000000   0.0000000   0.0000000), wk =   0.0555556
        k(    2) = (   0.0000000   0.0350815   0.0000000), wk =   0.1111111
        k(    3) = (   0.0000000   0.0701631   0.0000000), wk =   0.1111111
        k(    4) = (   0.0000000  -0.1052446   0.0000000), wk =   0.0555556
        k(    5) = (   0.0303815   0.0175408   0.0000000), wk =   0.1111111
        k(    6) = (   0.0303815   0.0526223   0.0000000), wk =   0.1111111
        k(    7) = (   0.0303815   0.0877038   0.0000000), wk =   0.1111111
        k(    8) = (   0.0303815  -0.0877038   0.0000000), wk =   0.1111111
        k(    9) = (   0.0303815  -0.0526223   0.0000000), wk =   0.1111111
        k(   10) = (   0.0303815  -0.0175408   0.0000000), wk =   0.1111111
        k(   11) = (   0.0607630   0.0350815   0.0000000), wk =   0.1111111
        k(   12) = (   0.0607630   0.0701631   0.0000000), wk =   0.1111111
        k(   13) = (   0.0607630   0.1052446   0.0000000), wk =   0.1111111
        k(   14) = (   0.0607630  -0.0701631   0.0000000), wk =   0.1111111
        k(   15) = (   0.0607630  -0.0350815   0.0000000), wk =   0.1111111
        k(   16) = (   0.0607630   0.0000000   0.0000000), wk =   0.1111111
        k(   17) = (  -0.0911445  -0.0526223   0.0000000), wk =   0.0555556
        k(   18) = (  -0.0911445  -0.0175408   0.0000000), wk =   0.1111111
        k(   19) = (  -0.0911445   0.0175408   0.0000000), wk =   0.1111111
        k(   20) = (  -0.0911445  -0.1578669   0.0000000), wk =   0.0555556

     Dense  grid:   512323 G-vectors     FFT dimensions: (  64,  64, 288)

     Smooth grid:   129245 G-vectors     FFT dimensions: (  45,  45, 180)

     Largest allocated arrays     est. size (Mb)     dimensions
        Kohn-Sham Wavefunctions         0.43 Mb     (     260,  109)
        NL pseudopotentials             0.86 Mb     (     260,  216)
        Each V/rho on FFT grid          0.31 Mb     (   20480)
        Each G-vector array             0.06 Mb     (    8023)
        G-vector shells                 0.03 Mb     (    3794)
     Largest temporary arrays     est. size (Mb)     dimensions
        Auxiliary wavefunctions         1.73 Mb     (     260,  436)
        Each subspace H/S matrix        2.90 Mb     (     436,  436)
        Each <psi_i|beta_j> matrix      0.36 Mb     (     216,  109)
        Arrays for rho mixing           3.12 Mb     (   20480,   10)

     Initial potential from superposition of free atoms
     Check: negative starting charge=   -0.008728

     starting charge  158.98576, renormalised to  159.00000

     negative rho (up, down):  8.729E-03 0.000E+00


     ************************************************************************
     *
     * You are using vdW-DF for exchange-correlation in this calculation.
     * Please cite the following three references that made this development
     * possible:
     *
     *   M. Dion, H. Rydberg, E. Schroder, D. C. Langreth, and
     *   B. I. Lundqvist, Phys. Rev. Lett. 92, 246401 (2004).
     *
     *   T. Thonhauser, V. R. Cooper, S. Li, A. Puzder, P. Hyldgaard, and
     *   D. C. Langreth, Phys. Rev. B 76, 125112 (2007).
     *
     *   G. Roman-Perez and J. M. Soler, Phys. Rev. Lett. 103, 096102 (2009).
     *
     *
     * If you are using vdW-DF2, please also cite:
     *
     *   K. Lee, E. D. Murray, L. Kong, B. I. Lundqvist, and
     *   D. C. Langreth, Phys. Rev. B 82, 081101(R) (2010).
     *
     *
     * If you are calculating the stress with vdW-DF, please also cite:
     *
     *   R. Sabatini, E. Kucukbenli, B. Kolb, T. Thonhauser, and
     *   S. de Gironcoli, J. Phys.: Condens. Matter 24, 424209 (2012).
     *
     ************************************************************************

     Carrying out vdW-DF run using the following parameters:

     Nqs =      20    Nr_points =    1024   r_max =   100.000
     q_mesh =
               0.00001000     0.04494208     0.09755937     0.15916263
               0.23128650     0.31572767     0.41458969     0.53033537
               0.66584808     0.82450364     1.01025438     1.22772762
               1.48234092     1.78043706     2.12944203     2.53805004
               3.01644009     3.57652955     4.23227104     5.00000000

     Gradients computed in reciprocal space

     ************************************************************************


 
     Adding external electric field

     Computed dipole along edir(3) : 
        Dipole               -0.0000 Ry au,         -0.0000 Debye
        Dipole field         -0.0000 Ry au
 
        Potential amp.        0.0000 Ry
        Total length         45.1024 bohr
 
     Starting wfc are  129 randomized atomic wfcs

     total cpu time spent up to now is       23.7 secs

     per-process dynamical memory:    34.2 Mb

     Self-consistent Calculation

     iteration #  1     ecut=    36.75 Ry     beta=0.10
     Davidson diagonalization with overlap
     ethr =  1.00E-02,  avg # of iterations =  2.2

     negative rho (up, down):  9.023E-03 0.000E+00
 
     Adding external electric field

     Computed dipole along edir(3) : 
        Dipole                0.0001 Ry au,          0.0002 Debye
        Dipole field          0.0000 Ry au
 
        Potential amp.       -0.0000 Ry
        Total length         45.1024 bohr
 

     total cpu time spent up to now is       74.6 secs

     total energy              =   -1730.13823863 Ry
     Harris-Foulkes estimate   =   -1732.15249380 Ry
     estimated scf accuracy    <      11.10345018 Ry

     iteration #  2     ecut=    36.75 Ry     beta=0.10
     Davidson diagonalization with overlap
     ethr =  6.98E-03,  avg # of iterations =  2.8

     negative rho (up, down):  9.092E-03 0.000E+00
 
     Adding external electric field

     Computed dipole along edir(3) : 
        Dipole               -0.0010 Ry au,         -0.0024 Debye
        Dipole field         -0.0000 Ry au
 
        Potential amp.        0.0003 Ry
        Total length         45.1024 bohr
 

     total cpu time spent up to now is      120.3 secs

     total energy              =   -1730.84027725 Ry
     Harris-Foulkes estimate   =   -1732.65062646 Ry
     estimated scf accuracy    <      24.10370785 Ry

     iteration #  3     ecut=    36.75 Ry     beta=0.10
     Davidson diagonalization with overlap
     ethr =  6.98E-03,  avg # of iterations =  1.2

     negative rho (up, down):  9.719E-03 0.000E+00
 
     Adding external electric field

     Computed dipole along edir(3) : 
        Dipole                0.0162 Ry au,          0.0412 Debye
        Dipole field          0.0000 Ry au
 
        Potential amp.       -0.0043 Ry
        Total length         45.1024 bohr
 

     total cpu time spent up to now is      162.8 secs

     total energy              =   -1731.34079336 Ry
     Harris-Foulkes estimate   =   -1731.55651854 Ry
     estimated scf accuracy    <       1.18049493 Ry

     iteration #  4     ecut=    36.75 Ry     beta=0.10
     Davidson diagonalization with overlap
     ethr =  7.42E-04,  avg # of iterations =  4.5

     negative rho (up, down):  1.011E-02 0.000E+00
 
     Adding external electric field

     Computed dipole along edir(3) : 
        Dipole               -0.1819 Ry au,         -0.4622 Debye
        Dipole field         -0.0005 Ry au
 
        Potential amp.        0.0479 Ry
        Total length         45.1024 bohr
 

     total cpu time spent up to now is      216.2 secs

     total energy              =   -1731.39179238 Ry
     Harris-Foulkes estimate   =   -1731.47580159 Ry
     estimated scf accuracy    <       1.11228342 Ry

     iteration #  5     ecut=    36.75 Ry     beta=0.10
     Davidson diagonalization with overlap
     ethr =  7.00E-04,  avg # of iterations =  1.0

     negative rho (up, down):  1.015E-02 0.000E+00
 
     Adding external electric field

     Computed dipole along edir(3) : 
        Dipole                0.0236 Ry au,          0.0600 Debye
        Dipole field          0.0001 Ry au
 
        Potential amp.       -0.0062 Ry
        Total length         45.1024 bohr
 

     total cpu time spent up to now is      257.3 secs

     total energy              =   -1731.35141094 Ry
     Harris-Foulkes estimate   =   -1731.49367081 Ry
     estimated scf accuracy    <       9.19916071 Ry

     iteration #  6     ecut=    36.75 Ry     beta=0.10
     Davidson diagonalization with overlap
     ethr =  7.00E-04,  avg # of iterations =  1.0

     negative rho (up, down):  1.021E-02 0.000E+00
 
     Adding external electric field

     Computed dipole along edir(3) : 
        Dipole                0.0018 Ry au,          0.0046 Debye
        Dipole field          0.0000 Ry au
 
        Potential amp.       -0.0005 Ry
        Total length         45.1024 bohr
 

     total cpu time spent up to now is      300.7 secs

     total energy              =   -1731.40059804 Ry
     Harris-Foulkes estimate   =   -1731.43033585 Ry
     estimated scf accuracy    <       0.29442739 Ry

     iteration #  7     ecut=    36.75 Ry     beta=0.10
     Davidson diagonalization with overlap
     ethr =  1.85E-04,  avg # of iterations =  3.4

     negative rho (up, down):  1.059E-02 0.000E+00
 
     Adding external electric field

     Computed dipole along edir(3) : 
        Dipole                0.0006 Ry au,          0.0015 Debye
        Dipole field          0.0000 Ry au
 
        Potential amp.       -0.0002 Ry
        Total length         45.1024 bohr
 

     total cpu time spent up to now is      342.6 secs

     total energy              =   -1731.41444972 Ry
     Harris-Foulkes estimate   =   -1731.43792872 Ry
     estimated scf accuracy    <       0.33991398 Ry

     iteration #  8     ecut=    36.75 Ry     beta=0.10
     Davidson diagonalization with overlap
     ethr =  1.85E-04,  avg # of iterations =  1.0

     negative rho (up, down):  1.135E-02 0.000E+00
 
     Adding external electric field

     Computed dipole along edir(3) : 
        Dipole               -0.0004 Ry au,         -0.0011 Debye
        Dipole field         -0.0000 Ry au
 
        Potential amp.        0.0001 Ry
        Total length         45.1024 bohr
 

     total cpu time spent up to now is      386.4 secs

     total energy              =   -1731.40996622 Ry
     Harris-Foulkes estimate   =   -1731.42025668 Ry
     estimated scf accuracy    <       0.10432635 Ry

     iteration #  9     ecut=    36.75 Ry     beta=0.10
     Davidson diagonalization with overlap
     ethr =  6.56E-05,  avg # of iterations =  1.7

     negative rho (up, down):  1.136E-02 0.000E+00
 
     Adding external electric field

     Computed dipole along edir(3) : 
        Dipole                0.0003 Ry au,          0.0007 Debye
        Dipole field          0.0000 Ry au
 
        Potential amp.       -0.0001 Ry
        Total length         45.1024 bohr
 

     total cpu time spent up to now is      432.4 secs

     total energy              =   -1731.41442391 Ry
     Harris-Foulkes estimate   =   -1731.41507547 Ry
     estimated scf accuracy    <       0.02228773 Ry

     iteration # 10     ecut=    36.75 Ry     beta=0.10
     Davidson diagonalization with overlap
     ethr =  1.40E-05,  avg # of iterations =  4.5

     negative rho (up, down):  1.148E-02 0.000E+00
 
     Adding external electric field

     Computed dipole along edir(3) : 
        Dipole                0.0006 Ry au,          0.0014 Debye
        Dipole field          0.0000 Ry au
 
        Potential amp.       -0.0001 Ry
        Total length         45.1024 bohr
 

     total cpu time spent up to now is      486.6 secs

     total energy              =   -1731.41567241 Ry
     Harris-Foulkes estimate   =   -1731.41546944 Ry
     estimated scf accuracy    <       0.00687900 Ry

     iteration # 11     ecut=    36.75 Ry     beta=0.10
     Davidson diagonalization with overlap
     ethr =  4.33E-06,  avg # of iterations =  5.3

     negative rho (up, down):  1.167E-02 0.000E+00
 
     Adding external electric field

     Computed dipole along edir(3) : 
        Dipole                0.0001 Ry au,          0.0001 Debye
        Dipole field          0.0000 Ry au
 
        Potential amp.       -0.0000 Ry
        Total length         45.1024 bohr
 

     total cpu time spent up to now is      537.9 secs

     total energy              =   -1731.41589770 Ry
     Harris-Foulkes estimate   =   -1731.41623148 Ry
     estimated scf accuracy    <       0.00957658 Ry

     iteration # 12     ecut=    36.75 Ry     beta=0.10
     Davidson diagonalization with overlap
     ethr =  4.33E-06,  avg # of iterations =  1.9

     negative rho (up, down):  1.176E-02 0.000E+00
 
     Adding external electric field

     Computed dipole along edir(3) : 
        Dipole               -0.0003 Ry au,         -0.0007 Debye
        Dipole field         -0.0000 Ry au
 
        Potential amp.        0.0001 Ry
        Total length         45.1024 bohr
 

     total cpu time spent up to now is      581.8 secs

     total energy              =   -1731.41624113 Ry
     Harris-Foulkes estimate   =   -1731.41623906 Ry
     estimated scf accuracy    <       0.00128848 Ry

     iteration # 13     ecut=    36.75 Ry     beta=0.10
     Davidson diagonalization with overlap
     ethr =  8.10E-07,  avg # of iterations =  3.2

     negative rho (up, down):  1.177E-02 0.000E+00
 
     Adding external electric field

     Computed dipole along edir(3) : 
        Dipole               -0.0001 Ry au,         -0.0003 Debye
        Dipole field         -0.0000 Ry au
 
        Potential amp.        0.0000 Ry
        Total length         45.1024 bohr
 

     total cpu time spent up to now is      632.6 secs

     total energy              =   -1731.41635185 Ry
     Harris-Foulkes estimate   =   -1731.41643329 Ry
     estimated scf accuracy    <       0.00139425 Ry

     iteration # 14     ecut=    36.75 Ry     beta=0.10
     Davidson diagonalization with overlap
     ethr =  8.10E-07,  avg # of iterations =  1.0

     negative rho (up, down):  1.180E-02 0.000E+00
 
     Adding external electric field

     Computed dipole along edir(3) : 
        Dipole                0.0004 Ry au,          0.0011 Debye
        Dipole field          0.0000 Ry au
 
        Potential amp.       -0.0001 Ry
        Total length         45.1024 bohr
 

     total cpu time spent up to now is      676.6 secs

     total energy              =   -1731.41642533 Ry
     Harris-Foulkes estimate   =   -1731.41639837 Ry
     estimated scf accuracy    <       0.00014540 Ry

     iteration # 15     ecut=    36.75 Ry     beta=0.10
     Davidson diagonalization with overlap
     ethr =  9.14E-08,  avg # of iterations =  3.9

     negative rho (up, down):  1.179E-02 0.000E+00
 
     Adding external electric field

     Computed dipole along edir(3) : 
        Dipole                0.0002 Ry au,          0.0005 Debye
        Dipole field          0.0000 Ry au
 
        Potential amp.       -0.0001 Ry
        Total length         45.1024 bohr
 

     total cpu time spent up to now is      731.9 secs

     total energy              =   -1731.41643730 Ry
     Harris-Foulkes estimate   =   -1731.41645839 Ry
     estimated scf accuracy    <       0.00015825 Ry

     iteration # 16     ecut=    36.75 Ry     beta=0.10
     Davidson diagonalization with overlap
     ethr =  9.14E-08,  avg # of iterations =  1.0

     negative rho (up, down):  1.178E-02 0.000E+00
 
     Adding external electric field

     Computed dipole along edir(3) : 
        Dipole               -0.0006 Ry au,         -0.0016 Debye
        Dipole field         -0.0000 Ry au
 
        Potential amp.        0.0002 Ry
        Total length         45.1024 bohr
 

     total cpu time spent up to now is      770.8 secs

     total energy              =   -1731.41644968 Ry
     Harris-Foulkes estimate   =   -1731.41644740 Ry
     estimated scf accuracy    <       0.00004791 Ry

     iteration # 17     ecut=    36.75 Ry     beta=0.10
     Davidson diagonalization with overlap
     ethr =  3.01E-08,  avg # of iterations =  2.9

     negative rho (up, down):  1.177E-02 0.000E+00
 
     Adding external electric field

     Computed dipole along edir(3) : 
        Dipole                0.0002 Ry au,          0.0006 Debye
        Dipole field          0.0000 Ry au
 
        Potential amp.       -0.0001 Ry
        Total length         45.1024 bohr
 

     total cpu time spent up to now is      822.1 secs

     total energy              =   -1731.41645393 Ry
     Harris-Foulkes estimate   =   -1731.41645618 Ry
     estimated scf accuracy    <       0.00015172 Ry

     iteration # 18     ecut=    36.75 Ry     beta=0.10
     Davidson diagonalization with overlap
     ethr =  3.01E-08,  avg # of iterations =  1.0

     negative rho (up, down):  1.176E-02 0.000E+00
 
     Adding external electric field

     Computed dipole along edir(3) : 
        Dipole               -0.0000 Ry au,         -0.0000 Debye
        Dipole field         -0.0000 Ry au
 
        Potential amp.        0.0000 Ry
        Total length         45.1024 bohr
 

     total cpu time spent up to now is      867.2 secs

     total energy              =   -1731.41645453 Ry
     Harris-Foulkes estimate   =   -1731.41645567 Ry
     estimated scf accuracy    <       0.00002923 Ry

     iteration # 19     ecut=    36.75 Ry     beta=0.10
     Davidson diagonalization with overlap
     ethr =  1.84E-08,  avg # of iterations =  1.2

     negative rho (up, down):  1.175E-02 0.000E+00
 
     Adding external electric field

     Computed dipole along edir(3) : 
        Dipole               -0.0001 Ry au,         -0.0001 Debye
        Dipole field         -0.0000 Ry au
 
        Potential amp.        0.0000 Ry
        Total length         45.1024 bohr
 

     total cpu time spent up to now is      913.4 secs

     total energy              =   -1731.41645760 Ry
     Harris-Foulkes estimate   =   -1731.41645549 Ry
     estimated scf accuracy    <       0.00000671 Ry

     iteration # 20     ecut=    36.75 Ry     beta=0.10
     Davidson diagonalization with overlap
     ethr =  4.22E-09,  avg # of iterations =  3.0

     negative rho (up, down):  1.175E-02 0.000E+00
 
     Adding external electric field

     Computed dipole along edir(3) : 
        Dipole               -0.0001 Ry au,         -0.0003 Debye
        Dipole field         -0.0000 Ry au
 
        Potential amp.        0.0000 Ry
        Total length         45.1024 bohr
 

     total cpu time spent up to now is      965.5 secs

     total energy              =   -1731.41645998 Ry
     Harris-Foulkes estimate   =   -1731.41645817 Ry
     estimated scf accuracy    <       0.00000438 Ry

     iteration # 21     ecut=    36.75 Ry     beta=0.10
     Davidson diagonalization with overlap
     ethr =  2.76E-09,  avg # of iterations =  2.2

     negative rho (up, down):  1.174E-02 0.000E+00
 
     Adding external electric field

     Computed dipole along edir(3) : 
        Dipole               -0.0001 Ry au,         -0.0002 Debye
        Dipole field         -0.0000 Ry au
 
        Potential amp.        0.0000 Ry
        Total length         45.1024 bohr
 

     total cpu time spent up to now is     1014.9 secs

     total energy              =   -1731.41646061 Ry
     Harris-Foulkes estimate   =   -1731.41646037 Ry
     estimated scf accuracy    <       0.00000180 Ry

     iteration # 22     ecut=    36.75 Ry     beta=0.10
     Davidson diagonalization with overlap
     ethr =  1.13E-09,  avg # of iterations =  2.0

     negative rho (up, down):  1.173E-02 0.000E+00

     negative rho (up, down):  1.173E-02 0.000E+00

     negative rho (up, down):  1.173E-02 0.000E+00

     negative rho (up, down):  1.173E-02 0.000E+00

     negative rho (up, down):  1.173E-02 0.000E+00

     negative rho (up, down):  1.173E-02 0.000E+00

     negative rho (up, down):  1.173E-02 0.000E+00

     negative rho (up, down):  1.173E-02 0.000E+00

     negative rho (up, down):  1.173E-02 0.000E+00

     negative rho (up, down):  1.173E-02 0.000E+00

     negative rho (up, down):  1.173E-02 0.000E+00

     negative rho (up, down):  1.173E-02 0.000E+00

     negative rho (up, down):  1.173E-02 0.000E+00

     negative rho (up, down):  1.173E-02 0.000E+00

     negative rho (up, down):  1.173E-02 0.000E+00

     negative rho (up, down):  1.173E-02 0.000E+00

     negative rho (up, down):  1.173E-02 0.000E+00

     negative rho (up, down):  1.173E-02 0.000E+00

     negative rho (up, down):  1.173E-02 0.000E+00

     negative rho (up, down):  1.173E-02 0.000E+00

     negative rho (up, down):  1.173E-02 0.000E+00

     negative rho (up, down):  1.173E-02 0.000E+00

     negative rho (up, down):  1.173E-02 0.000E+00

     negative rho (up, down):  1.173E-02 0.000E+00

     negative rho (up, down):  1.173E-02 0.000E+00

     negative rho (up, down):  1.173E-02 0.000E+00

     negative rho (up, down):  1.173E-02 0.000E+00

     negative rho (up, down):  1.173E-02 0.000E+00

     negative rho (up, down):  1.173E-02 0.000E+00

     negative rho (up, down):  1.173E-02 0.000E+00

     negative rho (up, down):  1.173E-02 0.000E+00

     negative rho (up, down):  1.173E-02 0.000E+00

     negative rho (up, down):  1.173E-02 0.000E+00

     negative rho (up, down):  1.173E-02 0.000E+00

     negative rho (up, down):  1.173E-02 0.000E+00
 
     Adding external electric field

     Computed dipole along edir(3) : 
        Dipole                0.0006 Ry au,          0.0016 Debye
        Dipole field          0.0000 Ry au
 
        Potential amp.       -0.0002 Ry
        Total length         45.1024 bohr
 

     total cpu time spent up to now is     1106.1 secs

     End of self-consistent calculation

          k = 0.0000 0.0000 0.0000 ( 16079 PWs)   bands (ev):

   -63.0605 -62.9932 -62.9827 -62.9827 -62.9779 -62.9273 -62.9272 -62.9232
   -62.9231 -59.5535 -59.4174 -59.4167 -37.1184 -37.0265 -37.0264 -37.0222
   -36.9922 -36.9875 -36.9617 -36.9617 -36.8720 -36.8720 -36.8704 -36.8123
   -36.8122 -36.7779 -36.7779 -36.7225 -36.6800 -36.6670 -36.6670 -36.6109
   -36.6004 -36.6003 -36.5846 -36.5258 -36.5257 -36.5243 -36.5243 -33.5763
   -33.5686 -33.5686 -33.4977 -33.4703 -33.4217 -33.4217 -33.4151 -33.4151
    -4.7756  -3.2730  -2.4650  -2.3769  -2.3769  -2.0751  -2.0751  -1.6498
    -1.5296  -1.5296  -1.4505  -1.4505  -1.4306  -1.3086  -0.9355  -0.5487
    -0.5487  -0.0920   0.4538   0.5382   0.5382   0.7048   0.9235   1.1191
     1.2589   1.2589   1.2752   1.4366   1.4366   1.4758   1.4759   1.4996
     1.4996   1.5736   1.5886   1.5886   1.9453   2.0392   2.2304   2.2304
     2.5479   2.6328   2.6328   2.9326   2.9326   3.1788   3.2686   3.2687
     3.3826   3.3827   3.4787   3.4787   3.5881   3.7583   3.9427   3.9428
     4.0305   4.0355   4.0355   4.1417   4.1949

          k = 0.0000 0.0351 0.0000 ( 16143 PWs)   bands (ev):

   -63.0557 -62.9920 -62.9845 -62.9828 -62.9747 -62.9310 -62.9273 -62.9265
   -62.9231 -59.5537 -59.4176 -59.4170 -37.0977 -37.0187 -37.0098 -37.0054
   -36.9726 -36.9688 -36.9529 -36.9485 -36.8673 -36.8608 -36.8537 -36.8198
   -36.8192 -36.7783 -36.7705 -36.7272 -36.6799 -36.6747 -36.6696 -36.6253
   -36.6169 -36.6047 -36.5961 -36.5525 -36.5516 -36.5301 -36.5292 -33.5792
   -33.5763 -33.5720 -33.4962 -33.4722 -33.4314 -33.4257 -33.4251 -33.4185
    -4.5521  -3.0591  -2.2810  -2.2673  -2.2348  -2.0281  -1.9218  -1.6729
    -1.4222  -1.3540  -1.3248  -1.3218  -1.2454  -1.2131  -0.8046  -0.5257
    -0.4737  -0.0721   0.3853   0.5842   0.6018   0.7381   0.8978   0.9968
     1.0532   1.0885   1.2000   1.2791   1.3817   1.3932   1.4738   1.5127
     1.5295   1.5470   1.5842   1.7186   1.7378   1.7785   1.9692   1.9752
     2.4688   2.5244   2.5639   2.6226   2.7325   2.8174   2.8303   2.8438
     3.2510   3.3193   3.3965   3.4370   3.4972   3.6967   3.7159   3.8169
     3.9117   3.9694   4.0018   4.0664   4.1494

          k = 0.0000 0.0702 0.0000 ( 16169 PWs)   bands (ev):

   -63.0433 -63.0018 -62.9829 -62.9766 -62.9661 -62.9411 -62.9351 -62.9273
   -62.9231 -59.5542 -59.4180 -59.4176 -37.0559 -37.0032 -36.9670 -36.9669
   -36.9505 -36.9212 -36.9203 -36.9139 -36.8525 -36.8401 -36.8271 -36.8205
   -36.8047 -36.7809 -36.7505 -36.7391 -36.7061 -36.6998 -36.6851 -36.6630
   -36.6434 -36.6294 -36.6275 -36.6112 -36.6048 -36.5363 -36.5358 -33.6005
   -33.5789 -33.5763 -33.4925 -33.4775 -33.4503 -33.4470 -33.4318 -33.4253
    -3.9327  -2.5095  -2.3826  -1.8874  -1.8847  -1.8053  -1.5534  -1.4983
    -1.1527  -1.0566  -1.0478  -0.9012  -0.8711  -0.8627  -0.4416  -0.4372
    -0.2731  -0.0505   0.1672   0.3526   0.4514   0.5471   0.5749   0.7452
     0.8720   0.9875   1.0170   1.0733   1.1073   1.1377   1.1962   1.2737
     1.3792   1.4282   1.4681   1.6711   1.6868   1.6950   1.7600   1.7731
     1.7992   1.8444   2.1772   2.2966   2.3329   2.6106   2.7022   2.7355
     2.8956   3.0220   3.1190   3.1980   3.2052   3.2404   3.4399   3.4470
     3.5650   3.6028   3.6874   3.7786   3.9039

          k = 0.0000-0.1052 0.0000 ( 16164 PWs)   bands (ev):

   -63.0323 -63.0126 -62.9829 -62.9679 -62.9593 -62.9494 -62.9424 -62.9273
   -62.9230 -59.5544 -59.4181 -59.4179 -37.0352 -36.9912 -36.9709 -36.9225
   -36.9223 -36.9063 -36.8978 -36.8934 -36.8546 -36.8399 -36.8121 -36.7858
   -36.7535 -36.7489 -36.7487 -36.7460 -36.7412 -36.7207 -36.7191 -36.7031
   -36.6969 -36.6671 -36.6374 -36.6365 -36.6060 -36.5383 -36.5381 -33.6112
   -33.5823 -33.5763 -33.4898 -33.4817 -33.4593 -33.4574 -33.4352 -33.4287
    -3.1472  -3.0340  -2.0403  -1.8133  -1.6341  -1.5762  -1.3420  -1.1601
    -1.0054  -0.9062  -0.9001  -0.6005  -0.5772  -0.4838  -0.3910  -0.2036
    -0.1395  -0.0632   0.0112   0.1771   0.2564   0.3467   0.3840   0.5799
     0.6420   0.6772   0.7048   0.8890   0.8906   0.9197   0.9969   1.0853
     1.2141   1.2762   1.2970   1.3458   1.3687   1.4059   1.8240   1.8538
     2.1457   2.1490   2.3332   2.3484   2.3654   2.3901   2.5984   2.7370
     2.7429   2.8289   2.8300   2.8876   2.9375   2.9489   2.9775   3.2253
     3.2528   3.4285   3.5754   3.6788   3.9006

          k = 0.0304 0.0175 0.0000 ( 16143 PWs)   bands (ev):

   -63.0557 -62.9920 -62.9846 -62.9827 -62.9747 -62.9311 -62.9272 -62.9265
   -62.9231 -59.5537 -59.4176 -59.4170 -37.0977 -37.0187 -37.0098 -37.0054
   -36.9725 -36.9688 -36.9529 -36.9485 -36.8673 -36.8608 -36.8538 -36.8197
   -36.8193 -36.7783 -36.7705 -36.7272 -36.6799 -36.6747 -36.6696 -36.6253
   -36.6169 -36.6047 -36.5961 -36.5525 -36.5516 -36.5300 -36.5292 -33.5792
   -33.5763 -33.5720 -33.4962 -33.4722 -33.4314 -33.4258 -33.4251 -33.4185
    -4.5521  -3.0591  -2.2810  -2.2673  -2.2348  -2.0281  -1.9219  -1.6729
    -1.4222  -1.3541  -1.3248  -1.3218  -1.2454  -1.2131  -0.8046  -0.5257
    -0.4737  -0.0721   0.3853   0.5842   0.6018   0.7381   0.8978   0.9968
     1.0532   1.0886   1.2000   1.2791   1.3817   1.3932   1.4738   1.5127
     1.5295   1.5470   1.5842   1.7186   1.7378   1.7785   1.9692   1.9752
     2.4688   2.5244   2.5639   2.6226   2.7325   2.8174   2.8303   2.8438
     3.2510   3.3193   3.3965   3.4370   3.4972   3.6967   3.7159   3.8169
     3.9117   3.9694   4.0018   4.0664   4.1494

          k = 0.0304 0.0526 0.0000 ( 16226 PWs)   bands (ev):

   -63.0470 -62.9975 -62.9841 -62.9794 -62.9684 -62.9366 -62.9346 -62.9256
   -62.9241 -59.5541 -59.4179 -59.4174 -37.0646 -37.0030 -36.9923 -36.9659
   -36.9560 -36.9424 -36.9274 -36.9172 -36.8600 -36.8449 -36.8354 -36.8232
   -36.8149 -36.7831 -36.7548 -36.7371 -36.6945 -36.6830 -36.6828 -36.6558
   -36.6329 -36.6307 -36.6088 -36.5879 -36.5863 -36.5421 -36.5411 -33.5934
   -33.5790 -33.5763 -33.4935 -33.4758 -33.4435 -33.4410 -33.4310 -33.4257
    -4.1282  -2.6672  -2.1575  -2.0532  -1.9232  -1.8843  -1.8509  -1.5070
    -1.2334  -1.1263  -1.0999  -1.0299  -1.0252  -0.9259  -0.5955  -0.4439
    -0.3562  -0.0559   0.2492   0.4929   0.5986   0.6149   0.6195   0.7703
     0.8327   1.0672   1.0711   1.0787   1.1867   1.2741   1.2899   1.3855
     1.3865   1.5204   1.5723   1.6248   1.6683   1.7024   1.7737   1.8867
     1.9785   2.0577   2.0747   2.3206   2.4941   2.5028   2.6108   2.8624
     3.0457   3.1121   3.2233   3.2851   3.2932   3.4894   3.5474   3.5493
     3.6412   3.6542   3.8013   3.8814   4.0978

          k = 0.0304 0.0877 0.0000 ( 16212 PWs)   bands (ev):

   -63.0332 -63.0100 -62.9855 -62.9684 -62.9592 -62.9468 -62.9434 -62.9264
   -62.9242 -59.5544 -59.4181 -59.4179 -37.0262 -36.9890 -36.9629 -36.9502
   -36.9266 -36.8968 -36.8867 -36.8824 -36.8663 -36.8425 -36.8094 -36.8062
   -36.7950 -36.7560 -36.7513 -36.7443 -36.7304 -36.7237 -36.7027 -36.6911
   -36.6642 -36.6533 -36.6348 -36.6251 -36.6112 -36.5535 -36.5520 -33.6063
   -33.5872 -33.5763 -33.4896 -33.4812 -33.4553 -33.4531 -33.4392 -33.4338
    -3.3809  -2.5530  -2.0720  -1.9140  -1.7094  -1.6161  -1.3646  -1.1834
    -0.9180  -0.8739  -0.8342  -0.7008  -0.6548  -0.5504  -0.3259  -0.2425
    -0.2035   0.0094   0.0296   0.1395   0.1905   0.2861   0.3626   0.4977
     0.5844   0.7461   0.7673   0.8211   0.8507   0.9256   0.9804   1.0783
     1.1727   1.2643   1.3475   1.3775   1.4651   1.6395   1.7569   1.8274
     1.9235   2.2468   2.3095   2.3360   2.3805   2.4765   2.5004   2.5202
     2.6562   2.8495   2.9564   3.0583   3.1522   3.2418   3.3373   3.4343
     3.4855   3.5239   3.5922   3.7386   3.7635

          k = 0.0304-0.0877 0.0000 ( 16212 PWs)   bands (ev):

   -63.0333 -63.0100 -62.9855 -62.9684 -62.9592 -62.9468 -62.9434 -62.9264
   -62.9242 -59.5544 -59.4181 -59.4179 -37.0262 -36.9890 -36.9629 -36.9503
   -36.9266 -36.8968 -36.8866 -36.8824 -36.8663 -36.8425 -36.8094 -36.8062
   -36.7950 -36.7559 -36.7513 -36.7442 -36.7304 -36.7236 -36.7026 -36.6911
   -36.6642 -36.6533 -36.6348 -36.6251 -36.6113 -36.5536 -36.5520 -33.6063
   -33.5872 -33.5763 -33.4896 -33.4812 -33.4553 -33.4531 -33.4391 -33.4338
    -3.3809  -2.5530  -2.0720  -1.9140  -1.7094  -1.6161  -1.3646  -1.1834
    -0.9180  -0.8739  -0.8341  -0.7008  -0.6548  -0.5504  -0.3259  -0.2425
    -0.2035   0.0094   0.0296   0.1395   0.1905   0.2861   0.3626   0.4977
     0.5844   0.7461   0.7673   0.8211   0.8507   0.9257   0.9804   1.0783
     1.1727   1.2642   1.3475   1.3776   1.4652   1.6395   1.7569   1.8274
     1.9235   2.2468   2.3095   2.3360   2.3805   2.4765   2.5004   2.5203
     2.6562   2.8494   2.9564   3.0583   3.1522   3.2418   3.3373   3.4343
     3.4855   3.5239   3.5922   3.7385   3.7635

          k = 0.0304-0.0526 0.0000 ( 16226 PWs)   bands (ev):

   -63.0471 -62.9974 -62.9842 -62.9794 -62.9684 -62.9365 -62.9345 -62.9257
   -62.9241 -59.5541 -59.4179 -59.4174 -37.0646 -37.0030 -36.9923 -36.9658
   -36.9560 -36.9424 -36.9274 -36.9172 -36.8600 -36.8449 -36.8354 -36.8231
   -36.8149 -36.7831 -36.7548 -36.7371 -36.6945 -36.6829 -36.6828 -36.6558
   -36.6329 -36.6307 -36.6089 -36.5879 -36.5863 -36.5421 -36.5411 -33.5934
   -33.5790 -33.5763 -33.4935 -33.4758 -33.4435 -33.4410 -33.4310 -33.4257
    -4.1282  -2.6672  -2.1575  -2.0532  -1.9232  -1.8843  -1.8509  -1.5070
    -1.2334  -1.1263  -1.0999  -1.0299  -1.0252  -0.9259  -0.5955  -0.4439
    -0.3562  -0.0559   0.2492   0.4929   0.5986   0.6149   0.6195   0.7703
     0.8327   1.0672   1.0711   1.0787   1.1867   1.2741   1.2899   1.3855
     1.3865   1.5204   1.5724   1.6248   1.6683   1.7024   1.7737   1.8867
     1.9784   2.0577   2.0747   2.3206   2.4941   2.5028   2.6108   2.8624
     3.0457   3.1121   3.2233   3.2851   3.2932   3.4894   3.5474   3.5493
     3.6412   3.6543   3.8013   3.8814   4.0978

          k = 0.0304-0.0175 0.0000 ( 16143 PWs)   bands (ev):

   -63.0557 -62.9920 -62.9845 -62.9828 -62.9747 -62.9310 -62.9273 -62.9264
   -62.9231 -59.5537 -59.4176 -59.4170 -37.0977 -37.0187 -37.0098 -37.0054
   -36.9726 -36.9688 -36.9529 -36.9485 -36.8673 -36.8609 -36.8537 -36.8198
   -36.8192 -36.7783 -36.7705 -36.7272 -36.6799 -36.6747 -36.6696 -36.6252
   -36.6169 -36.6048 -36.5961 -36.5524 -36.5516 -36.5301 -36.5292 -33.5792
   -33.5763 -33.5720 -33.4962 -33.4722 -33.4314 -33.4258 -33.4251 -33.4185
    -4.5521  -3.0591  -2.2810  -2.2673  -2.2348  -2.0281  -1.9218  -1.6729
    -1.4222  -1.3540  -1.3248  -1.3218  -1.2454  -1.2131  -0.8046  -0.5256
    -0.4737  -0.0721   0.3853   0.5842   0.6018   0.7381   0.8978   0.9968
     1.0532   1.0885   1.1999   1.2791   1.3817   1.3932   1.4738   1.5127
     1.5295   1.5470   1.5842   1.7186   1.7378   1.7785   1.9692   1.9752
     2.4687   2.5244   2.5639   2.6226   2.7325   2.8174   2.8303   2.8438
     3.2510   3.3193   3.3965   3.4370   3.4972   3.6967   3.7159   3.8169
     3.9117   3.9694   4.0018   4.0664   4.1494

          k = 0.0608 0.0351 0.0000 ( 16169 PWs)   bands (ev):

   -63.0433 -63.0019 -62.9828 -62.9766 -62.9661 -62.9411 -62.9352 -62.9272
   -62.9230 -59.5542 -59.4180 -59.4176 -37.0559 -37.0032 -36.9670 -36.9668
   -36.9505 -36.9212 -36.9203 -36.9138 -36.8525 -36.8401 -36.8271 -36.8205
   -36.8047 -36.7809 -36.7505 -36.7391 -36.7062 -36.6998 -36.6851 -36.6630
   -36.6434 -36.6294 -36.6276 -36.6112 -36.6048 -36.5363 -36.5358 -33.6005
   -33.5789 -33.5763 -33.4925 -33.4775 -33.4503 -33.4470 -33.4318 -33.4253
    -3.9327  -2.5095  -2.3826  -1.8874  -1.8848  -1.8053  -1.5534  -1.4983
    -1.1527  -1.0566  -1.0478  -0.9012  -0.8711  -0.8628  -0.4417  -0.4372
    -0.2731  -0.0505   0.1672   0.3526   0.4514   0.5471   0.5749   0.7452
     0.8720   0.9875   1.0170   1.0733   1.1073   1.1377   1.1962   1.2737
     1.3792   1.4282   1.4681   1.6711   1.6868   1.6950   1.7600   1.7731
     1.7992   1.8444   2.1772   2.2966   2.3328   2.6107   2.7022   2.7355
     2.8955   3.0221   3.1190   3.1980   3.2052   3.2404   3.4399   3.4470
     3.5650   3.6028   3.6874   3.7786   3.9040

          k = 0.0608 0.0702 0.0000 ( 16212 PWs)   bands (ev):

   -63.0332 -63.0100 -62.9854 -62.9683 -62.9592 -62.9468 -62.9435 -62.9264
   -62.9242 -59.5544 -59.4181 -59.4179 -37.0262 -36.9890 -36.9629 -36.9503
   -36.9266 -36.8968 -36.8866 -36.8824 -36.8663 -36.8425 -36.8094 -36.8062
   -36.7950 -36.7560 -36.7513 -36.7443 -36.7305 -36.7236 -36.7027 -36.6911
   -36.6642 -36.6533 -36.6348 -36.6251 -36.6112 -36.5535 -36.5520 -33.6063
   -33.5872 -33.5763 -33.4896 -33.4812 -33.4553 -33.4531 -33.4391 -33.4338
    -3.3809  -2.5530  -2.0720  -1.9140  -1.7094  -1.6161  -1.3646  -1.1834
    -0.9180  -0.8739  -0.8342  -0.7008  -0.6548  -0.5504  -0.3259  -0.2425
    -0.2036   0.0094   0.0296   0.1395   0.1905   0.2861   0.3626   0.4977
     0.5844   0.7461   0.7673   0.8211   0.8507   0.9257   0.9804   1.0783
     1.1727   1.2643   1.3475   1.3775   1.4652   1.6395   1.7569   1.8274
     1.9235   2.2469   2.3095   2.3360   2.3804   2.4765   2.5004   2.5202
     2.6562   2.8495   2.9564   3.0583   3.1522   3.2418   3.3373   3.4343
     3.4855   3.5239   3.5922   3.7386   3.7635

          k = 0.0608 0.1052 0.0000 ( 16272 PWs)   bands (ev):

   -63.0208 -63.0207 -62.9879 -62.9601 -62.9524 -62.9524 -62.9514 -62.9257
   -62.9257 -59.5545 -59.4181 -59.4181 -36.9906 -36.9906 -36.9625 -36.9339
   -36.9177 -36.9177 -36.8520 -36.8520 -36.8499 -36.8204 -36.8203 -36.8197
   -36.7974 -36.7974 -36.7608 -36.7470 -36.7335 -36.7334 -36.6774 -36.6774
   -36.6726 -36.6550 -36.6421 -36.6421 -36.6140 -36.5726 -36.5726 -33.6003
   -33.6003 -33.5763 -33.4854 -33.4854 -33.4529 -33.4482 -33.4482 -33.4459
    -2.6455  -2.5793  -2.5793  -1.6605  -1.6605  -1.4368  -1.0329  -0.9607
    -0.9607  -0.6586  -0.6585  -0.6378  -0.5192  -0.5192  -0.1845  -0.1845
    -0.1721   0.0072   0.0581   0.0582   0.0591   0.1389   0.1389   0.1529
     0.3759   0.5033   0.5033   0.5793   0.5793   0.8341   0.9864   0.9865
     0.9953   1.0306   1.4831   1.4831   1.5471   1.7410   1.7487   1.7487
     2.0659   2.0659   2.0686   2.4042   2.4042   2.4151   2.5896   2.5896
     2.8189   2.8593   2.8593   3.3164   3.3164   3.4229   3.4229   3.5208
     3.5404   3.5404   3.5905   3.6062   3.7639

          k = 0.0608-0.0702 0.0000 ( 16212 PWs)   bands (ev):

   -63.0333 -63.0100 -62.9855 -62.9684 -62.9592 -62.9467 -62.9434 -62.9264
   -62.9243 -59.5544 -59.4181 -59.4179 -37.0262 -36.9890 -36.9629 -36.9503
   -36.9266 -36.8968 -36.8867 -36.8824 -36.8663 -36.8424 -36.8094 -36.8062
   -36.7950 -36.7559 -36.7513 -36.7442 -36.7304 -36.7236 -36.7026 -36.6911
   -36.6642 -36.6533 -36.6348 -36.6251 -36.6113 -36.5536 -36.5520 -33.6063
   -33.5872 -33.5763 -33.4896 -33.4812 -33.4553 -33.4531 -33.4391 -33.4338
    -3.3809  -2.5530  -2.0720  -1.9140  -1.7094  -1.6161  -1.3646  -1.1834
    -0.9180  -0.8739  -0.8341  -0.7008  -0.6548  -0.5504  -0.3259  -0.2425
    -0.2035   0.0094   0.0296   0.1395   0.1905   0.2861   0.3626   0.4977
     0.5843   0.7461   0.7673   0.8211   0.8507   0.9256   0.9804   1.0783
     1.1727   1.2642   1.3475   1.3776   1.4652   1.6395   1.7569   1.8274
     1.9235   2.2468   2.3095   2.3360   2.3805   2.4765   2.5004   2.5203
     2.6562   2.8494   2.9564   3.0583   3.1522   3.2417   3.3373   3.4343
     3.4855   3.5239   3.5922   3.7385   3.7635

          k = 0.0608-0.0351 0.0000 ( 16169 PWs)   bands (ev):

   -63.0433 -63.0018 -62.9829 -62.9766 -62.9661 -62.9410 -62.9351 -62.9273
   -62.9231 -59.5542 -59.4180 -59.4176 -37.0559 -37.0032 -36.9670 -36.9669
   -36.9505 -36.9212 -36.9203 -36.9139 -36.8524 -36.8401 -36.8270 -36.8205
   -36.8047 -36.7808 -36.7506 -36.7391 -36.7061 -36.6998 -36.6850 -36.6630
   -36.6434 -36.6294 -36.6275 -36.6112 -36.6049 -36.5364 -36.5359 -33.6005
   -33.5789 -33.5763 -33.4925 -33.4775 -33.4503 -33.4470 -33.4318 -33.4253
    -3.9327  -2.5095  -2.3826  -1.8874  -1.8847  -1.8053  -1.5533  -1.4983
    -1.1527  -1.0566  -1.0478  -0.9012  -0.8711  -0.8627  -0.4416  -0.4372
    -0.2731  -0.0505   0.1672   0.3526   0.4514   0.5471   0.5749   0.7452
     0.8720   0.9875   1.0169   1.0733   1.1073   1.1377   1.1962   1.2737
     1.3792   1.4282   1.4681   1.6711   1.6868   1.6951   1.7600   1.7731
     1.7992   1.8444   2.1772   2.2966   2.3329   2.6106   2.7022   2.7355
     2.8956   3.0220   3.1189   3.1980   3.2052   3.2404   3.4399   3.4470
     3.5650   3.6028   3.6874   3.7786   3.9042

          k = 0.0608 0.0000 0.0000 ( 16226 PWs)   bands (ev):

   -63.0470 -62.9975 -62.9842 -62.9794 -62.9684 -62.9366 -62.9346 -62.9257
   -62.9241 -59.5541 -59.4179 -59.4174 -37.0646 -37.0030 -36.9923 -36.9659
   -36.9560 -36.9424 -36.9274 -36.9172 -36.8600 -36.8449 -36.8354 -36.8232
   -36.8149 -36.7831 -36.7548 -36.7371 -36.6945 -36.6830 -36.6828 -36.6558
   -36.6329 -36.6307 -36.6088 -36.5879 -36.5863 -36.5421 -36.5411 -33.5933
   -33.5790 -33.5763 -33.4935 -33.4758 -33.4435 -33.4410 -33.4310 -33.4257
    -4.1282  -2.6672  -2.1575  -2.0532  -1.9232  -1.8843  -1.8509  -1.5070
    -1.2334  -1.1263  -1.0999  -1.0299  -1.0252  -0.9259  -0.5955  -0.4439
    -0.3562  -0.0559   0.2492   0.4929   0.5986   0.6149   0.6195   0.7703
     0.8327   1.0672   1.0711   1.0787   1.1867   1.2741   1.2899   1.3855
     1.3865   1.5204   1.5723   1.6248   1.6683   1.7024   1.7737   1.8867
     1.9785   2.0577   2.0747   2.3206   2.4941   2.5028   2.6108   2.8624
     3.0457   3.1121   3.2233   3.2851   3.2932   3.4894   3.5474   3.5493
     3.6412   3.6542   3.8013   3.8814   4.0978

          k =-0.0911-0.0526 0.0000 ( 16164 PWs)   bands (ev):

   -63.0323 -63.0127 -62.9829 -62.9678 -62.9593 -62.9495 -62.9425 -62.9272
   -62.9230 -59.5544 -59.4181 -59.4179 -37.0352 -36.9912 -36.9708 -36.9226
   -36.9223 -36.9063 -36.8977 -36.8934 -36.8546 -36.8400 -36.8122 -36.7858
   -36.7536 -36.7489 -36.7487 -36.7460 -36.7413 -36.7208 -36.7191 -36.7031
   -36.6969 -36.6671 -36.6373 -36.6365 -36.6060 -36.5383 -36.5381 -33.6112
   -33.5824 -33.5763 -33.4898 -33.4817 -33.4593 -33.4574 -33.4352 -33.4287
    -3.1472  -3.0340  -2.0403  -1.8133  -1.6341  -1.5762  -1.3420  -1.1601
    -1.0054  -0.9062  -0.9001  -0.6005  -0.5772  -0.4838  -0.3910  -0.2036
    -0.1395  -0.0632   0.0112   0.1771   0.2564   0.3467   0.3840   0.5799
     0.6420   0.6772   0.7049   0.8890   0.8906   0.9198   0.9969   1.0853
     1.2141   1.2762   1.2970   1.3458   1.3688   1.4059   1.8240   1.8538
     2.1458   2.1490   2.3332   2.3484   2.3653   2.3901   2.5984   2.7369
     2.7430   2.8289   2.8300   2.8876   2.9375   2.9489   2.9776   3.2253
     3.2528   3.4285   3.5754   3.6788   3.9006

          k =-0.0911-0.0175 0.0000 ( 16212 PWs)   bands (ev):

   -63.0332 -63.0100 -62.9854 -62.9684 -62.9592 -62.9468 -62.9434 -62.9264
   -62.9242 -59.5544 -59.4181 -59.4179 -37.0262 -36.9890 -36.9629 -36.9503
   -36.9266 -36.8968 -36.8866 -36.8824 -36.8663 -36.8425 -36.8094 -36.8062
   -36.7950 -36.7560 -36.7513 -36.7443 -36.7305 -36.7236 -36.7027 -36.6911
   -36.6642 -36.6533 -36.6348 -36.6251 -36.6112 -36.5535 -36.5520 -33.6063
   -33.5872 -33.5763 -33.4896 -33.4812 -33.4553 -33.4531 -33.4391 -33.4338
    -3.3809  -2.5530  -2.0720  -1.9140  -1.7094  -1.6161  -1.3646  -1.1834
    -0.9180  -0.8739  -0.8341  -0.7008  -0.6548  -0.5504  -0.3259  -0.2425
    -0.2036   0.0094   0.0296   0.1395   0.1905   0.2861   0.3626   0.4977
     0.5844   0.7461   0.7673   0.8211   0.8507   0.9257   0.9804   1.0783
     1.1727   1.2642   1.3475   1.3776   1.4652   1.6395   1.7569   1.8274
     1.9235   2.2469   2.3095   2.3360   2.3804   2.4765   2.5004   2.5203
     2.6562   2.8494   2.9564   3.0583   3.1522   3.2418   3.3373   3.4343
     3.4855   3.5239   3.5922   3.7385   3.7636

          k =-0.0911 0.0175 0.0000 ( 16212 PWs)   bands (ev):

   -63.0333 -63.0100 -62.9855 -62.9684 -62.9592 -62.9467 -62.9434 -62.9264
   -62.9243 -59.5544 -59.4181 -59.4179 -37.0262 -36.9890 -36.9629 -36.9502
   -36.9266 -36.8968 -36.8867 -36.8824 -36.8663 -36.8424 -36.8094 -36.8062
   -36.7950 -36.7560 -36.7513 -36.7442 -36.7304 -36.7237 -36.7026 -36.6911
   -36.6642 -36.6533 -36.6348 -36.6251 -36.6113 -36.5536 -36.5520 -33.6063
   -33.5872 -33.5763 -33.4896 -33.4812 -33.4553 -33.4531 -33.4391 -33.4338
    -3.3809  -2.5530  -2.0720  -1.9140  -1.7094  -1.6161  -1.3646  -1.1834
    -0.9180  -0.8739  -0.8342  -0.7008  -0.6548  -0.5504  -0.3259  -0.2425
    -0.2035   0.0094   0.0296   0.1395   0.1905   0.2861   0.3626   0.4977
     0.5843   0.7461   0.7673   0.8211   0.8507   0.9256   0.9804   1.0783
     1.1727   1.2642   1.3475   1.3775   1.4651   1.6395   1.7570   1.8274
     1.9235   2.2468   2.3095   2.3360   2.3805   2.4765   2.5004   2.5202
     2.6562   2.8495   2.9564   3.0583   3.1522   3.2418   3.3373   3.4343
     3.4855   3.5239   3.5922   3.7385   3.7635

          k =-0.0911-0.1579 0.0000 ( 16164 PWs)   bands (ev):

   -63.0323 -63.0126 -62.9830 -62.9679 -62.9593 -62.9494 -62.9424 -62.9273
   -62.9231 -59.5544 -59.4181 -59.4179 -37.0352 -36.9912 -36.9709 -36.9225
   -36.9223 -36.9063 -36.8978 -36.8934 -36.8546 -36.8398 -36.8121 -36.7859
   -36.7535 -36.7489 -36.7488 -36.7460 -36.7412 -36.7206 -36.7191 -36.7031
   -36.6969 -36.6671 -36.6374 -36.6365 -36.6060 -36.5383 -36.5382 -33.6112
   -33.5824 -33.5763 -33.4898 -33.4817 -33.4593 -33.4574 -33.4352 -33.4287
    -3.1472  -3.0340  -2.0403  -1.8133  -1.6341  -1.5762  -1.3420  -1.1601
    -1.0054  -0.9062  -0.9001  -0.6005  -0.5772  -0.4837  -0.3910  -0.2036
    -0.1395  -0.0632   0.0112   0.1771   0.2564   0.3467   0.3840   0.5799
     0.6420   0.6772   0.7048   0.8890   0.8906   0.9197   0.9969   1.0853
     1.2141   1.2762   1.2970   1.3458   1.3687   1.4059   1.8240   1.8538
     2.1457   2.1491   2.3332   2.3484   2.3654   2.3901   2.5984   2.7370
     2.7429   2.8289   2.8300   2.8876   2.9375   2.9489   2.9775   3.2253
     3.2528   3.4285   3.5754   3.6788   3.9005

     the Fermi energy is     1.2702 ev

!    total energy              =   -1731.41646268 Ry
     Harris-Foulkes estimate   =   -1731.41646070 Ry
     estimated scf accuracy    <       0.00000073 Ry

     The total energy is the sum of the following terms:

     one-electron contribution =  -14756.18263778 Ry
     hartree contribution      =    7366.28949061 Ry
     xc contribution           =    -243.00167806 Ry
     ewald contribution        =    5901.62346050 Ry
     electric field correction =       0.00000000 Ry
     smearing contrib. (-TS)   =      -0.14509794 Ry

     convergence has been achieved in  22 iterations
 
 BEEF-vdW xc energy contributions
           1 :   -209.260358171505     
           2 :    188.599341613832     
           3 :   -154.220975171331     
           4 :    116.617110253108     
           5 :   -85.1800985817088     
           6 :    64.7186205700419     
           7 :   -54.6863074454899     
           8 :    50.9716660690821     
           9 :   -48.8418458882813     
          10 :    45.3186208835887     
          11 :   -39.9692453729672     
          12 :    34.1399549588369     
          13 :   -29.4765461970704     
          14 :    26.7280016458841     
          15 :   -25.4455491073933     
          16 :    24.5256079949674     
          17 :   -23.0657470589134     
          18 :    20.9059694911493     
          19 :   -18.5562872709871     
          20 :    16.6673856320122     
          21 :   -15.5008546297476     
          22 :    14.7797475922304     
          23 :   -13.9755611532011     
          24 :    12.7542035674203     
          25 :   -11.2250339206239     
          26 :    9.82114518295379     
          27 :   -8.93559718385305     
          28 :    8.60267766126105     
          29 :   -8.46194798827406     
          30 :    8.01974855500595     
          31 :   -22.1705758313046     
          32 :   -16.2467014351307     

     Forces acting on atoms (Ry/au):


     negative rho (up, down):  1.173E-02 0.000E+00
     atom    1 type  1   force =     0.00000061   -0.00497672   -0.00155861
     atom    2 type  1   force =    -0.00431313    0.00248874   -0.00155774
     atom    3 type  1   force =     0.00431080    0.00248631   -0.00155685
     atom    4 type  2   force =    -0.00000183   -0.00000041    0.00245336
     atom    5 type  1   force =     0.00000113   -0.00000235    0.00000320
     atom    6 type  1   force =     0.00000182    0.00000195   -0.00000191
     atom    7 type  1   force =    -0.00000381    0.00000000   -0.00000204
     atom    8 type  2   force =     0.00000088    0.00000183   -0.00000479
     atom    9 type  1   force =    -0.00000288    0.00497962    0.00154663
     atom   10 type  1   force =     0.00431190   -0.00249278    0.00154513
     atom   11 type  1   force =    -0.00430745   -0.00248606    0.00154689
     atom   12 type  2   force =     0.00000194   -0.00000014   -0.00241327

     Total force =     0.013227     Total SCF correction =     0.002887
     SCF correction compared to forces is large: reduce conv_thr to get better values


     entering subroutine stress ...


     negative rho (up, down):  1.173E-02 0.000E+00
          total   stress  (Ry/bohr**3)                   (kbar)     P=  -25.20
  -0.00025678   0.00000001   0.00000001        -37.77      0.00      0.00
   0.00000001  -0.00025678   0.00000000          0.00    -37.77      0.00
   0.00000001   0.00000000  -0.00000032          0.00      0.00     -0.05

 !ASE

     Writing output data file calc.save
 
     init_run     :     14.47s CPU     22.87s WALL (       1 calls)
     electrons    :    684.32s CPU   1082.68s WALL (       1 calls)
     forces       :      2.22s CPU      2.83s WALL (       1 calls)
     stress       :      4.57s CPU      5.43s WALL (       1 calls)

     Called by init_run:
     wfcinit      :     12.64s CPU     20.44s WALL (       1 calls)
     potinit      :      1.04s CPU      1.51s WALL (       1 calls)

     Called by electrons:
     c_bands      :    526.14s CPU    832.94s WALL (      22 calls)
     sum_band     :    100.13s CPU    166.18s WALL (      22 calls)
     v_of_rho     :     21.53s CPU     32.08s WALL (      23 calls)
     newd         :      4.81s CPU      5.20s WALL (      23 calls)
     mix_rho      :      1.03s CPU      1.52s WALL (      22 calls)
     vdW_energy   :      1.43s CPU      1.43s WALL (      59 calls)
     vdW_ffts     :     35.86s CPU     53.76s WALL (     120 calls)
     vdW_v        :      5.96s CPU      8.69s WALL (      59 calls)

     Called by c_bands:
     init_us_2    :      0.39s CPU      0.43s WALL (     940 calls)
     cegterg      :    519.69s CPU    824.77s WALL (     440 calls)

     Called by *egterg:
     h_psi        :    410.69s CPU    696.62s WALL (    1501 calls)
     s_psi        :      5.31s CPU      5.35s WALL (    1501 calls)
     g_psi        :      0.27s CPU      0.27s WALL (    1041 calls)
     cdiaghg      :     60.29s CPU     65.07s WALL (    1481 calls)

     Called by h_psi:
     add_vuspsi   :      5.60s CPU      5.63s WALL (    1501 calls)

     General routines
     calbec       :     20.29s CPU     28.11s WALL (    1981 calls)
     fft          :     53.87s CPU     81.12s WALL (    3621 calls)
     ffts         :      0.16s CPU      0.28s WALL (      45 calls)
     fftw         :    472.17s CPU    815.03s WALL (  254648 calls)
     interpolate  :      0.85s CPU      1.28s WALL (      45 calls)
     davcio       :      0.00s CPU      0.02s WALL (      20 calls)
 
     Parallel routines
     fft_scatter  :    504.11s CPU    872.86s WALL (  258314 calls)
 
     PWSCF        : 11m46.84s CPU    18m35.91s WALL

 
   This run was terminated on:   5:10:46   2Jan2019            

=------------------------------------------------------------------------------=
   JOB DONE.
=------------------------------------------------------------------------------=
Job  /afs/slac/g/suncat/bin/suncat-tsmpirun -x LD_LIBRARY_PATH -wdir /scratch/qe649313_1NDUo pw.x -in pw.inp

TID   HOST_NAME   COMMAND_LINE            STATUS            TERMINATION_TIME
===== ========== ================  =======================  ===================
00000 suncat0141 pw.x -in pw.inp   Done                     01/02/2019 05:10:46
00001 suncat0141 pw.x -in pw.inp   Done                     01/02/2019 05:10:46
00002 suncat0141 pw.x -in pw.inp   Done                     01/02/2019 05:10:46
00003 suncat0141 pw.x -in pw.inp   Done                     01/02/2019 05:10:46
00004 suncat0141 pw.x -in pw.inp   Done                     01/02/2019 05:10:46
00005 suncat0141 pw.x -in pw.inp   Done                     01/02/2019 05:10:46
00006 suncat0141 pw.x -in pw.inp   Done                     01/02/2019 05:10:46
00007 suncat0141 pw.x -in pw.inp   Done                     01/02/2019 05:10:46
00008 suncat0140 pw.x -in pw.inp   Done                     01/02/2019 05:10:46
00009 suncat0140 pw.x -in pw.inp   Done                     01/02/2019 05:10:46
00010 suncat0140 pw.x -in pw.inp   Done                     01/02/2019 05:10:46
00011 suncat0140 pw.x -in pw.inp   Done                     01/02/2019 05:10:46
00012 suncat0140 pw.x -in pw.inp   Done                     01/02/2019 05:10:46
00013 suncat0140 pw.x -in pw.inp   Done                     01/02/2019 05:10:46
00014 suncat0140 pw.x -in pw.inp   Done                     01/02/2019 05:10:46
00015 suncat0140 pw.x -in pw.inp   Done                     01/02/2019 05:10:46
00016 suncat0135 pw.x -in pw.inp   Done                     01/02/2019 05:10:46
00017 suncat0135 pw.x -in pw.inp   Done                     01/02/2019 05:10:46
00018 suncat0135 pw.x -in pw.inp   Done                     01/02/2019 05:10:46
00019 suncat0135 pw.x -in pw.inp   Done                     01/02/2019 05:10:46
00020 suncat0135 pw.x -in pw.inp   Done                     01/02/2019 05:10:46
00021 suncat0135 pw.x -in pw.inp   Done                     01/02/2019 05:10:46
00022 suncat0135 pw.x -in pw.inp   Done                     01/02/2019 05:10:46
00023 suncat0135 pw.x -in pw.inp   Done                     01/02/2019 05:10:46
00024 suncat0134 pw.x -in pw.inp   Done                     01/02/2019 05:10:46
00025 suncat0134 pw.x -in pw.inp   Done                     01/02/2019 05:10:46
00026 suncat0134 pw.x -in pw.inp   Done                     01/02/2019 05:10:46
00027 suncat0134 pw.x -in pw.inp   Done                     01/02/2019 05:10:46
00028 suncat0134 pw.x -in pw.inp   Done                     01/02/2019 05:10:46
00029 suncat0134 pw.x -in pw.inp   Done                     01/02/2019 05:10:46
00030 suncat0134 pw.x -in pw.inp   Done                     01/02/2019 05:10:46
00031 suncat0134 pw.x -in pw.inp   Done                     01/02/2019 05:10:46
00032 suncat0272 pw.x -in pw.inp   Done                     01/02/2019 05:10:46
00033 suncat0272 pw.x -in pw.inp   Done                     01/02/2019 05:10:46
00034 suncat0272 pw.x -in pw.inp   Done                     01/02/2019 05:10:46
00035 suncat0272 pw.x -in pw.inp   Done                     01/02/2019 05:10:46
00036 suncat0272 pw.x -in pw.inp   Done                     01/02/2019 05:10:46
00037 suncat0272 pw.x -in pw.inp   Done                     01/02/2019 05:10:46
00038 suncat0272 pw.x -in pw.inp   Done                     01/02/2019 05:10:46
00039 suncat0272 pw.x -in pw.inp   Done                     01/02/2019 05:10:46
00040 suncat0262 pw.x -in pw.inp   Done                     01/02/2019 05:10:46
00041 suncat0262 pw.x -in pw.inp   Done                     01/02/2019 05:10:46
00042 suncat0262 pw.x -in pw.inp   Done                     01/02/2019 05:10:46
00043 suncat0262 pw.x -in pw.inp   Done                     01/02/2019 05:10:46
00044 suncat0262 pw.x -in pw.inp   Done                     01/02/2019 05:10:46
00045 suncat0262 pw.x -in pw.inp   Done                     01/02/2019 05:10:46
00046 suncat0262 pw.x -in pw.inp   Done                     01/02/2019 05:10:46
00047 suncat0262 pw.x -in pw.inp   Done                     01/02/2019 05:10:46
00048 suncat0258 pw.x -in pw.inp   Done                     01/02/2019 05:10:46
00049 suncat0258 pw.x -in pw.inp   Done                     01/02/2019 05:10:46
00050 suncat0258 pw.x -in pw.inp   Done                     01/02/2019 05:10:46
00051 suncat0258 pw.x -in pw.inp   Done                     01/02/2019 05:10:46
00052 suncat0258 pw.x -in pw.inp   Done                     01/02/2019 05:10:46
00053 suncat0258 pw.x -in pw.inp   Done                     01/02/2019 05:10:46
00054 suncat0258 pw.x -in pw.inp   Done                     01/02/2019 05:10:46
00055 suncat0258 pw.x -in pw.inp   Done                     01/02/2019 05:10:46
00056 suncat0257 pw.x -in pw.inp   Done                     01/02/2019 05:10:46
00057 suncat0257 pw.x -in pw.inp   Done                     01/02/2019 05:10:46
00058 suncat0257 pw.x -in pw.inp   Done                     01/02/2019 05:10:46
00059 suncat0257 pw.x -in pw.inp   Done                     01/02/2019 05:10:46
00060 suncat0257 pw.x -in pw.inp   Done                     01/02/2019 05:10:46
00061 suncat0257 pw.x -in pw.inp   Done                     01/02/2019 05:10:46
00062 suncat0257 pw.x -in pw.inp   Done                     01/02/2019 05:10:46
00063 suncat0257 pw.x -in pw.inp   Done                     01/02/2019 05:10:46

     Program PWSCF v.5.1rc2 (svn rev. 11289) starts on  2Jan2019 at  5:10:52 

     This program is part of the open-source Quantum ESPRESSO suite
     for quantum simulation of materials; please cite
         "P. Giannozzi et al., J. Phys.:Condens. Matter 21 395502 (2009);
          URL http://www.quantum-espresso.org", 
     in publications or presentations arising from this work. More details at
     http://www.quantum-espresso.org/quote

     Parallel version (MPI), running on    64 processors
     R & G space division:  proc/nbgrp/npool/nimage =      64
     Reading input from pw.inp
     Message from routine read_cards :
     DEPRECATED: no units specified in CELL_PARAMETERS card

     Current dimensions of program PWSCF are:
     Max number of different atomic species (ntypx) = 10
     Max number of k-points (npk) =  40000
     Max angular momentum in pseudopotentials (lmaxx) =  3
     Presently stress not available with electric field


     **************************************************************************
     Initializing libbeef V0.1.1 with the BEEF-vdW functional.
     Citation: Wellendorff et al., PRB 85, 235149 (2012).
     **************************************************************************


     IMPORTANT: XC functional enforced from input :
     Exchange-correlation      = BEEF-VDW ( 1  4 27 13 2)
     Any further DFT definition will be discarded
     Please, verify this is what you really want


     Subspace diagonalization in iterative solution of the eigenvalue problem:
     a serial algorithm will be used

 
     Parallelization info
     --------------------
     sticks:   dense  smooth     PW     G-vecs:    dense   smooth      PW
     Min          42      16      4                 7994     1982     308
     Max          43      17      5                 8023     2045     343
     Sum        2713    1075    313               512323   129245   21363
 


     bravais-lattice index     =            0
     lattice parameter (alat)  =       1.8897  a.u.
     unit-cell volume          =    4305.2917 (a.u.)^3
     number of atoms/cell      =           12
     number of atomic types    =            2
     number of electrons       =       159.00
     number of Kohn-Sham states=          109
     kinetic-energy cutoff     =      36.7493  Ry
     charge density cutoff     =     367.4932  Ry
     convergence threshold     =      1.0E-06
     mixing beta               =       0.1000
     number of iterations used =           10  plain     mixing
     Exchange-correlation      = BEEF-VDW ( 1  4 27 13 2)
     nstep                     =           50


     celldm(1)=   1.889726  celldm(2)=   0.000000  celldm(3)=   0.000000
     celldm(4)=   0.000000  celldm(5)=   0.000000  celldm(6)=   0.000000

     crystal axes: (cart. coord. in units of alat)
               a(1) = (   5.485796   0.000000   0.000000 )  
               a(2) = (  -2.742898   4.750839   0.000000 )  
               a(3) = (   0.000000   0.000000  24.479134 )  

     reciprocal axes: (cart. coord. in units 2 pi/alat)
               b(1) = (  0.182289  0.105245  0.000000 )  
               b(2) = (  0.000000  0.210489  0.000000 )  
               b(3) = (  0.000000  0.000000  0.040851 )  


     PseudoPot. # 1 for V  read from file:
     /afs/slac.stanford.edu/u/if/mamunm/psp/gbrv1.5pbe/V.UPF
     MD5 check sum: 22b79981416ebb76fdaf5b1b8640f6fb
     Pseudo is Ultrasoft + core correction, Zval = 13.0
     Generated by new atomic code, or converted to UPF format
     Using radial grid of  853 points,  6 beta functions with: 
                l(1) =   0
                l(2) =   0
                l(3) =   1
                l(4) =   1
                l(5) =   2
                l(6) =   2
     Q(r) pseudized with  8 coefficients,  rinner =    1.100   1.100   1.100
                                                       1.100   1.100

     PseudoPot. # 2 for Mo read from file:
     /afs/slac.stanford.edu/u/if/mamunm/psp/gbrv1.5pbe/Mo.UPF
     MD5 check sum: 30c4dcd161f5d35cd49bb5239c51a633
     Pseudo is Ultrasoft + core correction, Zval = 14.0
     Generated by new atomic code, or converted to UPF format
     Using radial grid of  889 points,  6 beta functions with: 
                l(1) =   0
                l(2) =   0
                l(3) =   1
                l(4) =   1
                l(5) =   2
                l(6) =   2
     Q(r) pseudized with  6 coefficients,  rinner =    1.000   1.000   1.000
                                                       1.000   1.000

     vdW kernel table read from file vdW_kernel_table
     MD5 check sum: 095c7af220d748ca6e76c0b4c6cfb241

     atomic species   valence    mass     pseudopotential
        V1            13.00    50.94150     V ( 1.00)
        Mo1           14.00    95.95000     Mo( 1.00)

     No symmetry found



   Cartesian axes

     site n.     atom                  positions (alat units)
         1           V1  tau(   1) = (   0.0000000   0.0000000  10.0000000  )
         2           V1  tau(   2) = (  -1.3714490   2.3754193  10.0000000  )
         3           V1  tau(   3) = (   1.3714490   2.3754193  10.0000000  )
         4           Mo1 tau(   4) = (   2.7428980   0.0000000  10.0000000  )
         5           V1  tau(   5) = (   2.7428980   1.5836129  12.2395668  )
         6           V1  tau(   6) = (   1.3714490   3.9590322  12.2395668  )
         7           V1  tau(   7) = (  -1.3714490   3.9590322  12.2395668  )
         8           Mo1 tau(   8) = (   0.0000000   1.5836129  12.2395668  )
         9           V1  tau(   9) = (  -0.0000074   3.1800289  14.4831102  )
        10           V1  tau(  10) = (   1.3825353   0.7853973  14.4831064  )
        11           V1  tau(  11) = (   4.1032721   0.7854145  14.4831109  )
        12           Mo1 tau(  12) = (   2.7429030   3.1672254  14.4729289  )

     number of k points=    20  Fermi-Dirac smearing, width (Ry)=  0.0110
                       cart. coord. in units 2pi/alat
        k(    1) = (   0.0000000   0.0000000   0.0000000), wk =   0.0555556
        k(    2) = (   0.0000000   0.0350815   0.0000000), wk =   0.1111111
        k(    3) = (   0.0000000   0.0701631   0.0000000), wk =   0.1111111
        k(    4) = (   0.0000000  -0.1052446   0.0000000), wk =   0.0555556
        k(    5) = (   0.0303815   0.0175408   0.0000000), wk =   0.1111111
        k(    6) = (   0.0303815   0.0526223   0.0000000), wk =   0.1111111
        k(    7) = (   0.0303815   0.0877038   0.0000000), wk =   0.1111111
        k(    8) = (   0.0303815  -0.0877038   0.0000000), wk =   0.1111111
        k(    9) = (   0.0303815  -0.0526223   0.0000000), wk =   0.1111111
        k(   10) = (   0.0303815  -0.0175408   0.0000000), wk =   0.1111111
        k(   11) = (   0.0607630   0.0350815   0.0000000), wk =   0.1111111
        k(   12) = (   0.0607630   0.0701631   0.0000000), wk =   0.1111111
        k(   13) = (   0.0607630   0.1052446   0.0000000), wk =   0.1111111
        k(   14) = (   0.0607630  -0.0701631   0.0000000), wk =   0.1111111
        k(   15) = (   0.0607630  -0.0350815   0.0000000), wk =   0.1111111
        k(   16) = (   0.0607630   0.0000000   0.0000000), wk =   0.1111111
        k(   17) = (  -0.0911445  -0.0526223   0.0000000), wk =   0.0555556
        k(   18) = (  -0.0911445  -0.0175408   0.0000000), wk =   0.1111111
        k(   19) = (  -0.0911445   0.0175408   0.0000000), wk =   0.1111111
        k(   20) = (  -0.0911445  -0.1578669   0.0000000), wk =   0.0555556

     Dense  grid:   512323 G-vectors     FFT dimensions: (  64,  64, 288)

     Smooth grid:   129245 G-vectors     FFT dimensions: (  45,  45, 180)

     Largest allocated arrays     est. size (Mb)     dimensions
        Kohn-Sham Wavefunctions         0.43 Mb     (     260,  109)
        NL pseudopotentials             0.86 Mb     (     260,  216)
        Each V/rho on FFT grid          0.31 Mb     (   20480)
        Each G-vector array             0.06 Mb     (    8023)
        G-vector shells                 0.03 Mb     (    3794)
     Largest temporary arrays     est. size (Mb)     dimensions
        Auxiliary wavefunctions         1.73 Mb     (     260,  436)
        Each subspace H/S matrix        2.90 Mb     (     436,  436)
        Each <psi_i|beta_j> matrix      0.36 Mb     (     216,  109)
        Arrays for rho mixing           3.12 Mb     (   20480,   10)

     Initial potential from superposition of free atoms
     Check: negative starting charge=   -0.008642

     starting charge  158.98576, renormalised to  159.00000

     negative rho (up, down):  8.643E-03 0.000E+00


     ************************************************************************
     *
     * You are using vdW-DF for exchange-correlation in this calculation.
     * Please cite the following three references that made this development
     * possible:
     *
     *   M. Dion, H. Rydberg, E. Schroder, D. C. Langreth, and
     *   B. I. Lundqvist, Phys. Rev. Lett. 92, 246401 (2004).
     *
     *   T. Thonhauser, V. R. Cooper, S. Li, A. Puzder, P. Hyldgaard, and
     *   D. C. Langreth, Phys. Rev. B 76, 125112 (2007).
     *
     *   G. Roman-Perez and J. M. Soler, Phys. Rev. Lett. 103, 096102 (2009).
     *
     *
     * If you are using vdW-DF2, please also cite:
     *
     *   K. Lee, E. D. Murray, L. Kong, B. I. Lundqvist, and
     *   D. C. Langreth, Phys. Rev. B 82, 081101(R) (2010).
     *
     *
     * If you are calculating the stress with vdW-DF, please also cite:
     *
     *   R. Sabatini, E. Kucukbenli, B. Kolb, T. Thonhauser, and
     *   S. de Gironcoli, J. Phys.: Condens. Matter 24, 424209 (2012).
     *
     ************************************************************************

     Carrying out vdW-DF run using the following parameters:

     Nqs =      20    Nr_points =    1024   r_max =   100.000
     q_mesh =
               0.00001000     0.04494208     0.09755937     0.15916263
               0.23128650     0.31572767     0.41458969     0.53033537
               0.66584808     0.82450364     1.01025438     1.22772762
               1.48234092     1.78043706     2.12944203     2.53805004
               3.01644009     3.57652955     4.23227104     5.00000000

     Gradients computed in reciprocal space

     ************************************************************************


 
     Adding external electric field

     Computed dipole along edir(3) : 
        Dipole               -0.0000 Ry au,         -0.0000 Debye
        Dipole field         -0.0000 Ry au
 
        Potential amp.        0.0000 Ry
        Total length         45.1024 bohr
 
     Starting wfc are  129 randomized atomic wfcs

     total cpu time spent up to now is       22.8 secs

     per-process dynamical memory:    33.9 Mb

     Self-consistent Calculation

     iteration #  1     ecut=    36.75 Ry     beta=0.10
     Davidson diagonalization with overlap
     ethr =  1.00E-02,  avg # of iterations =  2.2

     negative rho (up, down):  8.842E-03 0.000E+00
 
     Adding external electric field

     Computed dipole along edir(3) : 
        Dipole               -0.0013 Ry au,         -0.0032 Debye
        Dipole field         -0.0000 Ry au
 
        Potential amp.        0.0003 Ry
        Total length         45.1024 bohr
 

     total cpu time spent up to now is       71.7 secs

     total energy              =   -1730.13731916 Ry
     Harris-Foulkes estimate   =   -1732.15327869 Ry
     estimated scf accuracy    <      11.11316939 Ry

     iteration #  2     ecut=    36.75 Ry     beta=0.10
     Davidson diagonalization with overlap
     ethr =  6.99E-03,  avg # of iterations =  2.8

     negative rho (up, down):  8.968E-03 0.000E+00
 
     Adding external electric field

     Computed dipole along edir(3) : 
        Dipole                0.0022 Ry au,          0.0057 Debye
        Dipole field          0.0000 Ry au
 
        Potential amp.       -0.0006 Ry
        Total length         45.1024 bohr
 

     total cpu time spent up to now is      117.8 secs

     total energy              =   -1730.83855924 Ry
     Harris-Foulkes estimate   =   -1732.65484205 Ry
     estimated scf accuracy    <      24.20537017 Ry

     iteration #  3     ecut=    36.75 Ry     beta=0.10
     Davidson diagonalization with overlap
     ethr =  6.99E-03,  avg # of iterations =  1.2

     negative rho (up, down):  9.551E-03 0.000E+00
 
     Adding external electric field

     Computed dipole along edir(3) : 
        Dipole               -0.0387 Ry au,         -0.0984 Debye
        Dipole field         -0.0001 Ry au
 
        Potential amp.        0.0102 Ry
        Total length         45.1024 bohr
 

     total cpu time spent up to now is      161.0 secs

     total energy              =   -1731.34486265 Ry
     Harris-Foulkes estimate   =   -1731.55718610 Ry
     estimated scf accuracy    <       1.18494269 Ry

     iteration #  4     ecut=    36.75 Ry     beta=0.10
     Davidson diagonalization with overlap
     ethr =  7.45E-04,  avg # of iterations =  4.5

     negative rho (up, down):  9.852E-03 0.000E+00
 
     Adding external electric field

     Computed dipole along edir(3) : 
        Dipole                0.3000 Ry au,          0.7625 Debye
        Dipole field          0.0009 Ry au
 
        Potential amp.       -0.0790 Ry
        Total length         45.1024 bohr
 

     total cpu time spent up to now is      214.3 secs

     total energy              =   -1731.37674470 Ry
     Harris-Foulkes estimate   =   -1731.47785927 Ry
     estimated scf accuracy    <       1.43022355 Ry

     iteration #  5     ecut=    36.75 Ry     beta=0.10
     Davidson diagonalization with overlap
     ethr =  7.45E-04,  avg # of iterations =  1.0

     negative rho (up, down):  9.967E-03 0.000E+00
 
     Adding external electric field

     Computed dipole along edir(3) : 
        Dipole               -0.0088 Ry au,         -0.0224 Debye
        Dipole field         -0.0000 Ry au
 
        Potential amp.        0.0023 Ry
        Total length         45.1024 bohr
 

     total cpu time spent up to now is      262.6 secs

     total energy              =   -1731.25721606 Ry
     Harris-Foulkes estimate   =   -1731.60860632 Ry
     estimated scf accuracy    <      23.52059367 Ry

     iteration #  6     ecut=    36.75 Ry     beta=0.10
     Davidson diagonalization with overlap
     ethr =  7.45E-04,  avg # of iterations =  1.0

     negative rho (up, down):  9.954E-03 0.000E+00
 
     Adding external electric field

     Computed dipole along edir(3) : 
        Dipole               -0.0041 Ry au,         -0.0105 Debye
        Dipole field         -0.0000 Ry au
 
        Potential amp.        0.0011 Ry
        Total length         45.1024 bohr
 

     total cpu time spent up to now is      309.5 secs

     total energy              =   -1731.39766211 Ry
     Harris-Foulkes estimate   =   -1731.43027654 Ry
     estimated scf accuracy    <       0.18801731 Ry

     iteration #  7     ecut=    36.75 Ry     beta=0.10
     Davidson diagonalization with overlap
     ethr =  1.18E-04,  avg # of iterations =  4.5

     negative rho (up, down):  1.016E-02 0.000E+00
 
     Adding external electric field

     Computed dipole along edir(3) : 
        Dipole               -0.0022 Ry au,         -0.0057 Debye
        Dipole field         -0.0000 Ry au
 
        Potential amp.        0.0006 Ry
        Total length         45.1024 bohr
 

     total cpu time spent up to now is      359.9 secs

     total energy              =   -1731.42581407 Ry
     Harris-Foulkes estimate   =   -1731.44529467 Ry
     estimated scf accuracy    <       0.44088983 Ry

     iteration #  8     ecut=    36.75 Ry     beta=0.10
     Davidson diagonalization with overlap
     ethr =  1.18E-04,  avg # of iterations =  1.0

     negative rho (up, down):  1.097E-02 0.000E+00
 
     Adding external electric field

     Computed dipole along edir(3) : 
        Dipole                0.0019 Ry au,          0.0049 Debye
        Dipole field          0.0000 Ry au
 
        Potential amp.       -0.0005 Ry
        Total length         45.1024 bohr
 

     total cpu time spent up to now is      403.0 secs

     total energy              =   -1731.40193406 Ry
     Harris-Foulkes estimate   =   -1731.42863087 Ry
     estimated scf accuracy    <       0.23384626 Ry

     iteration #  9     ecut=    36.75 Ry     beta=0.10
     Davidson diagonalization with overlap
     ethr =  1.18E-04,  avg # of iterations =  2.0

     negative rho (up, down):  1.102E-02 0.000E+00
 
     Adding external electric field

     Computed dipole along edir(3) : 
        Dipole               -0.0013 Ry au,         -0.0034 Debye
        Dipole field         -0.0000 Ry au
 
        Potential amp.        0.0004 Ry
        Total length         45.1024 bohr
 

     total cpu time spent up to now is      448.7 secs

     total energy              =   -1731.41398032 Ry
     Harris-Foulkes estimate   =   -1731.41435737 Ry
     estimated scf accuracy    <       0.01476656 Ry

     iteration # 10     ecut=    36.75 Ry     beta=0.10
     Davidson diagonalization with overlap
     ethr =  9.29E-06,  avg # of iterations =  6.2

     negative rho (up, down):  1.112E-02 0.000E+00
 
     Adding external electric field

     Computed dipole along edir(3) : 
        Dipole               -0.0031 Ry au,         -0.0079 Debye
        Dipole field         -0.0000 Ry au
 
        Potential amp.        0.0008 Ry
        Total length         45.1024 bohr
 

     total cpu time spent up to now is      508.2 secs

     total energy              =   -1731.41690526 Ry
     Harris-Foulkes estimate   =   -1731.41601712 Ry
     estimated scf accuracy    <       0.00753576 Ry

     iteration # 11     ecut=    36.75 Ry     beta=0.10
     Davidson diagonalization with overlap
     ethr =  4.74E-06,  avg # of iterations =  1.6

     negative rho (up, down):  1.131E-02 0.000E+00
 
     Adding external electric field

     Computed dipole along edir(3) : 
        Dipole                0.0002 Ry au,          0.0005 Debye
        Dipole field          0.0000 Ry au
 
        Potential amp.       -0.0001 Ry
        Total length         45.1024 bohr
 

     total cpu time spent up to now is      553.7 secs

     total energy              =   -1731.41592480 Ry
     Harris-Foulkes estimate   =   -1731.41752114 Ry
     estimated scf accuracy    <       0.01766712 Ry

     iteration # 12     ecut=    36.75 Ry     beta=0.10
     Davidson diagonalization with overlap
     ethr =  4.74E-06,  avg # of iterations =  2.2

     negative rho (up, down):  1.134E-02 0.000E+00
 
     Adding external electric field

     Computed dipole along edir(3) : 
        Dipole                0.0013 Ry au,          0.0033 Debye
        Dipole field          0.0000 Ry au
 
        Potential amp.       -0.0003 Ry
        Total length         45.1024 bohr
 

     total cpu time spent up to now is      603.0 secs

     total energy              =   -1731.41662991 Ry
     Harris-Foulkes estimate   =   -1731.41678211 Ry
[...]

   -63.0178 -63.0163 -62.9827 -62.9582 -62.9542 -62.9495 -62.9422 -62.9231
   -62.9215 -59.5613 -59.4211 -59.4125 -36.9983 -36.9892 -36.9566 -36.9340
   -36.9132 -36.9130 -36.8503 -36.8482 -36.8412 -36.8393 -36.8180 -36.8103
   -36.7972 -36.7970 -36.7555 -36.7320 -36.7308 -36.7281 -36.6720 -36.6677
   -36.6624 -36.6467 -36.6441 -36.6363 -36.6113 -36.5702 -36.5661 -33.6051
   -33.6050 -33.5798 -33.4811 -33.4805 -33.4564 -33.4545 -33.4431 -33.4429
    -2.6332  -2.5827  -2.5727  -1.6474  -1.6450  -1.4356  -1.0059  -0.9609
    -0.9558  -0.6608  -0.6558  -0.6342  -0.5199  -0.5134  -0.2298  -0.1824
    -0.1657   0.0255   0.0426   0.0677   0.0792   0.0930   0.1389   0.1805
     0.4296   0.4779   0.5113   0.5670   0.5893   0.8775   0.9412   0.9895
     1.0080   1.0518   1.4668   1.4773   1.5818   1.7384   1.7510   1.7523
     2.0479   2.0720   2.0914   2.3895   2.3943   2.4559   2.5936   2.6038
     2.7948   2.8643   2.8698   3.3160   3.3240   3.4121   3.4475   3.4691
     3.5420   3.5420   3.5708   3.6059   3.7421

          k = 0.0608-0.0702 0.0000 ( 16212 PWs)   bands (ev):

   -63.0295 -63.0062 -62.9806 -62.9657 -62.9581 -62.9427 -62.9390 -62.9232
   -62.9205 -59.5612 -59.4210 -59.4124 -37.0278 -36.9891 -36.9618 -36.9464
   -36.9266 -36.8923 -36.8840 -36.8803 -36.8624 -36.8401 -36.8116 -36.8063
   -36.7923 -36.7592 -36.7465 -36.7354 -36.7333 -36.7105 -36.6899 -36.6794
   -36.6591 -36.6487 -36.6304 -36.6230 -36.6090 -36.5502 -36.5449 -33.6111
   -33.5920 -33.5798 -33.4852 -33.4767 -33.4598 -33.4491 -33.4434 -33.4306
    -3.3755  -2.5482  -2.0677  -1.9066  -1.6998  -1.6004  -1.3532  -1.1820
    -0.9205  -0.8697  -0.8253  -0.7059  -0.6404  -0.5422  -0.3136  -0.2499
    -0.2103   0.0094   0.0165   0.1402   0.1998   0.2907   0.3564   0.5017
     0.5834   0.7289   0.7599   0.8394   0.8575   0.9368   0.9863   1.0882
     1.1768   1.2722   1.3506   1.3837   1.4645   1.6476   1.7570   1.8330
     1.9350   2.2483   2.2997   2.3430   2.3859   2.4717   2.5072   2.5353
     2.6502   2.8649   2.9677   3.0518   3.1492   3.2408   3.3333   3.4194
     3.4945   3.5239   3.5981   3.7376   3.7654

          k = 0.0608-0.0351 0.0000 ( 16169 PWs)   bands (ev):

   -63.0394 -62.9982 -62.9783 -62.9738 -62.9638 -62.9374 -62.9314 -62.9240
   -62.9194 -59.5609 -59.4207 -59.4122 -37.0569 -37.0015 -36.9667 -36.9627
   -36.9469 -36.9214 -36.9209 -36.9083 -36.8503 -36.8368 -36.8252 -36.8207
   -36.8019 -36.7758 -36.7479 -36.7361 -36.7022 -36.6888 -36.6795 -36.6590
   -36.6361 -36.6274 -36.6182 -36.6096 -36.6009 -36.5334 -36.5278 -33.6053
   -33.5837 -33.5798 -33.4880 -33.4727 -33.4546 -33.4432 -33.4361 -33.4225
    -3.9275  -2.5069  -2.3764  -1.8816  -1.8673  -1.7938  -1.5495  -1.4962
    -1.1546  -1.0490  -1.0441  -0.8962  -0.8639  -0.8512  -0.4403  -0.4272
    -0.2775  -0.0613   0.1667   0.3519   0.4520   0.5485   0.5769   0.7549
     0.8685   0.9761   1.0116   1.0800   1.1151   1.1422   1.1932   1.2797
     1.3860   1.4321   1.4713   1.6706   1.6865   1.7021   1.7581   1.7861
     1.8071   1.8623   2.1762   2.3079   2.3272   2.6175   2.7065   2.7394
     2.8977   3.0225   3.1214   3.2137   3.2160   3.2496   3.4119   3.4438
     3.5499   3.6120   3.6896   3.7769   3.8988

          k = 0.0608 0.0000 0.0000 ( 16226 PWs)   bands (ev):

   -63.0431 -62.9942 -62.9796 -62.9762 -62.9660 -62.9332 -62.9306 -62.9224
   -62.9203 -59.5608 -59.4206 -59.4121 -37.0660 -36.9990 -36.9895 -36.9623
   -36.9576 -36.9393 -36.9266 -36.9148 -36.8583 -36.8431 -36.8330 -36.8211
   -36.8113 -36.7789 -36.7508 -36.7333 -36.6859 -36.6795 -36.6783 -36.6524
   -36.6304 -36.6221 -36.6057 -36.5842 -36.5787 -36.5390 -36.5334 -33.5981
   -33.5837 -33.5798 -33.4890 -33.4707 -33.4485 -33.4380 -33.4345 -33.4226
    -4.1231  -2.6647  -2.1484  -2.0415  -1.9107  -1.8775  -1.8474  -1.5041
    -1.2325  -1.1156  -1.1030  -1.0356  -1.0190  -0.8998  -0.5882  -0.4450
    -0.3550  -0.0692   0.2495   0.4873   0.5920   0.6206   0.6230   0.7826
     0.8430   1.0504   1.0625   1.0903   1.1914   1.2680   1.3140   1.3648
     1.4069   1.5014   1.5707   1.6365   1.6963   1.7117   1.7679   1.8812
     1.9930   2.0581   2.0824   2.3244   2.4916   2.5084   2.6257   2.8634
     3.0518   3.1153   3.2191   3.2931   3.3019   3.4792   3.5429   3.5583
     3.6375   3.6556   3.7992   3.8759   4.0998

          k =-0.0911-0.0526 0.0000 ( 16164 PWs)   bands (ev):

   -63.0286 -63.0086 -62.9783 -62.9653 -62.9583 -62.9444 -62.9387 -62.9240
   -62.9194 -59.5612 -59.4210 -59.4124 -37.0349 -36.9935 -36.9693 -36.9237
   -36.9171 -36.9059 -36.8933 -36.8884 -36.8505 -36.8376 -36.8095 -36.7907
   -36.7589 -36.7583 -36.7451 -36.7388 -36.7348 -36.7206 -36.6996 -36.6848
   -36.6768 -36.6608 -36.6415 -36.6373 -36.6027 -36.5355 -36.5300 -33.6160
   -33.5871 -33.5798 -33.4855 -33.4778 -33.4632 -33.4530 -33.4395 -33.4259
    -3.1374  -3.0337  -2.0337  -1.8149  -1.6115  -1.5582  -1.3425  -1.1587
    -0.9960  -0.9157  -0.8921  -0.5839  -0.5767  -0.4545  -0.3918  -0.2161
    -0.1417  -0.0927   0.0229   0.1882   0.2621   0.3282   0.3824   0.5978
     0.6575   0.6614   0.6957   0.8456   0.9254   0.9272   0.9761   1.1195
     1.2338   1.2785   1.3004   1.3367   1.3871   1.4186   1.8422   1.8561
     2.1291   2.1604   2.3433   2.3497   2.3688   2.3928   2.6022   2.7202
     2.7359   2.7893   2.8593   2.8909   2.9433   2.9472   3.0539   3.1974
     3.2474   3.4271   3.5655   3.6869   3.8935

          k =-0.0911-0.0175 0.0000 ( 16212 PWs)   bands (ev):

   -63.0295 -63.0063 -62.9806 -62.9657 -62.9581 -62.9427 -62.9390 -62.9232
   -62.9205 -59.5612 -59.4210 -59.4124 -37.0278 -36.9891 -36.9618 -36.9464
   -36.9266 -36.8923 -36.8840 -36.8803 -36.8624 -36.8401 -36.8116 -36.8063
   -36.7923 -36.7592 -36.7465 -36.7354 -36.7333 -36.7105 -36.6899 -36.6793
   -36.6591 -36.6487 -36.6304 -36.6230 -36.6089 -36.5501 -36.5449 -33.6111
   -33.5920 -33.5798 -33.4852 -33.4767 -33.4598 -33.4491 -33.4434 -33.4306
    -3.3755  -2.5482  -2.0677  -1.9066  -1.6998  -1.6005  -1.3532  -1.1820
    -0.9205  -0.8697  -0.8253  -0.7058  -0.6404  -0.5422  -0.3136  -0.2499
    -0.2103   0.0094   0.0165   0.1402   0.1998   0.2907   0.3564   0.5016
     0.5834   0.7289   0.7599   0.8394   0.8575   0.9368   0.9863   1.0882
     1.1768   1.2722   1.3506   1.3837   1.4645   1.6476   1.7570   1.8331
     1.9350   2.2483   2.2997   2.3430   2.3859   2.4717   2.5072   2.5353
     2.6502   2.8649   2.9676   3.0519   3.1492   3.2408   3.3333   3.4194
     3.4945   3.5239   3.5981   3.7375   3.7654

          k =-0.0911 0.0175 0.0000 ( 16212 PWs)   bands (ev):

   -63.0295 -63.0062 -62.9806 -62.9657 -62.9581 -62.9427 -62.9390 -62.9232
   -62.9205 -59.5612 -59.4210 -59.4124 -37.0278 -36.9891 -36.9618 -36.9464
   -36.9266 -36.8923 -36.8840 -36.8803 -36.8624 -36.8401 -36.8116 -36.8063
   -36.7923 -36.7591 -36.7465 -36.7354 -36.7333 -36.7105 -36.6899 -36.6793
   -36.6591 -36.6487 -36.6304 -36.6230 -36.6090 -36.5502 -36.5449 -33.6111
   -33.5920 -33.5798 -33.4852 -33.4767 -33.4598 -33.4491 -33.4434 -33.4306
    -3.3755  -2.5482  -2.0677  -1.9066  -1.6998  -1.6004  -1.3532  -1.1820
    -0.9205  -0.8697  -0.8253  -0.7059  -0.6404  -0.5422  -0.3136  -0.2499
    -0.2103   0.0094   0.0165   0.1402   0.1998   0.2907   0.3564   0.5016
     0.5834   0.7289   0.7599   0.8394   0.8574   0.9368   0.9863   1.0882
     1.1768   1.2722   1.3506   1.3837   1.4645   1.6476   1.7570   1.8330
     1.9350   2.2483   2.2997   2.3430   2.3859   2.4717   2.5072   2.5353
     2.6502   2.8649   2.9676   3.0518   3.1492   3.2408   3.3333   3.4194
     3.4945   3.5239   3.5981   3.7376   3.7654

          k =-0.0911-0.1579 0.0000 ( 16164 PWs)   bands (ev):

   -63.0287 -63.0086 -62.9784 -62.9653 -62.9583 -62.9444 -62.9387 -62.9240
   -62.9194 -59.5612 -59.4210 -59.4124 -37.0350 -36.9934 -36.9694 -36.9237
   -36.9171 -36.9059 -36.8933 -36.8884 -36.8505 -36.8376 -36.8094 -36.7907
   -36.7589 -36.7583 -36.7450 -36.7388 -36.7348 -36.7206 -36.6996 -36.6848
   -36.6768 -36.6608 -36.6416 -36.6373 -36.6028 -36.5355 -36.5300 -33.6160
   -33.5871 -33.5798 -33.4855 -33.4778 -33.4632 -33.4530 -33.4395 -33.4259
    -3.1374  -3.0337  -2.0337  -1.8149  -1.6114  -1.5581  -1.3425  -1.1587
    -0.9960  -0.9158  -0.8920  -0.5839  -0.5767  -0.4545  -0.3918  -0.2161
    -0.1417  -0.0926   0.0229   0.1882   0.2621   0.3282   0.3824   0.5978
     0.6575   0.6614   0.6957   0.8456   0.9254   0.9272   0.9760   1.1195
     1.2339   1.2785   1.3004   1.3367   1.3871   1.4186   1.8421   1.8562
     2.1291   2.1605   2.3433   2.3496   2.3688   2.3928   2.6022   2.7202
     2.7358   2.7892   2.8593   2.8909   2.9433   2.9473   3.0539   3.1974
     3.2474   3.4271   3.5655   3.6869   3.8934

     the Fermi energy is     1.2739 ev

!    total energy              =   -1731.41699114 Ry
     Harris-Foulkes estimate   =   -1731.41699094 Ry
     estimated scf accuracy    <       0.00000037 Ry

     The total energy is the sum of the following terms:

     one-electron contribution =  -14747.89085780 Ry
     hartree contribution      =    7362.14211197 Ry
     xc contribution           =    -242.99793956 Ry
     ewald contribution        =    5897.47458599 Ry
     electric field correction =       0.00000002 Ry
     smearing contrib. (-TS)   =      -0.14489175 Ry

     convergence has been achieved in  24 iterations
 
 BEEF-vdW xc energy contributions
           1 :   -209.256599420358     
           2 :    188.593947116100     
           3 :   -154.213530446516     
           4 :    116.608352497513     
           5 :   -85.1708279440929     
           6 :    64.7090663417749     
           7 :   -54.6768719134797     
           8 :    50.9637668172516     
           9 :   -48.8373600340934     
          10 :    45.3176357532937     
          11 :   -39.9684731348689     
          12 :    34.1343755194368     
          13 :   -29.4635972720927     
          14 :    26.7108874242459     
          15 :   -25.4320716686795     
          16 :    24.5229733423241     
          17 :   -23.0752400208365     
          18 :    20.9214424422804     
          19 :   -18.5676033693072     
          20 :    16.6668902471936     
          21 :   -15.4886364410528     
          22 :    14.7643699055085     
          23 :   -13.9695766757314     
          24 :    12.7665680840326     
          25 :   -11.2548989960757     
          26 :    9.85733718494510     
          27 :   -8.96277816596483     
          28 :    8.61069763968635     
          29 :   -8.45209700022264     
          30 :    8.00352758315373     
          31 :   -22.1702743656170     
          32 :   -16.2459834123014     

     Forces acting on atoms (Ry/au):


     negative rho (up, down):  1.090E-02 0.000E+00
     atom    1 type  1   force =     0.00000178   -0.00478897   -0.00175331
     atom    2 type  1   force =    -0.00414783    0.00239715   -0.00175728
     atom    3 type  1   force =     0.00414824    0.00239502   -0.00175860
     atom    4 type  2   force =    -0.00000015    0.00000053    0.00236430
     atom    5 type  1   force =    -0.00000383    0.00069345   -0.00243442
     atom    6 type  1   force =     0.00059660   -0.00034865   -0.00242912
     atom    7 type  1   force =    -0.00059767   -0.00034497   -0.00243394
     atom    8 type  2   force =     0.00000082   -0.00000018    0.01182379
     atom    9 type  1   force =     0.00000482   -0.00105361   -0.00054992
     atom   10 type  1   force =    -0.00090516    0.00052791   -0.00054835
     atom   11 type  1   force =     0.00090832    0.00052383   -0.00055910
     atom   12 type  2   force =    -0.00000594   -0.00000151    0.00003595

     Total force =     0.015713     Total SCF correction =     0.002382
     SCF correction compared to forces is large: reduce conv_thr to get better values


     entering subroutine stress ...


     negative rho (up, down):  1.090E-02 0.000E+00
          total   stress  (Ry/bohr**3)                   (kbar)     P=  -25.70
  -0.00025939   0.00000000   0.00000001        -38.16      0.00      0.00
   0.00000000  -0.00025939  -0.00000000          0.00    -38.16     -0.00
   0.00000001  -0.00000000  -0.00000543          0.00     -0.00     -0.80

 !ASE

     Writing output data file calc.save
 
     init_run     :     17.32s CPU     28.91s WALL (       1 calls)
     electrons    :    757.71s CPU   1235.01s WALL (       1 calls)
     forces       :      2.19s CPU      2.88s WALL (       1 calls)
     stress       :      4.84s CPU      5.93s WALL (       1 calls)

     Called by init_run:
     wfcinit      :     15.21s CPU     25.98s WALL (       1 calls)
     potinit      :      1.06s CPU      1.61s WALL (       1 calls)

     Called by electrons:
     c_bands      :    588.10s CPU    956.75s WALL (      24 calls)
     sum_band     :    111.39s CPU    188.87s WALL (      24 calls)
     v_of_rho     :     22.33s CPU     34.72s WALL (      25 calls)
     newd         :      5.22s CPU      5.67s WALL (      25 calls)
     mix_rho      :      1.19s CPU      1.92s WALL (      24 calls)
     vdW_energy   :      1.46s CPU      1.47s WALL (      61 calls)
     vdW_ffts     :     35.68s CPU     57.77s WALL (     124 calls)
     vdW_v        :      6.02s CPU      9.28s WALL (      61 calls)

     Called by c_bands:
     init_us_2    :      0.45s CPU      0.48s WALL (    1020 calls)
     cegterg      :    580.09s CPU    945.92s WALL (     480 calls)

     Called by *egterg:
     h_psi        :    458.52s CPU    799.07s WALL (    1576 calls)
     s_psi        :      5.76s CPU      5.78s WALL (    1576 calls)
     g_psi        :      0.33s CPU      0.30s WALL (    1076 calls)
     cdiaghg      :     63.85s CPU     69.09s WALL (    1556 calls)

     Called by h_psi:
     add_vuspsi   :      6.09s CPU      6.14s WALL (    1576 calls)

     General routines
     calbec       :     24.94s CPU     35.65s WALL (    2096 calls)
     fft          :     53.78s CPU     87.08s WALL (    3753 calls)
     ffts         :      0.20s CPU      0.30s WALL (      49 calls)
     fftw         :    525.47s CPU    931.02s WALL (  276270 calls)
     interpolate  :      0.90s CPU      1.45s WALL (      49 calls)
     davcio       :      0.00s CPU      0.01s WALL (      20 calls)
 
     Parallel routines
     fft_scatter  :    555.98s CPU    993.03s WALL (  280072 calls)
 
     PWSCF        : 13m 3.13s CPU    21m14.53s WALL

 
   This run was terminated on:   5:51:51   2Jan2019            

=------------------------------------------------------------------------------=
   JOB DONE.
=------------------------------------------------------------------------------=
Job  /afs/slac/g/suncat/bin/suncat-tsmpirun -x LD_LIBRARY_PATH -wdir /scratch/qe649313_1NDUo pw.x -in pw.inp

TID   HOST_NAME   COMMAND_LINE            STATUS            TERMINATION_TIME
===== ========== ================  =======================  ===================
00000 suncat0141 pw.x -in pw.inp   Done                     01/02/2019 05:51:51
00001 suncat0141 pw.x -in pw.inp   Done                     01/02/2019 05:51:51
00002 suncat0141 pw.x -in pw.inp   Done                     01/02/2019 05:51:51
00003 suncat0141 pw.x -in pw.inp   Done                     01/02/2019 05:51:51
00004 suncat0141 pw.x -in pw.inp   Done                     01/02/2019 05:51:51
00005 suncat0141 pw.x -in pw.inp   Done                     01/02/2019 05:51:51
00006 suncat0141 pw.x -in pw.inp   Done                     01/02/2019 05:51:51
00007 suncat0141 pw.x -in pw.inp   Done                     01/02/2019 05:51:51
00008 suncat0140 pw.x -in pw.inp   Done                     01/02/2019 05:51:51
00009 suncat0140 pw.x -in pw.inp   Done                     01/02/2019 05:51:51
00010 suncat0140 pw.x -in pw.inp   Done                     01/02/2019 05:51:51
00011 suncat0140 pw.x -in pw.inp   Done                     01/02/2019 05:51:51
00012 suncat0140 pw.x -in pw.inp   Done                     01/02/2019 05:51:51
00013 suncat0140 pw.x -in pw.inp   Done                     01/02/2019 05:51:51
00014 suncat0140 pw.x -in pw.inp   Done                     01/02/2019 05:51:51
00015 suncat0140 pw.x -in pw.inp   Done                     01/02/2019 05:51:51
00016 suncat0135 pw.x -in pw.inp   Done                     01/02/2019 05:51:51
00017 suncat0135 pw.x -in pw.inp   Done                     01/02/2019 05:51:51
00018 suncat0135 pw.x -in pw.inp   Done                     01/02/2019 05:51:51
00019 suncat0135 pw.x -in pw.inp   Done                     01/02/2019 05:51:51
00020 suncat0135 pw.x -in pw.inp   Done                     01/02/2019 05:51:51
00021 suncat0135 pw.x -in pw.inp   Done                     01/02/2019 05:51:51
00022 suncat0135 pw.x -in pw.inp   Done                     01/02/2019 05:51:51
00023 suncat0135 pw.x -in pw.inp   Done                     01/02/2019 05:51:51
00024 suncat0134 pw.x -in pw.inp   Done                     01/02/2019 05:51:51
00025 suncat0134 pw.x -in pw.inp   Done                     01/02/2019 05:51:51
00026 suncat0134 pw.x -in pw.inp   Done                     01/02/2019 05:51:51
00027 suncat0134 pw.x -in pw.inp   Done                     01/02/2019 05:51:51
00028 suncat0134 pw.x -in pw.inp   Done                     01/02/2019 05:51:51
00029 suncat0134 pw.x -in pw.inp   Done                     01/02/2019 05:51:51
00030 suncat0134 pw.x -in pw.inp   Done                     01/02/2019 05:51:51
00031 suncat0134 pw.x -in pw.inp   Done                     01/02/2019 05:51:51
00032 suncat0272 pw.x -in pw.inp   Done                     01/02/2019 05:51:51
00033 suncat0272 pw.x -in pw.inp   Done                     01/02/2019 05:51:51
00034 suncat0272 pw.x -in pw.inp   Done                     01/02/2019 05:51:51
00035 suncat0272 pw.x -in pw.inp   Done                     01/02/2019 05:51:51
00036 suncat0272 pw.x -in pw.inp   Done                     01/02/2019 05:51:51
00037 suncat0272 pw.x -in pw.inp   Done                     01/02/2019 05:51:51
00038 suncat0272 pw.x -in pw.inp   Done                     01/02/2019 05:51:51
00039 suncat0272 pw.x -in pw.inp   Done                     01/02/2019 05:51:51
00040 suncat0262 pw.x -in pw.inp   Done                     01/02/2019 05:51:51
00041 suncat0262 pw.x -in pw.inp   Done                     01/02/2019 05:51:51
00042 suncat0262 pw.x -in pw.inp   Done                     01/02/2019 05:51:51
00043 suncat0262 pw.x -in pw.inp   Done                     01/02/2019 05:51:51
00044 suncat0262 pw.x -in pw.inp   Done                     01/02/2019 05:51:51
00045 suncat0262 pw.x -in pw.inp   Done                     01/02/2019 05:51:51
00046 suncat0262 pw.x -in pw.inp   Done                     01/02/2019 05:51:51
00047 suncat0262 pw.x -in pw.inp   Done                     01/02/2019 05:51:51
00048 suncat0258 pw.x -in pw.inp   Done                     01/02/2019 05:51:51
00049 suncat0258 pw.x -in pw.inp   Done                     01/02/2019 05:51:51
00050 suncat0258 pw.x -in pw.inp   Done                     01/02/2019 05:51:51
00051 suncat0258 pw.x -in pw.inp   Done                     01/02/2019 05:51:51
00052 suncat0258 pw.x -in pw.inp   Done                     01/02/2019 05:51:51
00053 suncat0258 pw.x -in pw.inp   Done                     01/02/2019 05:51:51
00054 suncat0258 pw.x -in pw.inp   Done                     01/02/2019 05:51:51
00055 suncat0258 pw.x -in pw.inp   Done                     01/02/2019 05:51:51
00056 suncat0257 pw.x -in pw.inp   Done                     01/02/2019 05:51:51
00057 suncat0257 pw.x -in pw.inp   Done                     01/02/2019 05:51:51
00058 suncat0257 pw.x -in pw.inp   Done                     01/02/2019 05:51:51
00059 suncat0257 pw.x -in pw.inp   Done                     01/02/2019 05:51:51
00060 suncat0257 pw.x -in pw.inp   Done                     01/02/2019 05:51:51
00061 suncat0257 pw.x -in pw.inp   Done                     01/02/2019 05:51:51
00062 suncat0257 pw.x -in pw.inp   Done                     01/02/2019 05:51:51
00063 suncat0257 pw.x -in pw.inp   Done                     01/02/2019 05:51:51
