  python dir          : /u/if/mamunm/src/espresso
  espresso dir        : /nfs/slac/g/suncatfs/sw/espv18/espresso-dynpy-beef/bin
  pseudo dir          : /afs/slac.stanford.edu/u/if/mamunm/psp/gbrv1.5pbe
  ase-espresso py git : GITVERSION



     Program PWSCF v.5.1rc2 (svn rev. 11289) starts on 27Dec2018 at 20:17:41 

     This program is part of the open-source Quantum ESPRESSO suite
     for quantum simulation of materials; please cite
         "P. Giannozzi et al., J. Phys.:Condens. Matter 21 395502 (2009);
          URL http://www.quantum-espresso.org", 
     in publications or presentations arising from this work. More details at
     http://www.quantum-espresso.org/quote

     Parallel version (MPI), running on    64 processors
     R & G space division:  proc/nbgrp/npool/nimage =      64
     Reading input from pw.inp
     Message from routine read_cards :
     DEPRECATED: no units specified in CELL_PARAMETERS card

     Current dimensions of program PWSCF are:
     Max number of different atomic species (ntypx) = 10
     Max number of k-points (npk) =  40000
     Max angular momentum in pseudopotentials (lmaxx) =  3
     Presently stress not available with electric field


     **************************************************************************
     Initializing libbeef V0.1.1 with the BEEF-vdW functional.
     Citation: Wellendorff et al., PRB 85, 235149 (2012).
     **************************************************************************


     IMPORTANT: XC functional enforced from input :
     Exchange-correlation      = BEEF-VDW ( 1  4 27 13 2)
     Any further DFT definition will be discarded
     Please, verify this is what you really want


     Subspace diagonalization in iterative solution of the eigenvalue problem:
     a serial algorithm will be used

 
     Parallelization info
     --------------------
     sticks:   dense  smooth     PW     G-vecs:    dense   smooth      PW
     Min          43      17      5                 8293     2081     343
     Max          44      18      7                 8318     2120     356
     Sum        2815    1135    349               531997   134693   22347
 


     bravais-lattice index     =            0
     lattice parameter (alat)  =       1.8897  a.u.
     unit-cell volume          =    4472.3824 (a.u.)^3
     number of atoms/cell      =           12
     number of atomic types    =            2
     number of electrons       =       177.00
     number of Kohn-Sham states=          118
     kinetic-energy cutoff     =      36.7493  Ry
     charge density cutoff     =     367.4932  Ry
     convergence threshold     =      1.0E-06
     mixing beta               =       0.1000
     number of iterations used =           10  plain     mixing
     Exchange-correlation      = BEEF-VDW ( 1  4 27 13 2)
     nstep                     =           50


     celldm(1)=   1.889726  celldm(2)=   0.000000  celldm(3)=   0.000000
     celldm(4)=   0.000000  celldm(5)=   0.000000  celldm(6)=   0.000000

     crystal axes: (cart. coord. in units of alat)
               a(1) = (   5.582262   0.000000   0.000000 )  
               a(2) = (  -2.791131   4.834381   0.000000 )  
               a(3) = (   0.000000   0.000000  24.557898 )  

     reciprocal axes: (cart. coord. in units 2 pi/alat)
               b(1) = (  0.179139  0.103426  0.000000 )  
               b(2) = (  0.000000  0.206852  0.000000 )  
               b(3) = (  0.000000  0.000000  0.040720 )  


     PseudoPot. # 1 for Re read from file:
     /afs/slac.stanford.edu/u/if/mamunm/psp/gbrv1.5pbe/Re.UPF
     MD5 check sum: 85f993410f3e006da9d71c142b4ad953
     Pseudo is Ultrasoft + core correction, Zval = 15.0
     Generated by new atomic code, or converted to UPF format
     Using radial grid of  981 points,  8 beta functions with: 
                l(1) =   0
                l(2) =   0
                l(3) =   1
                l(4) =   1
                l(5) =   2
                l(6) =   2
                l(7) =   3
                l(8) =   3
     Q(r) pseudized with  8 coefficients,  rinner =    1.150   1.150   1.150
                                                       1.150   1.150   1.150
                                                       1.150

     PseudoPot. # 2 for W  read from file:
     /afs/slac.stanford.edu/u/if/mamunm/psp/gbrv1.5pbe/W.UPF
     MD5 check sum: 9c083fa34c2a2ea0f02f1f893e16e1c8
     Pseudo is Ultrasoft + core correction, Zval = 14.0
     Generated by new atomic code, or converted to UPF format
     Using radial grid of  923 points,  8 beta functions with: 
                l(1) =   0
                l(2) =   0
                l(3) =   0
                l(4) =   1
                l(5) =   1
                l(6) =   2
                l(7) =   2
                l(8) =   3
     Q(r) pseudized with  6 coefficients,  rinner =    1.350   1.350   1.350
                                                       1.350   1.350   1.350
                                                       1.350

     vdW kernel table read from file vdW_kernel_table
     MD5 check sum: 095c7af220d748ca6e76c0b4c6cfb241

     atomic species   valence    mass     pseudopotential
        Re1           15.00   186.20700     Re( 1.00)
        W1            14.00   183.84000     W ( 1.00)

     No symmetry found



   Cartesian axes

     site n.     atom                  positions (alat units)
         1           Re1 tau(   1) = (   0.0000000   0.0000000  10.0000000  )
         2           Re1 tau(   2) = (  -1.3955656   2.4171906  10.0000000  )
         3           Re1 tau(   3) = (   1.3955656   2.4171906  10.0000000  )
         4           W1  tau(   4) = (   2.7911312   0.0000000  10.0000000  )
         5           Re1 tau(   5) = (   2.7911312   1.6114604  12.2789491  )
         6           Re1 tau(   6) = (   1.3955656   4.0286509  12.2789491  )
         7           Re1 tau(   7) = (  -1.3955656   4.0286509  12.2789491  )
         8           W1  tau(   8) = (   0.0000000   1.6114604  12.2789491  )
         9           Re1 tau(   9) = (  -0.0000000   3.2229207  14.5578982  )
        10           Re1 tau(  10) = (   1.3955656   0.8057302  14.5578982  )
        11           Re1 tau(  11) = (   4.1866969   0.8057302  14.5578982  )
        12           W1  tau(  12) = (   2.7911312   3.2229207  14.5578982  )

     number of k points=    20  Fermi-Dirac smearing, width (Ry)=  0.0110
                       cart. coord. in units 2pi/alat
        k(    1) = (   0.0000000   0.0000000   0.0000000), wk =   0.0555556
        k(    2) = (   0.0000000   0.0344753   0.0000000), wk =   0.1111111
        k(    3) = (   0.0000000   0.0689506   0.0000000), wk =   0.1111111
        k(    4) = (   0.0000000  -0.1034259   0.0000000), wk =   0.0555556
        k(    5) = (   0.0298565   0.0172376   0.0000000), wk =   0.1111111
        k(    6) = (   0.0298565   0.0517129   0.0000000), wk =   0.1111111
        k(    7) = (   0.0298565   0.0861882   0.0000000), wk =   0.1111111
        k(    8) = (   0.0298565  -0.0861882   0.0000000), wk =   0.1111111
        k(    9) = (   0.0298565  -0.0517129   0.0000000), wk =   0.1111111
        k(   10) = (   0.0298565  -0.0172376   0.0000000), wk =   0.1111111
        k(   11) = (   0.0597129   0.0344753   0.0000000), wk =   0.1111111
        k(   12) = (   0.0597129   0.0689506   0.0000000), wk =   0.1111111
        k(   13) = (   0.0597129   0.1034259   0.0000000), wk =   0.1111111
        k(   14) = (   0.0597129  -0.0689506   0.0000000), wk =   0.1111111
        k(   15) = (   0.0597129  -0.0344753   0.0000000), wk =   0.1111111
        k(   16) = (   0.0597129   0.0000000   0.0000000), wk =   0.1111111
        k(   17) = (  -0.0895694  -0.0517129   0.0000000), wk =   0.0555556
        k(   18) = (  -0.0895694  -0.0172376   0.0000000), wk =   0.1111111
        k(   19) = (  -0.0895694   0.0172376   0.0000000), wk =   0.1111111
        k(   20) = (  -0.0895694  -0.1551388   0.0000000), wk =   0.0555556

     Dense  grid:   531997 G-vectors     FFT dimensions: (  72,  72, 288)

     Smooth grid:   134693 G-vectors     FFT dimensions: (  45,  45, 180)

     Largest allocated arrays     est. size (Mb)     dimensions
        Kohn-Sham Wavefunctions         0.51 Mb     (     283,  118)
        NL pseudopotentials             1.58 Mb     (     283,  366)
        Each V/rho on FFT grid          0.40 Mb     (   25920)
        Each G-vector array             0.06 Mb     (    8308)
        G-vector shells                 0.03 Mb     (    3881)
     Largest temporary arrays     est. size (Mb)     dimensions
        Auxiliary wavefunctions         2.04 Mb     (     283,  472)
        Each subspace H/S matrix        3.40 Mb     (     472,  472)
        Each <psi_i|beta_j> matrix      0.66 Mb     (     366,  118)
        Arrays for rho mixing           3.96 Mb     (   25920,   10)

     Initial potential from superposition of free atoms
     Check: negative starting charge=   -1.337994

     starting charge  172.19858, renormalised to  177.00000

     negative rho (up, down):  1.375E+00 0.000E+00


     ************************************************************************
     *
     * You are using vdW-DF for exchange-correlation in this calculation.
     * Please cite the following three references that made this development
     * possible:
     *
     *   M. Dion, H. Rydberg, E. Schroder, D. C. Langreth, and
     *   B. I. Lundqvist, Phys. Rev. Lett. 92, 246401 (2004).
     *
     *   T. Thonhauser, V. R. Cooper, S. Li, A. Puzder, P. Hyldgaard, and
     *   D. C. Langreth, Phys. Rev. B 76, 125112 (2007).
     *
     *   G. Roman-Perez and J. M. Soler, Phys. Rev. Lett. 103, 096102 (2009).
     *
     *
     * If you are using vdW-DF2, please also cite:
     *
     *   K. Lee, E. D. Murray, L. Kong, B. I. Lundqvist, and
     *   D. C. Langreth, Phys. Rev. B 82, 081101(R) (2010).
     *
     *
     * If you are calculating the stress with vdW-DF, please also cite:
     *
     *   R. Sabatini, E. Kucukbenli, B. Kolb, T. Thonhauser, and
     *   S. de Gironcoli, J. Phys.: Condens. Matter 24, 424209 (2012).
     *
     ************************************************************************

     Carrying out vdW-DF run using the following parameters:

     Nqs =      20    Nr_points =    1024   r_max =   100.000
     q_mesh =
               0.00001000     0.04494208     0.09755937     0.15916263
               0.23128650     0.31572767     0.41458969     0.53033537
               0.66584808     0.82450364     1.01025438     1.22772762
               1.48234092     1.78043706     2.12944203     2.53805004
               3.01644009     3.57652955     4.23227104     5.00000000

     Gradients computed in reciprocal space

     ************************************************************************


 
     Adding external electric field

     Computed dipole along edir(3) : 
        Dipole                0.0000 Ry au,          0.0000 Debye
        Dipole field          0.0000 Ry au
 
        Potential amp.       -0.0000 Ry
        Total length         45.2475 bohr
 
     Starting wfc are  156 randomized atomic wfcs

     total cpu time spent up to now is       18.7 secs

     per-process dynamical memory:    41.7 Mb

     Self-consistent Calculation

     iteration #  1     ecut=    36.75 Ry     beta=0.10
     Davidson diagonalization with overlap
     ethr =  1.00E-02,  avg # of iterations =  2.7

     negative rho (up, down):  1.378E+00 0.000E+00
 
     Adding external electric field

     Computed dipole along edir(3) : 
        Dipole               -0.0001 Ry au,         -0.0003 Debye
        Dipole field         -0.0000 Ry au
 
        Potential amp.        0.0000 Ry
        Total length         45.2475 bohr
 

     total cpu time spent up to now is       64.0 secs

     total energy              =   -2210.86409893 Ry
     Harris-Foulkes estimate   =   -2211.15796054 Ry
     estimated scf accuracy    <       2.04605667 Ry

     iteration #  2     ecut=    36.75 Ry     beta=0.10
     Davidson diagonalization with overlap
     ethr =  1.16E-03,  avg # of iterations =  2.1

     negative rho (up, down):  1.381E+00 0.000E+00
 
     Adding external electric field

     Computed dipole along edir(3) : 
        Dipole               -0.0001 Ry au,         -0.0002 Debye
        Dipole field         -0.0000 Ry au
 
        Potential amp.        0.0000 Ry
        Total length         45.2475 bohr
 

     total cpu time spent up to now is      102.8 secs

     total energy              =   -2210.80095351 Ry
     Harris-Foulkes estimate   =   -2210.95177080 Ry
     estimated scf accuracy    <       1.22204214 Ry

     iteration #  3     ecut=    36.75 Ry     beta=0.10
     Davidson diagonalization with overlap
     ethr =  6.90E-04,  avg # of iterations =  1.0

     negative rho (up, down):  1.395E+00 0.000E+00
 
     Adding external electric field

     Computed dipole along edir(3) : 
        Dipole               -0.0005 Ry au,         -0.0012 Debye
        Dipole field         -0.0000 Ry au
 
        Potential amp.        0.0001 Ry
        Total length         45.2475 bohr
 

     total cpu time spent up to now is      139.7 secs

     total energy              =   -2210.52611470 Ry
     Harris-Foulkes estimate   =   -2210.82213574 Ry
     estimated scf accuracy    <       0.81687441 Ry

     iteration #  4     ecut=    36.75 Ry     beta=0.10
     Davidson diagonalization with overlap
     ethr =  4.62E-04,  avg # of iterations =  2.0

     negative rho (up, down):  1.404E+00 0.000E+00
 
     Adding external electric field

     Computed dipole along edir(3) : 
        Dipole                0.0054 Ry au,          0.0138 Debye
        Dipole field          0.0000 Ry au
 
        Potential amp.       -0.0014 Ry
        Total length         45.2475 bohr
 

     total cpu time spent up to now is      182.5 secs

     total energy              =   -2210.52288443 Ry
     Harris-Foulkes estimate   =   -2210.58857792 Ry
     estimated scf accuracy    <       0.17281684 Ry

     iteration #  5     ecut=    36.75 Ry     beta=0.10
     Davidson diagonalization with overlap
     ethr =  9.76E-05,  avg # of iterations =  2.6

     negative rho (up, down):  1.405E+00 0.000E+00
 
     Adding external electric field

     Computed dipole along edir(3) : 
        Dipole               -0.0440 Ry au,         -0.1118 Debye
        Dipole field         -0.0001 Ry au
 
        Potential amp.        0.0112 Ry
        Total length         45.2475 bohr
 

     total cpu time spent up to now is      228.4 secs

     total energy              =   -2210.54353240 Ry
     Harris-Foulkes estimate   =   -2210.54689050 Ry
     estimated scf accuracy    <       0.02323689 Ry

     iteration #  6     ecut=    36.75 Ry     beta=0.10
     Davidson diagonalization with overlap
     ethr =  1.31E-05,  avg # of iterations =  8.2

     negative rho (up, down):  1.406E+00 0.000E+00
 
     Adding external electric field

     Computed dipole along edir(3) : 
        Dipole                0.0009 Ry au,          0.0024 Debye
        Dipole field          0.0000 Ry au
 
        Potential amp.       -0.0002 Ry
        Total length         45.2475 bohr
 

     total cpu time spent up to now is      291.3 secs

     total energy              =   -2210.55101993 Ry
     Harris-Foulkes estimate   =   -2210.54914726 Ry
     estimated scf accuracy    <       0.12454266 Ry

     iteration #  7     ecut=    36.75 Ry     beta=0.10
     Davidson diagonalization with overlap
     ethr =  1.31E-05,  avg # of iterations =  3.0

     negative rho (up, down):  1.403E+00 0.000E+00
 
     Adding external electric field

     Computed dipole along edir(3) : 
        Dipole               -0.0001 Ry au,         -0.0003 Debye
        Dipole field         -0.0000 Ry au
 
        Potential amp.        0.0000 Ry
        Total length         45.2475 bohr
 

     total cpu time spent up to now is      331.9 secs

     total energy              =   -2210.54207686 Ry
     Harris-Foulkes estimate   =   -2210.55465120 Ry
     estimated scf accuracy    <       0.03393726 Ry

     iteration #  8     ecut=    36.75 Ry     beta=0.10
     Davidson diagonalization with overlap
     ethr =  1.31E-05,  avg # of iterations =  2.0

     negative rho (up, down):  1.401E+00 0.000E+00
 
     Adding external electric field

     Computed dipole along edir(3) : 
        Dipole                0.0002 Ry au,          0.0004 Debye
        Dipole field          0.0000 Ry au
 
        Potential amp.       -0.0000 Ry
        Total length         45.2475 bohr
 

     total cpu time spent up to now is      375.4 secs

     total energy              =   -2210.54658929 Ry
     Harris-Foulkes estimate   =   -2210.54629348 Ry
     estimated scf accuracy    <       0.00316925 Ry

     iteration #  9     ecut=    36.75 Ry     beta=0.10
     Davidson diagonalization with overlap
     ethr =  1.79E-06,  avg # of iterations =  7.4

     negative rho (up, down):  1.401E+00 0.000E+00
 
     Adding external electric field

     Computed dipole along edir(3) : 
        Dipole                0.0000 Ry au,          0.0001 Debye
        Dipole field          0.0000 Ry au
 
        Potential amp.       -0.0000 Ry
        Total length         45.2475 bohr
 

     total cpu time spent up to now is      426.9 secs

     total energy              =   -2210.54682385 Ry
     Harris-Foulkes estimate   =   -2210.54690223 Ry
     estimated scf accuracy    <       0.00048003 Ry

     iteration # 10     ecut=    36.75 Ry     beta=0.10
     Davidson diagonalization with overlap
     ethr =  2.71E-07,  avg # of iterations =  2.0

     negative rho (up, down):  1.401E+00 0.000E+00
 
     Adding external electric field

     Computed dipole along edir(3) : 
        Dipole               -0.0002 Ry au,         -0.0005 Debye
        Dipole field         -0.0000 Ry au
 
        Potential amp.        0.0001 Ry
        Total length         45.2475 bohr
 

     total cpu time spent up to now is      464.1 secs

     total energy              =   -2210.54688703 Ry
     Harris-Foulkes estimate   =   -2210.54687434 Ry
     estimated scf accuracy    <       0.00036289 Ry

     iteration # 11     ecut=    36.75 Ry     beta=0.10
     Davidson diagonalization with overlap
     ethr =  2.05E-07,  avg # of iterations =  1.1

     negative rho (up, down):  1.401E+00 0.000E+00
 
     Adding external electric field

     Computed dipole along edir(3) : 
        Dipole               -0.0001 Ry au,         -0.0003 Debye
        Dipole field         -0.0000 Ry au
 
        Potential amp.        0.0000 Ry
        Total length         45.2475 bohr
 

     total cpu time spent up to now is      500.8 secs

     total energy              =   -2210.54690609 Ry
     Harris-Foulkes estimate   =   -2210.54690603 Ry
     estimated scf accuracy    <       0.00008049 Ry

     iteration # 12     ecut=    36.75 Ry     beta=0.10
     Davidson diagonalization with overlap
     ethr =  4.55E-08,  avg # of iterations =  2.5

     negative rho (up, down):  1.401E+00 0.000E+00
 
     Adding external electric field

     Computed dipole along edir(3) : 
        Dipole                0.0000 Ry au,          0.0001 Debye
        Dipole field          0.0000 Ry au
 
        Potential amp.       -0.0000 Ry
        Total length         45.2475 bohr
 

     total cpu time spent up to now is      540.8 secs

     total energy              =   -2210.53450004 Ry
     Harris-Foulkes estimate   =   -2210.54691226 Ry
     estimated scf accuracy    <       0.00002321 Ry

     iteration # 13     ecut=    36.75 Ry     beta=0.10
     Davidson diagonalization with overlap
     ethr =  1.31E-08,  avg # of iterations =  3.1

     negative rho (up, down):  1.401E+00 0.000E+00
 
     Adding external electric field

     Computed dipole along edir(3) : 
        Dipole               -0.0000 Ry au,         -0.0000 Debye
        Dipole field         -0.0000 Ry au
 
        Potential amp.        0.0000 Ry
        Total length         45.2475 bohr
 

     total cpu time spent up to now is      586.8 secs

     total energy              =   -2210.53450277 Ry
     Harris-Foulkes estimate   =   -2210.53450393 Ry
     estimated scf accuracy    <       0.00000514 Ry

     iteration # 14     ecut=    36.75 Ry     beta=0.10
     Davidson diagonalization with overlap
     ethr =  2.91E-09,  avg # of iterations =  2.8

     negative rho (up, down):  1.401E+00 0.000E+00
 
     Adding external electric field

     Computed dipole along edir(3) : 
        Dipole               -0.0001 Ry au,         -0.0002 Debye
        Dipole field         -0.0000 Ry au
 
        Potential amp.        0.0000 Ry
        Total length         45.2475 bohr
 

     total cpu time spent up to now is      631.3 secs

     total energy              =   -2210.53450138 Ry
     Harris-Foulkes estimate   =   -2210.53450344 Ry
     estimated scf accuracy    <       0.00000163 Ry

     iteration # 15     ecut=    36.75 Ry     beta=0.10
     Davidson diagonalization with overlap
     ethr =  9.21E-10,  avg # of iterations =  2.0

     negative rho (up, down):  1.400E+00 0.000E+00

     negative rho (up, down):  1.400E+00 0.000E+00

     negative rho (up, down):  1.400E+00 0.000E+00

     negative rho (up, down):  1.400E+00 0.000E+00

     negative rho (up, down):  1.400E+00 0.000E+00

     negative rho (up, down):  1.400E+00 0.000E+00

     negative rho (up, down):  1.400E+00 0.000E+00

     negative rho (up, down):  1.400E+00 0.000E+00

     negative rho (up, down):  1.400E+00 0.000E+00

     negative rho (up, down):  1.400E+00 0.000E+00

     negative rho (up, down):  1.400E+00 0.000E+00

     negative rho (up, down):  1.400E+00 0.000E+00

     negative rho (up, down):  1.400E+00 0.000E+00

     negative rho (up, down):  1.400E+00 0.000E+00

     negative rho (up, down):  1.400E+00 0.000E+00

     negative rho (up, down):  1.400E+00 0.000E+00

     negative rho (up, down):  1.400E+00 0.000E+00

     negative rho (up, down):  1.400E+00 0.000E+00

     negative rho (up, down):  1.400E+00 0.000E+00

     negative rho (up, down):  1.400E+00 0.000E+00

     negative rho (up, down):  1.400E+00 0.000E+00

     negative rho (up, down):  1.400E+00 0.000E+00

     negative rho (up, down):  1.400E+00 0.000E+00

     negative rho (up, down):  1.400E+00 0.000E+00

     negative rho (up, down):  1.400E+00 0.000E+00

     negative rho (up, down):  1.400E+00 0.000E+00

     negative rho (up, down):  1.400E+00 0.000E+00

     negative rho (up, down):  1.400E+00 0.000E+00

     negative rho (up, down):  1.400E+00 0.000E+00

     negative rho (up, down):  1.400E+00 0.000E+00

     negative rho (up, down):  1.400E+00 0.000E+00

     negative rho (up, down):  1.400E+00 0.000E+00

     negative rho (up, down):  1.400E+00 0.000E+00

     negative rho (up, down):  1.400E+00 0.000E+00

     negative rho (up, down):  1.400E+00 0.000E+00
 
     Adding external electric field

     Computed dipole along edir(3) : 
        Dipole               -0.0000 Ry au,         -0.0001 Debye
        Dipole field         -0.0000 Ry au
 
        Potential amp.        0.0000 Ry
        Total length         45.2475 bohr
 

     total cpu time spent up to now is      717.5 secs

     End of self-consistent calculation

          k = 0.0000 0.0000 0.0000 ( 16787 PWs)   bands (ev):

   -77.8122 -77.7618 -77.7618 -77.7130 -77.7081 -77.6673 -77.6673 -77.6661
   -77.6661 -71.6942 -71.6940 -71.6463 -39.9647 -39.7916 -39.7915 -39.7648
   -39.7178 -39.6864 -39.6447 -39.6447 -39.5164 -39.4906 -39.4906 -39.4348
   -39.4348 -39.3880 -39.3880 -39.3517 -39.2565 -39.2357 -39.2357 -39.1893
   -39.1893 -39.1114 -39.0827 -39.0214 -39.0214 -39.0180 -39.0180 -35.8939
   -35.8617 -35.7381 -35.7381 -35.6780 -35.6533 -35.6533 -35.6458 -35.6458
    -6.1234  -4.2344  -3.5743  -3.1217  -3.1217  -3.1108  -2.8357  -2.8357
    -2.8117  -2.1238  -2.1238  -2.1215  -2.0067  -1.9865  -1.9865  -0.5785
    -0.4837  -0.4837   0.5194   0.5194   0.5582   0.5745   0.8630   1.2371
     1.2371   1.4876   1.4916   1.4916   1.6342   1.6342   1.8063   1.8063
     1.8218   1.9270   1.9270   1.9856   3.0344   3.0344   3.0912   3.1655
     3.3550   3.6267   3.6267   4.1007   4.1007   4.3947   4.4318   4.4318
     4.7843   4.7843   4.7887   4.7887   5.2171   5.4617   6.0062   6.0062
     6.0655   6.0655   6.4034   6.7461   6.8245   6.8245   6.8578   6.9456
     6.9471   6.9471   7.0500   7.2051   7.2914   7.2914

          k = 0.0000 0.0345 0.0000 ( 16809 PWs)   bands (ev):

   -77.8092 -77.7649 -77.7619 -77.7102 -77.7057 -77.6700 -77.6686 -77.6673
   -77.6661 -71.6942 -71.6941 -71.6463 -39.9330 -39.7815 -39.7670 -39.7410
   -39.6872 -39.6638 -39.6389 -39.6291 -39.5102 -39.4784 -39.4682 -39.4471
   -39.4439 -39.3905 -39.3789 -39.3523 -39.2566 -39.2412 -39.2356 -39.2289
   -39.1977 -39.1214 -39.1020 -39.0611 -39.0590 -39.0285 -39.0252 -35.8922
   -35.8640 -35.7499 -35.7419 -35.6783 -35.6642 -35.6580 -35.6569 -35.6496
    -5.8545  -3.9615  -3.2937  -3.1201  -2.9046  -2.9018  -2.7449  -2.6372
    -2.6269  -2.0538  -1.9731  -1.9711  -1.8356  -1.7176  -1.6970  -0.5307
    -0.4433  -0.4149   0.3715   0.5841   0.6364   0.6605   0.8474   0.9950
     1.0042   1.1618   1.3561   1.4577   1.5975   1.6395   1.7311   1.7826
     1.8522   1.8785   1.9099   2.1629   2.6563   2.6681   2.7130   2.7892
     3.2138   3.4619   3.5637   3.5933   3.6824   3.7387   3.8878   3.9644
     4.6629   4.7246   4.9089   4.9930   5.1838   5.2120   5.4497   5.5405
     5.6900   5.8400   5.8756   6.0464   6.3303   6.3922   6.4643   6.6776
     6.8299   6.8458   7.2528   7.2537   7.5340   7.5902

          k = 0.0000 0.0690 0.0000 ( 16822 PWs)   bands (ev):

   -77.8014 -77.7727 -77.7619 -77.7029 -77.6995 -77.6770 -77.6751 -77.6673
   -77.6661 -71.6943 -71.6942 -71.6464 -39.8662 -39.7553 -39.7021 -39.6785
   -39.6671 -39.6070 -39.6018 -39.5836 -39.4926 -39.4877 -39.4541 -39.4354
   -39.4040 -39.3957 -39.3553 -39.3490 -39.3214 -39.2653 -39.2615 -39.2404
   -39.2150 -39.1688 -39.1660 -39.1527 -39.1459 -39.0367 -39.0336 -35.8877
   -35.8690 -35.7736 -35.7493 -35.6874 -35.6830 -35.6766 -35.6644 -35.6571
    -5.1163  -3.3799  -3.2504  -2.5630  -2.5343  -2.3692  -2.3649  -2.1715
    -2.1621  -1.8578  -1.5236  -1.5094  -1.4112  -1.0042  -0.9546  -0.4454
    -0.3782  -0.2526  -0.1091   0.2635   0.2696   0.3758   0.6026   0.7190
     0.9752   1.0233   1.1892   1.2873   1.3593   1.4107   1.4576   1.6527
     1.8050   1.9184   1.9679   2.0243   2.0820   2.1036   2.1765   2.3285
     2.3394   2.4128   2.8336   2.8933   3.1567   3.4853   3.6315   3.7976
     3.9919   4.1679   4.3361   4.4222   4.4501   4.6308   4.9115   5.0506
     5.1917   5.2657   5.3464   5.5870   5.6309   6.0337   6.2652   6.3885
     6.7103   6.9562   7.2443   7.8221   7.8455   8.1941

          k = 0.0000-0.1034 0.0000 ( 16840 PWs)   bands (ev):

   -77.7951 -77.7791 -77.7619 -77.6967 -77.6948 -77.6826 -77.6803 -77.6673
   -77.6660 -71.6943 -71.6943 -71.6465 -39.8343 -39.7277 -39.6896 -39.6262
   -39.6261 -39.6073 -39.5669 -39.5525 -39.5166 -39.4863 -39.4658 -39.3995
   -39.3534 -39.3509 -39.3468 -39.3385 -39.3202 -39.3108 -39.3089 -39.2709
   -39.2578 -39.2330 -39.2095 -39.1951 -39.1604 -39.0382 -39.0365 -35.8839
   -35.8730 -35.7857 -35.7531 -35.6979 -35.6956 -35.6770 -35.6681 -35.6609
    -4.1635  -4.1242  -2.5932  -2.5765  -1.9971  -1.9603  -1.9317  -1.8867
    -1.8616  -1.8252  -1.1432  -1.0528  -0.8785  -0.6910  -0.6329  -0.6252
    -0.3436  -0.2390  -0.2080  -0.1087   0.0799   0.2350   0.5879   0.7127
     0.8461   0.9273   0.9582   0.9843   1.0186   1.0551   1.1590   1.2181
     1.4144   1.5247   1.5474   1.5922   1.6288   1.7148   2.1662   2.2626
     2.6402   2.8659   2.8772   2.9654   3.1793   3.2476   3.3525   3.6043
     3.7496   3.8681   3.9600   3.9996   4.1383   4.2386   4.2778   4.6268
     4.7091   5.0089   5.2119   5.2595   6.0429   6.2185   6.2536   6.2971
     6.3767   6.7777   7.9759   8.1021   8.1160   8.2089

          k = 0.0299 0.0172 0.0000 ( 16809 PWs)   bands (ev):

   -77.8092 -77.7649 -77.7618 -77.7102 -77.7057 -77.6700 -77.6686 -77.6673
   -77.6661 -71.6942 -71.6941 -71.6463 -39.9330 -39.7815 -39.7670 -39.7410
   -39.6872 -39.6638 -39.6389 -39.6291 -39.5102 -39.4784 -39.4682 -39.4471
   -39.4439 -39.3905 -39.3789 -39.3523 -39.2566 -39.2412 -39.2356 -39.2290
   -39.1977 -39.1214 -39.1020 -39.0611 -39.0590 -39.0285 -39.0252 -35.8922
   -35.8640 -35.7499 -35.7419 -35.6783 -35.6642 -35.6580 -35.6569 -35.6496
    -5.8545  -3.9615  -3.2937  -3.1201  -2.9046  -2.9018  -2.7449  -2.6372
    -2.6269  -2.0538  -1.9731  -1.9711  -1.8356  -1.7176  -1.6970  -0.5307
    -0.4433  -0.4149   0.3715   0.5841   0.6364   0.6605   0.8474   0.9950
     1.0042   1.1618   1.3561   1.4577   1.5975   1.6395   1.7311   1.7826
     1.8522   1.8785   1.9099   2.1629   2.6563   2.6681   2.7130   2.7892
     3.2138   3.4619   3.5637   3.5933   3.6824   3.7387   3.8878   3.9644
     4.6629   4.7246   4.9089   4.9930   5.1838   5.2120   5.4497   5.5405
     5.6900   5.8400   5.8756   6.0464   6.3303   6.3922   6.4643   6.6776
     6.8299   6.8458   7.2528   7.2537   7.5340   7.5902

          k = 0.0299 0.0517 0.0000 ( 16804 PWs)   bands (ev):

   -77.8037 -77.7703 -77.7619 -77.7050 -77.7013 -77.6744 -77.6738 -77.6669
   -77.6664 -71.6943 -71.6942 -71.6464 -39.8802 -39.7642 -39.7295 -39.6917
   -39.6607 -39.6285 -39.6153 -39.5912 -39.4976 -39.4854 -39.4613 -39.4469
   -39.4154 -39.3971 -39.3582 -39.3547 -39.2875 -39.2611 -39.2577 -39.2362
   -39.2159 -39.1644 -39.1503 -39.1036 -39.1005 -39.0469 -39.0463 -35.8890
   -35.8676 -35.7656 -35.7494 -35.6808 -35.6758 -35.6753 -35.6634 -35.6576
    -5.3473  -3.4613  -2.9977  -2.9690  -2.7662  -2.4815  -2.4767  -2.3796
    -2.1790  -1.8147  -1.7990  -1.5890  -1.4469  -1.4371  -1.0947  -0.4839
    -0.3582  -0.3375   0.0418   0.4560   0.4937   0.6111   0.6276   0.6531
     0.8202   1.0684   1.0860   1.4207   1.4435   1.5356   1.6487   1.6674
     1.6909   1.9484   2.0533   2.1406   2.1806   2.2299   2.3916   2.4113
     2.5878   2.6813   2.9041   2.9849   3.3009   3.4293   3.5463   3.9475
     4.2025   4.3214   4.5613   4.6310   4.7808   4.9309   5.0709   5.1184
     5.2961   5.3326   5.5271   5.9597   6.2152   6.2274   6.4606   6.5134
     6.6043   6.7566   6.7621   6.9945   7.6365   7.6975

          k = 0.0299 0.0862 0.0000 ( 16840 PWs)   bands (ev):

   -77.7952 -77.7788 -77.7621 -77.6970 -77.6946 -77.6819 -77.6808 -77.6670
   -77.6664 -71.6943 -71.6943 -71.6465 -39.8176 -39.7367 -39.6807 -39.6700
   -39.6245 -39.5890 -39.5511 -39.5432 -39.5376 -39.4809 -39.4342 -39.4240
   -39.4145 -39.3657 -39.3618 -39.3361 -39.3182 -39.3094 -39.2812 -39.2632
   -39.2341 -39.2278 -39.1840 -39.1730 -39.1457 -39.0634 -39.0625 -35.8839
   -35.8730 -35.7802 -35.7585 -35.6928 -35.6903 -35.6772 -35.6728 -35.6664
    -4.4631  -3.5202  -2.7125  -2.6752  -2.3104  -2.0353  -1.9331  -1.8536
    -1.6000  -1.5730  -1.2731  -1.0457  -0.9672  -0.8556  -0.7184  -0.4566
    -0.3048  -0.2902  -0.2128  -0.1472   0.0755   0.2332   0.3704   0.4498
     0.6815   0.8789   0.9081   0.9618   0.9990   1.0462   1.1836   1.2146
     1.4213   1.4839   1.6411   1.8200   1.8345   2.0204   2.1985   2.2810
     2.3792   2.8047   2.8737   3.0577   3.2294   3.2598   3.3542   3.4470
     3.6727   3.8470   4.0636   4.3267   4.4462   4.6357   4.8245   4.9621
     5.0393   5.1179   5.1702   5.4796   5.5681   5.8399   6.0812   6.4157
     6.4709   6.6652   6.8819   6.9618   7.7463   7.9463

          k = 0.0299-0.0862 0.0000 ( 16840 PWs)   bands (ev):

   -77.7952 -77.7788 -77.7621 -77.6970 -77.6946 -77.6819 -77.6808 -77.6670
   -77.6664 -71.6943 -71.6943 -71.6465 -39.8176 -39.7367 -39.6807 -39.6700
   -39.6245 -39.5890 -39.5511 -39.5432 -39.5376 -39.4809 -39.4342 -39.4240
   -39.4145 -39.3657 -39.3618 -39.3361 -39.3182 -39.3094 -39.2812 -39.2632
   -39.2341 -39.2278 -39.1840 -39.1730 -39.1457 -39.0634 -39.0625 -35.8839
   -35.8730 -35.7802 -35.7585 -35.6928 -35.6903 -35.6772 -35.6728 -35.6664
    -4.4631  -3.5202  -2.7125  -2.6752  -2.3104  -2.0353  -1.9331  -1.8536
    -1.6000  -1.5730  -1.2731  -1.0457  -0.9672  -0.8556  -0.7184  -0.4566
    -0.3048  -0.2902  -0.2128  -0.1472   0.0755   0.2332   0.3704   0.4498
     0.6815   0.8789   0.9081   0.9618   0.9990   1.0462   1.1836   1.2146
     1.4213   1.4839   1.6411   1.8200   1.8345   2.0204   2.1985   2.2810
     2.3792   2.8047   2.8737   3.0577   3.2294   3.2598   3.3542   3.4470
     3.6727   3.8470   4.0636   4.3267   4.4462   4.6357   4.8245   4.9621
     5.0393   5.1179   5.1702   5.4796   5.5681   5.8399   6.0812   6.4157
     6.4709   6.6652   6.8819   6.9618   7.7463   7.9463

          k = 0.0299-0.0517 0.0000 ( 16804 PWs)   bands (ev):

   -77.8037 -77.7703 -77.7619 -77.7050 -77.7013 -77.6744 -77.6738 -77.6669
   -77.6664 -71.6943 -71.6942 -71.6464 -39.8802 -39.7642 -39.7295 -39.6917
   -39.6607 -39.6285 -39.6153 -39.5912 -39.4976 -39.4854 -39.4613 -39.4469
   -39.4154 -39.3971 -39.3582 -39.3547 -39.2875 -39.2611 -39.2577 -39.2362
   -39.2159 -39.1644 -39.1503 -39.1036 -39.1005 -39.0469 -39.0463 -35.8890
   -35.8676 -35.7656 -35.7494 -35.6808 -35.6758 -35.6753 -35.6634 -35.6576
    -5.3473  -3.4613  -2.9977  -2.9690  -2.7662  -2.4815  -2.4767  -2.3796
    -2.1790  -1.8147  -1.7990  -1.5890  -1.4469  -1.4371  -1.0947  -0.4839
    -0.3582  -0.3375   0.0418   0.4560   0.4937   0.6111   0.6276   0.6531
     0.8202   1.0684   1.0860   1.4207   1.4435   1.5356   1.6487   1.6674
     1.6909   1.9484   2.0533   2.1406   2.1806   2.2299   2.3916   2.4113
     2.5878   2.6813   2.9041   2.9849   3.3009   3.4293   3.5463   3.9475
     4.2025   4.3214   4.5613   4.6310   4.7808   4.9309   5.0709   5.1184
     5.2961   5.3326   5.5271   5.9597   6.2152   6.2274   6.4606   6.5134
     6.6043   6.7566   6.7621   6.9945   7.6365   7.6975

          k = 0.0299-0.0172 0.0000 ( 16809 PWs)   bands (ev):

   -77.8092 -77.7649 -77.7619 -77.7102 -77.7057 -77.6700 -77.6686 -77.6673
   -77.6661 -71.6942 -71.6941 -71.6463 -39.9330 -39.7815 -39.7670 -39.7410
   -39.6872 -39.6638 -39.6389 -39.6291 -39.5102 -39.4784 -39.4682 -39.4471
   -39.4439 -39.3905 -39.3789 -39.3523 -39.2566 -39.2412 -39.2356 -39.2289
   -39.1977 -39.1214 -39.1020 -39.0611 -39.0590 -39.0285 -39.0252 -35.8922
   -35.8640 -35.7499 -35.7419 -35.6783 -35.6642 -35.6580 -35.6569 -35.6496
    -5.8545  -3.9615  -3.2937  -3.1201  -2.9046  -2.9018  -2.7449  -2.6372
    -2.6269  -2.0538  -1.9731  -1.9711  -1.8356  -1.7176  -1.6970  -0.5307
    -0.4433  -0.4149   0.3715   0.5841   0.6364   0.6605   0.8474   0.9950
     1.0042   1.1618   1.3561   1.4577   1.5975   1.6395   1.7311   1.7826
     1.8522   1.8785   1.9099   2.1629   2.6563   2.6681   2.7130   2.7892
     3.2138   3.4619   3.5637   3.5933   3.6824   3.7387   3.8878   3.9644
     4.6629   4.7246   4.9089   4.9930   5.1838   5.2120   5.4497   5.5405
     5.6900   5.8400   5.8756   6.0464   6.3303   6.3922   6.4643   6.6776
     6.8299   6.8458   7.2529   7.2537   7.5340   7.5902

          k = 0.0597 0.0345 0.0000 ( 16822 PWs)   bands (ev):

   -77.8014 -77.7727 -77.7619 -77.7029 -77.6995 -77.6770 -77.6751 -77.6673
   -77.6661 -71.6943 -71.6942 -71.6464 -39.8662 -39.7553 -39.7021 -39.6785
   -39.6671 -39.6070 -39.6018 -39.5836 -39.4926 -39.4877 -39.4541 -39.4354
   -39.4040 -39.3957 -39.3553 -39.3490 -39.3214 -39.2653 -39.2615 -39.2404
   -39.2150 -39.1688 -39.1660 -39.1527 -39.1459 -39.0367 -39.0336 -35.8877
   -35.8690 -35.7736 -35.7493 -35.6874 -35.6830 -35.6766 -35.6644 -35.6571
    -5.1163  -3.3799  -3.2504  -2.5630  -2.5343  -2.3692  -2.3649  -2.1715
    -2.1621  -1.8578  -1.5236  -1.5094  -1.4112  -1.0042  -0.9546  -0.4454
    -0.3782  -0.2526  -0.1091   0.2635   0.2696   0.3758   0.6026   0.7190
     0.9752   1.0233   1.1892   1.2873   1.3593   1.4107   1.4576   1.6527
     1.8050   1.9184   1.9679   2.0243   2.0820   2.1036   2.1765   2.3285
     2.3394   2.4128   2.8336   2.8933   3.1567   3.4853   3.6315   3.7976
     3.9919   4.1679   4.3361   4.4222   4.4501   4.6308   4.9115   5.0506
     5.1917   5.2657   5.3464   5.5870   5.6309   6.0337   6.2652   6.3885
     6.7103   6.9562   7.2443   7.8221   7.8455   8.1941

          k = 0.0597 0.0690 0.0000 ( 16840 PWs)   bands (ev):

   -77.7952 -77.7788 -77.7621 -77.6970 -77.6946 -77.6819 -77.6808 -77.6670
   -77.6664 -71.6943 -71.6943 -71.6465 -39.8176 -39.7367 -39.6807 -39.6700
   -39.6245 -39.5890 -39.5511 -39.5432 -39.5376 -39.4809 -39.4342 -39.4240
   -39.4145 -39.3657 -39.3618 -39.3361 -39.3182 -39.3094 -39.2812 -39.2632
   -39.2341 -39.2278 -39.1840 -39.1730 -39.1457 -39.0634 -39.0625 -35.8839
   -35.8730 -35.7802 -35.7585 -35.6928 -35.6903 -35.6772 -35.6728 -35.6664
    -4.4631  -3.5202  -2.7125  -2.6752  -2.3104  -2.0353  -1.9331  -1.8536
    -1.6000  -1.5730  -1.2731  -1.0457  -0.9672  -0.8556  -0.7184  -0.4566
    -0.3048  -0.2902  -0.2128  -0.1472   0.0755   0.2332   0.3704   0.4498
     0.6815   0.8789   0.9081   0.9618   0.9990   1.0462   1.1836   1.2146
     1.4213   1.4839   1.6411   1.8200   1.8345   2.0204   2.1985   2.2810
     2.3792   2.8047   2.8737   3.0577   3.2294   3.2598   3.3542   3.4470
     3.6727   3.8470   4.0636   4.3267   4.4462   4.6357   4.8245   4.9621
     5.0393   5.1179   5.1702   5.4796   5.5681   5.8399   6.0812   6.4157
     6.4709   6.6652   6.8819   6.9618   7.7463   7.9463

          k = 0.0597 0.1034 0.0000 ( 16854 PWs)   bands (ev):

   -77.7869 -77.7869 -77.7623 -77.6902 -77.6885 -77.6877 -77.6877 -77.6668
   -77.6668 -71.6943 -71.6943 -71.6465 -39.7502 -39.7502 -39.6991 -39.6334
   -39.6184 -39.6184 -39.5170 -39.5170 -39.4790 -39.4571 -39.4516 -39.4516
   -39.4092 -39.4092 -39.3754 -39.3511 -39.3355 -39.3355 -39.2648 -39.2338
   -39.2338 -39.2100 -39.1875 -39.1874 -39.1422 -39.1028 -39.1027 -35.8784
   -35.8784 -35.7733 -35.7733 -35.6884 -35.6842 -35.6842 -35.6828 -35.6755
    -3.5586  -3.5586  -3.4939  -2.1259  -2.0889  -2.0889  -1.3503  -1.3503
    -1.2930  -1.1163  -1.1163  -1.0605  -0.9089  -0.7522  -0.7522  -0.5162
    -0.5162  -0.3278  -0.2329  -0.2329  -0.0509  -0.0509   0.0394   0.3969
     0.3969   0.4656   0.5254   0.5254   0.6044   0.8514   1.2811   1.2842
     1.2932   1.2932   1.7597   1.8418   1.8418   2.1145   2.1145   2.1553
     2.5475   2.6607   2.6607   3.1363   3.1714   3.1714   3.4451   3.4451
     3.8558   4.0040   4.0040   4.8393   4.8393   4.8613   4.8613   5.0125
     5.1019   5.1019   5.2048   5.3788   5.4411   5.4633   5.4633   5.7076
     5.7076   6.0719   6.9406   6.9406   7.1922   8.5184

          k = 0.0597-0.0690 0.0000 ( 16840 PWs)   bands (ev):

   -77.7952 -77.7788 -77.7621 -77.6970 -77.6946 -77.6819 -77.6808 -77.6670
   -77.6664 -71.6943 -71.6943 -71.6465 -39.8176 -39.7367 -39.6807 -39.6700
   -39.6245 -39.5890 -39.5511 -39.5432 -39.5376 -39.4809 -39.4342 -39.4240
   -39.4145 -39.3657 -39.3618 -39.3361 -39.3182 -39.3094 -39.2812 -39.2632
   -39.2341 -39.2278 -39.1840 -39.1730 -39.1457 -39.0634 -39.0625 -35.8839
   -35.8730 -35.7802 -35.7585 -35.6928 -35.6903 -35.6772 -35.6728 -35.6664
    -4.4631  -3.5202  -2.7125  -2.6752  -2.3104  -2.0353  -1.9331  -1.8536
    -1.6000  -1.5730  -1.2731  -1.0457  -0.9672  -0.8556  -0.7184  -0.4566
    -0.3048  -0.2902  -0.2128  -0.1472   0.0755   0.2332   0.3704   0.4498
     0.6815   0.8789   0.9081   0.9618   0.9990   1.0462   1.1836   1.2146
     1.4213   1.4839   1.6411   1.8200   1.8345   2.0204   2.1985   2.2810
     2.3792   2.8047   2.8737   3.0577   3.2294   3.2598   3.3542   3.4470
     3.6727   3.8470   4.0636   4.3267   4.4462   4.6357   4.8245   4.9621
     5.0393   5.1179   5.1702   5.4796   5.5681   5.8399   6.0812   6.4157
     6.4709   6.6652   6.8819   6.9618   7.7463   7.9463

          k = 0.0597-0.0345 0.0000 ( 16822 PWs)   bands (ev):

   -77.8014 -77.7727 -77.7619 -77.7029 -77.6995 -77.6770 -77.6751 -77.6673
   -77.6661 -71.6943 -71.6942 -71.6464 -39.8662 -39.7553 -39.7021 -39.6785
   -39.6671 -39.6070 -39.6018 -39.5836 -39.4926 -39.4877 -39.4541 -39.4354
   -39.4040 -39.3957 -39.3553 -39.3490 -39.3214 -39.2653 -39.2615 -39.2404
   -39.2150 -39.1688 -39.1660 -39.1527 -39.1459 -39.0367 -39.0336 -35.8877
   -35.8690 -35.7736 -35.7493 -35.6874 -35.6830 -35.6766 -35.6644 -35.6571
    -5.1163  -3.3799  -3.2504  -2.5630  -2.5343  -2.3692  -2.3649  -2.1715
    -2.1621  -1.8578  -1.5236  -1.5094  -1.4112  -1.0042  -0.9546  -0.4454
    -0.3782  -0.2526  -0.1091   0.2635   0.2696   0.3758   0.6026   0.7190
     0.9752   1.0233   1.1892   1.2873   1.3593   1.4107   1.4576   1.6527
     1.8050   1.9184   1.9679   2.0243   2.0820   2.1036   2.1765   2.3285
     2.3394   2.4128   2.8336   2.8933   3.1567   3.4853   3.6315   3.7976
     3.9919   4.1679   4.3361   4.4222   4.4501   4.6308   4.9115   5.0506
     5.1917   5.2657   5.3464   5.5870   5.6309   6.0337   6.2652   6.3885
     6.7103   6.9562   7.2443   7.8221   7.8455   8.1941

          k = 0.0597 0.0000 0.0000 ( 16804 PWs)   bands (ev):

   -77.8037 -77.7703 -77.7619 -77.7050 -77.7013 -77.6744 -77.6738 -77.6669
   -77.6664 -71.6943 -71.6942 -71.6464 -39.8802 -39.7642 -39.7295 -39.6917
   -39.6607 -39.6285 -39.6153 -39.5912 -39.4976 -39.4854 -39.4613 -39.4469
   -39.4154 -39.3971 -39.3582 -39.3547 -39.2875 -39.2611 -39.2577 -39.2362
   -39.2159 -39.1644 -39.1503 -39.1036 -39.1005 -39.0469 -39.0463 -35.8890
   -35.8676 -35.7656 -35.7494 -35.6808 -35.6758 -35.6753 -35.6634 -35.6576
    -5.3473  -3.4613  -2.9977  -2.9690  -2.7662  -2.4815  -2.4767  -2.3796
    -2.1790  -1.8147  -1.7990  -1.5890  -1.4469  -1.4371  -1.0947  -0.4839
    -0.3582  -0.3375   0.0418   0.4560   0.4937   0.6111   0.6276   0.6531
     0.8202   1.0684   1.0860   1.4207   1.4435   1.5356   1.6487   1.6674
     1.6909   1.9484   2.0533   2.1406   2.1806   2.2299   2.3916   2.4113
     2.5878   2.6813   2.9041   2.9849   3.3009   3.4293   3.5463   3.9475
     4.2025   4.3214   4.5613   4.6310   4.7808   4.9309   5.0709   5.1184
     5.2961   5.3326   5.5271   5.9597   6.2152   6.2274   6.4606   6.5134
     6.6043   6.7566   6.7621   6.9945   7.6365   7.6975

          k =-0.0896-0.0517 0.0000 ( 16840 PWs)   bands (ev):

   -77.7951 -77.7792 -77.7619 -77.6967 -77.6948 -77.6826 -77.6803 -77.6673
   -77.6661 -71.6943 -71.6943 -71.6465 -39.8343 -39.7277 -39.6896 -39.6262
   -39.6261 -39.6073 -39.5669 -39.5525 -39.5166 -39.4863 -39.4658 -39.3995
   -39.3534 -39.3509 -39.3468 -39.3385 -39.3202 -39.3108 -39.3089 -39.2709
   -39.2578 -39.2330 -39.2095 -39.1951 -39.1604 -39.0382 -39.0365 -35.8839
   -35.8730 -35.7857 -35.7531 -35.6979 -35.6957 -35.6770 -35.6681 -35.6609
    -4.1635  -4.1242  -2.5932  -2.5765  -1.9971  -1.9603  -1.9317  -1.8867
    -1.8616  -1.8252  -1.1432  -1.0528  -0.8785  -0.6910  -0.6329  -0.6252
    -0.3436  -0.2390  -0.2080  -0.1087   0.0799   0.2350   0.5879   0.7127
     0.8461   0.9273   0.9582   0.9843   1.0186   1.0551   1.1590   1.2181
     1.4144   1.5247   1.5474   1.5922   1.6288   1.7148   2.1662   2.2626
     2.6402   2.8659   2.8772   2.9654   3.1793   3.2476   3.3525   3.6043
     3.7496   3.8681   3.9600   3.9996   4.1383   4.2386   4.2778   4.6268
     4.7091   5.0089   5.2119   5.2595   6.0429   6.2185   6.2536   6.2971
     6.3767   6.7777   7.9759   8.1021   8.1160   8.2089

          k =-0.0896-0.0172 0.0000 ( 16840 PWs)   bands (ev):

   -77.7952 -77.7788 -77.7621 -77.6970 -77.6946 -77.6819 -77.6808 -77.6670
   -77.6664 -71.6943 -71.6943 -71.6465 -39.8176 -39.7367 -39.6807 -39.6700
   -39.6245 -39.5890 -39.5511 -39.5432 -39.5376 -39.4809 -39.4342 -39.4240
   -39.4145 -39.3657 -39.3618 -39.3361 -39.3182 -39.3094 -39.2812 -39.2632
   -39.2341 -39.2278 -39.1840 -39.1730 -39.1457 -39.0634 -39.0625 -35.8839
   -35.8730 -35.7802 -35.7585 -35.6928 -35.6903 -35.6772 -35.6728 -35.6664
    -4.4631  -3.5202  -2.7125  -2.6752  -2.3104  -2.0353  -1.9331  -1.8536
    -1.6000  -1.5730  -1.2731  -1.0457  -0.9672  -0.8556  -0.7184  -0.4566
    -0.3048  -0.2902  -0.2128  -0.1472   0.0755   0.2332   0.3704   0.4498
     0.6815   0.8789   0.9081   0.9618   0.9990   1.0462   1.1836   1.2146
     1.4213   1.4839   1.6411   1.8200   1.8345   2.0204   2.1985   2.2810
     2.3792   2.8047   2.8737   3.0577   3.2294   3.2598   3.3542   3.4470
     3.6727   3.8470   4.0636   4.3267   4.4462   4.6357   4.8245   4.9621
     5.0393   5.1179   5.1702   5.4796   5.5681   5.8399   6.0812   6.4157
     6.4709   6.6652   6.8819   6.9618   7.7463   7.9463

          k =-0.0896 0.0172 0.0000 ( 16840 PWs)   bands (ev):

   -77.7952 -77.7788 -77.7621 -77.6970 -77.6946 -77.6819 -77.6808 -77.6670
   -77.6664 -71.6943 -71.6943 -71.6465 -39.8176 -39.7367 -39.6807 -39.6700
   -39.6245 -39.5890 -39.5511 -39.5432 -39.5376 -39.4809 -39.4342 -39.4240
   -39.4145 -39.3657 -39.3618 -39.3361 -39.3182 -39.3094 -39.2812 -39.2632
   -39.2341 -39.2278 -39.1840 -39.1730 -39.1457 -39.0634 -39.0625 -35.8839
   -35.8730 -35.7802 -35.7585 -35.6928 -35.6903 -35.6772 -35.6728 -35.6664
    -4.4631  -3.5202  -2.7125  -2.6752  -2.3104  -2.0353  -1.9331  -1.8536
    -1.6000  -1.5730  -1.2731  -1.0457  -0.9672  -0.8556  -0.7184  -0.4566
    -0.3048  -0.2902  -0.2128  -0.1472   0.0755   0.2332   0.3704   0.4498
     0.6815   0.8789   0.9081   0.9618   0.9990   1.0462   1.1836   1.2146
     1.4213   1.4839   1.6411   1.8200   1.8345   2.0204   2.1985   2.2810
     2.3792   2.8047   2.8737   3.0577   3.2294   3.2598   3.3542   3.4470
     3.6727   3.8470   4.0636   4.3267   4.4462   4.6357   4.8245   4.9621
     5.0393   5.1179   5.1702   5.4796   5.5681   5.8399   6.0812   6.4157
     6.4709   6.6652   6.8819   6.9618   7.7463   7.9463

          k =-0.0896-0.1551 0.0000 ( 16840 PWs)   bands (ev):

   -77.7951 -77.7792 -77.7619 -77.6967 -77.6948 -77.6826 -77.6803 -77.6673
   -77.6660 -71.6943 -71.6943 -71.6465 -39.8343 -39.7277 -39.6896 -39.6262
   -39.6261 -39.6073 -39.5669 -39.5525 -39.5166 -39.4863 -39.4658 -39.3995
   -39.3534 -39.3509 -39.3468 -39.3385 -39.3202 -39.3108 -39.3089 -39.2709
   -39.2578 -39.2330 -39.2095 -39.1951 -39.1604 -39.0382 -39.0365 -35.8839
   -35.8730 -35.7857 -35.7531 -35.6979 -35.6956 -35.6770 -35.6681 -35.6609
    -4.1635  -4.1242  -2.5932  -2.5765  -1.9971  -1.9603  -1.9317  -1.8867
    -1.8616  -1.8252  -1.1432  -1.0528  -0.8785  -0.6910  -0.6329  -0.6252
    -0.3436  -0.2390  -0.2080  -0.1087   0.0799   0.2350   0.5879   0.7127
     0.8461   0.9273   0.9582   0.9843   1.0186   1.0551   1.1590   1.2181
     1.4144   1.5247   1.5474   1.5922   1.6288   1.7148   2.1662   2.2626
     2.6402   2.8659   2.8772   2.9654   3.1793   3.2476   3.3525   3.6043
     3.7496   3.8681   3.9600   3.9996   4.1383   4.2386   4.2778   4.6268
     4.7091   5.0089   5.2119   5.2595   6.0429   6.2185   6.2536   6.2971
     6.3767   6.7777   7.9759   8.1021   8.1160   8.2089

     the Fermi energy is     2.6418 ev

!    total energy              =   -2210.53250882 Ry
     Harris-Foulkes estimate   =   -2210.53450163 Ry
     estimated scf accuracy    <       0.00000057 Ry

     The total energy is the sum of the following terms:

     one-electron contribution =  -17112.35099795 Ry
     hartree contribution      =    8539.70554661 Ry
     xc contribution           =    -614.18502699 Ry
     ewald contribution        =    6976.36302125 Ry
     electric field correction =       0.00000000 Ry
     smearing contrib. (-TS)   =      -0.06505175 Ry

     convergence has been achieved in  15 iterations
 
 BEEF-vdW xc energy contributions
           1 :   -544.594597570232     
           2 :    505.782277774067     
           3 :   -436.352236528600     
           4 :    349.918667000387     
           5 :   -261.356376737711     
           6 :    182.836032553883     
           7 :   -121.290684543106     
           8 :    77.9184186294613     
           9 :   -49.5448438925733     
          10 :    31.0147568668867     
          11 :   -17.5523481243251     
          12 :    6.24869353115434     
          13 :    3.64353370446815     
          14 :   -11.3970750576989     
          15 :    15.9364906002943     
          16 :   -16.8226171204722     
          17 :    14.7005810080141     
          18 :   -11.1164384502482     
          19 :    7.88178729661763     
          20 :   -6.33719730217683     
          21 :    6.86774254154693     
          22 :   -8.87255342149558     
          23 :    11.1600743514414     
          24 :   -12.5509170854626     
          25 :    12.3989755160593     
          26 :   -10.8103268944045     
          27 :    8.49612973716046     
          28 :   -6.37091331243653     
          29 :    5.11219685108506     
          30 :   -4.89058266164307     
          31 :   -46.0282719999400     
          32 :   -34.1992481739090     

     Forces acting on atoms (Ry/au):


     negative rho (up, down):  1.400E+00 0.000E+00
     atom    1 type  1   force =     0.00000117   -0.00490008    0.03242468
     atom    2 type  1   force =    -0.00424162    0.00244972    0.03242798
     atom    3 type  1   force =     0.00424504    0.00245016    0.03242749
     atom    4 type  2   force =     0.00000027   -0.00000112    0.03974633
     atom    5 type  1   force =    -0.00000133    0.00000026    0.00003159
     atom    6 type  1   force =    -0.00000019   -0.00000239    0.00003383
     atom    7 type  1   force =    -0.00000268   -0.00000061    0.00003260
     atom    8 type  2   force =    -0.00000126    0.00000122    0.00001513
     atom    9 type  1   force =    -0.00000136    0.00490208   -0.03244943
     atom   10 type  1   force =     0.00424415   -0.00245091   -0.03245233
     atom   11 type  1   force =    -0.00424382   -0.00244832   -0.03245437
     atom   12 type  2   force =     0.00000162   -0.00000000   -0.03978350

     Total force =     0.098084     Total SCF correction =     0.001767


     entering subroutine stress ...


     negative rho (up, down):  1.400E+00 0.000E+00
          total   stress  (Ry/bohr**3)                   (kbar)     P=  -52.73
  -0.00038297   0.00000000  -0.00000000        -56.34      0.00     -0.00
   0.00000000  -0.00038297  -0.00000000          0.00    -56.34     -0.00
  -0.00000000  -0.00000000  -0.00030939         -0.00     -0.00    -45.51

 !ASE

     Writing output data file calc.save
 
     init_run     :     11.27s CPU     18.23s WALL (       1 calls)
     electrons    :    450.47s CPU    698.97s WALL (       1 calls)
     forces       :      3.85s CPU      4.72s WALL (       1 calls)
     stress       :      9.82s CPU     11.30s WALL (       1 calls)

     Called by init_run:
     wfcinit      :      9.04s CPU     15.41s WALL (       1 calls)
     potinit      :      0.87s CPU      1.24s WALL (       1 calls)

     Called by electrons:
     c_bands      :    339.57s CPU    527.95s WALL (      15 calls)
     sum_band     :     61.10s CPU    100.20s WALL (      15 calls)
     v_of_rho     :     12.70s CPU     18.96s WALL (      16 calls)
     newd         :      9.91s CPU     10.64s WALL (      16 calls)
     mix_rho      :      0.47s CPU      0.78s WALL (      15 calls)
     vdW_energy   :      1.46s CPU      1.49s WALL (      52 calls)
     vdW_ffts     :     26.38s CPU     41.50s WALL (     106 calls)
     vdW_v        :      5.14s CPU      7.14s WALL (      52 calls)

     Called by c_bands:
     init_us_2    :      0.51s CPU      0.54s WALL (     660 calls)
     cegterg      :    330.01s CPU    516.47s WALL (     300 calls)

     Called by *egterg:
     h_psi        :    219.60s CPU    390.76s WALL (    1211 calls)
     s_psi        :      7.81s CPU      7.93s WALL (    1211 calls)
     g_psi        :      0.22s CPU      0.24s WALL (     891 calls)
     cdiaghg      :     64.47s CPU     67.57s WALL (    1191 calls)

     Called by h_psi:
     add_vuspsi   :      8.17s CPU      8.26s WALL (    1211 calls)

     General routines
     calbec       :     22.08s CPU     28.69s WALL (    1551 calls)
     fft          :     40.72s CPU     63.49s WALL (    3159 calls)
     ffts         :      0.08s CPU      0.13s WALL (      31 calls)
     fftw         :    233.37s CPU    435.49s WALL (  198596 calls)
     interpolate  :      0.44s CPU      0.69s WALL (      31 calls)
     davcio       :      0.00s CPU      0.02s WALL (      20 calls)
 
     Parallel routines
     fft_scatter  :    255.88s CPU    479.69s WALL (  201786 calls)
 
     PWSCF        :  7m56.42s CPU    12m14.83s WALL

 
   This run was terminated on:  20:29:56  27Dec2018            

=------------------------------------------------------------------------------=
   JOB DONE.
=------------------------------------------------------------------------------=
Job  /afs/slac/g/suncat/bin/suncat-tsmpirun -x LD_LIBRARY_PATH -wdir /scratch/qe110656_EcBO0 pw.x -in pw.inp

TID   HOST_NAME   COMMAND_LINE            STATUS            TERMINATION_TIME
===== ========== ================  =======================  ===================
00000 suncat0193 pw.x -in pw.inp   Done                     12/27/2018 20:29:56
00001 suncat0193 pw.x -in pw.inp   Done                     12/27/2018 20:29:56
00002 suncat0193 pw.x -in pw.inp   Done                     12/27/2018 20:29:56
00003 suncat0193 pw.x -in pw.inp   Done                     12/27/2018 20:29:56
00004 suncat0193 pw.x -in pw.inp   Done                     12/27/2018 20:29:56
00005 suncat0193 pw.x -in pw.inp   Done                     12/27/2018 20:29:56
00006 suncat0193 pw.x -in pw.inp   Done                     12/27/2018 20:29:56
00007 suncat0193 pw.x -in pw.inp   Done                     12/27/2018 20:29:56
00008 suncat0192 pw.x -in pw.inp   Done                     12/27/2018 20:29:56
00009 suncat0192 pw.x -in pw.inp   Done                     12/27/2018 20:29:56
00010 suncat0192 pw.x -in pw.inp   Done                     12/27/2018 20:29:56
00011 suncat0192 pw.x -in pw.inp   Done                     12/27/2018 20:29:56
00012 suncat0192 pw.x -in pw.inp   Done                     12/27/2018 20:29:56
00013 suncat0192 pw.x -in pw.inp   Done                     12/27/2018 20:29:56
00014 suncat0192 pw.x -in pw.inp   Done                     12/27/2018 20:29:56
00015 suncat0192 pw.x -in pw.inp   Done                     12/27/2018 20:29:56
00016 suncat0163 pw.x -in pw.inp   Done                     12/27/2018 20:29:56
00017 suncat0163 pw.x -in pw.inp   Done                     12/27/2018 20:29:56
00018 suncat0163 pw.x -in pw.inp   Done                     12/27/2018 20:29:56
00019 suncat0163 pw.x -in pw.inp   Done                     12/27/2018 20:29:56
00020 suncat0163 pw.x -in pw.inp   Done                     12/27/2018 20:29:56
00021 suncat0163 pw.x -in pw.inp   Done                     12/27/2018 20:29:56
00022 suncat0163 pw.x -in pw.inp   Done                     12/27/2018 20:29:56
00023 suncat0163 pw.x -in pw.inp   Done                     12/27/2018 20:29:56
00024 suncat0162 pw.x -in pw.inp   Done                     12/27/2018 20:29:56
00025 suncat0162 pw.x -in pw.inp   Done                     12/27/2018 20:29:56
00026 suncat0162 pw.x -in pw.inp   Done                     12/27/2018 20:29:56
00027 suncat0162 pw.x -in pw.inp   Done                     12/27/2018 20:29:56
00028 suncat0162 pw.x -in pw.inp   Done                     12/27/2018 20:29:56
00029 suncat0162 pw.x -in pw.inp   Done                     12/27/2018 20:29:56
00030 suncat0162 pw.x -in pw.inp   Done                     12/27/2018 20:29:56
00031 suncat0162 pw.x -in pw.inp   Done                     12/27/2018 20:29:56
00032 suncat0159 pw.x -in pw.inp   Done                     12/27/2018 20:29:56
00033 suncat0159 pw.x -in pw.inp   Done                     12/27/2018 20:29:56
00034 suncat0159 pw.x -in pw.inp   Done                     12/27/2018 20:29:56
00035 suncat0159 pw.x -in pw.inp   Done                     12/27/2018 20:29:56
00036 suncat0159 pw.x -in pw.inp   Done                     12/27/2018 20:29:56
00037 suncat0159 pw.x -in pw.inp   Done                     12/27/2018 20:29:56
00038 suncat0159 pw.x -in pw.inp   Done                     12/27/2018 20:29:56
00039 suncat0159 pw.x -in pw.inp   Done                     12/27/2018 20:29:56
00040 suncat0155 pw.x -in pw.inp   Done                     12/27/2018 20:29:56
00041 suncat0155 pw.x -in pw.inp   Done                     12/27/2018 20:29:56
00042 suncat0155 pw.x -in pw.inp   Done                     12/27/2018 20:29:56
00043 suncat0155 pw.x -in pw.inp   Done                     12/27/2018 20:29:56
00044 suncat0155 pw.x -in pw.inp   Done                     12/27/2018 20:29:56
00045 suncat0155 pw.x -in pw.inp   Done                     12/27/2018 20:29:56
00046 suncat0155 pw.x -in pw.inp   Done                     12/27/2018 20:29:56
00047 suncat0155 pw.x -in pw.inp   Done                     12/27/2018 20:29:56
00048 suncat0141 pw.x -in pw.inp   Done                     12/27/2018 20:29:56
00049 suncat0141 pw.x -in pw.inp   Done                     12/27/2018 20:29:56
00050 suncat0141 pw.x -in pw.inp   Done                     12/27/2018 20:29:56
00051 suncat0141 pw.x -in pw.inp   Done                     12/27/2018 20:29:56
00052 suncat0141 pw.x -in pw.inp   Done                     12/27/2018 20:29:56
00053 suncat0141 pw.x -in pw.inp   Done                     12/27/2018 20:29:56
00054 suncat0141 pw.x -in pw.inp   Done                     12/27/2018 20:29:56
00055 suncat0141 pw.x -in pw.inp   Done                     12/27/2018 20:29:56
00056 suncat0140 pw.x -in pw.inp   Done                     12/27/2018 20:29:56
00057 suncat0140 pw.x -in pw.inp   Done                     12/27/2018 20:29:56
00058 suncat0140 pw.x -in pw.inp   Done                     12/27/2018 20:29:56
00059 suncat0140 pw.x -in pw.inp   Done                     12/27/2018 20:29:56
00060 suncat0140 pw.x -in pw.inp   Done                     12/27/2018 20:29:56
00061 suncat0140 pw.x -in pw.inp   Done                     12/27/2018 20:29:56
00062 suncat0140 pw.x -in pw.inp   Done                     12/27/2018 20:29:56
00063 suncat0140 pw.x -in pw.inp   Done                     12/27/2018 20:29:56

     Program PWSCF v.5.1rc2 (svn rev. 11289) starts on 27Dec2018 at 20:30: 3 

     This program is part of the open-source Quantum ESPRESSO suite
     for quantum simulation of materials; please cite
         "P. Giannozzi et al., J. Phys.:Condens. Matter 21 395502 (2009);
          URL http://www.quantum-espresso.org", 
     in publications or presentations arising from this work. More details at
     http://www.quantum-espresso.org/quote

     Parallel version (MPI), running on    64 processors
     R & G space division:  proc/nbgrp/npool/nimage =      64
     Reading input from pw.inp
     Message from routine read_cards :
     DEPRECATED: no units specified in CELL_PARAMETERS card

     Current dimensions of program PWSCF are:
     Max number of different atomic species (ntypx) = 10
     Max number of k-points (npk) =  40000
     Max angular momentum in pseudopotentials (lmaxx) =  3
     Presently stress not available with electric field


     **************************************************************************
     Initializing libbeef V0.1.1 with the BEEF-vdW functional.
     Citation: Wellendorff et al., PRB 85, 235149 (2012).
     **************************************************************************


     IMPORTANT: XC functional enforced from input :
     Exchange-correlation      = BEEF-VDW ( 1  4 27 13 2)
     Any further DFT definition will be discarded
     Please, verify this is what you really want


     Subspace diagonalization in iterative solution of the eigenvalue problem:
     a serial algorithm will be used

 
     Parallelization info
     --------------------
     sticks:   dense  smooth     PW     G-vecs:    dense   smooth      PW
     Min          43      17      5                 8293     2081     343
     Max          44      18      7                 8318     2120     356
     Sum        2815    1135    349               531997   134693   22347
 


     bravais-lattice index     =            0
     lattice parameter (alat)  =       1.8897  a.u.
     unit-cell volume          =    4472.3824 (a.u.)^3
     number of atoms/cell      =           12
     number of atomic types    =            2
     number of electrons       =       177.00
     number of Kohn-Sham states=          118
     kinetic-energy cutoff     =      36.7493  Ry
     charge density cutoff     =     367.4932  Ry
     convergence threshold     =      1.0E-06
     mixing beta               =       0.1000
     number of iterations used =           10  plain     mixing
     Exchange-correlation      = BEEF-VDW ( 1  4 27 13 2)
     nstep                     =           50


     celldm(1)=   1.889726  celldm(2)=   0.000000  celldm(3)=   0.000000
     celldm(4)=   0.000000  celldm(5)=   0.000000  celldm(6)=   0.000000

     crystal axes: (cart. coord. in units of alat)
               a(1) = (   5.582262   0.000000   0.000000 )  
               a(2) = (  -2.791131   4.834381   0.000000 )  
               a(3) = (   0.000000   0.000000  24.557898 )  

     reciprocal axes: (cart. coord. in units 2 pi/alat)
               b(1) = (  0.179139  0.103426  0.000000 )  
               b(2) = (  0.000000  0.206852  0.000000 )  
               b(3) = (  0.000000  0.000000  0.040720 )  


     PseudoPot. # 1 for Re read from file:
     /afs/slac.stanford.edu/u/if/mamunm/psp/gbrv1.5pbe/Re.UPF
     MD5 check sum: 85f993410f3e006da9d71c142b4ad953
     Pseudo is Ultrasoft + core correction, Zval = 15.0
     Generated by new atomic code, or converted to UPF format
     Using radial grid of  981 points,  8 beta functions with: 
                l(1) =   0
                l(2) =   0
                l(3) =   1
                l(4) =   1
                l(5) =   2
                l(6) =   2
                l(7) =   3
                l(8) =   3
     Q(r) pseudized with  8 coefficients,  rinner =    1.150   1.150   1.150
                                                       1.150   1.150   1.150
                                                       1.150

     PseudoPot. # 2 for W  read from file:
     /afs/slac.stanford.edu/u/if/mamunm/psp/gbrv1.5pbe/W.UPF
     MD5 check sum: 9c083fa34c2a2ea0f02f1f893e16e1c8
     Pseudo is Ultrasoft + core correction, Zval = 14.0
     Generated by new atomic code, or converted to UPF format
     Using radial grid of  923 points,  8 beta functions with: 
                l(1) =   0
                l(2) =   0
                l(3) =   0
                l(4) =   1
                l(5) =   1
                l(6) =   2
                l(7) =   2
                l(8) =   3
     Q(r) pseudized with  6 coefficients,  rinner =    1.350   1.350   1.350
                                                       1.350   1.350   1.350
                                                       1.350

     vdW kernel table read from file vdW_kernel_table
     MD5 check sum: 095c7af220d748ca6e76c0b4c6cfb241

     atomic species   valence    mass     pseudopotential
        Re1           15.00   186.20700     Re( 1.00)
        W1            14.00   183.84000     W ( 1.00)

     No symmetry found



   Cartesian axes

     site n.     atom                  positions (alat units)
         1           Re1 tau(   1) = (   0.0000000   0.0000000  10.0000000  )
         2           Re1 tau(   2) = (  -1.3955656   2.4171906  10.0000000  )
         3           Re1 tau(   3) = (   1.3955656   2.4171906  10.0000000  )
         4           W1  tau(   4) = (   2.7911312   0.0000000  10.0000000  )
         5           Re1 tau(   5) = (   2.7911312   1.6114604  12.2789491  )
         6           Re1 tau(   6) = (   1.3955656   4.0286509  12.2789491  )
         7           Re1 tau(   7) = (  -1.3955656   4.0286509  12.2789491  )
         8           W1  tau(   8) = (   0.0000000   1.6114604  12.2789491  )
         9           Re1 tau(   9) = (  -0.0000035   3.2355245  14.4744674  )
        10           Re1 tau(  10) = (   1.4064778   0.7994286  14.4744599  )
        11           Re1 tau(  11) = (   4.1757856   0.7994353  14.4744547  )
        12           W1  tau(  12) = (   2.7911354   3.2229207  14.4556107  )

     number of k points=    20  Fermi-Dirac smearing, width (Ry)=  0.0110
                       cart. coord. in units 2pi/alat
        k(    1) = (   0.0000000   0.0000000   0.0000000), wk =   0.0555556
        k(    2) = (   0.0000000   0.0344753   0.0000000), wk =   0.1111111
        k(    3) = (   0.0000000   0.0689506   0.0000000), wk =   0.1111111
        k(    4) = (   0.0000000  -0.1034259   0.0000000), wk =   0.0555556
        k(    5) = (   0.0298565   0.0172376   0.0000000), wk =   0.1111111
        k(    6) = (   0.0298565   0.0517129   0.0000000), wk =   0.1111111
        k(    7) = (   0.0298565   0.0861882   0.0000000), wk =   0.1111111
        k(    8) = (   0.0298565  -0.0861882   0.0000000), wk =   0.1111111
        k(    9) = (   0.0298565  -0.0517129   0.0000000), wk =   0.1111111
        k(   10) = (   0.0298565  -0.0172376   0.0000000), wk =   0.1111111
        k(   11) = (   0.0597129   0.0344753   0.0000000), wk =   0.1111111
        k(   12) = (   0.0597129   0.0689506   0.0000000), wk =   0.1111111
        k(   13) = (   0.0597129   0.1034259   0.0000000), wk =   0.1111111
        k(   14) = (   0.0597129  -0.0689506   0.0000000), wk =   0.1111111
        k(   15) = (   0.0597129  -0.0344753   0.0000000), wk =   0.1111111
        k(   16) = (   0.0597129   0.0000000   0.0000000), wk =   0.1111111
        k(   17) = (  -0.0895694  -0.0517129   0.0000000), wk =   0.0555556
        k(   18) = (  -0.0895694  -0.0172376   0.0000000), wk =   0.1111111
        k(   19) = (  -0.0895694   0.0172376   0.0000000), wk =   0.1111111
        k(   20) = (  -0.0895694  -0.1551388   0.0000000), wk =   0.0555556

     Dense  grid:   531997 G-vectors     FFT dimensions: (  72,  72, 288)

     Smooth grid:   134693 G-vectors     FFT dimensions: (  45,  45, 180)

     Largest allocated arrays     est. size (Mb)     dimensions
        Kohn-Sham Wavefunctions         0.51 Mb     (     283,  118)
        NL pseudopotentials             1.58 Mb     (     283,  366)
        Each V/rho on FFT grid          0.40 Mb     (   25920)
        Each G-vector array             0.06 Mb     (    8308)
        G-vector shells                 0.03 Mb     (    3881)
     Largest temporary arrays     est. size (Mb)     dimensions
        Auxiliary wavefunctions         2.04 Mb     (     283,  472)
        Each subspace H/S matrix        3.40 Mb     (     472,  472)
        Each <psi_i|beta_j> matrix      0.66 Mb     (     366,  118)
        Arrays for rho mixing           3.96 Mb     (   25920,   10)

     Initial potential from superposition of free atoms
     Check: negative starting charge=   -1.337975

     starting charge  172.19858, renormalised to  177.00000

     negative rho (up, down):  1.375E+00 0.000E+00


     ************************************************************************
     *
     * You are using vdW-DF for exchange-correlation in this calculation.
     * Please cite the following three references that made this development
     * possible:
     *
     *   M. Dion, H. Rydberg, E. Schroder, D. C. Langreth, and
     *   B. I. Lundqvist, Phys. Rev. Lett. 92, 246401 (2004).
     *
     *   T. Thonhauser, V. R. Cooper, S. Li, A. Puzder, P. Hyldgaard, and
     *   D. C. Langreth, Phys. Rev. B 76, 125112 (2007).
     *
     *   G. Roman-Perez and J. M. Soler, Phys. Rev. Lett. 103, 096102 (2009).
     *
     *
     * If you are using vdW-DF2, please also cite:
     *
     *   K. Lee, E. D. Murray, L. Kong, B. I. Lundqvist, and
     *   D. C. Langreth, Phys. Rev. B 82, 081101(R) (2010).
     *
     *
     * If you are calculating the stress with vdW-DF, please also cite:
     *
     *   R. Sabatini, E. Kucukbenli, B. Kolb, T. Thonhauser, and
     *   S. de Gironcoli, J. Phys.: Condens. Matter 24, 424209 (2012).
     *
     ************************************************************************

     Carrying out vdW-DF run using the following parameters:

     Nqs =      20    Nr_points =    1024   r_max =   100.000
     q_mesh =
               0.00001000     0.04494208     0.09755937     0.15916263
               0.23128650     0.31572767     0.41458969     0.53033537
               0.66584808     0.82450364     1.01025438     1.22772762
               1.48234092     1.78043706     2.12944203     2.53805004
               3.01644009     3.57652955     4.23227104     5.00000000

     Gradients computed in reciprocal space

     ************************************************************************


 
     Adding external electric field

     Computed dipole along edir(3) : 
        Dipole                0.0102 Ry au,          0.0260 Debye
        Dipole field          0.0000 Ry au
 
        Potential amp.       -0.0026 Ry
        Total length         45.2475 bohr
 
     Starting wfc are  156 randomized atomic wfcs

     total cpu time spent up to now is       19.9 secs

     per-process dynamical memory:    41.7 Mb

     Self-consistent Calculation

     iteration #  1     ecut=    36.75 Ry     beta=0.10
     Davidson diagonalization with overlap
     ethr =  1.00E-02,  avg # of iterations =  2.5

     negative rho (up, down):  1.377E+00 0.000E+00
 
     Adding external electric field

     Computed dipole along edir(3) : 
        Dipole               -0.3085 Ry au,         -0.7842 Debye
        Dipole field         -0.0009 Ry au
 
        Potential amp.        0.0784 Ry
        Total length         45.2475 bohr
 

     total cpu time spent up to now is       62.5 secs

     total energy              =   -2210.85133799 Ry
     Harris-Foulkes estimate   =   -2211.17794441 Ry
     estimated scf accuracy    <       2.18072177 Ry

     iteration #  2     ecut=    36.75 Ry     beta=0.10
     Davidson diagonalization with overlap
     ethr =  1.23E-03,  avg # of iterations =  3.5

     negative rho (up, down):  1.378E+00 0.000E+00
 
     Adding external electric field

     Computed dipole along edir(3) : 
        Dipole                0.2020 Ry au,          0.5134 Debye
        Dipole field          0.0006 Ry au
 
        Potential amp.       -0.0514 Ry
        Total length         45.2475 bohr
 

     total cpu time spent up to now is      103.8 secs

     total energy              =   -2210.76389068 Ry
     Harris-Foulkes estimate   =   -2211.02820132 Ry
     estimated scf accuracy    <       5.38965056 Ry

     iteration #  3     ecut=    36.75 Ry     beta=0.10
     Davidson diagonalization with overlap
     ethr =  1.23E-03,  avg # of iterations =  1.8

     negative rho (up, down):  1.382E+00 0.000E+00
 
     Adding external electric field

     Computed dipole along edir(3) : 
        Dipole               -0.0078 Ry au,         -0.0198 Debye
        Dipole field         -0.0000 Ry au
 
        Potential amp.        0.0020 Ry
        Total length         45.2475 bohr
 

     total cpu time spent up to now is      141.5 secs

     total energy              =   -2210.75955635 Ry
     Harris-Foulkes estimate   =   -2210.95979635 Ry
     estimated scf accuracy    <       3.14267685 Ry

     iteration #  4     ecut=    36.75 Ry     beta=0.10
     Davidson diagonalization with overlap
     ethr =  1.23E-03,  avg # of iterations =  1.0

     negative rho (up, down):  1.395E+00 0.000E+00
 
     Adding external electric field

     Computed dipole along edir(3) : 
        Dipole                0.0293 Ry au,          0.0744 Debye
        Dipole field          0.0001 Ry au
 
        Potential amp.       -0.0074 Ry
        Total length         45.2475 bohr
 

     total cpu time spent up to now is      179.4 secs

     total energy              =   -2210.53444733 Ry
     Harris-Foulkes estimate   =   -2210.80825396 Ry
     estimated scf accuracy    <       0.72222060 Ry

     iteration #  5     ecut=    36.75 Ry     beta=0.10
     Davidson diagonalization with overlap
     ethr =  4.08E-04,  avg # of iterations =  2.0

     negative rho (up, down):  1.403E+00 0.000E+00
 
     Adding external electric field

     Computed dipole along edir(3) : 
        Dipole                0.0348 Ry au,          0.0884 Debye
        Dipole field          0.0001 Ry au
 
        Potential amp.       -0.0088 Ry
        Total length         45.2475 bohr
 

     total cpu time spent up to now is      223.1 secs

     total energy              =   -2210.54295559 Ry
     Harris-Foulkes estimate   =   -2210.59190305 Ry
     estimated scf accuracy    <       0.13157330 Ry

     iteration #  6     ecut=    36.75 Ry     beta=0.10
     Davidson diagonalization with overlap
     ethr =  7.43E-05,  avg # of iterations =  4.0

     negative rho (up, down):  1.405E+00 0.000E+00
 
     Adding external electric field

     Computed dipole along edir(3) : 
        Dipole                0.0157 Ry au,          0.0398 Debye
        Dipole field          0.0000 Ry au
 
        Potential amp.       -0.0040 Ry
        Total length         45.2475 bohr
 

     total cpu time spent up to now is      273.2 secs

     total energy              =   -2210.56020321 Ry
     Harris-Foulkes estimate   =   -2210.56003375 Ry
     estimated scf accuracy    <       0.01493047 Ry

     iteration #  7     ecut=    36.75 Ry     beta=0.10
     Davidson diagonalization with overlap
     ethr =  8.44E-06,  avg # of iterations =  6.0

     negative rho (up, down):  1.402E+00 0.000E+00
 
     Adding external electric field

     Computed dipole along edir(3) : 
        Dipole                0.0160 Ry au,          0.0406 Debye
        Dipole field          0.0000 Ry au
 
        Potential amp.       -0.0041 Ry
        Total length         45.2475 bohr
 

     total cpu time spent up to now is      339.0 secs

     total energy              =   -2210.55827664 Ry
     Harris-Foulkes estimate   =   -2210.56541852 Ry
     estimated scf accuracy    <       0.02251790 Ry

     iteration #  8     ecut=    36.75 Ry     beta=0.10
     Davidson diagonalization with overlap
     ethr =  8.44E-06,  avg # of iterations =  2.0

     negative rho (up, down):  1.400E+00 0.000E+00
 
     Adding external electric field

     Computed dipole along edir(3) : 
        Dipole                0.0113 Ry au,          0.0287 Debye
        Dipole field          0.0000 Ry au
 
        Potential amp.       -0.0029 Ry
        Total length         45.2475 bohr
 

     total cpu time spent up to now is      383.2 secs

     total energy              =   -2210.56031438 Ry
     Harris-Foulkes estimate   =   -2210.56032673 Ry
     estimated scf accuracy    <       0.00305765 Ry

     iteration #  9     ecut=    36.75 Ry     beta=0.10
     Davidson diagonalization with overlap
     ethr =  1.73E-06,  avg # of iterations =  5.3

     negative rho (up, down):  1.401E+00 0.000E+00
 
     Adding external electric field

     Computed dipole along edir(3) : 
        Dipole                0.0209 Ry au,          0.0530 Debye
        Dipole field          0.0001 Ry au
 
        Potential amp.       -0.0053 Ry
        Total length         45.2475 bohr
 

     total cpu time spent up to now is      435.2 secs

     total energy              =   -2210.56066553 Ry
     Harris-Foulkes estimate   =   -2210.56072195 Ry
     estimated scf accuracy    <       0.00061848 Ry

     iteration # 10     ecut=    36.75 Ry     beta=0.10
     Davidson diagonalization with overlap
     ethr =  3.49E-07,  avg # of iterations =  2.0

     negative rho (up, down):  1.400E+00 0.000E+00
 
     Adding external electric field

     Computed dipole along edir(3) : 
        Dipole                0.0230 Ry au,          0.0584 Debye
        Dipole field          0.0001 Ry au
 
        Potential amp.       -0.0058 Ry
        Total length         45.2475 bohr
 

     total cpu time spent up to now is      476.2 secs

     total energy              =   -2210.56074517 Ry
     Harris-Foulkes estimate   =   -2210.56075616 Ry
     estimated scf accuracy    <       0.00029283 Ry

     iteration # 11     ecut=    36.75 Ry     beta=0.10
     Davidson diagonalization with overlap
     ethr =  1.65E-07,  avg # of iterations =  1.6

     negative rho (up, down):  1.400E+00 0.000E+00
 
     Adding external electric field

     Computed dipole along edir(3) : 
        Dipole                0.0215 Ry au,          0.0546 Debye
        Dipole field          0.0001 Ry au
 
        Potential amp.       -0.0055 Ry
        Total length         45.2475 bohr
 

     total cpu time spent up to now is      515.6 secs

     total energy              =   -2210.56074217 Ry
     Harris-Foulkes estimate   =   -2210.56076230 Ry
     estimated scf accuracy    <       0.00010397 Ry

     iteration # 12     ecut=    36.75 Ry     beta=0.10
     Davidson diagonalization with overlap
     ethr =  5.87E-08,  avg # of iterations =  3.0

     negative rho (up, down):  1.400E+00 0.000E+00
 
     Adding external electric field

     Computed dipole along edir(3) : 
        Dipole                0.0203 Ry au,          0.0515 Debye
        Dipole field          0.0001 Ry au
 
        Potential amp.       -0.0052 Ry
        Total length         45.2475 bohr
 

     total cpu time spent up to now is      562.7 secs

     total energy              =   -2210.56075458 Ry
     Harris-Foulkes estimate   =   -2210.56076103 Ry
     estimated scf accuracy    <       0.00001875 Ry

     iteration # 13     ecut=    36.75 Ry     beta=0.10
     Davidson diagonalization with overlap
     ethr =  1.06E-08,  avg # of iterations =  3.4

     negative rho (up, down):  1.400E+00 0.000E+00
 
     Adding external electric field

     Computed dipole along edir(3) : 
        Dipole                0.0208 Ry au,          0.0528 Debye
        Dipole field          0.0001 Ry au
 
        Potential amp.       -0.0053 Ry
        Total length         45.2475 bohr
 

     total cpu time spent up to now is      613.3 secs

     total energy              =   -2210.56075651 Ry
     Harris-Foulkes estimate   =   -2210.56075962 Ry
     estimated scf accuracy    <       0.00001345 Ry

     iteration # 14     ecut=    36.75 Ry     beta=0.10
     Davidson diagonalization with overlap
     ethr =  7.60E-09,  avg # of iterations =  2.1

     negative rho (up, down):  1.400E+00 0.000E+00
 
     Adding external electric field

     Computed dipole along edir(3) : 
        Dipole                0.0207 Ry au,          0.0527 Debye
        Dipole field          0.0001 Ry au
 
        Potential amp.       -0.0053 Ry
        Total length         45.2475 bohr
 

     total cpu time spent up to now is      654.7 secs

     total energy              =   -2210.56075597 Ry
     Harris-Foulkes estimate   =   -2210.56075755 Ry
     estimated scf accuracy    <       0.00000177 Ry

     iteration # 15     ecut=    36.75 Ry     beta=0.10
     Davidson diagonalization with overlap
     ethr =  1.00E-09,  avg # of iterations =  3.0

     negative rho (up, down):  1.400E+00 0.000E+00

     negative rho (up, down):  1.400E+00 0.000E+00

     negative rho (up, down):  1.400E+00 0.000E+00

     negative rho (up, down):  1.400E+00 0.000E+00

     negative rho (up, down):  1.400E+00 0.000E+00

     negative rho (up, down):  1.400E+00 0.000E+00

     negative rho (up, down):  1.400E+00 0.000E+00

     negative rho (up, down):  1.400E+00 0.000E+00

     negative rho (up, down):  1.400E+00 0.000E+00

     negative rho (up, down):  1.400E+00 0.000E+00

     negative rho (up, down):  1.400E+00 0.000E+00

     negative rho (up, down):  1.400E+00 0.000E+00

     negative rho (up, down):  1.400E+00 0.000E+00

     negative rho (up, down):  1.400E+00 0.000E+00

     negative rho (up, down):  1.400E+00 0.000E+00

     negative rho (up, down):  1.400E+00 0.000E+00

     negative rho (up, down):  1.400E+00 0.000E+00

     negative rho (up, down):  1.400E+00 0.000E+00

     negative rho (up, down):  1.400E+00 0.000E+00

     negative rho (up, down):  1.400E+00 0.000E+00

     negative rho (up, down):  1.400E+00 0.000E+00

     negative rho (up, down):  1.400E+00 0.000E+00

[...]
    -0.5550  -0.3493  -0.2942  -0.2397  -0.0995  -0.0076   0.0346   0.3311
     0.3741   0.4386   0.5668   0.5894   0.6807   0.8900   1.2805   1.2882
     1.3205   1.3496   1.8683   1.9216   1.9390   2.1662   2.1813   2.1884
     2.5642   2.6445   2.6910   3.2086   3.2200   3.2292   3.4953   3.6377
     3.8236   3.9850   4.0581   4.8678   4.9414   4.9433   5.0068   5.0645
     5.1654   5.2369   5.2596   5.4801   5.5313   5.5960   5.6021   5.8428
     5.8767   6.2518   7.1255   7.1748   7.4044   8.5877

          k = 0.0597-0.0690 0.0000 ( 16840 PWs)   bands (ev):

   -77.7371 -77.7204 -77.7076 -77.6985 -77.6908 -77.6795 -77.5628 -77.5484
   -77.5338 -71.7152 -71.5524 -71.5095 -39.8036 -39.7243 -39.6663 -39.6503
   -39.6062 -39.5685 -39.5474 -39.5210 -39.4681 -39.4400 -39.4186 -39.3958
   -39.3679 -39.3392 -39.3122 -39.2999 -39.2595 -39.2287 -39.2186 -39.1833
   -39.1691 -39.1306 -39.1176 -39.0779 -39.0704 -39.0406 -38.9517 -35.9050
   -35.7145 -35.7077 -35.6917 -35.6872 -35.6838 -35.5865 -35.5414 -35.5201
    -4.5137  -3.5748  -2.7638  -2.6797  -2.3563  -2.1048  -1.9877  -1.9604
    -1.6870  -1.6340  -1.3737  -1.1548  -1.0050  -0.9422  -0.7862  -0.5362
    -0.3839  -0.3088  -0.2792  -0.2167   0.0109   0.2468   0.4015   0.4551
     0.6927   0.8829   0.9150   0.9644   1.0348   1.0903   1.2041   1.2525
     1.5180   1.5971   1.6638   1.8463   1.9416   2.0371   2.1392   2.2472
     2.3689   2.7808   2.9411   3.0934   3.3112   3.3465   3.4100   3.5008
     3.6890   3.9685   4.1490   4.3828   4.5427   4.7199   4.9378   5.0251
     5.1066   5.2530   5.3425   5.5839   5.7243   6.0111   6.2404   6.6012
     6.6363   6.7211   6.9586   7.1670   7.8302   8.1200

          k = 0.0597-0.0345 0.0000 ( 16822 PWs)   bands (ev):

   -77.7439 -77.7166 -77.7064 -77.7009 -77.6874 -77.6787 -77.5682 -77.5431
   -77.5338 -71.7151 -71.5524 -71.5094 -39.8518 -39.7418 -39.6863 -39.6599
   -39.6466 -39.6002 -39.5868 -39.5091 -39.4701 -39.4485 -39.4393 -39.4034
   -39.3824 -39.3373 -39.3291 -39.2452 -39.2450 -39.2130 -39.1974 -39.1638
   -39.1538 -39.1123 -39.1112 -39.0479 -39.0458 -39.0369 -38.9246 -35.9054
   -35.7086 -35.7012 -35.6876 -35.6790 -35.6767 -35.5868 -35.5349 -35.5110
    -5.1683  -3.4425  -3.2345  -2.6195  -2.5927  -2.4630  -2.4617  -2.2455
    -2.2429  -1.9059  -1.6147  -1.6067  -1.4493  -1.0316  -0.9867  -0.4525
    -0.3986  -0.2767  -0.1695   0.1896   0.1929   0.3020   0.6486   0.7752
     1.0633   1.1168   1.2979   1.3363   1.3731   1.4177   1.4741   1.6557
     1.7997   1.9032   1.9218   1.9811   2.0475   2.1153   2.1260   2.3138
     2.4244   2.4463   2.8645   2.9288   3.2184   3.4647   3.6864   3.8354
     4.0832   4.2534   4.4856   4.5548   4.5747   4.6908   5.0634   5.0807
     5.3435   5.3616   5.4414   5.6949   5.7371   6.2231   6.4701   6.5974
     6.8943   7.1401   7.3538   7.8325   7.8799   8.2491

          k = 0.0597 0.0000 0.0000 ( 16804 PWs)   bands (ev):

   -77.7465 -77.7146 -77.7083 -77.7005 -77.6849 -77.6791 -77.5702 -77.5411
   -77.5338 -71.7151 -71.5523 -71.5094 -39.8663 -39.7491 -39.7130 -39.6694
   -39.6458 -39.6262 -39.5884 -39.5234 -39.4639 -39.4572 -39.4410 -39.4233
   -39.3933 -39.3373 -39.3089 -39.2563 -39.2273 -39.2041 -39.1804 -39.1512
   -39.1374 -39.1091 -39.0994 -39.0571 -39.0403 -38.9905 -38.9354 -35.9056
   -35.7021 -35.6938 -35.6861 -35.6784 -35.6768 -35.5868 -35.5270 -35.5110
    -5.4000  -3.4410  -3.0751  -3.0431  -2.8069  -2.5673  -2.5590  -2.4862
    -2.2539  -1.8873  -1.8699  -1.6829  -1.4681  -1.4540  -1.1194  -0.4984
    -0.3654  -0.3354  -0.0230   0.3944   0.4149   0.5739   0.5986   0.7614
     0.9217   1.1750   1.1987   1.4105   1.4709   1.5035   1.6115   1.6307
     1.7533   1.8993   2.0286   2.1207   2.1493   2.2254   2.4232   2.4930
     2.5987   2.6929   2.9325   3.0289   3.3001   3.4427   3.5729   4.0218
     4.2904   4.4304   4.6999   4.7591   4.8469   5.0260   5.1743   5.2707
     5.4127   5.4892   5.6265   6.1132   6.2765   6.4135   6.5233   6.6406
     6.7386   6.8330   6.8723   7.1059   7.6440   7.8772

          k =-0.0896-0.0517 0.0000 ( 16840 PWs)   bands (ev):

   -77.7364 -77.7230 -77.7016 -77.7009 -77.6934 -77.6787 -77.5628 -77.5485
   -77.5338 -71.7152 -71.5524 -71.5095 -39.8189 -39.7177 -39.6732 -39.6142
   -39.6056 -39.5821 -39.5650 -39.4946 -39.4736 -39.4542 -39.4354 -39.3535
   -39.3465 -39.3321 -39.3238 -39.2968 -39.2825 -39.2358 -39.2078 -39.1987
   -39.1794 -39.1338 -39.1288 -39.0890 -39.0598 -39.0475 -38.9270 -35.9050
   -35.7198 -35.7128 -35.6891 -35.6828 -35.6804 -35.5865 -35.5467 -35.5148
    -4.2206  -4.1700  -2.6093  -2.5979  -2.0817  -2.0447  -2.0105  -1.9421
    -1.9409  -1.8572  -1.2470  -1.1578  -0.9360  -0.7571  -0.7277  -0.7004
    -0.4387  -0.3354  -0.3020  -0.2044   0.1096   0.2547   0.6785   0.7902
     0.8634   0.9331   0.9764   0.9982   1.0224   1.0629   1.1930   1.2424
     1.4412   1.5747   1.5857   1.7109   1.7400   1.7881   1.9748   2.1025
     2.7592   2.7853   2.9203   3.0904   3.2977   3.3526   3.3628   3.6976
     3.7577   3.9635   3.9700   4.0930   4.2463   4.2932   4.3231   4.7667
     4.8028   5.1393   5.3718   5.4520   6.2450   6.3608   6.4416   6.4820
     6.5794   6.9712   8.0697   8.1308   8.1940   8.2589

          k =-0.0896-0.0172 0.0000 ( 16840 PWs)   bands (ev):

   -77.7371 -77.7204 -77.7076 -77.6985 -77.6908 -77.6795 -77.5628 -77.5484
   -77.5338 -71.7152 -71.5524 -71.5095 -39.8036 -39.7243 -39.6663 -39.6503
   -39.6062 -39.5685 -39.5474 -39.5210 -39.4681 -39.4400 -39.4186 -39.3958
   -39.3679 -39.3392 -39.3122 -39.2999 -39.2595 -39.2287 -39.2186 -39.1833
   -39.1691 -39.1306 -39.1176 -39.0779 -39.0704 -39.0406 -38.9517 -35.9050
   -35.7145 -35.7077 -35.6917 -35.6872 -35.6838 -35.5865 -35.5414 -35.5201
    -4.5137  -3.5748  -2.7638  -2.6797  -2.3563  -2.1048  -1.9877  -1.9604
    -1.6870  -1.6340  -1.3737  -1.1548  -1.0050  -0.9422  -0.7862  -0.5362
    -0.3839  -0.3088  -0.2792  -0.2167   0.0109   0.2468   0.4015   0.4551
     0.6927   0.8829   0.9150   0.9644   1.0348   1.0903   1.2041   1.2525
     1.5180   1.5971   1.6638   1.8463   1.9416   2.0371   2.1392   2.2472
     2.3689   2.7808   2.9411   3.0934   3.3112   3.3465   3.4100   3.5008
     3.6890   3.9685   4.1490   4.3828   4.5427   4.7199   4.9378   5.0251
     5.1066   5.2530   5.3425   5.5839   5.7243   6.0111   6.2404   6.6012
     6.6363   6.7211   6.9586   7.1670   7.8302   8.1200

          k =-0.0896 0.0172 0.0000 ( 16840 PWs)   bands (ev):

   -77.7371 -77.7204 -77.7076 -77.6985 -77.6908 -77.6795 -77.5628 -77.5484
   -77.5338 -71.7152 -71.5524 -71.5095 -39.8036 -39.7243 -39.6663 -39.6503
   -39.6062 -39.5685 -39.5474 -39.5210 -39.4681 -39.4400 -39.4186 -39.3958
   -39.3679 -39.3392 -39.3122 -39.2999 -39.2595 -39.2287 -39.2186 -39.1833
   -39.1691 -39.1306 -39.1176 -39.0779 -39.0704 -39.0406 -38.9517 -35.9050
   -35.7145 -35.7077 -35.6917 -35.6872 -35.6838 -35.5865 -35.5414 -35.5201
    -4.5137  -3.5748  -2.7638  -2.6797  -2.3563  -2.1048  -1.9877  -1.9604
    -1.6870  -1.6340  -1.3737  -1.1548  -1.0050  -0.9422  -0.7862  -0.5362
    -0.3839  -0.3088  -0.2792  -0.2167   0.0109   0.2468   0.4015   0.4551
     0.6927   0.8829   0.9150   0.9644   1.0348   1.0903   1.2041   1.2525
     1.5180   1.5971   1.6638   1.8463   1.9416   2.0371   2.1392   2.2472
     2.3689   2.7808   2.9411   3.0934   3.3112   3.3465   3.4100   3.5008
     3.6890   3.9685   4.1490   4.3828   4.5427   4.7199   4.9378   5.0251
     5.1066   5.2530   5.3425   5.5839   5.7243   6.0111   6.2404   6.6012
     6.6363   6.7211   6.9586   7.1670   7.8302   8.1200

          k =-0.0896-0.1551 0.0000 ( 16840 PWs)   bands (ev):

   -77.7364 -77.7230 -77.7016 -77.7009 -77.6934 -77.6787 -77.5628 -77.5485
   -77.5338 -71.7152 -71.5524 -71.5095 -39.8189 -39.7177 -39.6732 -39.6142
   -39.6056 -39.5821 -39.5650 -39.4946 -39.4736 -39.4542 -39.4354 -39.3535
   -39.3465 -39.3321 -39.3238 -39.2968 -39.2825 -39.2358 -39.2078 -39.1987
   -39.1794 -39.1338 -39.1288 -39.0890 -39.0598 -39.0475 -38.9270 -35.9050
   -35.7198 -35.7128 -35.6891 -35.6828 -35.6804 -35.5865 -35.5467 -35.5148
    -4.2206  -4.1700  -2.6093  -2.5979  -2.0817  -2.0447  -2.0106  -1.9421
    -1.9409  -1.8572  -1.2470  -1.1578  -0.9360  -0.7571  -0.7277  -0.7004
    -0.4387  -0.3354  -0.3020  -0.2044   0.1096   0.2547   0.6785   0.7902
     0.8634   0.9331   0.9764   0.9982   1.0224   1.0629   1.1930   1.2424
     1.4412   1.5747   1.5857   1.7109   1.7400   1.7881   1.9748   2.1025
     2.7592   2.7853   2.9203   3.0904   3.2977   3.3526   3.3627   3.6976
     3.7577   3.9635   3.9700   4.0930   4.2463   4.2932   4.3231   4.7667
     4.8028   5.1393   5.3718   5.4520   6.2450   6.3608   6.4416   6.4820
     6.5794   6.9712   8.0697   8.1308   8.1940   8.2589

     the Fermi energy is     2.6659 ev

!    total energy              =   -2210.56112782 Ry
     Harris-Foulkes estimate   =   -2210.56112849 Ry
     estimated scf accuracy    <       0.00000065 Ry

     The total energy is the sum of the following terms:

     one-electron contribution =  -17364.58989543 Ry
     hartree contribution      =    8666.14472568 Ry
     xc contribution           =    -614.50425583 Ry
     ewald contribution        =    7102.44927415 Ry
     electric field correction =       0.00000175 Ry
     smearing contrib. (-TS)   =      -0.06097813 Ry

     convergence has been achieved in  15 iterations
 
 BEEF-vdW xc energy contributions
           1 :   -545.327964486759     
           2 :    506.606296618137     
           3 :   -437.299803264718     
           4 :    350.937364248717     
           5 :   -262.326652461671     
           6 :    183.628068286018     
           7 :   -121.832358189886     
           8 :    78.2381058530955     
           9 :   -49.7643759208549     
          10 :    31.2940575784997     
          11 :   -18.0129639431464     
          12 :    6.91493809465635     
          13 :    2.85552667527145     
          14 :   -10.6369765179664     
          15 :    15.3459255759146     
          16 :   -16.4667371324241     
          17 :    14.5379990345591     
          18 :   -11.0210991117931     
          19 :    7.70479396844451     
          20 :   -5.97710617222242     
          21 :    6.31563527617391     
          22 :   -8.21219664372541     
          23 :    10.5245132089591     
          24 :   -12.0573615371411     
          25 :    12.0937648724303     
          26 :   -10.6494618697698     
          27 :    8.36932990135915     
          28 :   -6.15600743003893     
          29 :    4.73285459464000     
          30 :   -4.35001381142672     
          31 :   -46.0716441829877     
          32 :   -34.2624605603834     

     Forces acting on atoms (Ry/au):


     negative rho (up, down):  1.400E+00 0.000E+00
     atom    1 type  1   force =     0.00000023   -0.00418122    0.02473466
     atom    2 type  1   force =    -0.00362303    0.00208936    0.02473503
     atom    3 type  1   force =     0.00362173    0.00208953    0.02473468
     atom    4 type  2   force =     0.00000067    0.00000053    0.03322546
     atom    5 type  1   force =    -0.00000112   -0.00113908   -0.02719356
     atom    6 type  1   force =    -0.00098916    0.00057144   -0.02719073
     atom    7 type  1   force =     0.00098878    0.00057057   -0.02719080
     atom    8 type  2   force =     0.00000137   -0.00000055   -0.02535443
     atom    9 type  1   force =     0.00000079    0.00024131   -0.00015082
     atom   10 type  1   force =     0.00020837   -0.00012070   -0.00015062
     atom   11 type  1   force =    -0.00020897   -0.00012064   -0.00015134
     atom   12 type  2   force =     0.00000035   -0.00000055   -0.00004753

     Total force =     0.076531     Total SCF correction =     0.002265


     entering subroutine stress ...


     negative rho (up, down):  1.400E+00 0.000E+00
          total   stress  (Ry/bohr**3)                   (kbar)     P=  -37.76
  -0.00031162  -0.00000000  -0.00000000        -45.84     -0.00     -0.00
  -0.00000000  -0.00031162  -0.00000000         -0.00    -45.84     -0.00
  -0.00000000  -0.00000000  -0.00014692         -0.00     -0.00    -21.61

 !ASE

     Writing output data file calc.save
 
     init_run     :     13.50s CPU     21.90s WALL (       1 calls)
     electrons    :    468.95s CPU    749.80s WALL (       1 calls)
     forces       :      3.79s CPU      4.57s WALL (       1 calls)
     stress       :      9.64s CPU     11.05s WALL (       1 calls)

     Called by init_run:
     wfcinit      :     11.00s CPU     18.54s WALL (       1 calls)
     potinit      :      0.92s CPU      1.40s WALL (       1 calls)

     Called by electrons:
     c_bands      :    358.88s CPU    573.88s WALL (      15 calls)
     sum_band     :     61.73s CPU    104.33s WALL (      15 calls)
     v_of_rho     :     12.31s CPU     19.46s WALL (      16 calls)
     newd         :     10.09s CPU     10.86s WALL (      16 calls)
     mix_rho      :      0.51s CPU      0.80s WALL (      15 calls)
     vdW_energy   :      1.33s CPU      1.34s WALL (      52 calls)
     vdW_ffts     :     25.66s CPU     41.83s WALL (     106 calls)
     vdW_v        :      4.63s CPU      7.20s WALL (      52 calls)

     Called by c_bands:
     init_us_2    :      0.45s CPU      0.47s WALL (     660 calls)
     cegterg      :    349.01s CPU    561.96s WALL (     300 calls)

     Called by *egterg:
     h_psi        :    236.26s CPU    433.34s WALL (    1196 calls)
     s_psi        :      8.02s CPU      8.12s WALL (    1196 calls)
     g_psi        :      0.25s CPU      0.26s WALL (     876 calls)
     cdiaghg      :     66.47s CPU     69.44s WALL (    1176 calls)

     Called by h_psi:
     add_vuspsi   :      8.36s CPU      8.43s WALL (    1196 calls)

     General routines
     calbec       :     23.16s CPU     30.68s WALL (    1536 calls)
     fft          :     39.36s CPU     64.36s WALL (    3159 calls)
     ffts         :      0.10s CPU      0.17s WALL (      31 calls)
     fftw         :    250.19s CPU    481.13s WALL (  204766 calls)
     interpolate  :      0.49s CPU      0.76s WALL (      31 calls)
     davcio       :      0.00s CPU      0.01s WALL (      20 calls)
 
     Parallel routines
     fft_scatter  :    271.35s CPU    525.79s WALL (  207956 calls)
 
     PWSCF        :  8m16.82s CPU    13m 8.96s WALL

 
   This run was terminated on:  21:34:28  27Dec2018            

=------------------------------------------------------------------------------=
   JOB DONE.
=------------------------------------------------------------------------------=
Job  /afs/slac/g/suncat/bin/suncat-tsmpirun -x LD_LIBRARY_PATH -wdir /scratch/qe110656_EcBO0 pw.x -in pw.inp

TID   HOST_NAME   COMMAND_LINE            STATUS            TERMINATION_TIME
===== ========== ================  =======================  ===================
00000 suncat0193 pw.x -in pw.inp   Done                     12/27/2018 21:34:28
00001 suncat0193 pw.x -in pw.inp   Done                     12/27/2018 21:34:28
00002 suncat0193 pw.x -in pw.inp   Done                     12/27/2018 21:34:28
00003 suncat0193 pw.x -in pw.inp   Done                     12/27/2018 21:34:28
00004 suncat0193 pw.x -in pw.inp   Done                     12/27/2018 21:34:28
00005 suncat0193 pw.x -in pw.inp   Done                     12/27/2018 21:34:28
00006 suncat0193 pw.x -in pw.inp   Done                     12/27/2018 21:34:28
00007 suncat0193 pw.x -in pw.inp   Done                     12/27/2018 21:34:28
00008 suncat0192 pw.x -in pw.inp   Done                     12/27/2018 21:34:28
00009 suncat0192 pw.x -in pw.inp   Done                     12/27/2018 21:34:28
00010 suncat0192 pw.x -in pw.inp   Done                     12/27/2018 21:34:28
00011 suncat0192 pw.x -in pw.inp   Done                     12/27/2018 21:34:28
00012 suncat0192 pw.x -in pw.inp   Done                     12/27/2018 21:34:28
00013 suncat0192 pw.x -in pw.inp   Done                     12/27/2018 21:34:28
00014 suncat0192 pw.x -in pw.inp   Done                     12/27/2018 21:34:28
00015 suncat0192 pw.x -in pw.inp   Done                     12/27/2018 21:34:28
00016 suncat0163 pw.x -in pw.inp   Done                     12/27/2018 21:34:28
00017 suncat0163 pw.x -in pw.inp   Done                     12/27/2018 21:34:28
00018 suncat0163 pw.x -in pw.inp   Done                     12/27/2018 21:34:28
00019 suncat0163 pw.x -in pw.inp   Done                     12/27/2018 21:34:28
00020 suncat0163 pw.x -in pw.inp   Done                     12/27/2018 21:34:28
00021 suncat0163 pw.x -in pw.inp   Done                     12/27/2018 21:34:28
00022 suncat0163 pw.x -in pw.inp   Done                     12/27/2018 21:34:28
00023 suncat0163 pw.x -in pw.inp   Done                     12/27/2018 21:34:28
00024 suncat0162 pw.x -in pw.inp   Done                     12/27/2018 21:34:28
00025 suncat0162 pw.x -in pw.inp   Done                     12/27/2018 21:34:28
00026 suncat0162 pw.x -in pw.inp   Done                     12/27/2018 21:34:28
00027 suncat0162 pw.x -in pw.inp   Done                     12/27/2018 21:34:28
00028 suncat0162 pw.x -in pw.inp   Done                     12/27/2018 21:34:28
00029 suncat0162 pw.x -in pw.inp   Done                     12/27/2018 21:34:28
00030 suncat0162 pw.x -in pw.inp   Done                     12/27/2018 21:34:28
00031 suncat0162 pw.x -in pw.inp   Done                     12/27/2018 21:34:28
00032 suncat0159 pw.x -in pw.inp   Done                     12/27/2018 21:34:28
00033 suncat0159 pw.x -in pw.inp   Done                     12/27/2018 21:34:28
00034 suncat0159 pw.x -in pw.inp   Done                     12/27/2018 21:34:28
00035 suncat0159 pw.x -in pw.inp   Done                     12/27/2018 21:34:28
00036 suncat0159 pw.x -in pw.inp   Done                     12/27/2018 21:34:28
00037 suncat0159 pw.x -in pw.inp   Done                     12/27/2018 21:34:28
00038 suncat0159 pw.x -in pw.inp   Done                     12/27/2018 21:34:28
00039 suncat0159 pw.x -in pw.inp   Done                     12/27/2018 21:34:28
00040 suncat0155 pw.x -in pw.inp   Done                     12/27/2018 21:34:28
00041 suncat0155 pw.x -in pw.inp   Done                     12/27/2018 21:34:28
00042 suncat0155 pw.x -in pw.inp   Done                     12/27/2018 21:34:28
00043 suncat0155 pw.x -in pw.inp   Done                     12/27/2018 21:34:28
00044 suncat0155 pw.x -in pw.inp   Done                     12/27/2018 21:34:28
00045 suncat0155 pw.x -in pw.inp   Done                     12/27/2018 21:34:28
00046 suncat0155 pw.x -in pw.inp   Done                     12/27/2018 21:34:28
00047 suncat0155 pw.x -in pw.inp   Done                     12/27/2018 21:34:28
00048 suncat0141 pw.x -in pw.inp   Done                     12/27/2018 21:34:28
00049 suncat0141 pw.x -in pw.inp   Done                     12/27/2018 21:34:28
00050 suncat0141 pw.x -in pw.inp   Done                     12/27/2018 21:34:28
00051 suncat0141 pw.x -in pw.inp   Done                     12/27/2018 21:34:28
00052 suncat0141 pw.x -in pw.inp   Done                     12/27/2018 21:34:28
00053 suncat0141 pw.x -in pw.inp   Done                     12/27/2018 21:34:28
00054 suncat0141 pw.x -in pw.inp   Done                     12/27/2018 21:34:28
00055 suncat0141 pw.x -in pw.inp   Done                     12/27/2018 21:34:28
00056 suncat0140 pw.x -in pw.inp   Done                     12/27/2018 21:34:28
00057 suncat0140 pw.x -in pw.inp   Done                     12/27/2018 21:34:28
00058 suncat0140 pw.x -in pw.inp   Done                     12/27/2018 21:34:28
00059 suncat0140 pw.x -in pw.inp   Done                     12/27/2018 21:34:28
00060 suncat0140 pw.x -in pw.inp   Done                     12/27/2018 21:34:28
00061 suncat0140 pw.x -in pw.inp   Done                     12/27/2018 21:34:28
00062 suncat0140 pw.x -in pw.inp   Done                     12/27/2018 21:34:28
00063 suncat0140 pw.x -in pw.inp   Done                     12/27/2018 21:34:28
