  python dir          : /u/if/mamunm/src/espresso
  espresso dir        : /nfs/slac/g/suncatfs/sw/espv18/espresso-dynpy-beef/bin
  pseudo dir          : /afs/slac.stanford.edu/u/if/mamunm/psp/gbrv1.5pbe
  ase-espresso py git : GITVERSION



     Program PWSCF v.5.1rc2 (svn rev. 11289) starts on 25Dec2018 at 23:12:15 

     This program is part of the open-source Quantum ESPRESSO suite
     for quantum simulation of materials; please cite
         "P. Giannozzi et al., J. Phys.:Condens. Matter 21 395502 (2009);
          URL http://www.quantum-espresso.org", 
     in publications or presentations arising from this work. More details at
     http://www.quantum-espresso.org/quote

     Parallel version (MPI), running on    64 processors
     R & G space division:  proc/nbgrp/npool/nimage =      64
     Reading input from pw.inp
     Message from routine read_cards :
     DEPRECATED: no units specified in CELL_PARAMETERS card

     Current dimensions of program PWSCF are:
     Max number of different atomic species (ntypx) = 10
     Max number of k-points (npk) =  40000
     Max angular momentum in pseudopotentials (lmaxx) =  3
     Presently stress not available with electric field


     **************************************************************************
     Initializing libbeef V0.1.1 with the BEEF-vdW functional.
     Citation: Wellendorff et al., PRB 85, 235149 (2012).
     **************************************************************************


     IMPORTANT: XC functional enforced from input :
     Exchange-correlation      = BEEF-VDW ( 1  4 27 13 2)
     Any further DFT definition will be discarded
     Please, verify this is what you really want


     Subspace diagonalization in iterative solution of the eigenvalue problem:
     a serial algorithm will be used

 
     Parallelization info
     --------------------
     sticks:   dense  smooth     PW     G-vecs:    dense   smooth      PW
     Min          37      14      4                 6953     1738     286
     Max          38      15      5                 6976     1779     315
     Sum        2395     955    295               445701   112839   19147
 
     Generating pointlists ...
     new r_m :   0.4125 (alat units)  0.7795 (a.u.) for type    1
     new r_m :   0.4125 (alat units)  0.7795 (a.u.) for type    2


     bravais-lattice index     =            0
     lattice parameter (alat)  =       1.8897  a.u.
     unit-cell volume          =    3744.8379 (a.u.)^3
     number of atoms/cell      =           12
     number of atomic types    =            2
     number of electrons       =       186.00
     number of Kohn-Sham states=          123
     kinetic-energy cutoff     =      36.7493  Ry
     charge density cutoff     =     367.4932  Ry
     convergence threshold     =      1.0E-06
     mixing beta               =       0.1000
     number of iterations used =           10  plain     mixing
     Exchange-correlation      = BEEF-VDW ( 1  4 27 13 2)
     nstep                     =           50


     celldm(1)=   1.889726  celldm(2)=   0.000000  celldm(3)=   0.000000
     celldm(4)=   0.000000  celldm(5)=   0.000000  celldm(6)=   0.000000

     crystal axes: (cart. coord. in units of alat)
               a(1) = (   5.145567   0.000000   0.000000 )  
               a(2) = (  -2.572783   4.456191   0.000000 )  
               a(3) = (   0.000000   0.000000  24.201338 )  

     reciprocal axes: (cart. coord. in units 2 pi/alat)
               b(1) = (  0.194342  0.112203  0.000000 )  
               b(2) = (  0.000000  0.224407  0.000000 )  
               b(3) = (  0.000000  0.000000  0.041320 )  


     PseudoPot. # 1 for Fe read from file:
     /afs/slac.stanford.edu/u/if/mamunm/psp/gbrv1.5pbe/Fe.UPF
     MD5 check sum: a130daea23fe5165f5d574ae7f82ed95
     Pseudo is Ultrasoft + core correction, Zval = 16.0
     Generated by new atomic code, or converted to UPF format
     Using radial grid of  861 points,  6 beta functions with: 
                l(1) =   0
                l(2) =   0
                l(3) =   1
                l(4) =   1
                l(5) =   2
                l(6) =   2
     Q(r) pseudized with  8 coefficients,  rinner =    1.000   1.000   1.000
                                                       1.000   1.000

     PseudoPot. # 2 for W  read from file:
     /afs/slac.stanford.edu/u/if/mamunm/psp/gbrv1.5pbe/W.UPF
     MD5 check sum: 9c083fa34c2a2ea0f02f1f893e16e1c8
     Pseudo is Ultrasoft + core correction, Zval = 14.0
     Generated by new atomic code, or converted to UPF format
     Using radial grid of  923 points,  8 beta functions with: 
                l(1) =   0
                l(2) =   0
                l(3) =   0
                l(4) =   1
                l(5) =   1
                l(6) =   2
                l(7) =   2
                l(8) =   3
     Q(r) pseudized with  6 coefficients,  rinner =    1.350   1.350   1.350
                                                       1.350   1.350   1.350
                                                       1.350

     vdW kernel table read from file vdW_kernel_table
     MD5 check sum: 095c7af220d748ca6e76c0b4c6cfb241

     atomic species   valence    mass     pseudopotential
        Fe1           16.00    55.84500     Fe( 1.00)
        W1            14.00   183.84000     W ( 1.00)

     Starting magnetic structure 
     atomic species   magnetization
        Fe1          0.125
        W1           0.143

     No symmetry found



   Cartesian axes

     site n.     atom                  positions (alat units)
         1           Fe1 tau(   1) = (   0.0000000   0.0000000  10.0000000  )
         2           Fe1 tau(   2) = (  -1.2863917   2.2280957  10.0000000  )
         3           Fe1 tau(   3) = (   1.2863917   2.2280957  10.0000000  )
         4           W1  tau(   4) = (   2.5727833   0.0000000  10.0000000  )
         5           Fe1 tau(   5) = (   2.5727833   1.4853971  12.1006688  )
         6           Fe1 tau(   6) = (   1.2863917   3.7134929  12.1006688  )
         7           Fe1 tau(   7) = (  -1.2863917   3.7134929  12.1006688  )
         8           W1  tau(   8) = (   0.0000000   1.4853971  12.1006688  )
         9           Fe1 tau(   9) = (  -0.0000000   2.9707943  14.2013376  )
        10           Fe1 tau(  10) = (   1.2863917   0.7426986  14.2013376  )
        11           Fe1 tau(  11) = (   3.8591750   0.7426986  14.2013376  )
        12           W1  tau(  12) = (   2.5727833   2.9707943  14.2013376  )

     number of k points=    40  Fermi-Dirac smearing, width (Ry)=  0.0110
                       cart. coord. in units 2pi/alat
        k(    1) = (   0.0000000   0.0000000   0.0000000), wk =   0.0277778
        k(    2) = (   0.0000000   0.0374011   0.0000000), wk =   0.0555556
        k(    3) = (   0.0000000   0.0748023   0.0000000), wk =   0.0555556
        k(    4) = (   0.0000000  -0.1122034   0.0000000), wk =   0.0277778
        k(    5) = (   0.0323903   0.0187006   0.0000000), wk =   0.0555556
        k(    6) = (   0.0323903   0.0561017   0.0000000), wk =   0.0555556
        k(    7) = (   0.0323903   0.0935029   0.0000000), wk =   0.0555556
        k(    8) = (   0.0323903  -0.0935029   0.0000000), wk =   0.0555556
        k(    9) = (   0.0323903  -0.0561017   0.0000000), wk =   0.0555556
        k(   10) = (   0.0323903  -0.0187006   0.0000000), wk =   0.0555556
        k(   11) = (   0.0647807   0.0374011   0.0000000), wk =   0.0555556
        k(   12) = (   0.0647807   0.0748023   0.0000000), wk =   0.0555556
        k(   13) = (   0.0647807   0.1122034   0.0000000), wk =   0.0555556
        k(   14) = (   0.0647807  -0.0748023   0.0000000), wk =   0.0555556
        k(   15) = (   0.0647807  -0.0374011   0.0000000), wk =   0.0555556
        k(   16) = (   0.0647807   0.0000000   0.0000000), wk =   0.0555556
        k(   17) = (  -0.0971710  -0.0561017   0.0000000), wk =   0.0277778
        k(   18) = (  -0.0971710  -0.0187006   0.0000000), wk =   0.0555556
        k(   19) = (  -0.0971710   0.0187006   0.0000000), wk =   0.0555556
        k(   20) = (  -0.0971710  -0.1683052   0.0000000), wk =   0.0277778
        k(   21) = (   0.0000000   0.0000000   0.0000000), wk =   0.0277778
        k(   22) = (   0.0000000   0.0374011   0.0000000), wk =   0.0555556
        k(   23) = (   0.0000000   0.0748023   0.0000000), wk =   0.0555556
        k(   24) = (   0.0000000  -0.1122034   0.0000000), wk =   0.0277778
        k(   25) = (   0.0323903   0.0187006   0.0000000), wk =   0.0555556
        k(   26) = (   0.0323903   0.0561017   0.0000000), wk =   0.0555556
        k(   27) = (   0.0323903   0.0935029   0.0000000), wk =   0.0555556
        k(   28) = (   0.0323903  -0.0935029   0.0000000), wk =   0.0555556
        k(   29) = (   0.0323903  -0.0561017   0.0000000), wk =   0.0555556
        k(   30) = (   0.0323903  -0.0187006   0.0000000), wk =   0.0555556
        k(   31) = (   0.0647807   0.0374011   0.0000000), wk =   0.0555556
        k(   32) = (   0.0647807   0.0748023   0.0000000), wk =   0.0555556
        k(   33) = (   0.0647807   0.1122034   0.0000000), wk =   0.0555556
        k(   34) = (   0.0647807  -0.0748023   0.0000000), wk =   0.0555556
        k(   35) = (   0.0647807  -0.0374011   0.0000000), wk =   0.0555556
        k(   36) = (   0.0647807   0.0000000   0.0000000), wk =   0.0555556
        k(   37) = (  -0.0971710  -0.0561017   0.0000000), wk =   0.0277778
        k(   38) = (  -0.0971710  -0.0187006   0.0000000), wk =   0.0555556
        k(   39) = (  -0.0971710   0.0187006   0.0000000), wk =   0.0555556
        k(   40) = (  -0.0971710  -0.1683052   0.0000000), wk =   0.0277778

     Dense  grid:   445701 G-vectors     FFT dimensions: (  60,  60, 288)

     Smooth grid:   112839 G-vectors     FFT dimensions: (  40,  40, 180)

     Largest allocated arrays     est. size (Mb)     dimensions
        Kohn-Sham Wavefunctions         0.44 Mb     (     232,  123)
        NL pseudopotentials             0.85 Mb     (     232,  240)
        Each V/rho on FFT grid          0.55 Mb     (   18000,   2)
        Each G-vector array             0.05 Mb     (    6976)
        G-vector shells                 0.03 Mb     (    3416)
     Largest temporary arrays     est. size (Mb)     dimensions
        Auxiliary wavefunctions         1.74 Mb     (     232,  492)
        Each subspace H/S matrix        3.69 Mb     (     492,  492)
        Each <psi_i|beta_j> matrix      0.45 Mb     (     240,  123)
        Arrays for rho mixing           2.75 Mb     (   18000,   10)

     Check: negative/imaginary core charge=   -0.000006    0.000000

     Initial potential from superposition of free atoms
     Check: negative starting charge=(component1):   -0.111754
     Check: negative starting charge=(component2):   -0.083789

     starting charge  176.69893, renormalised to  186.00000

     negative rho (up, down):  1.176E-01 8.820E-02


     ************************************************************************
     *
     * You are using vdW-DF for exchange-correlation in this calculation.
     * Please cite the following three references that made this development
     * possible:
     *
     *   M. Dion, H. Rydberg, E. Schroder, D. C. Langreth, and
     *   B. I. Lundqvist, Phys. Rev. Lett. 92, 246401 (2004).
     *
     *   T. Thonhauser, V. R. Cooper, S. Li, A. Puzder, P. Hyldgaard, and
     *   D. C. Langreth, Phys. Rev. B 76, 125112 (2007).
     *
     *   G. Roman-Perez and J. M. Soler, Phys. Rev. Lett. 103, 096102 (2009).
     *
     *
     * If you are using vdW-DF2, please also cite:
     *
     *   K. Lee, E. D. Murray, L. Kong, B. I. Lundqvist, and
     *   D. C. Langreth, Phys. Rev. B 82, 081101(R) (2010).
     *
     *
     * If you are calculating the stress with vdW-DF, please also cite:
     *
     *   R. Sabatini, E. Kucukbenli, B. Kolb, T. Thonhauser, and
     *   S. de Gironcoli, J. Phys.: Condens. Matter 24, 424209 (2012).
     *
     ************************************************************************

     Carrying out vdW-DF run using the following parameters:

     Nqs =      20    Nr_points =    1024   r_max =   100.000
     q_mesh =
               0.00001000     0.04494208     0.09755937     0.15916263
               0.23128650     0.31572767     0.41458969     0.53033537
               0.66584808     0.82450364     1.01025438     1.22772762
               1.48234092     1.78043706     2.12944203     2.53805004
               3.01644009     3.57652955     4.23227104     5.00000000

     Gradients computed in reciprocal space

     ************************************************************************


 
     Adding external electric field

     Computed dipole along edir(3) : 
        Dipole                0.0000 Ry au,          0.0000 Debye
        Dipole field          0.0000 Ry au
 
        Potential amp.       -0.0000 Ry
        Total length         44.5906 bohr
 
 
     Adding external electric field

     Computed dipole along edir(3) : 
        Dipole                0.0000 Ry au,          0.0000 Debye
        Dipole field          0.0000 Ry au
 
        Potential amp.       -0.0000 Ry
        Total length         44.5906 bohr
 
     Starting wfc are  156 randomized atomic wfcs

     total cpu time spent up to now is       54.2 secs

     per-process dynamical memory:    45.7 Mb

     Self-consistent Calculation

     iteration #  1     ecut=    36.75 Ry     beta=0.10
     Davidson diagonalization with overlap
     ethr =  1.00E-02,  avg # of iterations =  6.0

     negative rho (up, down):  1.154E-01 8.869E-02
 
     Adding external electric field

     Computed dipole along edir(3) : 
        Dipole               -0.0001 Ry au,         -0.0002 Debye
        Dipole field         -0.0000 Ry au
 
        Potential amp.        0.0000 Ry
        Total length         44.5906 bohr
 
 
     Adding external electric field

     Computed dipole along edir(3) : 
        Dipole               -0.0001 Ry au,         -0.0002 Debye
        Dipole field         -0.0000 Ry au
 
        Potential amp.        0.0000 Ry
        Total length         44.5906 bohr
 
 
     Magnetic moment per site:
     atom:    1    charge:    7.2609    magn:    0.8908    constr:    0.0000
     atom:    2    charge:    7.2609    magn:    0.8908    constr:    0.0000
     atom:    3    charge:    7.2609    magn:    0.8908    constr:    0.0000
     atom:    4    charge:    1.7043    magn:    0.2212    constr:    0.0000
     atom:    5    charge:    7.2652    magn:    0.8812    constr:    0.0000
     atom:    6    charge:    7.2652    magn:    0.8812    constr:    0.0000
     atom:    7    charge:    7.2652    magn:    0.8812    constr:    0.0000
     atom:    8    charge:    1.7087    magn:    0.2215    constr:    0.0000
     atom:    9    charge:    7.2609    magn:    0.8908    constr:    0.0000
     atom:   10    charge:    7.2609    magn:    0.8908    constr:    0.0000
     atom:   11    charge:    7.2609    magn:    0.8908    constr:    0.0000
     atom:   12    charge:    1.7043    magn:    0.2212    constr:    0.0000

     total cpu time spent up to now is      214.2 secs

     total energy              =   -2743.93110361 Ry
     Harris-Foulkes estimate   =   -2745.56581560 Ry
     estimated scf accuracy    <      10.47905612 Ry

     total magnetization       =    12.60 Bohr mag/cell
     absolute magnetization    =    12.84 Bohr mag/cell

     iteration #  2     ecut=    36.75 Ry     beta=0.10
     Davidson diagonalization with overlap
     ethr =  5.63E-03,  avg # of iterations =  1.0

     negative rho (up, down):  1.127E-01 8.948E-02
 
     Adding external electric field

     Computed dipole along edir(3) : 
        Dipole                0.0000 Ry au,          0.0001 Debye
        Dipole field          0.0000 Ry au
 
        Potential amp.       -0.0000 Ry
        Total length         44.5906 bohr
 
 
     Adding external electric field

     Computed dipole along edir(3) : 
        Dipole                0.0000 Ry au,          0.0001 Debye
        Dipole field          0.0000 Ry au
 
        Potential amp.       -0.0000 Ry
        Total length         44.5906 bohr
 
 
     Magnetic moment per site:
     atom:    1    charge:    7.1901    magn:    0.8641    constr:    0.0000
     atom:    2    charge:    7.1901    magn:    0.8641    constr:    0.0000
     atom:    3    charge:    7.1901    magn:    0.8641    constr:    0.0000
     atom:    4    charge:    1.6803    magn:    0.1875    constr:    0.0000
     atom:    5    charge:    7.2023    magn:    0.8373    constr:    0.0000
     atom:    6    charge:    7.2023    magn:    0.8373    constr:    0.0000
     atom:    7    charge:    7.2022    magn:    0.8373    constr:    0.0000
     atom:    8    charge:    1.6868    magn:    0.1874    constr:    0.0000
     atom:    9    charge:    7.1901    magn:    0.8641    constr:    0.0000
     atom:   10    charge:    7.1901    magn:    0.8641    constr:    0.0000
     atom:   11    charge:    7.1901    magn:    0.8641    constr:    0.0000
     atom:   12    charge:    1.6803    magn:    0.1875    constr:    0.0000

     total cpu time spent up to now is      317.1 secs

     total energy              =   -2743.15731902 Ry
     Harris-Foulkes estimate   =   -2744.22070906 Ry
     estimated scf accuracy    <       4.77196775 Ry

     total magnetization       =    13.30 Bohr mag/cell
     absolute magnetization    =    13.66 Bohr mag/cell

     iteration #  3     ecut=    36.75 Ry     beta=0.10
     Davidson diagonalization with overlap
     ethr =  2.57E-03,  avg # of iterations =  2.0

     negative rho (up, down):  1.112E-01 9.016E-02
 
     Adding external electric field

     Computed dipole along edir(3) : 
        Dipole               -0.0005 Ry au,         -0.0013 Debye
        Dipole field         -0.0000 Ry au
 
        Potential amp.        0.0002 Ry
        Total length         44.5906 bohr
 
 
     Adding external electric field

     Computed dipole along edir(3) : 
        Dipole               -0.0005 Ry au,         -0.0013 Debye
        Dipole field         -0.0000 Ry au
 
        Potential amp.        0.0002 Ry
        Total length         44.5906 bohr
 
 
     Magnetic moment per site:
     atom:    1    charge:    7.1687    magn:    0.8475    constr:    0.0000
     atom:    2    charge:    7.1687    magn:    0.8474    constr:    0.0000
     atom:    3    charge:    7.1687    magn:    0.8475    constr:    0.0000
     atom:    4    charge:    1.6690    magn:    0.1674    constr:    0.0000
     atom:    5    charge:    7.1506    magn:    0.8183    constr:    0.0000
     atom:    6    charge:    7.1506    magn:    0.8183    constr:    0.0000
     atom:    7    charge:    7.1506    magn:    0.8184    constr:    0.0000
     atom:    8    charge:    1.6747    magn:    0.1671    constr:    0.0000
     atom:    9    charge:    7.1687    magn:    0.8474    constr:    0.0000
     atom:   10    charge:    7.1687    magn:    0.8474    constr:    0.0000
     atom:   11    charge:    7.1687    magn:    0.8475    constr:    0.0000
     atom:   12    charge:    1.6690    magn:    0.1674    constr:    0.0000

     total cpu time spent up to now is      422.4 secs

     total energy              =   -2742.98713043 Ry
     Harris-Foulkes estimate   =   -2743.44363784 Ry
     estimated scf accuracy    <       3.33536863 Ry

     total magnetization       =    13.48 Bohr mag/cell
     absolute magnetization    =    13.90 Bohr mag/cell

     iteration #  4     ecut=    36.75 Ry     beta=0.10
     Davidson diagonalization with overlap
     ethr =  1.79E-03,  avg # of iterations =  1.1

     negative rho (up, down):  1.090E-01 9.178E-02
 
     Adding external electric field

     Computed dipole along edir(3) : 
        Dipole                0.0040 Ry au,          0.0100 Debye
        Dipole field          0.0000 Ry au
 
        Potential amp.       -0.0012 Ry
        Total length         44.5906 bohr
 
 
     Adding external electric field

     Computed dipole along edir(3) : 
        Dipole                0.0040 Ry au,          0.0100 Debye
        Dipole field          0.0000 Ry au
 
        Potential amp.       -0.0012 Ry
        Total length         44.5906 bohr
 
 
     Magnetic moment per site:
     atom:    1    charge:    7.1178    magn:    0.8250    constr:    0.0000
     atom:    2    charge:    7.1177    magn:    0.8250    constr:    0.0000
     atom:    3    charge:    7.1178    magn:    0.8250    constr:    0.0000
     atom:    4    charge:    1.6517    magn:    0.1304    constr:    0.0000
     atom:    5    charge:    7.1100    magn:    0.7756    constr:    0.0000
     atom:    6    charge:    7.1100    magn:    0.7756    constr:    0.0000
     atom:    7    charge:    7.1100    magn:    0.7756    constr:    0.0000
     atom:    8    charge:    1.6551    magn:    0.1294    constr:    0.0000
     atom:    9    charge:    7.1177    magn:    0.8250    constr:    0.0000
     atom:   10    charge:    7.1177    magn:    0.8250    constr:    0.0000
     atom:   11    charge:    7.1177    magn:    0.8250    constr:    0.0000
     atom:   12    charge:    1.6517    magn:    0.1304    constr:    0.0000

     total cpu time spent up to now is      524.6 secs

     total energy              =   -2742.92136954 Ry
     Harris-Foulkes estimate   =   -2743.23568746 Ry
     estimated scf accuracy    <       2.46371660 Ry

     total magnetization       =    13.81 Bohr mag/cell
     absolute magnetization    =    14.41 Bohr mag/cell

     iteration #  5     ecut=    36.75 Ry     beta=0.10
     Davidson diagonalization with overlap
     ethr =  1.32E-03,  avg # of iterations =  1.1

     negative rho (up, down):  1.080E-01 9.333E-02
 
     Adding external electric field

     Computed dipole along edir(3) : 
        Dipole               -0.0654 Ry au,         -0.1662 Debye
        Dipole field         -0.0002 Ry au
 
        Potential amp.        0.0196 Ry
        Total length         44.5906 bohr
 
 
     Adding external electric field

     Computed dipole along edir(3) : 
        Dipole               -0.0654 Ry au,         -0.1662 Debye
        Dipole field         -0.0002 Ry au
 
        Potential amp.        0.0196 Ry
        Total length         44.5906 bohr
 
 
     Magnetic moment per site:
     atom:    1    charge:    7.1006    magn:    0.8192    constr:    0.0000
     atom:    2    charge:    7.1006    magn:    0.8192    constr:    0.0000
     atom:    3    charge:    7.1006    magn:    0.8192    constr:    0.0000
     atom:    4    charge:    1.6491    magn:    0.1077    constr:    0.0000
     atom:    5    charge:    7.0936    magn:    0.7581    constr:    0.0000
     atom:    6    charge:    7.0936    magn:    0.7581    constr:    0.0000
     atom:    7    charge:    7.0935    magn:    0.7581    constr:    0.0000
     atom:    8    charge:    1.6501    magn:    0.1061    constr:    0.0000
     atom:    9    charge:    7.1021    magn:    0.8187    constr:    0.0000
     atom:   10    charge:    7.1022    magn:    0.8186    constr:    0.0000
     atom:   11    charge:    7.1021    magn:    0.8187    constr:    0.0000
     atom:   12    charge:    1.6492    magn:    0.1077    constr:    0.0000

     total cpu time spent up to now is      629.4 secs

     total energy              =   -2743.04913329 Ry
     Harris-Foulkes estimate   =   -2743.05863911 Ry
     estimated scf accuracy    <       0.17825467 Ry

     total magnetization       =    14.16 Bohr mag/cell
     absolute magnetization    =    14.98 Bohr mag/cell

     iteration #  6     ecut=    36.75 Ry     beta=0.10
     Davidson diagonalization with overlap
     ethr =  9.58E-05,  avg # of iterations =  4.6

     negative rho (up, down):  1.077E-01 9.347E-02
 
     Adding external electric field

     Computed dipole along edir(3) : 
        Dipole                0.0268 Ry au,          0.0682 Debye
        Dipole field          0.0001 Ry au
 
        Potential amp.       -0.0080 Ry
        Total length         44.5906 bohr
 
 
     Adding external electric field

     Computed dipole along edir(3) : 
        Dipole                0.0268 Ry au,          0.0682 Debye
        Dipole field          0.0001 Ry au
 
        Potential amp.       -0.0080 Ry
        Total length         44.5906 bohr
 
 
     Magnetic moment per site:
     atom:    1    charge:    7.1007    magn:    0.8180    constr:    0.0000
     atom:    2    charge:    7.1007    magn:    0.8180    constr:    0.0000
     atom:    3    charge:    7.1007    magn:    0.8180    constr:    0.0000
     atom:    4    charge:    1.6488    magn:    0.1039    constr:    0.0000
     atom:    5    charge:    7.0924    magn:    0.7553    constr:    0.0000
     atom:    6    charge:    7.0924    magn:    0.7553    constr:    0.0000
     atom:    7    charge:    7.0924    magn:    0.7554    constr:    0.0000
     atom:    8    charge:    1.6496    magn:    0.1021    constr:    0.0000
     atom:    9    charge:    7.1000    magn:    0.8184    constr:    0.0000
     atom:   10    charge:    7.1001    magn:    0.8184    constr:    0.0000
     atom:   11    charge:    7.1000    magn:    0.8184    constr:    0.0000
     atom:   12    charge:    1.6488    magn:    0.1039    constr:    0.0000

     total cpu time spent up to now is      760.1 secs

     total energy              =   -2743.06437522 Ry
     Harris-Foulkes estimate   =   -2743.08435568 Ry
     estimated scf accuracy    <       1.00798402 Ry

     total magnetization       =    13.86 Bohr mag/cell
     absolute magnetization    =    15.19 Bohr mag/cell

     iteration #  7     ecut=    36.75 Ry     beta=0.10
     Davidson diagonalization with overlap
     ethr =  9.58E-05,  avg # of iterations =  1.9

     negative rho (up, down):  1.069E-01 9.451E-02
 
     Adding external electric field

     Computed dipole along edir(3) : 
        Dipole               -0.0006 Ry au,         -0.0015 Debye
        Dipole field         -0.0000 Ry au
 
        Potential amp.        0.0002 Ry
        Total length         44.5906 bohr
 
 
     Adding external electric field

     Computed dipole along edir(3) : 
        Dipole               -0.0006 Ry au,         -0.0015 Debye
        Dipole field         -0.0000 Ry au
 
        Potential amp.        0.0002 Ry
        Total length         44.5906 bohr
 
 
     Magnetic moment per site:
     atom:    1    charge:    7.1032    magn:    0.8163    constr:    0.0000
     atom:    2    charge:    7.1032    magn:    0.8163    constr:    0.0000
     atom:    3    charge:    7.1032    magn:    0.8163    constr:    0.0000
     atom:    4    charge:    1.6478    magn:    0.0881    constr:    0.0000
     atom:    5    charge:    7.0942    magn:    0.7447    constr:    0.0000
     atom:    6    charge:    7.0942    magn:    0.7447    constr:    0.0000
     atom:    7    charge:    7.0943    magn:    0.7447    constr:    0.0000
     atom:    8    charge:    1.6487    magn:    0.0860    constr:    0.0000
     atom:    9    charge:    7.1033    magn:    0.8164    constr:    0.0000
     atom:   10    charge:    7.1032    magn:    0.8165    constr:    0.0000
     atom:   11    charge:    7.1033    magn:    0.8164    constr:    0.0000
     atom:   12    charge:    1.6478    magn:    0.0881    constr:    0.0000

     total cpu time spent up to now is      861.8 secs

     total energy              =   -2743.07741618 Ry
     Harris-Foulkes estimate   =   -2743.08014170 Ry
     estimated scf accuracy    <       0.26636955 Ry

     total magnetization       =    13.83 Bohr mag/cell
     absolute magnetization    =    15.26 Bohr mag/cell

     iteration #  8     ecut=    36.75 Ry     beta=0.10
     Davidson diagonalization with overlap
     ethr =  9.58E-05,  avg # of iterations =  1.1

     negative rho (up, down):  1.045E-01 9.837E-02
 
     Adding external electric field

     Computed dipole along edir(3) : 
        Dipole               -0.0001 Ry au,         -0.0001 Debye
        Dipole field         -0.0000 Ry au
 
        Potential amp.        0.0000 Ry
        Total length         44.5906 bohr
 
 
     Adding external electric field

     Computed dipole along edir(3) : 
        Dipole               -0.0001 Ry au,         -0.0001 Debye
        Dipole field         -0.0000 Ry au
 
        Potential amp.        0.0000 Ry
        Total length         44.5906 bohr
 
 
     Magnetic moment per site:
     atom:    1    charge:    7.0838    magn:    0.8119    constr:    0.0000
     atom:    2    charge:    7.0843    magn:    0.8118    constr:    0.0000
     atom:    3    charge:    7.0841    magn:    0.8118    constr:    0.0000
     atom:    4    charge:    1.6444    magn:    0.0352    constr:    0.0000
     atom:    5    charge:    7.0788    magn:    0.7062    constr:    0.0000
     atom:    6    charge:    7.0791    magn:    0.7061    constr:    0.0000
     atom:    7    charge:    7.0777    magn:    0.7065    constr:    0.0000
     atom:    8    charge:    1.6479    magn:    0.0325    constr:    0.0000
     atom:    9    charge:    7.0840    magn:    0.8120    constr:    0.0000
     atom:   10    charge:    7.0849    magn:    0.8117    constr:    0.0000
     atom:   11    charge:    7.0839    magn:    0.8121    constr:    0.0000
     atom:   12    charge:    1.6444    magn:    0.0352    constr:    0.0000

     total cpu time spent up to now is      958.8 secs

     total energy              =   -2743.11073500 Ry
     Harris-Foulkes estimate   =   -2743.08536578 Ry
     estimated scf accuracy    <       0.04819351 Ry

     total magnetization       =    13.83 Bohr mag/cell
     absolute magnetization    =    15.51 Bohr mag/cell

     iteration #  9     ecut=    36.75 Ry     beta=0.10
     Davidson diagonalization with overlap
     ethr =  2.59E-05,  avg # of iterations =  5.4

     negative rho (up, down):  1.039E-01 9.893E-02
 
     Adding external electric field

     Computed dipole along edir(3) : 
        Dipole               -0.0004 Ry au,         -0.0009 Debye
        Dipole field         -0.0000 Ry au
 
        Potential amp.        0.0001 Ry
        Total length         44.5906 bohr
 
 
     Adding external electric field

     Computed dipole along edir(3) : 
        Dipole               -0.0004 Ry au,         -0.0009 Debye
        Dipole field         -0.0000 Ry au
 
        Potential amp.        0.0001 Ry
        Total length         44.5906 bohr
 
 
     Magnetic moment per site:
     atom:    1    charge:    7.0843    magn:    0.8129    constr:    0.0000
     atom:    2    charge:    7.0840    magn:    0.8131    constr:    0.0000
     atom:    3    charge:    7.0840    magn:    0.8130    constr:    0.0000
     atom:    4    charge:    1.6442    magn:    0.0263    constr:    0.0000
     atom:    5    charge:    7.0794    magn:    0.7001    constr:    0.0000
     atom:    6    charge:    7.0793    magn:    0.7001    constr:    0.0000
     atom:    7    charge:    7.0803    magn:    0.6999    constr:    0.0000
     atom:    8    charge:    1.6476    magn:    0.0236    constr:    0.0000
     atom:    9    charge:    7.0844    magn:    0.8130    constr:    0.0000
     atom:   10    charge:    7.0837    magn:    0.8133    constr:    0.0000
     atom:   11    charge:    7.0845    magn:    0.8130    constr:    0.0000
     atom:   12    charge:    1.6442    magn:    0.0263    constr:    0.0000

     total cpu time spent up to now is     1096.5 secs

     total energy              =   -2743.12467643 Ry
     Harris-Foulkes estimate   =   -2743.12403004 Ry
     estimated scf accuracy    <       0.09040712 Ry

     total magnetization       =    13.35 Bohr mag/cell
     absolute magnetization    =    16.24 Bohr mag/cell

     iteration # 10     ecut=    36.75 Ry     beta=0.10
     Davidson diagonalization with overlap
     ethr =  2.59E-05,  avg # of iterations =  1.1

     negative rho (up, down):  1.028E-01 1.004E-01
 
     Adding external electric field

     Computed dipole along edir(3) : 
        Dipole               -0.0007 Ry au,         -0.0017 Debye
        Dipole field         -0.0000 Ry au
 
        Potential amp.        0.0002 Ry
        Total length         44.5906 bohr
 
 
     Adding external electric field

     Computed dipole along edir(3) : 
        Dipole               -0.0007 Ry au,         -0.0017 Debye
        Dipole field         -0.0000 Ry au
 
        Potential amp.        0.0002 Ry
        Total length         44.5906 bohr
 
 
     Magnetic moment per site:
     atom:    1    charge:    7.0865    magn:    0.8185    constr:    0.0000
     atom:    2    charge:    7.0866    magn:    0.8184    constr:    0.0000
     atom:    3    charge:    7.0868    magn:    0.8183    constr:    0.0000
     atom:    4    charge:    1.6439    magn:    0.0075    constr:    0.0000
     atom:    5    charge:    7.0847    magn:    0.6865    constr:    0.0000
     atom:    6    charge:    7.0845    magn:    0.6865    constr:    0.0000
     atom:    7    charge:    7.0844    magn:    0.6865    constr:    0.0000
     atom:    8    charge:    1.6479    magn:    0.0050    constr:    0.0000
     atom:    9    charge:    7.0864    magn:    0.8186    constr:    0.0000
     atom:   10    charge:    7.0869    magn:    0.8184    constr:    0.0000
     atom:   11    charge:    7.0865    magn:    0.8185    constr:    0.0000
     atom:   12    charge:    1.6439    magn:    0.0075    constr:    0.0000

     total cpu time spent up to now is     1190.5 secs

     total energy              =   -2743.12689353 Ry
     Harris-Foulkes estimate   =   -2743.12589630 Ry
     estimated scf accuracy    <       0.04872761 Ry

     total magnetization       =    13.30 Bohr mag/cell
     absolute magnetization    =    16.40 Bohr mag/cell

     iteration # 11     ecut=    36.75 Ry     beta=0.10
     Davidson diagonalization with overlap
     ethr =  2.59E-05,  avg # of iterations =  1.6

     negative rho (up, down):  1.014E-01 1.022E-01
 
     Adding external electric field

     Computed dipole along edir(3) : 
        Dipole               -0.0002 Ry au,         -0.0004 Debye
        Dipole field         -0.0000 Ry au
 
        Potential amp.        0.0001 Ry
        Total length         44.5906 bohr
 
 
     Adding external electric field

     Computed dipole along edir(3) : 
        Dipole               -0.0002 Ry au,         -0.0004 Debye
        Dipole field         -0.0000 Ry au
 
        Potential amp.        0.0001 Ry
        Total length         44.5906 bohr
 
 
     Magnetic moment per site:
     atom:    1    charge:    7.0857    magn:    0.8264    constr:    0.0000
     atom:    2    charge:    7.0856    magn:    0.8264    constr:    0.0000
     atom:    3    charge:    7.0851    magn:    0.8266    constr:    0.0000
     atom:    4    charge:    1.6436    magn:   -0.0157    constr:    0.0000
     atom:    5    charge:    7.0840    magn:    0.6688    constr:    0.0000
     atom:    6    charge:    7.0845    magn:    0.6687    constr:    0.0000
     atom:    7    charge:    7.0839    magn:    0.6688    constr:    0.0000
     atom:    8    charge:    1.6502    magn:   -0.0178    constr:    0.0000
     atom:    9    charge:    7.0856    magn:    0.8264    constr:    0.0000
     atom:   10    charge:    7.0853    magn:    0.8265    constr:    0.0000
     atom:   11    charge:    7.0854    magn:    0.8265    constr:    0.0000
     atom:   12    charge:    1.6436    magn:   -0.0157    constr:    0.0000

     total cpu time spent up to now is     1295.4 secs

     total energy              =   -2743.13984759 Ry
     Harris-Foulkes estimate   =   -2743.13322456 Ry
     estimated scf accuracy    <       0.01797572 Ry

     total magnetization       =    13.22 Bohr mag/cell
     absolute magnetization    =    16.79 Bohr mag/cell

     iteration # 12     ecut=    36.75 Ry     beta=0.10
     Davidson diagonalization with overlap
     ethr =  9.66E-06,  avg # of iterations =  2.5

     negative rho (up, down):  1.009E-01 1.026E-01
 
     Adding external electric field

     Computed dipole along edir(3) : 
        Dipole               -0.0000 Ry au,         -0.0001 Debye
        Dipole field         -0.0000 Ry au
 
        Potential amp.        0.0000 Ry
        Total length         44.5906 bohr
 
 
     Adding external electric field

     Computed dipole along edir(3) : 
        Dipole               -0.0000 Ry au,         -0.0001 Debye
        Dipole field         -0.0000 Ry au
 
        Potential amp.        0.0000 Ry
        Total length         44.5906 bohr
 
 
     Magnetic moment per site:
     atom:    1    charge:    7.0845    magn:    0.8309    constr:    0.0000
     atom:    2    charge:    7.0846    magn:    0.8308    constr:    0.0000
     atom:    3    charge:    7.0847    magn:    0.8308    constr:    0.0000
     atom:    4    charge:    1.6441    magn:   -0.0205    constr:    0.0000
     atom:    5    charge:    7.0825    magn:    0.6644    constr:    0.0000
     atom:    6    charge:    7.0823    magn:    0.6644    constr:    0.0000
     atom:    7    charge:    7.0825    magn:    0.6644    constr:    0.0000
     atom:    8    charge:    1.6512    magn:   -0.0224    constr:    0.0000
     atom:    9    charge:    7.0845    magn:    0.8309    constr:    0.0000
     atom:   10    charge:    7.0847    magn:    0.8308    constr:    0.0000
     atom:   11    charge:    7.0846    magn:    0.8309    constr:    0.0000
     atom:   12    charge:    1.6441    magn:   -0.0205    constr:    0.0000

     total cpu time spent up to now is     1406.2 secs

     total energy              =   -2743.14289147 Ry
     Harris-Foulkes estimate   =   -2743.14298471 Ry
     estimated scf accuracy    <       0.03573170 Ry

     total magnetization       =    13.05 Bohr mag/cell
     absolute magnetization    =    17.30 Bohr mag/cell

     iteration # 13     ecut=    36.75 Ry     beta=0.10
     Davidson diagonalization with overlap
     ethr =  9.66E-06,  avg # of iterations =  1.0

     negative rho (up, down):  1.003E-01 1.030E-01
 
     Adding external electric field

     Computed dipole along edir(3) : 
        Dipole               -0.0002 Ry au,         -0.0005 Debye
        Dipole field         -0.0000 Ry au
 
        Potential amp.        0.0001 Ry
        Total length         44.5906 bohr
 
 
     Adding external electric field

     Computed dipole along edir(3) : 
        Dipole               -0.0002 Ry au,         -0.0005 Debye
        Dipole field         -0.0000 Ry au
 
        Potential amp.        0.0001 Ry
        Total length         44.5906 bohr
 
 
     Magnetic moment per site:
     atom:    1    charge:    7.0856    magn:    0.8437    constr:    0.0000
     atom:    2    charge:    7.0856    magn:    0.8437    constr:    0.0000
     atom:    3    charge:    7.0856    magn:    0.8437    constr:    0.0000
     atom:    4    charge:    1.6461    magn:   -0.0235    constr:    0.0000
     atom:    5    charge:    7.0810    magn:    0.6598    constr:    0.0000
     atom:    6    charge:    7.0810    magn:    0.6597    constr:    0.0000
     atom:    7    charge:    7.0809    magn:    0.6598    constr:    0.0000
     atom:    8    charge:    1.6521    magn:   -0.0244    constr:    0.0000
     atom:    9    charge:    7.0855    magn:    0.8437    constr:    0.0000
     atom:   10    charge:    7.0856    magn:    0.8437    constr:    0.0000
     atom:   11    charge:    7.0855    magn:    0.8438    constr:    0.0000
     atom:   12    charge:    1.6461    magn:   -0.0235    constr:    0.0000

     total cpu time spent up to now is     1503.8 secs

     total energy              =   -2743.14321205 Ry
     Harris-Foulkes estimate   =   -2743.14349418 Ry
     estimated scf accuracy    <       0.01884841 Ry

     total magnetization       =    13.00 Bohr mag/cell
     absolute magnetization    =    17.46 Bohr mag/cell

     iteration # 14     ecut=    36.75 Ry     beta=0.10
     Davidson diagonalization with overlap
     ethr =  9.66E-06,  avg # of iterations =  1.2

     negative rho (up, down):  1.001E-01 1.029E-01
 
     Adding external electric field

     Computed dipole along edir(3) : 
        Dipole                0.0000 Ry au,          0.0000 Debye
        Dipole field          0.0000 Ry au
 
        Potential amp.       -0.0000 Ry
        Total length         44.5906 bohr
 
 
     Adding external electric field

     Computed dipole along edir(3) : 
        Dipole                0.0000 Ry au,          0.0000 Debye
        Dipole field          0.0000 Ry au
 
        Potential amp.       -0.0000 Ry
        Total length         44.5906 bohr
 
 
     Magnetic moment per site:
     atom:    1    charge:    7.0845    magn:    0.8492    constr:    0.0000
     atom:    2    charge:    7.0846    magn:    0.8491    constr:    0.0000
     atom:    3    charge:    7.0845    magn:    0.8492    constr:    0.0000
     atom:    4    charge:    1.6461    magn:   -0.0231    constr:    0.0000
     atom:    5    charge:    7.0793    magn:    0.6587    constr:    0.0000
     atom:    6    charge:    7.0792    magn:    0.6587    constr:    0.0000
     atom:    7    charge:    7.0792    magn:    0.6588    constr:    0.0000
     atom:    8    charge:    1.6515    magn:   -0.0237    constr:    0.0000
     atom:    9    charge:    7.0845    magn:    0.8492    constr:    0.0000
     atom:   10    charge:    7.0846    magn:    0.8491    constr:    0.0000
     atom:   11    charge:    7.0845    magn:    0.8493    constr:    0.0000
     atom:   12    charge:    1.6461    magn:   -0.0231    constr:    0.0000

     total cpu time spent up to now is     1604.5 secs

     total energy              =   -2743.14461728 Ry
     Harris-Foulkes estimate   =   -2743.14445038 Ry
     estimated scf accuracy    <       0.00375163 Ry

     total magnetization       =    12.95 Bohr mag/cell
     absolute magnetization    =    17.71 Bohr mag/cell

     iteration # 15     ecut=    36.75 Ry     beta=0.10
     Davidson diagonalization with overlap
     ethr =  2.02E-06,  avg # of iterations =  2.7

     negative rho (up, down):  9.980E-02 1.029E-01
 
     Adding external electric field

     Computed dipole along edir(3) : 
        Dipole                0.0000 Ry au,          0.0000 Debye
        Dipole field          0.0000 Ry au
 
        Potential amp.       -0.0000 Ry
        Total length         44.5906 bohr
 
 
     Adding external electric field

     Computed dipole along edir(3) : 
        Dipole                0.0000 Ry au,          0.0000 Debye
        Dipole field          0.0000 Ry au
 
        Potential amp.       -0.0000 Ry
        Total length         44.5906 bohr
 
 
     Magnetic moment per site:
     atom:    1    charge:    7.0844    magn:    0.8559    constr:    0.0000
     atom:    2    charge:    7.0843    magn:    0.8559    constr:    0.0000
     atom:    3    charge:    7.0846    magn:    0.8558    constr:    0.0000
     atom:    4    charge:    1.6462    magn:   -0.0235    constr:    0.0000
     atom:    5    charge:    7.0787    magn:    0.6578    constr:    0.0000
     atom:    6    charge:    7.0790    magn:    0.6577    constr:    0.0000
     atom:    7    charge:    7.0788    magn:    0.6578    constr:    0.0000
     atom:    8    charge:    1.6513    magn:   -0.0236    constr:    0.0000
     atom:    9    charge:    7.0843    magn:    0.8559    constr:    0.0000
     atom:   10    charge:    7.0844    magn:    0.8558    constr:    0.0000
     atom:   11    charge:    7.0844    magn:    0.8559    constr:    0.0000
     atom:   12    charge:    1.6462    magn:   -0.0235    constr:    0.0000

     total cpu time spent up to now is     1715.6 secs

     total energy              =   -2743.14546368 Ry
     Harris-Foulkes estimate   =   -2743.14480582 Ry
     estimated scf accuracy    <       0.00188935 Ry

     total magnetization       =    12.97 Bohr mag/cell
     absolute magnetization    =    17.82 Bohr mag/cell

     iteration # 16     ecut=    36.75 Ry     beta=0.10
     Davidson diagonalization with overlap
     ethr =  1.02E-06,  avg # of iterations =  1.0

     negative rho (up, down):  9.959E-02 1.030E-01
 
     Adding external electric field

     Computed dipole along edir(3) : 
        Dipole                0.0001 Ry au,          0.0001 Debye
        Dipole field          0.0000 Ry au
 
        Potential amp.       -0.0000 Ry
        Total length         44.5906 bohr
 
 
     Adding external electric field

     Computed dipole along edir(3) : 
        Dipole                0.0001 Ry au,          0.0001 Debye
        Dipole field          0.0000 Ry au
 
        Potential amp.       -0.0000 Ry
        Total length         44.5906 bohr
 
 
     Magnetic moment per site:
     atom:    1    charge:    7.0843    magn:    0.8595    constr:    0.0000
     atom:    2    charge:    7.0844    magn:    0.8594    constr:    0.0000
     atom:    3    charge:    7.0843    magn:    0.8596    constr:    0.0000
     atom:    4    charge:    1.6463    magn:   -0.0249    constr:    0.0000
     atom:    5    charge:    7.0788    magn:    0.6565    constr:    0.0000
     atom:    6    charge:    7.0786    magn:    0.6564    constr:    0.0000
     atom:    7    charge:    7.0787    magn:    0.6565    constr:    0.0000
     atom:    8    charge:    1.6514    magn:   -0.0248    constr:    0.0000
     atom:    9    charge:    7.0843    magn:    0.8595    constr:    0.0000
     atom:   10    charge:    7.0844    magn:    0.8594    constr:    0.0000
     atom:   11    charge:    7.0843    magn:    0.8596    constr:    0.0000
     atom:   12    charge:    1.6463    magn:   -0.0249    constr:    0.0000

     total cpu time spent up to now is     1817.9 secs

     total energy              =   -2743.14602057 Ry
     Harris-Foulkes estimate   =   -2743.14556000 Ry
     estimated scf accuracy    <       0.00173173 Ry

     total magnetization       =    12.98 Bohr mag/cell
     absolute magnetization    =    17.95 Bohr mag/cell

     iteration # 17     ecut=    36.75 Ry     beta=0.10
     Davidson diagonalization with overlap
     ethr =  9.31E-07,  avg # of iterations =  1.0

     negative rho (up, down):  9.890E-02 1.035E-01
 
     Adding external electric field

     Computed dipole along edir(3) : 
        Dipole                0.0000 Ry au,          0.0001 Debye
        Dipole field          0.0000 Ry au
 
        Potential amp.       -0.0000 Ry
        Total length         44.5906 bohr
 
 
     Adding external electric field

     Computed dipole along edir(3) : 
        Dipole                0.0000 Ry au,          0.0001 Debye
        Dipole field          0.0000 Ry au
 
        Potential amp.       -0.0000 Ry
        Total length         44.5906 bohr
 
 
     Magnetic moment per site:
     atom:    1    charge:    7.0862    magn:    0.8876    constr:    0.0000
     atom:    2    charge:    7.0861    magn:    0.8875    constr:    0.0000
     atom:    3    charge:    7.0862    magn:    0.8876    constr:    0.0000
     atom:    4    charge:    1.6471    magn:   -0.0271    constr:    0.0000
     atom:    5    charge:    7.0803    magn:    0.6544    constr:    0.0000
     atom:    6    charge:    7.0802    magn:    0.6543    constr:    0.0000
     atom:    7    charge:    7.0802    magn:    0.6544    constr:    0.0000
     atom:    8    charge:    1.6516    magn:   -0.0253    constr:    0.0000
     atom:    9    charge:    7.0862    magn:    0.8876    constr:    0.0000
     atom:   10    charge:    7.0861    magn:    0.8875    constr:    0.0000
     atom:   11    charge:    7.0861    magn:    0.8876    constr:    0.0000
     atom:   12    charge:    1.6471    magn:   -0.0271    constr:    0.0000

     total cpu time spent up to now is     1920.7 secs

     total energy              =   -2743.14746939 Ry
     Harris-Foulkes estimate   =   -2743.14606540 Ry
     estimated scf accuracy    <       0.00147384 Ry

     total magnetization       =    12.98 Bohr mag/cell
     absolute magnetization    =    18.04 Bohr mag/cell

     iteration # 18     ecut=    36.75 Ry     beta=0.10
     Davidson diagonalization with overlap
     ethr =  7.92E-07,  avg # of iterations =  3.0

     negative rho (up, down):  9.847E-02 1.038E-01
 
     Adding external electric field

     Computed dipole along edir(3) : 
        Dipole                0.0009 Ry au,          0.0022 Debye
        Dipole field          0.0000 Ry au
 
        Potential amp.       -0.0003 Ry
        Total length         44.5906 bohr
 
 
     Adding external electric field

     Computed dipole along edir(3) : 
        Dipole                0.0009 Ry au,          0.0022 Debye
        Dipole field          0.0000 Ry au
 
        Potential amp.       -0.0003 Ry
        Total length         44.5906 bohr
 
 
     Magnetic moment per site:
     atom:    1    charge:    7.0864    magn:    0.9039    constr:    0.0000
     atom:    2    charge:    7.0864    magn:    0.9038    constr:    0.0000
     atom:    3    charge:    7.0864    magn:    0.9039    constr:    0.0000
     atom:    4    charge:    1.6473    magn:   -0.0289    constr:    0.0000
     atom:    5    charge:    7.0804    magn:    0.6526    constr:    0.0000
     atom:    6    charge:    7.0804    magn:    0.6526    constr:    0.0000
     atom:    7    charge:    7.0805    magn:    0.6527    constr:    0.0000
     atom:    8    charge:    1.6516    magn:   -0.0262    constr:    0.0000
     atom:    9    charge:    7.0864    magn:    0.9039    constr:    0.0000
     atom:   10    charge:    7.0864    magn:    0.9038    constr:    0.0000
     atom:   11    charge:    7.0864    magn:    0.9040    constr:    0.0000
     atom:   12    charge:    1.6473    magn:   -0.0289    constr:    0.0000

     total cpu time spent up to now is     2043.8 secs

     total energy              =   -2743.14890768 Ry
     Harris-Foulkes estimate   =   -2743.14834840 Ry
     estimated scf accuracy    <       0.00152724 Ry

     total magnetization       =    13.03 Bohr mag/cell
     absolute magnetization    =    18.54 Bohr mag/cell

     iteration # 19     ecut=    36.75 Ry     beta=0.10
     Davidson diagonalization with overlap
     ethr =  7.92E-07,  avg # of iterations =  1.5

     negative rho (up, down):  9.836E-02 1.038E-01
 
     Adding external electric field

     Computed dipole along edir(3) : 
        Dipole               -0.0041 Ry au,         -0.0104 Debye
        Dipole field         -0.0000 Ry au
 
        Potential amp.        0.0012 Ry
        Total length         44.5906 bohr
 
 
     Adding external electric field

     Computed dipole along edir(3) : 
        Dipole               -0.0041 Ry au,         -0.0104 Debye
        Dipole field         -0.0000 Ry au
 
        Potential amp.        0.0012 Ry
        Total length         44.5906 bohr
 
 
     Magnetic moment per site:
     atom:    1    charge:    7.0863    magn:    0.9091    constr:    0.0000
     atom:    2    charge:    7.0862    magn:    0.9091    constr:    0.0000
     atom:    3    charge:    7.0863    magn:    0.9091    constr:    0.0000
     atom:    4    charge:    1.6473    magn:   -0.0291    constr:    0.0000
     atom:    5    charge:    7.0803    magn:    0.6527    constr:    0.0000
     atom:    6    charge:    7.0803    magn:    0.6526    constr:    0.0000
     atom:    7    charge:    7.0803    magn:    0.6527    constr:    0.0000
     atom:    8    charge:    1.6514    magn:   -0.0261    constr:    0.0000
     atom:    9    charge:    7.0864    magn:    0.9091    constr:    0.0000
     atom:   10    charge:    7.0864    magn:    0.9090    constr:    0.0000
     atom:   11    charge:    7.0864    magn:    0.9091    constr:    0.0000
     atom:   12    charge:    1.6473    magn:   -0.0291    constr:    0.0000

     total cpu time spent up to now is     2146.0 secs

     total energy              =   -2743.14936958 Ry
     Harris-Foulkes estimate   =   -2743.14921271 Ry
     estimated scf accuracy    <       0.00074702 Ry

     total magnetization       =    13.05 Bohr mag/cell
     absolute magnetization    =    18.83 Bohr mag/cell

     iteration # 20     ecut=    36.75 Ry     beta=0.10
     Davidson diagonalization with overlap
     ethr =  4.02E-07,  avg # of iterations =  1.1

     negative rho (up, down):  9.826E-02 1.038E-01
 
     Adding external electric field

     Computed dipole along edir(3) : 
        Dipole                0.0004 Ry au,          0.0011 Debye
        Dipole field          0.0000 Ry au
 
        Potential amp.       -0.0001 Ry
        Total length         44.5906 bohr
 
 
     Adding external electric field

     Computed dipole along edir(3) : 
        Dipole                0.0004 Ry au,          0.0011 Debye
        Dipole field          0.0000 Ry au
 
        Potential amp.       -0.0001 Ry
        Total length         44.5906 bohr
 
 
     Magnetic moment per site:
     atom:    1    charge:    7.0867    magn:    0.9205    constr:    0.0000
     atom:    2    charge:    7.0866    magn:    0.9205    constr:    0.0000
     atom:    3    charge:    7.0867    magn:    0.9205    constr:    0.0000
     atom:    4    charge:    1.6473    magn:   -0.0285    constr:    0.0000
     atom:    5    charge:    7.0803    magn:    0.6538    constr:    0.0000
     atom:    6    charge:    7.0802    magn:    0.6537    constr:    0.0000
     atom:    7    charge:    7.0801    magn:    0.6539    constr:    0.0000
     atom:    8    charge:    1.6513    magn:   -0.0249    constr:    0.0000
     atom:    9    charge:    7.0867    magn:    0.9205    constr:    0.0000
     atom:   10    charge:    7.0866    magn:    0.9205    constr:    0.0000
     atom:   11    charge:    7.0866    magn:    0.9206    constr:    0.0000
     atom:   12    charge:    1.6473    magn:   -0.0285    constr:    0.0000

     total cpu time spent up to now is     2245.0 secs

     total energy              =   -2743.14963899 Ry
     Harris-Foulkes estimate   =   -2743.14943795 Ry
     estimated scf accuracy    <       0.00351037 Ry

     total magnetization       =    13.07 Bohr mag/cell
     absolute magnetization    =    18.92 Bohr mag/cell

     iteration # 21     ecut=    36.75 Ry     beta=0.10
     Davidson diagonalization with overlap
     ethr =  4.02E-07,  avg # of iterations =  1.4

     negative rho (up, down):  9.822E-02 1.038E-01
 
     Adding external electric field

     Computed dipole along edir(3) : 
        Dipole               -0.0001 Ry au,         -0.0003 Debye
        Dipole field         -0.0000 Ry au
 
        Potential amp.        0.0000 Ry
        Total length         44.5906 bohr
 
 
     Adding external electric field

     Computed dipole along edir(3) : 
        Dipole               -0.0001 Ry au,         -0.0003 Debye
        Dipole field         -0.0000 Ry au
 
        Potential amp.        0.0000 Ry
        Total length         44.5906 bohr
 
 
     Magnetic moment per site:
     atom:    1    charge:    7.0872    magn:    0.9378    constr:    0.0000
     atom:    2    charge:    7.0873    magn:    0.9378    constr:    0.0000
     atom:    3    charge:    7.0872    magn:    0.9379    constr:    0.0000
     atom:    4    charge:    1.6471    magn:   -0.0275    constr:    0.0000
     atom:    5    charge:    7.0802    magn:    0.6567    constr:    0.0000
     atom:    6    charge:    7.0803    magn:    0.6566    constr:    0.0000
     atom:    7    charge:    7.0804    magn:    0.6567    constr:    0.0000
     atom:    8    charge:    1.6512    magn:   -0.0231    constr:    0.0000
     atom:    9    charge:    7.0872    magn:    0.9378    constr:    0.0000
     atom:   10    charge:    7.0872    magn:    0.9378    constr:    0.0000
     atom:   11    charge:    7.0872    magn:    0.9379    constr:    0.0000
     atom:   12    charge:    1.6471    magn:   -0.0275    constr:    0.0000

     total cpu time spent up to now is     2345.7 secs

     total energy              =   -2743.14994571 Ry
     Harris-Foulkes estimate   =   -2743.14976587 Ry
     estimated scf accuracy    <       0.00061300 Ry

     total magnetization       =    13.11 Bohr mag/cell
     absolute magnetization    =    19.08 Bohr mag/cell

     iteration # 22     ecut=    36.75 Ry     beta=0.10
     Davidson diagonalization with overlap
     ethr =  3.30E-07,  avg # of iterations =  2.0

     negative rho (up, down):  9.825E-02 1.037E-01
 
     Adding external electric field

     Computed dipole along edir(3) : 
        Dipole                0.0001 Ry au,          0.0002 Debye
        Dipole field          0.0000 Ry au
 
        Potential amp.       -0.0000 Ry
        Total length         44.5906 bohr
 
 
     Adding external electric field

     Computed dipole along edir(3) : 
        Dipole                0.0001 Ry au,          0.0002 Debye
        Dipole field          0.0000 Ry au
 
        Potential amp.       -0.0000 Ry
        Total length         44.5906 bohr
 
 
     Magnetic moment per site:
     atom:    1    charge:    7.0878    magn:    0.9520    constr:    0.0000
     atom:    2    charge:    7.0878    magn:    0.9520    constr:    0.0000
     atom:    3    charge:    7.0878    magn:    0.9520    constr:    0.0000
     atom:    4    charge:    1.6468    magn:   -0.0267    constr:    0.0000
     atom:    5    charge:    7.0809    magn:    0.6599    constr:    0.0000
     atom:    6    charge:    7.0809    magn:    0.6598    constr:    0.0000
     atom:    7    charge:    7.0809    magn:    0.6600    constr:    0.0000
     atom:    8    charge:    1.6511    magn:   -0.0217    constr:    0.0000
     atom:    9    charge:    7.0878    magn:    0.9520    constr:    0.0000
     atom:   10    charge:    7.0877    magn:    0.9520    constr:    0.0000
     atom:   11    charge:    7.0878    magn:    0.9520    constr:    0.0000
     atom:   12    charge:    1.6468    magn:   -0.0268    constr:    0.0000

     total cpu time spent up to now is     2456.6 secs

     total energy              =   -2743.15016900 Ry
     Harris-Foulkes estimate   =   -2743.15012429 Ry
     estimated scf accuracy    <       0.00038678 Ry

     total magnetization       =    13.19 Bohr mag/cell
     absolute magnetization    =    19.31 Bohr mag/cell

     iteration # 23     ecut=    36.75 Ry     beta=0.10
     Davidson diagonalization with overlap
     ethr =  2.08E-07,  avg # of iterations =  2.0

     negative rho (up, down):  9.829E-02 1.036E-01
 
     Adding external electric field

     Computed dipole along edir(3) : 
        Dipole               -0.0002 Ry au,         -0.0004 Debye
        Dipole field         -0.0000 Ry au
 
        Potential amp.        0.0000 Ry
        Total length         44.5906 bohr
 
 
     Adding external electric field

     Computed dipole along edir(3) : 
        Dipole               -0.0002 Ry au,         -0.0004 Debye
        Dipole field         -0.0000 Ry au
 
        Potential amp.        0.0000 Ry
        Total length         44.5906 bohr
 
 
     Magnetic moment per site:
     atom:    1    charge:    7.0877    magn:    0.9563    constr:    0.0000
     atom:    2    charge:    7.0876    magn:    0.9562    constr:    0.0000
     atom:    3    charge:    7.0877    magn:    0.9562    constr:    0.0000
     atom:    4    charge:    1.6466    magn:   -0.0268    constr:    0.0000
     atom:    5    charge:    7.0810    magn:    0.6615    constr:    0.0000
     atom:    6    charge:    7.0809    magn:    0.6615    constr:    0.0000
     atom:    7    charge:    7.0810    magn:    0.6616    constr:    0.0000
     atom:    8    charge:    1.6510    magn:   -0.0216    constr:    0.0000
     atom:    9    charge:    7.0876    magn:    0.9563    constr:    0.0000
     atom:   10    charge:    7.0878    magn:    0.9562    constr:    0.0000
     atom:   11    charge:    7.0876    magn:    0.9563    constr:    0.0000
     atom:   12    charge:    1.6466    magn:   -0.0268    constr:    0.0000

     total cpu time spent up to now is     2568.6 secs

     total energy              =   -2743.15028626 Ry
     Harris-Foulkes estimate   =   -2743.15027121 Ry
     estimated scf accuracy    <       0.00018960 Ry

     total magnetization       =    13.25 Bohr mag/cell
     absolute magnetization    =    19.47 Bohr mag/cell

     iteration # 24     ecut=    36.75 Ry     beta=0.10
     Davidson diagonalization with overlap
     ethr =  1.02E-07,  avg # of iterations =  1.0

     negative rho (up, down):  9.827E-02 1.036E-01
 
     Adding external electric field

     Computed dipole along edir(3) : 
        Dipole               -0.0001 Ry au,         -0.0003 Debye
        Dipole field         -0.0000 Ry au
 
        Potential amp.        0.0000 Ry
        Total length         44.5906 bohr
 
 
     Adding external electric field

     Computed dipole along edir(3) : 
        Dipole               -0.0001 Ry au,         -0.0003 Debye
        Dipole field         -0.0000 Ry au
 
        Potential amp.        0.0000 Ry
        Total length         44.5906 bohr
 
 
     Magnetic moment per site:
     atom:    1    charge:    7.0874    magn:    0.9623    constr:    0.0000
     atom:    2    charge:    7.0874    magn:    0.9623    constr:    0.0000
     atom:    3    charge:    7.0874    magn:    0.9623    constr:    0.0000
     atom:    4    charge:    1.6464    magn:   -0.0282    constr:    0.0000
     atom:    5    charge:    7.0809    magn:    0.6629    constr:    0.0000
     atom:    6    charge:    7.0809    magn:    0.6629    constr:    0.0000
     atom:    7    charge:    7.0809    magn:    0.6630    constr:    0.0000
     atom:    8    charge:    1.6511    magn:   -0.0228    constr:    0.0000
     atom:    9    charge:    7.0874    magn:    0.9623    constr:    0.0000
     atom:   10    charge:    7.0874    magn:    0.9623    constr:    0.0000
     atom:   11    charge:    7.0875    magn:    0.9623    constr:    0.0000
     atom:   12    charge:    1.6464    magn:   -0.0282    constr:    0.0000

     total cpu time spent up to now is     2670.7 secs

     total energy              =   -2743.15031322 Ry
     Harris-Foulkes estimate   =   -2743.15030002 Ry
     estimated scf accuracy    <       0.00017260 Ry

     total magnetization       =    13.28 Bohr mag/cell
     absolute magnetization    =    19.52 Bohr mag/cell

     iteration # 25     ecut=    36.75 Ry     beta=0.10
     Davidson diagonalization with overlap
     ethr =  9.28E-08,  avg # of iterations =  2.0

     negative rho (up, down):  9.826E-02 1.036E-01
 
     Adding external electric field

     Computed dipole along edir(3) : 
        Dipole                0.0001 Ry au,          0.0002 Debye
        Dipole field          0.0000 Ry au
 
        Potential amp.       -0.0000 Ry
        Total length         44.5906 bohr
 
 
     Adding external electric field

     Computed dipole along edir(3) : 
        Dipole                0.0001 Ry au,          0.0002 Debye
        Dipole field          0.0000 Ry au
 
        Potential amp.       -0.0000 Ry
        Total length         44.5906 bohr
 
 
     Magnetic moment per site:
     atom:    1    charge:    7.0871    magn:    0.9661    constr:    0.0000
     atom:    2    charge:    7.0871    magn:    0.9661    constr:    0.0000
     atom:    3    charge:    7.0871    magn:    0.9661    constr:    0.0000
     atom:    4    charge:    1.6463    magn:   -0.0288    constr:    0.0000
     atom:    5    charge:    7.0806    magn:    0.6639    constr:    0.0000
     atom:    6    charge:    7.0806    magn:    0.6639    constr:    0.0000
     atom:    7    charge:    7.0806    magn:    0.6640    constr:    0.0000
     atom:    8    charge:    1.6510    magn:   -0.0233    constr:    0.0000
     atom:    9    charge:    7.0871    magn:    0.9661    constr:    0.0000
     atom:   10    charge:    7.0872    magn:    0.9661    constr:    0.0000
     atom:   11    charge:    7.0871    magn:    0.9661    constr:    0.0000
     atom:   12    charge:    1.6463    magn:   -0.0288    constr:    0.0000

     total cpu time spent up to now is     2783.6 secs

     total energy              =   -2743.15034283 Ry
     Harris-Foulkes estimate   =   -2743.15034067 Ry
     estimated scf accuracy    <       0.00008951 Ry

     total magnetization       =    13.31 Bohr mag/cell
     absolute magnetization    =    19.60 Bohr mag/cell

     iteration # 26     ecut=    36.75 Ry     beta=0.10
     Davidson diagonalization with overlap
     ethr =  4.81E-08,  avg # of iterations =  1.5

     negative rho (up, down):  9.823E-02 1.036E-01
 
     Adding external electric field

     Computed dipole along edir(3) : 
        Dipole               -0.0001 Ry au,         -0.0002 Debye
        Dipole field         -0.0000 Ry au
 
        Potential amp.        0.0000 Ry
        Total length         44.5906 bohr
 
 
     Adding external electric field

     Computed dipole along edir(3) : 
        Dipole               -0.0001 Ry au,         -0.0002 Debye
        Dipole field         -0.0000 Ry au
 
        Potential amp.        0.0000 Ry
        Total length         44.5906 bohr
 
 
     Magnetic moment per site:
     atom:    1    charge:    7.0869    magn:    0.9677    constr:    0.0000
     atom:    2    charge:    7.0869    magn:    0.9677    constr:    0.0000
     atom:    3    charge:    7.0869    magn:    0.9677    constr:    0.0000
     atom:    4    charge:    1.6463    magn:   -0.0298    constr:    0.0000
     atom:    5    charge:    7.0803    magn:    0.6646    constr:    0.0000
     atom:    6    charge:    7.0803    magn:    0.6646    constr:    0.0000
     atom:    7    charge:    7.0803    magn:    0.6647    constr:    0.0000
     atom:    8    charge:    1.6510    magn:   -0.0243    constr:    0.0000
     atom:    9    charge:    7.0869    magn:    0.9677    constr:    0.0000
     atom:   10    charge:    7.0869    magn:    0.9677    constr:    0.0000
     atom:   11    charge:    7.0869    magn:    0.9677    constr:    0.0000
     atom:   12    charge:    1.6463    magn:   -0.0298    constr:    0.0000

     total cpu time spent up to now is     2887.6 secs

     total energy              =   -2743.15036372 Ry
     Harris-Foulkes estimate   =   -2743.15035300 Ry
     estimated scf accuracy    <       0.00004025 Ry

     total magnetization       =    13.33 Bohr mag/cell
     absolute magnetization    =    19.65 Bohr mag/cell

     iteration # 27     ecut=    36.75 Ry     beta=0.10
     Davidson diagonalization with overlap
     ethr =  2.16E-08,  avg # of iterations =  1.1

     negative rho (up, down):  9.822E-02 1.036E-01
 
     Adding external electric field

     Computed dipole along edir(3) : 
        Dipole               -0.0001 Ry au,         -0.0004 Debye
        Dipole field         -0.0000 Ry au
 
        Potential amp.        0.0000 Ry
        Total length         44.5906 bohr
 
 
     Adding external electric field

     Computed dipole along edir(3) : 
        Dipole               -0.0001 Ry au,         -0.0004 Debye
        Dipole field         -0.0000 Ry au
 
        Potential amp.        0.0000 Ry
        Total length         44.5906 bohr
 
 
     Magnetic moment per site:
     atom:    1    charge:    7.0868    magn:    0.9687    constr:    0.0000
     atom:    2    charge:    7.0868    magn:    0.9687    constr:    0.0000
     atom:    3    charge:    7.0867    magn:    0.9687    constr:    0.0000
     atom:    4    charge:    1.6463    magn:   -0.0305    constr:    0.0000
     atom:    5    charge:    7.0801    magn:    0.6653    constr:    0.0000
     atom:    6    charge:    7.0801    magn:    0.6653    constr:    0.0000
     atom:    7    charge:    7.0801    magn:    0.6654    constr:    0.0000
     atom:    8    charge:    1.6510    magn:   -0.0250    constr:    0.0000
     atom:    9    charge:    7.0868    magn:    0.9687    constr:    0.0000
     atom:   10    charge:    7.0868    magn:    0.9687    constr:    0.0000
     atom:   11    charge:    7.0867    magn:    0.9687    constr:    0.0000
     atom:   12    charge:    1.6463    magn:   -0.0305    constr:    0.0000

     total cpu time spent up to now is     2992.0 secs

     total energy              =   -2743.15037403 Ry
     Harris-Foulkes estimate   =   -2743.15036682 Ry
     estimated scf accuracy    <       0.00003211 Ry

     total magnetization       =    13.34 Bohr mag/cell
     absolute magnetization    =    19.67 Bohr mag/cell

     iteration # 28     ecut=    36.75 Ry     beta=0.10
     Davidson diagonalization with overlap
     ethr =  1.73E-08,  avg # of iterations =  1.0

     negative rho (up, down):  9.822E-02 1.036E-01
 
     Adding external electric field

     Computed dipole along edir(3) : 
        Dipole               -0.0000 Ry au,         -0.0000 Debye
        Dipole field         -0.0000 Ry au
 
        Potential amp.        0.0000 Ry
        Total length         44.5906 bohr
 
 
     Adding external electric field

     Computed dipole along edir(3) : 
        Dipole               -0.0000 Ry au,         -0.0000 Debye
        Dipole field         -0.0000 Ry au
 
        Potential amp.        0.0000 Ry
        Total length         44.5906 bohr
 
 
     Magnetic moment per site:
     atom:    1    charge:    7.0867    magn:    0.9688    constr:    0.0000
     atom:    2    charge:    7.0867    magn:    0.9688    constr:    0.0000
     atom:    3    charge:    7.0867    magn:    0.9688    constr:    0.0000
     atom:    4    charge:    1.6463    magn:   -0.0308    constr:    0.0000
     atom:    5    charge:    7.0800    magn:    0.6660    constr:    0.0000
     atom:    6    charge:    7.0801    magn:    0.6660    constr:    0.0000
     atom:    7    charge:    7.0801    magn:    0.6660    constr:    0.0000
     atom:    8    charge:    1.6511    magn:   -0.0253    constr:    0.0000
     atom:    9    charge:    7.0867    magn:    0.9688    constr:    0.0000
     atom:   10    charge:    7.0867    magn:    0.9688    constr:    0.0000
     atom:   11    charge:    7.0867    magn:    0.9688    constr:    0.0000
     atom:   12    charge:    1.6463    magn:   -0.0308    constr:    0.0000

     total cpu time spent up to now is     3094.7 secs

     total energy              =   -2743.15038113 Ry
     Harris-Foulkes estimate   =   -2743.15037599 Ry
     estimated scf accuracy    <       0.00001639 Ry

     total magnetization       =    13.35 Bohr mag/cell
     absolute magnetization    =    19.68 Bohr mag/cell

     iteration # 29     ecut=    36.75 Ry     beta=0.10
     Davidson diagonalization with overlap
     ethr =  8.81E-09,  avg # of iterations =  1.0

     negative rho (up, down):  9.820E-02 1.036E-01
 
     Adding external electric field

     Computed dipole along edir(3) : 
        Dipole                0.0000 Ry au,          0.0000 Debye
        Dipole field          0.0000 Ry au
 
        Potential amp.       -0.0000 Ry
        Total length         44.5906 bohr
 
 
     Adding external electric field

     Computed dipole along edir(3) : 
        Dipole                0.0000 Ry au,          0.0000 Debye
        Dipole field          0.0000 Ry au
 
        Potential amp.       -0.0000 Ry
        Total length         44.5906 bohr
 
 
     Magnetic moment per site:
     atom:    1    charge:    7.0867    magn:    0.9696    constr:    0.0000
     atom:    2    charge:    7.0867    magn:    0.9696    constr:    0.0000
     atom:    3    charge:    7.0867    magn:    0.9696    constr:    0.0000
     atom:    4    charge:    1.6463    magn:   -0.0310    constr:    0.0000
     atom:    5    charge:    7.0800    magn:    0.6663    constr:    0.0000
     atom:    6    charge:    7.0800    magn:    0.6663    constr:    0.0000
     atom:    7    charge:    7.0800    magn:    0.6664    constr:    0.0000
     atom:    8    charge:    1.6511    magn:   -0.0255    constr:    0.0000
     atom:    9    charge:    7.0867    magn:    0.9696    constr:    0.0000
     atom:   10    charge:    7.0867    magn:    0.9696    constr:    0.0000
     atom:   11    charge:    7.0867    magn:    0.9696    constr:    0.0000
     atom:   12    charge:    1.6463    magn:   -0.0310    constr:    0.0000

     total cpu time spent up to now is     3196.9 secs

     total energy              =   -2743.15038362 Ry
     Harris-Foulkes estimate   =   -2743.15038214 Ry
     estimated scf accuracy    <       0.00001260 Ry

     total magnetization       =    13.36 Bohr mag/cell
     absolute magnetization    =    19.68 Bohr mag/cell

     iteration # 30     ecut=    36.75 Ry     beta=0.10
     Davidson diagonalization with overlap
     ethr =  6.77E-09,  avg # of iterations =  1.0

     negative rho (up, down):  9.819E-02 1.036E-01
 
     Adding external electric field

     Computed dipole along edir(3) : 
        Dipole               -0.0001 Ry au,         -0.0003 Debye
        Dipole field         -0.0000 Ry au
 
        Potential amp.        0.0000 Ry
        Total length         44.5906 bohr
 
 
     Adding external electric field

     Computed dipole along edir(3) : 
        Dipole               -0.0001 Ry au,         -0.0003 Debye
        Dipole field         -0.0000 Ry au
 
        Potential amp.        0.0000 Ry
        Total length         44.5906 bohr
 
 
     Magnetic moment per site:
     atom:    1    charge:    7.0867    magn:    0.9693    constr:    0.0000
     atom:    2    charge:    7.0867    magn:    0.9693    constr:    0.0000
     atom:    3    charge:    7.0867    magn:    0.9693    constr:    0.0000
     atom:    4    charge:    1.6464    magn:   -0.0313    constr:    0.0000
     atom:    5    charge:    7.0800    magn:    0.6670    constr:    0.0000
     atom:    6    charge:    7.0800    magn:    0.6670    constr:    0.0000
     atom:    7    charge:    7.0800    magn:    0.6671    constr:    0.0000
     atom:    8    charge:    1.6511    magn:   -0.0258    constr:    0.0000
     atom:    9    charge:    7.0867    magn:    0.9693    constr:    0.0000
     atom:   10    charge:    7.0867    magn:    0.9693    constr:    0.0000
     atom:   11    charge:    7.0867    magn:    0.9693    constr:    0.0000
     atom:   12    charge:    1.6464    magn:   -0.0313    constr:    0.0000

     total cpu time spent up to now is     3299.4 secs

     total energy              =   -2743.15038757 Ry
     Harris-Foulkes estimate   =   -2743.15038430 Ry
     estimated scf accuracy    <       0.00000785 Ry

     total magnetization       =    13.36 Bohr mag/cell
     absolute magnetization    =    19.69 Bohr mag/cell

     iteration # 31     ecut=    36.75 Ry     beta=0.10
     Davidson diagonalization with overlap
     ethr =  4.22E-09,  avg # of iterations =  1.6

     negative rho (up, down):  9.818E-02 1.036E-01
 
     Adding external electric field

     Computed dipole along edir(3) : 
        Dipole                0.0003 Ry au,          0.0007 Debye
        Dipole field          0.0000 Ry au
 
        Potential amp.       -0.0001 Ry
        Total length         44.5906 bohr
 
 
     Adding external electric field

     Computed dipole along edir(3) : 
        Dipole                0.0003 Ry au,          0.0007 Debye
        Dipole field          0.0000 Ry au
 
        Potential amp.       -0.0001 Ry
        Total length         44.5906 bohr
 
 
     Magnetic moment per site:
     atom:    1    charge:    7.0867    magn:    0.9693    constr:    0.0000
     atom:    2    charge:    7.0867    magn:    0.9693    constr:    0.0000
     atom:    3    charge:    7.0867    magn:    0.9693    constr:    0.0000
     atom:    4    charge:    1.6465    magn:   -0.0315    constr:    0.0000
     atom:    5    charge:    7.0801    magn:    0.6679    constr:    0.0000
     atom:    6    charge:    7.0801    magn:    0.6679    constr:    0.0000
     atom:    7    charge:    7.0801    magn:    0.6680    constr:    0.0000
     atom:    8    charge:    1.6512    magn:   -0.0260    constr:    0.0000
     atom:    9    charge:    7.0867    magn:    0.9693    constr:    0.0000
     atom:   10    charge:    7.0867    magn:    0.9693    constr:    0.0000
     atom:   11    charge:    7.0867    magn:    0.9693    constr:    0.0000
     atom:   12    charge:    1.6465    magn:   -0.0315    constr:    0.0000

     total cpu time spent up to now is     3404.4 secs

     total energy              =   -2743.15039038 Ry
     Harris-Foulkes estimate   =   -2743.15038842 Ry
     estimated scf accuracy    <       0.00000560 Ry

     total magnetization       =    13.37 Bohr mag/cell
     absolute magnetization    =    19.68 Bohr mag/cell

     iteration # 32     ecut=    36.75 Ry     beta=0.10
     Davidson diagonalization with overlap
     ethr =  3.01E-09,  avg # of iterations =  2.0

     negative rho (up, down):  9.817E-02 1.036E-01
 
     Adding external electric field

     Computed dipole along edir(3) : 
        Dipole               -0.0001 Ry au,         -0.0003 Debye
        Dipole field         -0.0000 Ry au
 
        Potential amp.        0.0000 Ry
        Total length         44.5906 bohr
 
 
     Adding external electric field

     Computed dipole along edir(3) : 
        Dipole               -0.0001 Ry au,         -0.0003 Debye
        Dipole field         -0.0000 Ry au
 
        Potential amp.        0.0000 Ry
        Total length         44.5906 bohr
 
 
     Magnetic moment per site:
     atom:    1    charge:    7.0867    magn:    0.9695    constr:    0.0000
     atom:    2    charge:    7.0867    magn:    0.9695    constr:    0.0000
     atom:    3    charge:    7.0867    magn:    0.9695    constr:    0.0000
     atom:    4    charge:    1.6465    magn:   -0.0315    constr:    0.0000
     atom:    5    charge:    7.0801    magn:    0.6682    constr:    0.0000
     atom:    6    charge:    7.0801    magn:    0.6682    constr:    0.0000
     atom:    7    charge:    7.0801    magn:    0.6682    constr:    0.0000
     atom:    8    charge:    1.6512    magn:   -0.0261    constr:    0.0000
     atom:    9    charge:    7.0867    magn:    0.9695    constr:    0.0000
     atom:   10    charge:    7.0867    magn:    0.9695    constr:    0.0000
     atom:   11    charge:    7.0867    magn:    0.9695    constr:    0.0000
     atom:   12    charge:    1.6465    magn:   -0.0315    constr:    0.0000

     total cpu time spent up to now is     3515.8 secs

     total energy              =   -2743.15039183 Ry
     Harris-Foulkes estimate   =   -2743.15039148 Ry
     estimated scf accuracy    <       0.00002061 Ry

     total magnetization       =    13.37 Bohr mag/cell
     absolute magnetization    =    19.68 Bohr mag/cell

     iteration # 33     ecut=    36.75 Ry     beta=0.10
     Davidson diagonalization with overlap
     ethr =  3.01E-09,  avg # of iterations =  1.0

     negative rho (up, down):  9.816E-02 1.036E-01
 
     Adding external electric field

     Computed dipole along edir(3) : 
        Dipole               -0.0000 Ry au,         -0.0000 Debye
        Dipole field         -0.0000 Ry au
 
        Potential amp.        0.0000 Ry
        Total length         44.5906 bohr
 
 
     Adding external electric field

     Computed dipole along edir(3) : 
        Dipole               -0.0000 Ry au,         -0.0000 Debye
        Dipole field         -0.0000 Ry au
 
        Potential amp.        0.0000 Ry
        Total length         44.5906 bohr
 
 
     Magnetic moment per site:
     atom:    1    charge:    7.0867    magn:    0.9700    constr:    0.0000
     atom:    2    charge:    7.0867    magn:    0.9699    constr:    0.0000
     atom:    3    charge:    7.0867    magn:    0.9699    constr:    0.0000
     atom:    4    charge:    1.6465    magn:   -0.0316    constr:    0.0000
     atom:    5    charge:    7.0800    magn:    0.6687    constr:    0.0000
     atom:    6    charge:    7.0800    magn:    0.6686    constr:    0.0000
     atom:    7    charge:    7.0800    magn:    0.6687    constr:    0.0000
     atom:    8    charge:    1.6512    magn:   -0.0262    constr:    0.0000
     atom:    9    charge:    7.0867    magn:    0.9699    constr:    0.0000
     atom:   10    charge:    7.0867    magn:    0.9700    constr:    0.0000
[...]
     3.8271   3.9852   4.8485   4.8640   5.7163   6.9791   7.2417   7.3254
     8.2193   8.2405   8.2786

          k = 0.0648-0.0748 0.0000 ( 14065 PWs)   bands (ev):

   -84.6982 -84.6881 -84.6776 -84.1808 -84.1706 -84.1604 -84.1420 -84.1309
   -84.1211 -73.2098 -73.1889 -73.1339 -50.9501 -50.9013 -50.8576 -50.8040
   -50.7757 -50.7427 -50.6811 -50.6456 -50.6021 -50.4185 -50.3920 -50.3816
   -50.3594 -50.3529 -50.3194 -50.2686 -50.2332 -50.2198 -50.1982 -50.1900
   -50.1783 -50.1588 -50.1553 -50.1518 -50.1224 -50.0976 -50.0643 -37.4377
   -37.3983 -37.3886 -37.3674 -37.3502 -37.3110 -37.3053 -37.2756 -37.2695
    -5.0319  -3.9603  -3.3434  -3.0488  -2.6520  -2.4576  -2.1995  -1.9429
    -1.6167  -1.5333  -1.4318  -1.3709  -1.2284  -0.9929  -0.8537  -0.7708
    -0.7110  -0.5310  -0.3710  -0.2409  -0.1357  -0.0904   0.0822   0.2366
     0.3627   0.4347   0.4861   0.5802   0.6543   0.6970   0.8149   0.8823
     0.9373   1.0428   1.1087   1.1844   1.2796   1.3593   1.4048   1.5137
     1.5748   1.7709   1.9088   1.9813   2.1514   2.2298   2.2604   2.3015
     2.3985   2.4649   2.5611   2.8019   2.8677   2.9913   3.0773   3.1742
     3.2380   3.2989   3.4080   3.4534   3.5527   3.7678   3.8627   4.1743
     4.2433   4.3484   4.6341   5.0692   6.1479   6.4499   7.1965   7.2812
     7.4889   7.7858   7.9437

          k = 0.0648-0.0374 0.0000 ( 14092 PWs)   bands (ev):

   -84.7020 -84.6844 -84.6776 -84.1845 -84.1669 -84.1604 -84.1456 -84.1273
   -84.1211 -73.2098 -73.1888 -73.1339 -50.9685 -50.8902 -50.8651 -50.8010
   -50.7848 -50.7300 -50.6941 -50.6303 -50.5984 -50.4240 -50.4038 -50.3867
   -50.3656 -50.3439 -50.3052 -50.2948 -50.2598 -50.2097 -50.1974 -50.1971
   -50.1677 -50.1580 -50.1556 -50.1360 -50.1024 -50.0940 -50.0607 -37.4372
   -37.3949 -37.3859 -37.3692 -37.3482 -37.3089 -37.3023 -37.2737 -37.2666
    -5.6665  -3.9322  -3.5071  -2.8051  -2.7717  -2.7150  -2.3928  -2.3849
    -1.8128  -1.6849  -1.6073  -1.5101  -1.4497  -1.1921  -0.9951  -0.8633
    -0.8207  -0.5511  -0.1370  -0.0269   0.1226   0.1736   0.2623   0.4540
     0.5985   0.7270   0.7727   0.7897   0.8079   0.9175   1.0124   1.0818
     1.0926   1.2188   1.2218   1.2984   1.3313   1.3966   1.4301   1.4390
     1.5143   1.5332   1.8572   2.0028   2.1708   2.2712   2.3378   2.3522
     2.6261   2.6356   2.6778   2.8963   2.9801   3.0918   3.1214   3.1906
     3.3366   3.4477   3.4588   3.5429   3.6362   3.8480   3.8781   3.9711
     4.5061   4.6380   4.9343   5.6391   5.8180   6.2211   6.6201   6.7106
     7.0525   7.3131   7.5787

          k = 0.0648 0.0000 0.0000 ( 14087 PWs)   bands (ev):

   -84.7034 -84.6829 -84.6776 -84.1859 -84.1655 -84.1604 -84.1469 -84.1260
   -84.1210 -73.2097 -73.1888 -73.1338 -50.9748 -50.8892 -50.8676 -50.8001
   -50.7867 -50.7254 -50.6987 -50.6218 -50.5992 -50.4234 -50.4113 -50.3857
   -50.3731 -50.3391 -50.3050 -50.3003 -50.2701 -50.2061 -50.1994 -50.1976
   -50.1642 -50.1594 -50.1557 -50.1257 -50.0943 -50.0919 -50.0606 -37.4368
   -37.3927 -37.3855 -37.3695 -37.3470 -37.3065 -37.3023 -37.2714 -37.2664
    -5.8911  -4.0351  -3.1804  -3.0664  -2.8778  -2.7759  -2.7423  -2.3385
    -1.8221  -1.7331  -1.6809  -1.6335  -1.5968  -1.2680  -1.0623  -0.8815
    -0.8714  -0.5601  -0.0415   0.0820   0.2641   0.2798   0.3267   0.4648
     0.6523   0.7582   0.7722   0.8368   0.8812   0.9554   0.9967   1.1710
     1.1789   1.2100   1.2773   1.3511   1.4106   1.4293   1.4409   1.5879
     1.6399   1.7528   1.7618   2.0390   2.2413   2.3071   2.3306   2.4417
     2.6009   2.7303   2.8779   2.9481   2.9924   3.1386   3.1695   3.3925
     3.4180   3.6041   3.6522   3.7062   3.8509   3.9070   4.0340   4.1272
     4.3388   4.3982   4.5932   4.9162   6.1486   6.3837   6.4350   6.5047
     6.8396   7.0883   7.3653

          k =-0.0972-0.0561 0.0000 ( 14098 PWs)   bands (ev):

   -84.6983 -84.6879 -84.6777 -84.1808 -84.1706 -84.1604 -84.1420 -84.1310
   -84.1210 -73.2099 -73.1889 -73.1340 -50.9529 -50.8962 -50.8590 -50.8036
   -50.7768 -50.7425 -50.6799 -50.6499 -50.5994 -50.4222 -50.3868 -50.3852
   -50.3600 -50.3483 -50.3204 -50.2664 -50.2310 -50.2225 -50.1975 -50.1892
   -50.1813 -50.1612 -50.1558 -50.1515 -50.1249 -50.0957 -50.0622 -37.4380
   -37.3986 -37.3878 -37.3679 -37.3504 -37.3127 -37.3038 -37.2773 -37.2681
    -4.8405  -4.4479  -3.3103  -2.7000  -2.6111  -2.5065  -2.1598  -1.8891
    -1.7638  -1.6091  -1.4217  -1.2236  -1.1420  -0.9828  -0.9526  -0.7325
    -0.6685  -0.5798  -0.3673  -0.2328  -0.1845   0.0220   0.0357   0.3092
     0.3336   0.4498   0.4734   0.5689   0.7498   0.7644   0.8058   0.8151
     0.9674   1.0052   1.1516   1.1609   1.2236   1.2716   1.2789   1.5391
     1.7595   1.7819   1.9031   1.9386   2.0648   2.1834   2.2561   2.2883
     2.5035   2.5366   2.5756   2.5876   2.7095   2.8550   2.8942   2.9860
     3.0953   3.1862   3.3685   3.4340   3.4514   3.8161   3.9504   4.2962
     4.4657   4.7372   4.7919   5.7665   6.3781   6.4261   6.7970   6.8443
     7.6489   7.7153   7.8598

          k =-0.0972-0.0187 0.0000 ( 14065 PWs)   bands (ev):

   -84.6983 -84.6880 -84.6777 -84.1808 -84.1706 -84.1604 -84.1420 -84.1310
   -84.1210 -73.2098 -73.1889 -73.1339 -50.9502 -50.9011 -50.8577 -50.8040
   -50.7755 -50.7428 -50.6812 -50.6454 -50.6022 -50.4186 -50.3920 -50.3815
   -50.3594 -50.3530 -50.3193 -50.2686 -50.2332 -50.2198 -50.1982 -50.1900
   -50.1784 -50.1588 -50.1552 -50.1518 -50.1225 -50.0976 -50.0643 -37.4377
   -37.3983 -37.3886 -37.3674 -37.3502 -37.3110 -37.3053 -37.2756 -37.2695
    -5.0319  -3.9603  -3.3434  -3.0488  -2.6520  -2.4575  -2.1995  -1.9429
    -1.6168  -1.5333  -1.4318  -1.3708  -1.2284  -0.9929  -0.8537  -0.7709
    -0.7110  -0.5310  -0.3710  -0.2409  -0.1357  -0.0904   0.0822   0.2366
     0.3627   0.4348   0.4860   0.5801   0.6543   0.6970   0.8148   0.8823
     0.9372   1.0428   1.1087   1.1845   1.2796   1.3592   1.4048   1.5137
     1.5748   1.7709   1.9088   1.9812   2.1515   2.2298   2.2603   2.3015
     2.3985   2.4650   2.5612   2.8019   2.8677   2.9912   3.0772   3.1742
     3.2380   3.2989   3.4080   3.4534   3.5527   3.7678   3.8627   4.1743
     4.2433   4.3485   4.6341   5.0692   6.1480   6.4498   7.1965   7.2812
     7.4889   7.7858   7.9437

          k =-0.0972 0.0187 0.0000 ( 14065 PWs)   bands (ev):

   -84.6982 -84.6881 -84.6776 -84.1808 -84.1706 -84.1604 -84.1420 -84.1309
   -84.1211 -73.2098 -73.1889 -73.1339 -50.9501 -50.9013 -50.8576 -50.8040
   -50.7757 -50.7427 -50.6811 -50.6456 -50.6021 -50.4185 -50.3920 -50.3816
   -50.3594 -50.3529 -50.3194 -50.2686 -50.2332 -50.2198 -50.1982 -50.1900
   -50.1783 -50.1588 -50.1553 -50.1518 -50.1224 -50.0976 -50.0643 -37.4377
   -37.3983 -37.3886 -37.3674 -37.3502 -37.3110 -37.3053 -37.2756 -37.2695
    -5.0319  -3.9603  -3.3434  -3.0488  -2.6520  -2.4576  -2.1995  -1.9428
    -1.6167  -1.5333  -1.4318  -1.3709  -1.2284  -0.9929  -0.8537  -0.7709
    -0.7110  -0.5311  -0.3710  -0.2409  -0.1357  -0.0904   0.0822   0.2366
     0.3627   0.4348   0.4860   0.5802   0.6543   0.6970   0.8148   0.8823
     0.9373   1.0428   1.1087   1.1845   1.2796   1.3593   1.4048   1.5137
     1.5748   1.7709   1.9087   1.9813   2.1514   2.2298   2.2603   2.3015
     2.3985   2.4650   2.5611   2.8019   2.8677   2.9912   3.0773   3.1742
     3.2380   3.2989   3.4080   3.4534   3.5527   3.7678   3.8627   4.1743
     4.2433   4.3485   4.6341   5.0692   6.1480   6.4498   7.1965   7.2812
     7.4889   7.7858   7.9437

          k =-0.0972-0.1683 0.0000 ( 14098 PWs)   bands (ev):

   -84.6981 -84.6883 -84.6776 -84.1808 -84.1706 -84.1604 -84.1421 -84.1308
   -84.1211 -73.2099 -73.1889 -73.1340 -50.9527 -50.8966 -50.8589 -50.8034
   -50.7772 -50.7424 -50.6797 -50.6502 -50.5993 -50.4222 -50.3868 -50.3853
   -50.3600 -50.3481 -50.3205 -50.2663 -50.2311 -50.2226 -50.1975 -50.1892
   -50.1811 -50.1612 -50.1559 -50.1516 -50.1247 -50.0957 -50.0623 -37.4380
   -37.3986 -37.3878 -37.3679 -37.3504 -37.3127 -37.3038 -37.2773 -37.2681
    -4.8405  -4.4478  -3.3103  -2.7000  -2.6111  -2.5066  -2.1598  -1.8891
    -1.7638  -1.6092  -1.4216  -1.2235  -1.1421  -0.9829  -0.9525  -0.7326
    -0.6684  -0.5798  -0.3674  -0.2328  -0.1844   0.0221   0.0357   0.3092
     0.3336   0.4498   0.4734   0.5689   0.7498   0.7644   0.8058   0.8151
     0.9675   1.0052   1.1515   1.1609   1.2236   1.2716   1.2790   1.5390
     1.7596   1.7820   1.9030   1.9386   2.0648   2.1835   2.2561   2.2882
     2.5034   2.5366   2.5757   2.5876   2.7095   2.8550   2.8942   2.9860
     3.0952   3.1863   3.3685   3.4339   3.4515   3.8162   3.9503   4.2962
     4.4656   4.7372   4.7919   5.7665   6.3781   6.4261   6.7970   6.8443
     7.6489   7.7153   7.8598

     the Fermi energy is     1.5109 ev

!    total energy              =   -2743.15316051 Ry
     Harris-Foulkes estimate   =   -2743.15315969 Ry
     estimated scf accuracy    <       0.00000084 Ry

     The total energy is the sum of the following terms:

     one-electron contribution =  -23836.68778639 Ry
     hartree contribution      =   11914.51461149 Ry
     xc contribution           =    -400.02929256 Ry
     ewald contribution        =    9579.13639065 Ry
     electric field correction =       0.00000007 Ry
     smearing contrib. (-TS)   =      -0.08708377 Ry

     total magnetization       =    13.32 Bohr mag/cell
     absolute magnetization    =    19.45 Bohr mag/cell

     convergence has been achieved in  35 iterations
 
 BEEF-vdW xc energy contributions
           1 :   -350.772276908795     
           2 :    319.974030802541     
           3 :   -267.433536694438     
           4 :    207.219213659654     
           5 :   -152.700429977915     
           6 :    111.942976199509     
           7 :   -86.1329312146477     
           8 :    71.1576894340451     
           9 :   -61.0043736122142     
          10 :    51.0188745943133     
          11 :   -39.5788099257232     
          12 :    27.7823390991566     
          13 :   -17.8359211221227     
          14 :    11.2953741444103     
          15 :   -8.15232429646892     
          16 :    7.06267774649695     
          17 :   -6.32948912137965     
          18 :    4.88658939752742     
          19 :   -2.70716869462564     
          20 :   0.507958879013131     
          21 :   0.918395560119791     
          22 :   -1.27054290826908     
          23 :   0.874472109761030     
          24 :  -0.397077926583393     
          25 :   0.387215310223155     
          26 :  -0.967901640193475     
          27 :    1.84128364063861     
          28 :   -2.55687219817429     
          29 :    2.82442643670606     
          30 :   -2.67234707021129     
          31 :   -31.2890169073923     
          32 :   -22.6093710934807     

     Forces acting on atoms (Ry/au):


     negative rho (up, down):  9.816E-02 1.035E-01
     atom    1 type  1   force =     0.00004421   -0.00752262   -0.00583873
     atom    2 type  1   force =    -0.00653213    0.00376710   -0.00579813
     atom    3 type  1   force =     0.00654032    0.00372068   -0.00583560
     atom    4 type  2   force =     0.00003205   -0.00001784    0.02470877
     atom    5 type  1   force =    -0.00001912   -0.00558800   -0.00663902
     atom    6 type  1   force =    -0.00483795    0.00278562   -0.00665908
     atom    7 type  1   force =     0.00484213    0.00281000   -0.00662917
     atom    8 type  2   force =    -0.00001244    0.00000316    0.00995331
     atom    9 type  1   force =    -0.00003806   -0.00047701    0.00061369
     atom   10 type  1   force =    -0.00042080    0.00021972    0.00058962
     atom   11 type  1   force =     0.00042100    0.00026376    0.00062398
     atom   12 type  2   force =    -0.00001921    0.00003542    0.00091037

     Total force =     0.034788     Total SCF correction =     0.003166


     entering subroutine stress ...


     negative rho (up, down):  9.816E-02 1.035E-01
          total   stress  (Ry/bohr**3)                   (kbar)     P=  -14.97
  -0.00013364   0.00000000  -0.00000003        -19.66      0.00     -0.00
   0.00000000  -0.00013362   0.00000001          0.00    -19.66      0.00
  -0.00000003   0.00000001  -0.00003808         -0.00      0.00     -5.60

 !ASE

     Writing output data file calc.save
 
     init_run     :     26.46s CPU     42.93s WALL (       1 calls)
     electrons    :   1940.60s CPU   3232.81s WALL (       1 calls)
     forces       :      3.56s CPU      4.39s WALL (       1 calls)
     stress       :      7.90s CPU      9.28s WALL (       1 calls)

     Called by init_run:
     wfcinit      :     24.53s CPU     40.30s WALL (       1 calls)
     potinit      :      1.04s CPU      1.59s WALL (       1 calls)

     Called by electrons:
     c_bands      :   1581.60s CPU   2611.31s WALL (      35 calls)
     sum_band     :    289.84s CPU    511.62s WALL (      35 calls)
     v_of_rho     :     30.03s CPU     48.88s WALL (      36 calls)
     newd         :      9.74s CPU     10.63s WALL (      36 calls)
     mix_rho      :      2.71s CPU      4.43s WALL (      35 calls)
     vdW_energy   :      1.57s CPU      1.57s WALL (      72 calls)
     vdW_ffts     :     32.51s CPU     56.62s WALL (     146 calls)
     vdW_v        :      5.93s CPU      9.48s WALL (      72 calls)

     Called by c_bands:
     init_us_2    :      1.30s CPU      1.47s WALL (    2920 calls)
     cegterg      :   1561.29s CPU   2585.67s WALL (    1400 calls)

     Called by *egterg:
     h_psi        :   1117.08s CPU   2021.42s WALL (    3910 calls)
     s_psi        :     19.02s CPU     19.12s WALL (    3910 calls)
     g_psi        :      0.86s CPU      0.87s WALL (    2470 calls)
     cdiaghg      :    259.57s CPU    314.01s WALL (    3870 calls)

     Called by h_psi:
     add_vuspsi   :     20.10s CPU     20.20s WALL (    3910 calls)

     General routines
     calbec       :     65.35s CPU     90.68s WALL (    5390 calls)
     fft          :     60.41s CPU    104.19s WALL (    5270 calls)
     ffts         :      0.42s CPU      0.73s WALL (     142 calls)
     fftw         :   1284.30s CPU   2379.71s WALL (  896038 calls)
     interpolate  :      2.06s CPU      3.51s WALL (     142 calls)
     davcio       :      0.00s CPU      0.02s WALL (      40 calls)
 
     Parallel routines
     fft_scatter  :   1287.74s CPU   2420.18s WALL (  901450 calls)
 
     PWSCF        : 32m59.61s CPU    54m51.46s WALL

 
   This run was terminated on:   3:17: 3  26Dec2018            

=------------------------------------------------------------------------------=
   JOB DONE.
=------------------------------------------------------------------------------=
Job  /afs/slac/g/suncat/bin/suncat-tsmpirun -x LD_LIBRARY_PATH -wdir /scratch/qe109653_EXMIP pw.x -in pw.inp

TID   HOST_NAME   COMMAND_LINE            STATUS            TERMINATION_TIME
===== ========== ================  =======================  ===================
00000 suncat0048 pw.x -in pw.inp   Done                     12/26/2018 03:17:03
00001 suncat0048 pw.x -in pw.inp   Done                     12/26/2018 03:17:03
00002 suncat0048 pw.x -in pw.inp   Done                     12/26/2018 03:17:03
00003 suncat0048 pw.x -in pw.inp   Done                     12/26/2018 03:17:03
00004 suncat0048 pw.x -in pw.inp   Done                     12/26/2018 03:17:03
00005 suncat0048 pw.x -in pw.inp   Done                     12/26/2018 03:17:03
00006 suncat0048 pw.x -in pw.inp   Done                     12/26/2018 03:17:03
00007 suncat0048 pw.x -in pw.inp   Done                     12/26/2018 03:17:03
00008 suncat0047 pw.x -in pw.inp   Done                     12/26/2018 03:17:03
00009 suncat0047 pw.x -in pw.inp   Done                     12/26/2018 03:17:03
00010 suncat0047 pw.x -in pw.inp   Done                     12/26/2018 03:17:03
00011 suncat0047 pw.x -in pw.inp   Done                     12/26/2018 03:17:03
00012 suncat0047 pw.x -in pw.inp   Done                     12/26/2018 03:17:03
00013 suncat0047 pw.x -in pw.inp   Done                     12/26/2018 03:17:03
00014 suncat0047 pw.x -in pw.inp   Done                     12/26/2018 03:17:03
00015 suncat0047 pw.x -in pw.inp   Done                     12/26/2018 03:17:03
00016 suncat0193 pw.x -in pw.inp   Done                     12/26/2018 03:17:03
00017 suncat0193 pw.x -in pw.inp   Done                     12/26/2018 03:17:03
00018 suncat0193 pw.x -in pw.inp   Done                     12/26/2018 03:17:03
00019 suncat0193 pw.x -in pw.inp   Done                     12/26/2018 03:17:03
00020 suncat0193 pw.x -in pw.inp   Done                     12/26/2018 03:17:03
00021 suncat0193 pw.x -in pw.inp   Done                     12/26/2018 03:17:03
00022 suncat0193 pw.x -in pw.inp   Done                     12/26/2018 03:17:03
00023 suncat0193 pw.x -in pw.inp   Done                     12/26/2018 03:17:03
00024 suncat0192 pw.x -in pw.inp   Done                     12/26/2018 03:17:03
00025 suncat0192 pw.x -in pw.inp   Done                     12/26/2018 03:17:03
00026 suncat0192 pw.x -in pw.inp   Done                     12/26/2018 03:17:03
00027 suncat0192 pw.x -in pw.inp   Done                     12/26/2018 03:17:03
00028 suncat0192 pw.x -in pw.inp   Done                     12/26/2018 03:17:03
00029 suncat0192 pw.x -in pw.inp   Done                     12/26/2018 03:17:03
00030 suncat0192 pw.x -in pw.inp   Done                     12/26/2018 03:17:03
00031 suncat0192 pw.x -in pw.inp   Done                     12/26/2018 03:17:03
00032 suncat0155 pw.x -in pw.inp   Done                     12/26/2018 03:17:03
00033 suncat0155 pw.x -in pw.inp   Done                     12/26/2018 03:17:03
00034 suncat0155 pw.x -in pw.inp   Done                     12/26/2018 03:17:03
00035 suncat0155 pw.x -in pw.inp   Done                     12/26/2018 03:17:03
00036 suncat0155 pw.x -in pw.inp   Done                     12/26/2018 03:17:03
00037 suncat0155 pw.x -in pw.inp   Done                     12/26/2018 03:17:03
00038 suncat0155 pw.x -in pw.inp   Done                     12/26/2018 03:17:03
00039 suncat0155 pw.x -in pw.inp   Done                     12/26/2018 03:17:03
00040 suncat0154 pw.x -in pw.inp   Done                     12/26/2018 03:17:03
00041 suncat0154 pw.x -in pw.inp   Done                     12/26/2018 03:17:03
00042 suncat0154 pw.x -in pw.inp   Done                     12/26/2018 03:17:03
00043 suncat0154 pw.x -in pw.inp   Done                     12/26/2018 03:17:03
00044 suncat0154 pw.x -in pw.inp   Done                     12/26/2018 03:17:03
00045 suncat0154 pw.x -in pw.inp   Done                     12/26/2018 03:17:03
00046 suncat0154 pw.x -in pw.inp   Done                     12/26/2018 03:17:03
00047 suncat0154 pw.x -in pw.inp   Done                     12/26/2018 03:17:03
00048 suncat0209 pw.x -in pw.inp   Done                     12/26/2018 03:17:03
00049 suncat0209 pw.x -in pw.inp   Done                     12/26/2018 03:17:03
00050 suncat0209 pw.x -in pw.inp   Done                     12/26/2018 03:17:03
00051 suncat0209 pw.x -in pw.inp   Done                     12/26/2018 03:17:03
00052 suncat0209 pw.x -in pw.inp   Done                     12/26/2018 03:17:03
00053 suncat0209 pw.x -in pw.inp   Done                     12/26/2018 03:17:03
00054 suncat0209 pw.x -in pw.inp   Done                     12/26/2018 03:17:03
00055 suncat0209 pw.x -in pw.inp   Done                     12/26/2018 03:17:03
00056 suncat0203 pw.x -in pw.inp   Done                     12/26/2018 03:17:03
00057 suncat0203 pw.x -in pw.inp   Done                     12/26/2018 03:17:03
00058 suncat0203 pw.x -in pw.inp   Done                     12/26/2018 03:17:03
00059 suncat0203 pw.x -in pw.inp   Done                     12/26/2018 03:17:03
00060 suncat0203 pw.x -in pw.inp   Done                     12/26/2018 03:17:03
00061 suncat0203 pw.x -in pw.inp   Done                     12/26/2018 03:17:03
00062 suncat0203 pw.x -in pw.inp   Done                     12/26/2018 03:17:03
00063 suncat0203 pw.x -in pw.inp   Done                     12/26/2018 03:17:03
