  python dir          : /u/if/mamunm/src/espresso
  espresso dir        : /nfs/slac/g/suncatfs/sw/espv18/espresso-dynpy-beef/bin
  pseudo dir          : /afs/slac.stanford.edu/u/if/mamunm/psp/gbrv1.5pbe
  ase-espresso py git : GITVERSION



     Program PWSCF v.5.1rc2 (svn rev. 11289) starts on  2Jan2019 at  4: 1: 3 

     This program is part of the open-source Quantum ESPRESSO suite
     for quantum simulation of materials; please cite
         "P. Giannozzi et al., J. Phys.:Condens. Matter 21 395502 (2009);
          URL http://www.quantum-espresso.org", 
     in publications or presentations arising from this work. More details at
     http://www.quantum-espresso.org/quote

     Parallel version (MPI), running on    64 processors
     R & G space division:  proc/nbgrp/npool/nimage =      64
     Reading input from pw.inp
     Message from routine read_cards :
     DEPRECATED: no units specified in CELL_PARAMETERS card

     Current dimensions of program PWSCF are:
     Max number of different atomic species (ntypx) = 10
     Max number of k-points (npk) =  40000
     Max angular momentum in pseudopotentials (lmaxx) =  3
     Presently stress not available with electric field


     **************************************************************************
     Initializing libbeef V0.1.1 with the BEEF-vdW functional.
     Citation: Wellendorff et al., PRB 85, 235149 (2012).
     **************************************************************************


     IMPORTANT: XC functional enforced from input :
     Exchange-correlation      = BEEF-VDW ( 1  4 27 13 2)
     Any further DFT definition will be discarded
     Please, verify this is what you really want


     Subspace diagonalization in iterative solution of the eigenvalue problem:
     a serial algorithm will be used

 
     Parallelization info
     --------------------
     sticks:   dense  smooth     PW     G-vecs:    dense   smooth      PW
     Min          40      16      4                 7450     1880     298
     Max          41      17      5                 7478     1908     329
     Sum        2563    1027    313               477767   121107   20401
 


     bravais-lattice index     =            0
     lattice parameter (alat)  =       1.8897  a.u.
     unit-cell volume          =    4014.5468 (a.u.)^3
     number of atoms/cell      =           12
     number of atomic types    =            2
     number of electrons       =       174.00
     number of Kohn-Sham states=          117
     kinetic-energy cutoff     =      36.7493  Ry
     charge density cutoff     =     367.4932  Ry
     convergence threshold     =      1.0E-06
     mixing beta               =       0.1000
     number of iterations used =           10  plain     mixing
     Exchange-correlation      = BEEF-VDW ( 1  4 27 13 2)
     nstep                     =           50


     celldm(1)=   1.889726  celldm(2)=   0.000000  celldm(3)=   0.000000
     celldm(4)=   0.000000  celldm(5)=   0.000000  celldm(6)=   0.000000

     crystal axes: (cart. coord. in units of alat)
               a(1) = (   5.312685   0.000000   0.000000 )  
               a(2) = (  -2.656343   4.600920   0.000000 )  
               a(3) = (   0.000000   0.000000  24.337789 )  

     reciprocal axes: (cart. coord. in units 2 pi/alat)
               b(1) = (  0.188229  0.108674  0.000000 )  
               b(2) = (  0.000000  0.217348  0.000000 )  
               b(3) = (  0.000000  0.000000  0.041088 )  


     PseudoPot. # 1 for V  read from file:
     /afs/slac.stanford.edu/u/if/mamunm/psp/gbrv1.5pbe/V.UPF
     MD5 check sum: 22b79981416ebb76fdaf5b1b8640f6fb
     Pseudo is Ultrasoft + core correction, Zval = 13.0
     Generated by new atomic code, or converted to UPF format
     Using radial grid of  853 points,  6 beta functions with: 
                l(1) =   0
                l(2) =   0
                l(3) =   1
                l(4) =   1
                l(5) =   2
                l(6) =   2
     Q(r) pseudized with  8 coefficients,  rinner =    1.100   1.100   1.100
                                                       1.100   1.100

     PseudoPot. # 2 for Cu read from file:
     /afs/slac.stanford.edu/u/if/mamunm/psp/gbrv1.5pbe/Cu.UPF
     MD5 check sum: 6e991ff952a84172a2a52a1c1e996048
     Pseudo is Ultrasoft + core correction, Zval = 19.0
     Generated by new atomic code, or converted to UPF format
     Using radial grid of  867 points,  6 beta functions with: 
                l(1) =   0
                l(2) =   0
                l(3) =   1
                l(4) =   1
                l(5) =   2
                l(6) =   2
     Q(r) pseudized with  8 coefficients,  rinner =    1.150   1.150   1.150
                                                       1.150   1.150

     vdW kernel table read from file vdW_kernel_table
     MD5 check sum: 095c7af220d748ca6e76c0b4c6cfb241

     atomic species   valence    mass     pseudopotential
        V1            13.00    50.94150     V ( 1.00)
        Cu1           19.00    63.54600     Cu( 1.00)

     No symmetry found



   Cartesian axes

     site n.     atom                  positions (alat units)
         1           V1  tau(   1) = (   0.0000000   0.0000000  10.0000000  )
         2           V1  tau(   2) = (  -1.3281713   2.3004602  10.0000000  )
         3           V1  tau(   3) = (   1.3281713   2.3004602  10.0000000  )
         4           Cu1 tau(   4) = (   2.6563426   0.0000000  10.0000000  )
         5           V1  tau(   5) = (   2.6563426   1.5336401  12.1688946  )
         6           V1  tau(   6) = (   1.3281713   3.8341003  12.1688946  )
         7           V1  tau(   7) = (  -1.3281713   3.8341003  12.1688946  )
         8           Cu1 tau(   8) = (   0.0000000   1.5336401  12.1688946  )
         9           V1  tau(   9) = (  -0.0000000   3.0672802  14.3377893  )
        10           V1  tau(  10) = (   1.3281713   0.7668201  14.3377893  )
        11           V1  tau(  11) = (   3.9845139   0.7668201  14.3377893  )
        12           Cu1 tau(  12) = (   2.6563426   3.0672802  14.3377893  )

     number of k points=    20  Fermi-Dirac smearing, width (Ry)=  0.0110
                       cart. coord. in units 2pi/alat
        k(    1) = (   0.0000000   0.0000000   0.0000000), wk =   0.0555556
        k(    2) = (   0.0000000   0.0362246   0.0000000), wk =   0.1111111
        k(    3) = (   0.0000000   0.0724493   0.0000000), wk =   0.1111111
        k(    4) = (   0.0000000  -0.1086739   0.0000000), wk =   0.0555556
        k(    5) = (   0.0313715   0.0181123   0.0000000), wk =   0.1111111
        k(    6) = (   0.0313715   0.0543370   0.0000000), wk =   0.1111111
        k(    7) = (   0.0313715   0.0905616   0.0000000), wk =   0.1111111
        k(    8) = (   0.0313715  -0.0905616   0.0000000), wk =   0.1111111
        k(    9) = (   0.0313715  -0.0543370   0.0000000), wk =   0.1111111
        k(   10) = (   0.0313715  -0.0181123   0.0000000), wk =   0.1111111
        k(   11) = (   0.0627429   0.0362246   0.0000000), wk =   0.1111111
        k(   12) = (   0.0627429   0.0724493   0.0000000), wk =   0.1111111
        k(   13) = (   0.0627429   0.1086739   0.0000000), wk =   0.1111111
        k(   14) = (   0.0627429  -0.0724493   0.0000000), wk =   0.1111111
        k(   15) = (   0.0627429  -0.0362246   0.0000000), wk =   0.1111111
        k(   16) = (   0.0627429   0.0000000   0.0000000), wk =   0.1111111
        k(   17) = (  -0.0941144  -0.0543370   0.0000000), wk =   0.0555556
        k(   18) = (  -0.0941144  -0.0181123   0.0000000), wk =   0.1111111
        k(   19) = (  -0.0941144   0.0181123   0.0000000), wk =   0.1111111
        k(   20) = (  -0.0941144  -0.1630109   0.0000000), wk =   0.0555556

     Dense  grid:   477767 G-vectors     FFT dimensions: (  64,  64, 288)

     Smooth grid:   121107 G-vectors     FFT dimensions: (  40,  40, 180)

     Largest allocated arrays     est. size (Mb)     dimensions
        Kohn-Sham Wavefunctions         0.45 Mb     (     254,  117)
        NL pseudopotentials             0.84 Mb     (     254,  216)
        Each V/rho on FFT grid          0.31 Mb     (   20480)
        Each G-vector array             0.06 Mb     (    7476)
        G-vector shells                 0.03 Mb     (    3758)
     Largest temporary arrays     est. size (Mb)     dimensions
        Auxiliary wavefunctions         1.81 Mb     (     254,  468)
        Each subspace H/S matrix        3.34 Mb     (     468,  468)
        Each <psi_i|beta_j> matrix      0.39 Mb     (     216,  117)
        Arrays for rho mixing           3.12 Mb     (   20480,   10)

     Check: negative/imaginary core charge=   -0.000001    0.000000

     Initial potential from superposition of free atoms
     Check: negative starting charge=   -0.007755

     starting charge  170.98895, renormalised to  174.00000

     negative rho (up, down):  7.892E-03 0.000E+00


     ************************************************************************
     *
     * You are using vdW-DF for exchange-correlation in this calculation.
     * Please cite the following three references that made this development
     * possible:
     *
     *   M. Dion, H. Rydberg, E. Schroder, D. C. Langreth, and
     *   B. I. Lundqvist, Phys. Rev. Lett. 92, 246401 (2004).
     *
     *   T. Thonhauser, V. R. Cooper, S. Li, A. Puzder, P. Hyldgaard, and
     *   D. C. Langreth, Phys. Rev. B 76, 125112 (2007).
     *
     *   G. Roman-Perez and J. M. Soler, Phys. Rev. Lett. 103, 096102 (2009).
     *
     *
     * If you are using vdW-DF2, please also cite:
     *
     *   K. Lee, E. D. Murray, L. Kong, B. I. Lundqvist, and
     *   D. C. Langreth, Phys. Rev. B 82, 081101(R) (2010).
     *
     *
     * If you are calculating the stress with vdW-DF, please also cite:
     *
     *   R. Sabatini, E. Kucukbenli, B. Kolb, T. Thonhauser, and
     *   S. de Gironcoli, J. Phys.: Condens. Matter 24, 424209 (2012).
     *
     ************************************************************************

     Carrying out vdW-DF run using the following parameters:

     Nqs =      20    Nr_points =    1024   r_max =   100.000
     q_mesh =
               0.00001000     0.04494208     0.09755937     0.15916263
               0.23128650     0.31572767     0.41458969     0.53033537
               0.66584808     0.82450364     1.01025438     1.22772762
               1.48234092     1.78043706     2.12944203     2.53805004
               3.01644009     3.57652955     4.23227104     5.00000000

     Gradients computed in reciprocal space

     ************************************************************************


 
     Adding external electric field

     Computed dipole along edir(3) : 
        Dipole               -0.0000 Ry au,         -0.0000 Debye
        Dipole field         -0.0000 Ry au
 
        Potential amp.        0.0000 Ry
        Total length         44.8420 bohr
 
     Starting wfc are  129 randomized atomic wfcs

     total cpu time spent up to now is       22.5 secs

     per-process dynamical memory:    33.8 Mb

     Self-consistent Calculation

     iteration #  1     ecut=    36.75 Ry     beta=0.10
     Davidson diagonalization with overlap
     ethr =  1.00E-02,  avg # of iterations =  2.7

     negative rho (up, down):  8.712E-03 0.000E+00
 
     Adding external electric field

     Computed dipole along edir(3) : 
        Dipole               -0.0002 Ry au,         -0.0005 Debye
        Dipole field         -0.0000 Ry au
 
        Potential amp.        0.0001 Ry
        Total length         44.8420 bohr
 

     total cpu time spent up to now is       83.8 secs

     total energy              =   -2526.01702532 Ry
     Harris-Foulkes estimate   =   -2527.83007531 Ry
     estimated scf accuracy    <      10.20095026 Ry

     iteration #  2     ecut=    36.75 Ry     beta=0.10
     Davidson diagonalization with overlap
     ethr =  5.86E-03,  avg # of iterations =  1.6

     negative rho (up, down):  9.004E-03 0.000E+00
 
     Adding external electric field

     Computed dipole along edir(3) : 
        Dipole                0.0006 Ry au,          0.0015 Debye
        Dipole field          0.0000 Ry au
 
        Potential amp.       -0.0002 Ry
        Total length         44.8420 bohr
 

     total cpu time spent up to now is      131.5 secs

     total energy              =   -2526.26628808 Ry
     Harris-Foulkes estimate   =   -2527.28186145 Ry
     estimated scf accuracy    <      11.37704239 Ry

     iteration #  3     ecut=    36.75 Ry     beta=0.10
     Davidson diagonalization with overlap
     ethr =  5.86E-03,  avg # of iterations =  1.2

     negative rho (up, down):  1.023E-02 0.000E+00
 
     Adding external electric field

     Computed dipole along edir(3) : 
        Dipole               -0.0147 Ry au,         -0.0374 Debye
        Dipole field         -0.0000 Ry au
 
        Potential amp.        0.0041 Ry
        Total length         44.8420 bohr
 

     total cpu time spent up to now is      179.5 secs

     total energy              =   -2526.22232380 Ry
     Harris-Foulkes estimate   =   -2526.74320614 Ry
     estimated scf accuracy    <       1.62397542 Ry

     iteration #  4     ecut=    36.75 Ry     beta=0.10
     Davidson diagonalization with overlap
     ethr =  9.33E-04,  avg # of iterations =  2.7

     negative rho (up, down):  9.912E-03 0.000E+00
 
     Adding external electric field

     Computed dipole along edir(3) : 
        Dipole                0.1610 Ry au,          0.4093 Debye
        Dipole field          0.0005 Ry au
 
        Potential amp.       -0.0452 Ry
        Total length         44.8420 bohr
 

     total cpu time spent up to now is      237.2 secs

     total energy              =   -2526.36114270 Ry
     Harris-Foulkes estimate   =   -2526.47399591 Ry
     estimated scf accuracy    <       0.66227016 Ry

     iteration #  5     ecut=    36.75 Ry     beta=0.10
     Davidson diagonalization with overlap
     ethr =  3.81E-04,  avg # of iterations =  3.4

     negative rho (up, down):  9.761E-03 0.000E+00
 
     Adding external electric field

     Computed dipole along edir(3) : 
        Dipole               -0.0570 Ry au,         -0.1448 Debye
        Dipole field         -0.0002 Ry au
 
        Potential amp.        0.0160 Ry
        Total length         44.8420 bohr
 

     total cpu time spent up to now is      289.3 secs

     total energy              =   -2526.42025539 Ry
     Harris-Foulkes estimate   =   -2526.50577898 Ry
     estimated scf accuracy    <       6.02127383 Ry

     iteration #  6     ecut=    36.75 Ry     beta=0.10
     Davidson diagonalization with overlap
     ethr =  3.81E-04,  avg # of iterations =  2.0

     negative rho (up, down):  1.040E-02 0.000E+00
 
     Adding external electric field

     Computed dipole along edir(3) : 
        Dipole                0.0015 Ry au,          0.0038 Debye
        Dipole field          0.0000 Ry au
 
        Potential amp.       -0.0004 Ry
        Total length         44.8420 bohr
 

     total cpu time spent up to now is      335.7 secs

     total energy              =   -2526.36800109 Ry
     Harris-Foulkes estimate   =   -2526.54193405 Ry
     estimated scf accuracy    <       1.49793799 Ry

     iteration #  7     ecut=    36.75 Ry     beta=0.10
     Davidson diagonalization with overlap
     ethr =  3.81E-04,  avg # of iterations =  2.0

     negative rho (up, down):  1.048E-02 0.000E+00
 
     Adding external electric field

     Computed dipole along edir(3) : 
        Dipole                0.0003 Ry au,          0.0007 Debye
        Dipole field          0.0000 Ry au
 
        Potential amp.       -0.0001 Ry
        Total length         44.8420 bohr
 

     total cpu time spent up to now is      386.9 secs

     total energy              =   -2526.39814692 Ry
     Harris-Foulkes estimate   =   -2526.41782539 Ry
     estimated scf accuracy    <       0.16349352 Ry

     iteration #  8     ecut=    36.75 Ry     beta=0.10
     Davidson diagonalization with overlap
     ethr =  9.40E-05,  avg # of iterations =  1.9

     negative rho (up, down):  1.055E-02 0.000E+00
 
     Adding external electric field

     Computed dipole along edir(3) : 
        Dipole               -0.0017 Ry au,         -0.0043 Debye
        Dipole field         -0.0000 Ry au
 
        Potential amp.        0.0005 Ry
        Total length         44.8420 bohr
 

     total cpu time spent up to now is      434.7 secs

     total energy              =   -2526.39309434 Ry
     Harris-Foulkes estimate   =   -2526.40517025 Ry
     estimated scf accuracy    <       0.04971964 Ry

     iteration #  9     ecut=    36.75 Ry     beta=0.10
     Davidson diagonalization with overlap
     ethr =  2.86E-05,  avg # of iterations =  3.9

     negative rho (up, down):  1.048E-02 0.000E+00
 
     Adding external electric field

     Computed dipole along edir(3) : 
        Dipole               -0.0004 Ry au,         -0.0010 Debye
        Dipole field         -0.0000 Ry au
 
        Potential amp.        0.0001 Ry
        Total length         44.8420 bohr
 

     total cpu time spent up to now is      493.9 secs

     total energy              =   -2526.39923583 Ry
     Harris-Foulkes estimate   =   -2526.40189874 Ry
     estimated scf accuracy    <       0.01647212 Ry

     iteration # 10     ecut=    36.75 Ry     beta=0.10
     Davidson diagonalization with overlap
     ethr =  9.47E-06,  avg # of iterations =  2.6

     negative rho (up, down):  1.047E-02 0.000E+00
 
     Adding external electric field

     Computed dipole along edir(3) : 
        Dipole                0.0010 Ry au,          0.0026 Debye
        Dipole field          0.0000 Ry au
 
        Potential amp.       -0.0003 Ry
        Total length         44.8420 bohr
 

     total cpu time spent up to now is      546.3 secs

     total energy              =   -2526.40262630 Ry
     Harris-Foulkes estimate   =   -2526.40191588 Ry
     estimated scf accuracy    <       0.01725556 Ry

     iteration # 11     ecut=    36.75 Ry     beta=0.10
     Davidson diagonalization with overlap
     ethr =  9.47E-06,  avg # of iterations =  1.6

     negative rho (up, down):  1.049E-02 0.000E+00
 
     Adding external electric field

     Computed dipole along edir(3) : 
        Dipole                0.0004 Ry au,          0.0010 Debye
        Dipole field          0.0000 Ry au
 
        Potential amp.       -0.0001 Ry
        Total length         44.8420 bohr
 

     total cpu time spent up to now is      597.3 secs

     total energy              =   -2526.40067617 Ry
     Harris-Foulkes estimate   =   -2526.40359006 Ry
     estimated scf accuracy    <       0.02312248 Ry

     iteration # 12     ecut=    36.75 Ry     beta=0.10
     Davidson diagonalization with overlap
     ethr =  9.47E-06,  avg # of iterations =  1.0

     negative rho (up, down):  1.052E-02 0.000E+00
 
     Adding external electric field

     Computed dipole along edir(3) : 
        Dipole               -0.0001 Ry au,         -0.0001 Debye
        Dipole field         -0.0000 Ry au
 
        Potential amp.        0.0000 Ry
        Total length         44.8420 bohr
 

     total cpu time spent up to now is      644.9 secs

     total energy              =   -2526.40089170 Ry
     Harris-Foulkes estimate   =   -2526.40160830 Ry
     estimated scf accuracy    <       0.00415196 Ry

     iteration # 13     ecut=    36.75 Ry     beta=0.10
     Davidson diagonalization with overlap
     ethr =  2.39E-06,  avg # of iterations =  3.5

     negative rho (up, down):  1.054E-02 0.000E+00
 
     Adding external electric field

     Computed dipole along edir(3) : 
        Dipole               -0.0007 Ry au,         -0.0019 Debye
        Dipole field         -0.0000 Ry au
 
        Potential amp.        0.0002 Ry
        Total length         44.8420 bohr
 

     total cpu time spent up to now is      702.4 secs

     total energy              =   -2526.40194429 Ry
     Harris-Foulkes estimate   =   -2526.40154002 Ry
     estimated scf accuracy    <       0.00085843 Ry

     iteration # 14     ecut=    36.75 Ry     beta=0.10
     Davidson diagonalization with overlap
     ethr =  4.93E-07,  avg # of iterations =  4.0

     negative rho (up, down):  1.047E-02 0.000E+00
 
     Adding external electric field

     Computed dipole along edir(3) : 
        Dipole               -0.0001 Ry au,         -0.0001 Debye
        Dipole field         -0.0000 Ry au
 
        Potential amp.        0.0000 Ry
        Total length         44.8420 bohr
 

     total cpu time spent up to now is      769.0 secs

     total energy              =   -2526.40058536 Ry
     Harris-Foulkes estimate   =   -2526.40241509 Ry
     estimated scf accuracy    <       0.00750047 Ry

     iteration # 15     ecut=    36.75 Ry     beta=0.10
     Davidson diagonalization with overlap
     ethr =  4.93E-07,  avg # of iterations =  3.0

     negative rho (up, down):  1.046E-02 0.000E+00
 
     Adding external electric field

     Computed dipole along edir(3) : 
        Dipole               -0.0000 Ry au,         -0.0001 Debye
        Dipole field         -0.0000 Ry au
 
        Potential amp.        0.0000 Ry
        Total length         44.8420 bohr
 

     total cpu time spent up to now is      832.4 secs

     total energy              =   -2526.40162745 Ry
     Harris-Foulkes estimate   =   -2526.40164869 Ry
     estimated scf accuracy    <       0.00053468 Ry

     iteration # 16     ecut=    36.75 Ry     beta=0.10
     Davidson diagonalization with overlap
     ethr =  3.07E-07,  avg # of iterations =  1.0

     negative rho (up, down):  1.045E-02 0.000E+00
 
     Adding external electric field

     Computed dipole along edir(3) : 
        Dipole               -0.0003 Ry au,         -0.0008 Debye
        Dipole field         -0.0000 Ry au
 
        Potential amp.        0.0001 Ry
        Total length         44.8420 bohr
 

     total cpu time spent up to now is      882.0 secs

     total energy              =   -2526.40164000 Ry
     Harris-Foulkes estimate   =   -2526.40164352 Ry
     estimated scf accuracy    <       0.00014880 Ry

     iteration # 17     ecut=    36.75 Ry     beta=0.10
     Davidson diagonalization with overlap
     ethr =  8.55E-08,  avg # of iterations =  2.1

     negative rho (up, down):  1.044E-02 0.000E+00
 
     Adding external electric field

     Computed dipole along edir(3) : 
        Dipole                0.0017 Ry au,          0.0043 Debye
        Dipole field          0.0000 Ry au
 
        Potential amp.       -0.0005 Ry
        Total length         44.8420 bohr
 

     total cpu time spent up to now is      934.7 secs

     total energy              =   -2526.40165772 Ry
     Harris-Foulkes estimate   =   -2526.40165769 Ry
     estimated scf accuracy    <       0.00006276 Ry

     iteration # 18     ecut=    36.75 Ry     beta=0.10
     Davidson diagonalization with overlap
     ethr =  3.61E-08,  avg # of iterations =  1.0

     negative rho (up, down):  1.043E-02 0.000E+00
 
     Adding external electric field

     Computed dipole along edir(3) : 
        Dipole               -0.0000 Ry au,         -0.0000 Debye
        Dipole field         -0.0000 Ry au
 
        Potential amp.        0.0000 Ry
        Total length         44.8420 bohr
 

     total cpu time spent up to now is      981.8 secs

     total energy              =   -2526.40165782 Ry
     Harris-Foulkes estimate   =   -2526.40166537 Ry
     estimated scf accuracy    <       0.00074661 Ry

     iteration # 19     ecut=    36.75 Ry     beta=0.10
     Davidson diagonalization with overlap
     ethr =  3.61E-08,  avg # of iterations =  1.6

     negative rho (up, down):  1.043E-02 0.000E+00
 
     Adding external electric field

     Computed dipole along edir(3) : 
        Dipole                0.0000 Ry au,          0.0001 Debye
        Dipole field          0.0000 Ry au
 
        Potential amp.       -0.0000 Ry
        Total length         44.8420 bohr
 

     total cpu time spent up to now is     1030.3 secs

     total energy              =   -2526.40167009 Ry
     Harris-Foulkes estimate   =   -2526.40166656 Ry
     estimated scf accuracy    <       0.00001664 Ry

     iteration # 20     ecut=    36.75 Ry     beta=0.10
     Davidson diagonalization with overlap
     ethr =  9.56E-09,  avg # of iterations =  2.0

     negative rho (up, down):  1.042E-02 0.000E+00
 
     Adding external electric field

     Computed dipole along edir(3) : 
        Dipole               -0.0000 Ry au,         -0.0000 Debye
        Dipole field         -0.0000 Ry au
 
        Potential amp.        0.0000 Ry
        Total length         44.8420 bohr
 

     total cpu time spent up to now is     1075.9 secs

     total energy              =   -2526.40167171 Ry
     Harris-Foulkes estimate   =   -2526.40167125 Ry
     estimated scf accuracy    <       0.00000980 Ry

     iteration # 21     ecut=    36.75 Ry     beta=0.10
     Davidson diagonalization with overlap
     ethr =  5.63E-09,  avg # of iterations =  1.6

     negative rho (up, down):  1.042E-02 0.000E+00
 
     Adding external electric field

     Computed dipole along edir(3) : 
        Dipole               -0.0000 Ry au,         -0.0001 Debye
        Dipole field         -0.0000 Ry au
 
        Potential amp.        0.0000 Ry
        Total length         44.8420 bohr
 

     total cpu time spent up to now is     1120.7 secs

     total energy              =   -2526.40167429 Ry
     Harris-Foulkes estimate   =   -2526.40167258 Ry
     estimated scf accuracy    <       0.00000450 Ry

     iteration # 22     ecut=    36.75 Ry     beta=0.10
     Davidson diagonalization with overlap
     ethr =  2.59E-09,  avg # of iterations =  2.3

     negative rho (up, down):  1.042E-02 0.000E+00
 
     Adding external electric field

     Computed dipole along edir(3) : 
        Dipole               -0.0000 Ry au,         -0.0001 Debye
        Dipole field         -0.0000 Ry au
 
        Potential amp.        0.0000 Ry
        Total length         44.8420 bohr
 

     total cpu time spent up to now is     1175.3 secs

     total energy              =   -2526.40167431 Ry
     Harris-Foulkes estimate   =   -2526.40167505 Ry
     estimated scf accuracy    <       0.00000814 Ry

     iteration # 23     ecut=    36.75 Ry     beta=0.10
     Davidson diagonalization with overlap
     ethr =  2.59E-09,  avg # of iterations =  1.6

     negative rho (up, down):  1.042E-02 0.000E+00
 
     Adding external electric field

     Computed dipole along edir(3) : 
        Dipole               -0.0000 Ry au,         -0.0001 Debye
        Dipole field         -0.0000 Ry au
 
        Potential amp.        0.0000 Ry
        Total length         44.8420 bohr
 

     total cpu time spent up to now is     1223.9 secs

     total energy              =   -2526.40167563 Ry
     Harris-Foulkes estimate   =   -2526.40167493 Ry
     estimated scf accuracy    <       0.00000265 Ry

     iteration # 24     ecut=    36.75 Ry     beta=0.10
     Davidson diagonalization with overlap
     ethr =  1.52E-09,  avg # of iterations =  2.0

     negative rho (up, down):  1.043E-02 0.000E+00

     negative rho (up, down):  1.043E-02 0.000E+00

     negative rho (up, down):  1.043E-02 0.000E+00

     negative rho (up, down):  1.043E-02 0.000E+00

     negative rho (up, down):  1.043E-02 0.000E+00

     negative rho (up, down):  1.043E-02 0.000E+00

     negative rho (up, down):  1.043E-02 0.000E+00

     negative rho (up, down):  1.043E-02 0.000E+00

     negative rho (up, down):  1.043E-02 0.000E+00

     negative rho (up, down):  1.043E-02 0.000E+00

     negative rho (up, down):  1.043E-02 0.000E+00

     negative rho (up, down):  1.043E-02 0.000E+00

     negative rho (up, down):  1.043E-02 0.000E+00

     negative rho (up, down):  1.043E-02 0.000E+00

     negative rho (up, down):  1.043E-02 0.000E+00

     negative rho (up, down):  1.043E-02 0.000E+00

     negative rho (up, down):  1.043E-02 0.000E+00

     negative rho (up, down):  1.043E-02 0.000E+00

     negative rho (up, down):  1.043E-02 0.000E+00

     negative rho (up, down):  1.043E-02 0.000E+00

     negative rho (up, down):  1.043E-02 0.000E+00

     negative rho (up, down):  1.043E-02 0.000E+00

     negative rho (up, down):  1.043E-02 0.000E+00

     negative rho (up, down):  1.043E-02 0.000E+00

     negative rho (up, down):  1.043E-02 0.000E+00

     negative rho (up, down):  1.043E-02 0.000E+00

     negative rho (up, down):  1.043E-02 0.000E+00

     negative rho (up, down):  1.043E-02 0.000E+00

     negative rho (up, down):  1.043E-02 0.000E+00

     negative rho (up, down):  1.043E-02 0.000E+00

     negative rho (up, down):  1.043E-02 0.000E+00

     negative rho (up, down):  1.043E-02 0.000E+00

     negative rho (up, down):  1.043E-02 0.000E+00

     negative rho (up, down):  1.043E-02 0.000E+00

     negative rho (up, down):  1.043E-02 0.000E+00
 
     Adding external electric field

     Computed dipole along edir(3) : 
        Dipole               -0.0004 Ry au,         -0.0011 Debye
        Dipole field         -0.0000 Ry au
 
        Potential amp.        0.0001 Ry
        Total length         44.8420 bohr
 

     total cpu time spent up to now is     1319.7 secs

     End of self-consistent calculation

          k = 0.0000 0.0000 0.0000 ( 15197 PWs)   bands (ev):

  -112.1243-111.9990-111.9990 -69.4914 -69.4914 -69.4853 -69.3932 -69.3932
   -69.3932 -69.3932 -69.3287 -69.3287 -63.2901 -63.2707 -63.1818 -63.1818
   -63.1767 -63.1766 -63.1664 -63.0857 -63.0856 -37.4058 -37.3132 -37.3058
   -37.2749 -37.2434 -37.2434 -37.2256 -37.2256 -37.1689 -37.1614 -37.1614
   -37.0886 -37.0886 -36.9961 -36.9961 -36.8995 -36.8591 -36.8162 -36.8161
   -36.8070 -36.7341 -36.6910 -36.6909 -36.6870 -36.6870 -36.6563 -36.6563
    -5.8267  -4.2619  -3.3351  -3.0548  -3.0548  -2.8588  -2.8588  -2.7964
    -2.6433  -2.6433  -2.6187  -2.6187  -2.5915  -2.3396  -2.2263  -2.2263
    -2.0653  -2.0449  -2.0449  -1.6953  -1.0480  -0.6122  -0.4221  -0.2486
    -0.2486  -0.0390  -0.0390   0.0725   0.0725   0.3042   0.3043   0.4637
     0.4637   0.5156   0.5769   0.8350   0.8350   1.2039   1.2039   1.2900
     1.3118   1.3835   1.6565   1.6565   1.7654   2.3967   2.5198   2.5198
     2.5868   2.5869   2.7570   2.7570   2.7880   2.7881   2.8309   2.9108
     2.9109   3.0913   3.0913   3.2445   3.2446   3.5355   3.5355   3.5896
     4.1084   4.1698   4.2804   4.3875   4.5059

          k = 0.0000 0.0362 0.0000 ( 15129 PWs)   bands (ev):

  -112.1243-111.9990-111.9990 -69.4914 -69.4914 -69.4853 -69.3932 -69.3932
   -69.3932 -69.3932 -69.3287 -69.3286 -63.2836 -63.2654 -63.1885 -63.1830
   -63.1818 -63.1766 -63.1606 -63.0906 -63.0856 -37.3780 -37.2854 -37.2809
   -37.2594 -37.2411 -37.2296 -37.2245 -37.2067 -37.1623 -37.1540 -37.1399
   -37.0957 -37.0937 -36.9973 -36.9845 -36.9117 -36.8845 -36.8247 -36.8100
   -36.8095 -36.7491 -36.7281 -36.7254 -36.7011 -36.6936 -36.6819 -36.6572
    -5.6085  -4.0632  -3.1981  -3.0097  -2.9807  -2.8549  -2.7869  -2.7742
    -2.5727  -2.5719  -2.5616  -2.5606  -2.5275  -2.2449  -2.2326  -2.1954
    -2.0667  -2.0265  -2.0264  -1.6268  -1.0000  -0.6524  -0.4673  -0.4104
    -0.3507  -0.1852  -0.0738  -0.0032   0.0914   0.1979   0.2405   0.4378
     0.4787   0.5840   0.7096   0.7578   0.9359   1.0651   1.0911   1.1706
     1.2005   1.3737   1.3970   1.4851   1.7443   1.9346   1.9502   2.1507
     2.3074   2.4781   2.5378   2.7254   2.7397   2.7912   2.8427   3.0024
     3.0241   3.0896   3.1773   3.2380   3.3855   3.4765   3.4975   3.5224
     3.6647   3.7922   4.0211   4.2843   4.4264

          k = 0.0000 0.0724 0.0000 ( 15077 PWs)   bands (ev):

  -112.1243-111.9990-111.9990 -69.4914 -69.4914 -69.4853 -69.3932 -69.3932
   -69.3932 -69.3932 -69.3287 -69.3286 -63.2661 -63.2521 -63.2061 -63.1970
   -63.1819 -63.1766 -63.1472 -63.1035 -63.0855 -37.3225 -37.2692 -37.2482
   -37.2174 -37.2019 -37.1970 -37.1898 -37.1625 -37.1362 -37.1121 -37.1047
   -37.1016 -37.0835 -36.9987 -36.9592 -36.9409 -36.9393 -36.8660 -36.8633
   -36.8282 -36.8223 -36.7804 -36.7724 -36.7340 -36.7161 -36.7042 -36.6595
    -4.9956  -3.6091  -3.2425  -2.8536  -2.8083  -2.7204  -2.6195  -2.6072
    -2.4726  -2.4624  -2.3947  -2.3870  -2.3650  -2.2427  -2.1815  -2.1114
    -2.0381  -1.9890  -1.8976  -1.6892  -1.1835  -0.8030  -0.7883  -0.5479
    -0.4468  -0.2024  -0.1834  -0.0325   0.0288   0.1115   0.1133   0.3308
     0.4209   0.4757   0.6454   0.7107   0.8009   0.8196   0.9352   1.0478
     1.1314   1.1802   1.2492   1.3394   1.3985   1.4070   1.5544   1.9464
     2.1115   2.1245   2.3421   2.4347   2.5754   2.6614   2.6750   2.7765
     2.8111   2.8803   2.9004   3.0314   3.1771   3.1829   3.3703   3.4966
     3.7134   3.9684   4.0378   4.4609   4.6693

          k = 0.0000-0.1087 0.0000 ( 15114 PWs)   bands (ev):

  -112.1243-111.9990-111.9990 -69.4914 -69.4914 -69.4853 -69.3932 -69.3932
   -69.3932 -69.3932 -69.3287 -69.3287 -63.2473 -63.2468 -63.2192 -63.2084
   -63.1819 -63.1766 -63.1357 -63.1148 -63.0854 -37.2884 -37.2808 -37.2487
   -37.1955 -37.1816 -37.1732 -37.1524 -37.1481 -37.1159 -37.0890 -37.0482
   -37.0447 -37.0207 -37.0017 -36.9883 -36.9826 -36.9618 -36.9439 -36.8977
   -36.8976 -36.8745 -36.7851 -36.7705 -36.7599 -36.7220 -36.7086 -36.6606
    -4.2467  -4.0117  -3.0711  -2.7472  -2.7054  -2.6529  -2.4918  -2.4466
    -2.4297  -2.3501  -2.2982  -2.2969  -2.2145  -2.1934  -2.1658  -2.0893
    -2.0839  -1.9694  -1.9577  -1.6014  -1.5283  -1.0172  -1.0100  -0.5975
    -0.3742  -0.1840  -0.0852  -0.0386   0.0012   0.0605   0.0890   0.2311
     0.2559   0.4359   0.5060   0.5548   0.6359   0.6837   0.8097   0.9208
     1.0089   1.1523   1.3248   1.3364   1.4073   1.5157   1.5281   1.5509
     1.9415   2.2027   2.2965   2.4074   2.4492   2.5149   2.5355   2.5836
     2.6446   2.6694   2.7512   2.7829   3.0591   3.3562   3.4312   3.4776
     3.7768   3.8650   3.9881   4.5228   5.1369

          k = 0.0314 0.0181 0.0000 ( 15129 PWs)   bands (ev):

  -112.1243-111.9990-111.9990 -69.4914 -69.4914 -69.4853 -69.3932 -69.3932
   -69.3932 -69.3932 -69.3287 -69.3286 -63.2836 -63.2654 -63.1884 -63.1830
   -63.1818 -63.1767 -63.1606 -63.0905 -63.0856 -37.3780 -37.2854 -37.2809
   -37.2594 -37.2410 -37.2296 -37.2245 -37.2067 -37.1623 -37.1541 -37.1398
   -37.0956 -37.0937 -36.9973 -36.9845 -36.9117 -36.8845 -36.8247 -36.8100
   -36.8095 -36.7491 -36.7281 -36.7254 -36.7011 -36.6936 -36.6819 -36.6572
    -5.6085  -4.0632  -3.1981  -3.0097  -2.9807  -2.8549  -2.7869  -2.7742
    -2.5727  -2.5719  -2.5616  -2.5606  -2.5275  -2.2449  -2.2326  -2.1954
    -2.0667  -2.0265  -2.0264  -1.6268  -1.0000  -0.6524  -0.4673  -0.4104
    -0.3507  -0.1852  -0.0739  -0.0032   0.0915   0.1979   0.2405   0.4378
     0.4787   0.5840   0.7096   0.7578   0.9359   1.0651   1.0911   1.1706
     1.2005   1.3737   1.3970   1.4851   1.7442   1.9346   1.9502   2.1507
     2.3074   2.4781   2.5378   2.7255   2.7396   2.7913   2.8426   3.0025
     3.0241   3.0896   3.1773   3.2380   3.3855   3.4766   3.4975   3.5224
     3.6647   3.7922   4.0211   4.2844   4.4264

          k = 0.0314 0.0543 0.0000 ( 15080 PWs)   bands (ev):

  -112.1243-111.9990-111.9990 -69.4914 -69.4914 -69.4853 -69.3932 -69.3932
   -69.3932 -69.3932 -69.3287 -69.3286 -63.2715 -63.2558 -63.1979 -63.1964
   -63.1801 -63.1780 -63.1511 -63.0991 -63.0859 -37.3347 -37.2507 -37.2502
   -37.2286 -37.2273 -37.2251 -37.1962 -37.1659 -37.1519 -37.1423 -37.1027
   -37.1003 -37.0933 -37.0039 -36.9583 -36.9374 -36.9273 -36.8515 -36.8326
   -36.8075 -36.7944 -36.7732 -36.7608 -36.7368 -36.7091 -36.6950 -36.6689
    -5.1913  -3.7108  -3.1012  -2.9346  -2.8637  -2.7726  -2.7693  -2.6118
    -2.4914  -2.4884  -2.4458  -2.4400  -2.4126  -2.2429  -2.1918  -2.0927
    -2.0519  -2.0094  -1.9622  -1.5998  -1.1091  -0.8527  -0.6153  -0.5718
    -0.3343  -0.2539  -0.1258  -0.0991  -0.0075   0.1114   0.2470   0.2796
     0.4368   0.4920   0.6384   0.7801   0.8836   0.9732   1.0323   1.0807
     1.1594   1.1680   1.2960   1.3918   1.4565   1.4584   1.5370   2.0672
     2.1358   2.1842   2.3432   2.4586   2.6022   2.7057   2.7737   2.7912
     2.8267   3.0187   3.1147   3.2482   3.2963   3.3671   3.3842   3.4864
     3.6288   3.6516   3.8577   4.0611   5.0320

          k = 0.0314 0.0906 0.0000 ( 15102 PWs)   bands (ev):

  -112.1243-111.9990-111.9990 -69.4914 -69.4914 -69.4853 -69.3932 -69.3932
   -69.3932 -69.3932 -69.3287 -69.3287 -63.2516 -63.2425 -63.2163 -63.2107
   -63.1811 -63.1784 -63.1366 -63.1126 -63.0863 -37.2868 -37.2582 -37.2355
   -37.1971 -37.1897 -37.1714 -37.1590 -37.1350 -37.1202 -37.1190 -37.0958
   -37.0565 -37.0343 -37.0079 -36.9987 -36.9864 -36.9228 -36.9075 -36.9024
   -36.8727 -36.8350 -36.7963 -36.7753 -36.7603 -36.7232 -36.7187 -36.6765
    -4.4489  -3.5962  -3.1627  -2.7817  -2.7282  -2.6587  -2.5652  -2.4448
    -2.4059  -2.3866  -2.3385  -2.3298  -2.2494  -2.1916  -2.1556  -2.1015
    -2.0220  -1.9676  -1.8917  -1.7145  -1.3204  -1.1614  -0.7972  -0.5886
    -0.4266  -0.2986  -0.1832  -0.0859  -0.0277  -0.0035   0.0732   0.1465
     0.2392   0.4301   0.5265   0.6329   0.7001   0.7313   0.8107   0.8750
     1.0597   1.1177   1.2988   1.3281   1.4142   1.5610   1.6048   1.6603
     1.9779   2.1687   2.2217   2.3445   2.4196   2.5545   2.6232   2.6643
     2.7404   2.7897   2.8513   2.9807   3.1399   3.2226   3.3046   3.4617
     3.5442   3.7161   3.8138   4.2562   4.8821

          k = 0.0314-0.0906 0.0000 ( 15102 PWs)   bands (ev):

  -112.1243-111.9990-111.9990 -69.4914 -69.4914 -69.4853 -69.3932 -69.3932
   -69.3932 -69.3932 -69.3287 -69.3287 -63.2516 -63.2425 -63.2163 -63.2107
   -63.1811 -63.1784 -63.1366 -63.1126 -63.0863 -37.2868 -37.2582 -37.2355
   -37.1971 -37.1897 -37.1714 -37.1590 -37.1350 -37.1202 -37.1190 -37.0958
   -37.0565 -37.0343 -37.0079 -36.9987 -36.9864 -36.9228 -36.9075 -36.9024
   -36.8727 -36.8350 -36.7963 -36.7753 -36.7603 -36.7232 -36.7187 -36.6765
    -4.4489  -3.5962  -3.1627  -2.7817  -2.7282  -2.6587  -2.5652  -2.4448
    -2.4059  -2.3866  -2.3385  -2.3298  -2.2494  -2.1916  -2.1556  -2.1015
    -2.0220  -1.9676  -1.8917  -1.7145  -1.3204  -1.1614  -0.7972  -0.5886
    -0.4266  -0.2986  -0.1832  -0.0859  -0.0277  -0.0035   0.0732   0.1465
     0.2392   0.4301   0.5265   0.6329   0.7001   0.7313   0.8107   0.8750
     1.0597   1.1177   1.2988   1.3281   1.4142   1.5610   1.6048   1.6603
     1.9779   2.1687   2.2217   2.3445   2.4196   2.5545   2.6232   2.6643
     2.7404   2.7897   2.8513   2.9807   3.1399   3.2226   3.3046   3.4617
     3.5442   3.7161   3.8137   4.2562   4.8821

          k = 0.0314-0.0543 0.0000 ( 15080 PWs)   bands (ev):

  -112.1243-111.9990-111.9990 -69.4914 -69.4914 -69.4853 -69.3932 -69.3932
   -69.3932 -69.3932 -69.3287 -69.3286 -63.2715 -63.2558 -63.1979 -63.1964
   -63.1801 -63.1781 -63.1511 -63.0991 -63.0859 -37.3347 -37.2507 -37.2502
   -37.2286 -37.2273 -37.2251 -37.1962 -37.1659 -37.1519 -37.1423 -37.1027
   -37.1003 -37.0932 -37.0039 -36.9583 -36.9374 -36.9273 -36.8515 -36.8326
   -36.8075 -36.7944 -36.7732 -36.7608 -36.7368 -36.7091 -36.6950 -36.6689
    -5.1913  -3.7108  -3.1012  -2.9346  -2.8637  -2.7726  -2.7693  -2.6118
    -2.4914  -2.4884  -2.4458  -2.4400  -2.4126  -2.2429  -2.1918  -2.0927
    -2.0519  -2.0094  -1.9622  -1.5998  -1.1091  -0.8527  -0.6153  -0.5718
    -0.3343  -0.2539  -0.1258  -0.0991  -0.0075   0.1114   0.2470   0.2796
     0.4368   0.4920   0.6384   0.7801   0.8836   0.9733   1.0323   1.0807
     1.1594   1.1680   1.2960   1.3918   1.4565   1.4584   1.5370   2.0672
     2.1358   2.1842   2.3432   2.4586   2.6022   2.7057   2.7737   2.7912
     2.8267   3.0187   3.1147   3.2482   3.2963   3.3671   3.3842   3.4864
     3.6288   3.6516   3.8577   4.0611   5.0320

          k = 0.0314-0.0181 0.0000 ( 15129 PWs)   bands (ev):

  -112.1243-111.9990-111.9990 -69.4914 -69.4914 -69.4853 -69.3932 -69.3932
   -69.3932 -69.3932 -69.3287 -69.3286 -63.2836 -63.2654 -63.1884 -63.1830
   -63.1818 -63.1767 -63.1606 -63.0905 -63.0856 -37.3780 -37.2854 -37.2809
   -37.2594 -37.2410 -37.2296 -37.2245 -37.2067 -37.1623 -37.1541 -37.1398
   -37.0956 -37.0937 -36.9973 -36.9845 -36.9117 -36.8845 -36.8247 -36.8100
   -36.8095 -36.7491 -36.7281 -36.7254 -36.7011 -36.6936 -36.6819 -36.6572
    -5.6085  -4.0632  -3.1981  -3.0097  -2.9807  -2.8550  -2.7869  -2.7742
    -2.5727  -2.5719  -2.5616  -2.5606  -2.5275  -2.2449  -2.2326  -2.1954
    -2.0667  -2.0265  -2.0264  -1.6268  -1.0000  -0.6524  -0.4673  -0.4104
    -0.3507  -0.1852  -0.0739  -0.0032   0.0915   0.1979   0.2405   0.4378
     0.4787   0.5840   0.7096   0.7578   0.9359   1.0651   1.0911   1.1706
     1.2005   1.3737   1.3970   1.4851   1.7442   1.9346   1.9502   2.1507
     2.3074   2.4781   2.5378   2.7255   2.7396   2.7913   2.8426   3.0025
     3.0241   3.0896   3.1773   3.2380   3.3856   3.4766   3.4975   3.5224
     3.6647   3.7922   4.0211   4.2844   4.4264

          k = 0.0627 0.0362 0.0000 ( 15077 PWs)   bands (ev):

  -112.1243-111.9990-111.9990 -69.4914 -69.4914 -69.4853 -69.3932 -69.3932
   -69.3932 -69.3932 -69.3287 -69.3286 -63.2662 -63.2521 -63.2061 -63.1969
   -63.1819 -63.1767 -63.1472 -63.1034 -63.0855 -37.3225 -37.2692 -37.2483
   -37.2175 -37.2019 -37.1970 -37.1899 -37.1625 -37.1361 -37.1121 -37.1046
   -37.1017 -37.0834 -36.9986 -36.9593 -36.9409 -36.9393 -36.8660 -36.8633
   -36.8281 -36.8223 -36.7804 -36.7723 -36.7340 -36.7162 -36.7043 -36.6595
    -4.9956  -3.6091  -3.2425  -2.8536  -2.8083  -2.7204  -2.6195  -2.6072
    -2.4726  -2.4624  -2.3947  -2.3870  -2.3650  -2.2427  -2.1815  -2.1114
    -2.0381  -1.9890  -1.8976  -1.6892  -1.1835  -0.8030  -0.7883  -0.5479
    -0.4468  -0.2025  -0.1834  -0.0325   0.0288   0.1114   0.1133   0.3308
     0.4209   0.4757   0.6453   0.7107   0.8010   0.8196   0.9352   1.0479
     1.1314   1.1802   1.2492   1.3394   1.3985   1.4070   1.5544   1.9464
     2.1115   2.1245   2.3421   2.4347   2.5755   2.6615   2.6749   2.7764
     2.8111   2.8803   2.9003   3.0314   3.1772   3.1828   3.3702   3.4966
     3.7134   3.9684   4.0379   4.4609   4.6693

          k = 0.0627 0.0724 0.0000 ( 15102 PWs)   bands (ev):

  -112.1243-111.9990-111.9990 -69.4914 -69.4914 -69.4853 -69.3932 -69.3932
   -69.3932 -69.3932 -69.3287 -69.3287 -63.2516 -63.2425 -63.2162 -63.2107
   -63.1811 -63.1785 -63.1366 -63.1125 -63.0863 -37.2868 -37.2582 -37.2355
   -37.1971 -37.1897 -37.1714 -37.1590 -37.1351 -37.1201 -37.1189 -37.0958
   -37.0565 -37.0343 -37.0079 -36.9987 -36.9864 -36.9228 -36.9075 -36.9024
   -36.8727 -36.8350 -36.7963 -36.7752 -36.7603 -36.7232 -36.7187 -36.6765
    -4.4489  -3.5962  -3.1627  -2.7817  -2.7282  -2.6587  -2.5652  -2.4448
    -2.4059  -2.3866  -2.3385  -2.3298  -2.2494  -2.1916  -2.1556  -2.1015
    -2.0220  -1.9676  -1.8918  -1.7145  -1.3204  -1.1614  -0.7972  -0.5886
    -0.4266  -0.2986  -0.1832  -0.0859  -0.0277  -0.0035   0.0732   0.1465
     0.2392   0.4301   0.5265   0.6329   0.7001   0.7313   0.8107   0.8750
     1.0597   1.1177   1.2989   1.3281   1.4142   1.5610   1.6049   1.6603
     1.9778   2.1687   2.2217   2.3445   2.4196   2.5545   2.6233   2.6642
     2.7404   2.7897   2.8512   2.9807   3.1399   3.2225   3.3046   3.4617
     3.5442   3.7161   3.8137   4.2562   4.8821

          k = 0.0627 0.1087 0.0000 ( 15024 PWs)   bands (ev):

  -112.1243-111.9990-111.9990 -69.4914 -69.4914 -69.4853 -69.3932 -69.3932
   -69.3932 -69.3932 -69.3287 -69.3286 -63.2346 -63.2345 -63.2274 -63.2236
   -63.1805 -63.1805 -63.1238 -63.1238 -63.0873 -37.2554 -37.2553 -37.2228
   -37.1966 -37.1607 -37.1607 -37.1190 -37.1190 -37.1154 -37.0944 -37.0944
   -37.0930 -37.0643 -37.0643 -36.9643 -36.9596 -36.9466 -36.9466 -36.8910
   -36.8462 -36.8331 -36.8331 -36.7787 -36.7786 -36.7299 -36.7299 -36.6946
    -3.8506  -3.5585  -3.5585  -2.6968  -2.6968  -2.5044  -2.4725  -2.4161
    -2.4161  -2.3256  -2.3209  -2.3209  -2.2531  -2.2531  -2.1521  -2.0258
    -1.9750  -1.9750  -1.7364  -1.7364  -1.5625  -0.9788  -0.7833  -0.7833
    -0.5793  -0.5793  -0.3013  -0.0445  -0.0445   0.1031   0.1585   0.1653
     0.1653   0.3200   0.3953   0.3953   0.6808   0.7164   0.7164   0.8653
     0.8653   1.1179   1.2385   1.3665   1.3665   1.6707   1.7918   1.7918
     1.9613   2.3099   2.3099   2.3126   2.5087   2.5087   2.5423   2.5423
     2.6687   2.7312   2.8895   2.8895   3.0566   3.0566   3.2178   3.3507
     3.3508   3.5702   3.8805   4.3762   4.3762

          k = 0.0627-0.0724 0.0000 ( 15102 PWs)   bands (ev):

  -112.1243-111.9990-111.9990 -69.4914 -69.4914 -69.4853 -69.3932 -69.3932
   -69.3932 -69.3932 -69.3287 -69.3287 -63.2516 -63.2425 -63.2162 -63.2107
   -63.1811 -63.1785 -63.1366 -63.1125 -63.0864 -37.2868 -37.2582 -37.2355
   -37.1971 -37.1897 -37.1714 -37.1590 -37.1351 -37.1201 -37.1189 -37.0958
   -37.0565 -37.0343 -37.0079 -36.9987 -36.9864 -36.9228 -36.9075 -36.9024
   -36.8727 -36.8350 -36.7963 -36.7752 -36.7603 -36.7232 -36.7188 -36.6765
    -4.4489  -3.5962  -3.1627  -2.7817  -2.7282  -2.6587  -2.5652  -2.4448
    -2.4059  -2.3866  -2.3385  -2.3298  -2.2494  -2.1916  -2.1556  -2.1015
    -2.0220  -1.9676  -1.8918  -1.7145  -1.3204  -1.1614  -0.7972  -0.5886
    -0.4266  -0.2986  -0.1832  -0.0859  -0.0277  -0.0035   0.0732   0.1465
     0.2392   0.4301   0.5265   0.6329   0.7001   0.7313   0.8107   0.8750
     1.0597   1.1177   1.2989   1.3281   1.4142   1.5610   1.6049   1.6603
     1.9778   2.1687   2.2217   2.3445   2.4196   2.5545   2.6233   2.6642
     2.7404   2.7897   2.8512   2.9807   3.1399   3.2225   3.3046   3.4617
     3.5442   3.7161   3.8137   4.2562   4.8821

          k = 0.0627-0.0362 0.0000 ( 15077 PWs)   bands (ev):

  -112.1243-111.9990-111.9990 -69.4914 -69.4914 -69.4853 -69.3932 -69.3932
   -69.3932 -69.3932 -69.3287 -69.3286 -63.2662 -63.2521 -63.2060 -63.1969
   -63.1819 -63.1767 -63.1472 -63.1034 -63.0855 -37.3225 -37.2692 -37.2483
   -37.2175 -37.2019 -37.1970 -37.1899 -37.1625 -37.1361 -37.1121 -37.1046
   -37.1017 -37.0834 -36.9986 -36.9593 -36.9409 -36.9393 -36.8660 -36.8633
   -36.8281 -36.8223 -36.7804 -36.7723 -36.7340 -36.7162 -36.7043 -36.6595
    -4.9956  -3.6091  -3.2425  -2.8536  -2.8083  -2.7204  -2.6195  -2.6072
    -2.4726  -2.4624  -2.3947  -2.3870  -2.3650  -2.2427  -2.1815  -2.1114
    -2.0381  -1.9890  -1.8976  -1.6892  -1.1835  -0.8030  -0.7883  -0.5479
    -0.4468  -0.2025  -0.1834  -0.0325   0.0288   0.1114   0.1133   0.3308
     0.4209   0.4757   0.6453   0.7107   0.8010   0.8196   0.9352   1.0479
     1.1314   1.1802   1.2492   1.3394   1.3985   1.4070   1.5544   1.9464
     2.1115   2.1245   2.3421   2.4347   2.5755   2.6615   2.6749   2.7764
     2.8111   2.8803   2.9003   3.0314   3.1772   3.1828   3.3702   3.4966
     3.7135   3.9684   4.0379   4.4609   4.6693

          k = 0.0627 0.0000 0.0000 ( 15080 PWs)   bands (ev):

  -112.1243-111.9990-111.9990 -69.4914 -69.4914 -69.4853 -69.3932 -69.3932
   -69.3932 -69.3932 -69.3287 -69.3286 -63.2715 -63.2558 -63.1979 -63.1964
   -63.1801 -63.1781 -63.1511 -63.0991 -63.0859 -37.3347 -37.2507 -37.2502
   -37.2286 -37.2273 -37.2251 -37.1963 -37.1658 -37.1519 -37.1424 -37.1027
   -37.1003 -37.0932 -37.0038 -36.9583 -36.9374 -36.9273 -36.8515 -36.8326
   -36.8075 -36.7944 -36.7732 -36.7608 -36.7368 -36.7091 -36.6950 -36.6689
    -5.1913  -3.7108  -3.1012  -2.9346  -2.8637  -2.7726  -2.7693  -2.6118
    -2.4914  -2.4884  -2.4458  -2.4400  -2.4126  -2.2429  -2.1918  -2.0927
    -2.0519  -2.0094  -1.9622  -1.5998  -1.1091  -0.8527  -0.6153  -0.5718
    -0.3344  -0.2539  -0.1258  -0.0991  -0.0075   0.1114   0.2470   0.2796
     0.4368   0.4919   0.6384   0.7801   0.8836   0.9733   1.0323   1.0807
     1.1594   1.1680   1.2960   1.3918   1.4565   1.4584   1.5370   2.0672
     2.1358   2.1842   2.3432   2.4586   2.6022   2.7057   2.7737   2.7911
     2.8267   3.0187   3.1147   3.2482   3.2963   3.3671   3.3842   3.4864
     3.6288   3.6516   3.8577   4.0611   5.0320

          k =-0.0941-0.0543 0.0000 ( 15114 PWs)   bands (ev):

  -112.1243-111.9990-111.9990 -69.4914 -69.4914 -69.4853 -69.3932 -69.3932
   -69.3932 -69.3932 -69.3287 -69.3287 -63.2473 -63.2468 -63.2191 -63.2083
   -63.1819 -63.1767 -63.1357 -63.1148 -63.0855 -37.2884 -37.2808 -37.2487
   -37.1955 -37.1817 -37.1732 -37.1525 -37.1482 -37.1158 -37.0889 -37.0482
   -37.0448 -37.0207 -37.0017 -36.9884 -36.9826 -36.9617 -36.9438 -36.8977
   -36.8976 -36.8744 -36.7852 -36.7705 -36.7599 -36.7221 -36.7087 -36.6607
    -4.2467  -4.0117  -3.0711  -2.7472  -2.7054  -2.6529  -2.4918  -2.4466
    -2.4297  -2.3501  -2.2982  -2.2968  -2.2145  -2.1934  -2.1658  -2.0893
    -2.0839  -1.9694  -1.9577  -1.6014  -1.5283  -1.0173  -1.0100  -0.5975
    -0.3743  -0.1840  -0.0852  -0.0386   0.0012   0.0605   0.0890   0.2311
     0.2559   0.4359   0.5060   0.5548   0.6360   0.6837   0.8097   0.9209
     1.0089   1.1523   1.3248   1.3364   1.4073   1.5157   1.5281   1.5510
     1.9415   2.2027   2.2964   2.4074   2.4493   2.5150   2.5355   2.5836
     2.6447   2.6694   2.7511   2.7829   3.0590   3.3562   3.4312   3.4776
     3.7768   3.8650   3.9881   4.5228   5.1369

          k =-0.0941-0.0181 0.0000 ( 15102 PWs)   bands (ev):

  -112.1243-111.9990-111.9990 -69.4914 -69.4914 -69.4853 -69.3932 -69.3932
   -69.3932 -69.3932 -69.3287 -69.3287 -63.2516 -63.2425 -63.2162 -63.2106
   -63.1811 -63.1785 -63.1366 -63.1125 -63.0864 -37.2868 -37.2582 -37.2355
   -37.1971 -37.1897 -37.1715 -37.1590 -37.1351 -37.1202 -37.1189 -37.0958
   -37.0565 -37.0343 -37.0078 -36.9987 -36.9864 -36.9228 -36.9075 -36.9024
   -36.8727 -36.8350 -36.7963 -36.7753 -36.7603 -36.7232 -36.7188 -36.6765
    -4.4489  -3.5962  -3.1627  -2.7817  -2.7282  -2.6587  -2.5652  -2.4448
    -2.4059  -2.3866  -2.3385  -2.3298  -2.2494  -2.1916  -2.1556  -2.1015
    -2.0220  -1.9676  -1.8918  -1.7145  -1.3204  -1.1614  -0.7972  -0.5886
    -0.4266  -0.2986  -0.1832  -0.0859  -0.0277  -0.0035   0.0732   0.1465
     0.2392   0.4301   0.5265   0.6329   0.7002   0.7313   0.8107   0.8750
     1.0597   1.1177   1.2989   1.3282   1.4142   1.5610   1.6049   1.6603
     1.9779   2.1687   2.2217   2.3445   2.4196   2.5545   2.6232   2.6643
     2.7404   2.7897   2.8512   2.9807   3.1399   3.2226   3.3046   3.4617
     3.5442   3.7161   3.8137   4.2562   4.8821

          k =-0.0941 0.0181 0.0000 ( 15102 PWs)   bands (ev):

  -112.1243-111.9990-111.9990 -69.4914 -69.4914 -69.4853 -69.3932 -69.3932
   -69.3932 -69.3932 -69.3287 -69.3287 -63.2516 -63.2425 -63.2162 -63.2106
   -63.1811 -63.1785 -63.1366 -63.1125 -63.0864 -37.2868 -37.2582 -37.2355
   -37.1971 -37.1897 -37.1715 -37.1590 -37.1351 -37.1201 -37.1189 -37.0958
   -37.0565 -37.0343 -37.0078 -36.9987 -36.9864 -36.9228 -36.9075 -36.9024
   -36.8727 -36.8350 -36.7963 -36.7753 -36.7603 -36.7232 -36.7188 -36.6765
    -4.4489  -3.5962  -3.1627  -2.7817  -2.7282  -2.6587  -2.5652  -2.4448
    -2.4059  -2.3866  -2.3385  -2.3298  -2.2494  -2.1916  -2.1556  -2.1015
    -2.0220  -1.9676  -1.8918  -1.7145  -1.3204  -1.1614  -0.7972  -0.5886
    -0.4266  -0.2986  -0.1832  -0.0859  -0.0277  -0.0035   0.0732   0.1465
     0.2392   0.4301   0.5265   0.6329   0.7002   0.7313   0.8107   0.8750
     1.0597   1.1177   1.2989   1.3282   1.4142   1.5610   1.6049   1.6603
     1.9779   2.1687   2.2217   2.3445   2.4196   2.5545   2.6232   2.6643
     2.7404   2.7897   2.8512   2.9807   3.1399   3.2226   3.3046   3.4617
     3.5442   3.7161   3.8137   4.2562   4.8821

          k =-0.0941-0.1630 0.0000 ( 15114 PWs)   bands (ev):

  -112.1243-111.9990-111.9990 -69.4914 -69.4914 -69.4853 -69.3932 -69.3932
   -69.3932 -69.3932 -69.3287 -69.3287 -63.2473 -63.2469 -63.2191 -63.2082
   -63.1820 -63.1767 -63.1357 -63.1148 -63.0855 -37.2884 -37.2808 -37.2487
   -37.1955 -37.1817 -37.1732 -37.1525 -37.1482 -37.1157 -37.0889 -37.0482
   -37.0448 -37.0206 -37.0017 -36.9884 -36.9826 -36.9617 -36.9438 -36.8977
   -36.8976 -36.8744 -36.7852 -36.7705 -36.7599 -36.7221 -36.7087 -36.6607
    -4.2467  -4.0117  -3.0711  -2.7472  -2.7054  -2.6529  -2.4918  -2.4466
    -2.4297  -2.3501  -2.2982  -2.2968  -2.2145  -2.1934  -2.1658  -2.0893
    -2.0839  -1.9694  -1.9577  -1.6014  -1.5283  -1.0173  -1.0100  -0.5975
    -0.3743  -0.1840  -0.0852  -0.0386   0.0012   0.0605   0.0890   0.2310
     0.2559   0.4359   0.5060   0.5548   0.6360   0.6837   0.8097   0.9209
     1.0089   1.1524   1.3248   1.3364   1.4074   1.5157   1.5281   1.5510
     1.9415   2.2027   2.2964   2.4074   2.4493   2.5150   2.5355   2.5835
     2.6447   2.6694   2.7511   2.7828   3.0590   3.3561   3.4313   3.4776
     3.7768   3.8650   3.9881   4.5228   5.1369

     the Fermi energy is     0.9790 ev

!    total energy              =   -2526.40167757 Ry
     Harris-Foulkes estimate   =   -2526.40167577 Ry
     estimated scf accuracy    <       0.00000056 Ry

     The total energy is the sum of the following terms:

     one-electron contribution =  -19792.18343640 Ry
     hartree contribution      =    9889.91992914 Ry
     xc contribution           =    -303.07793215 Ry
     ewald contribution        =    7679.05737598 Ry
     electric field correction =       0.00000000 Ry
     smearing contrib. (-TS)   =      -0.11761415 Ry

     convergence has been achieved in  24 iterations
 
 BEEF-vdW xc energy contributions
           1 :   -264.211518041074     
           2 :    238.225354291315     
           3 :   -194.792020602958     
           4 :    146.828552389394     
           5 :   -105.872401543744     
           6 :    77.7851217036246     
           7 :   -61.8567695900382     
           8 :    53.1337416919645     
           9 :   -46.1573349331364     
          10 :    37.8945627988883     
          11 :   -28.5409662935139     
          12 :    20.2780974189603     
          13 :   -15.1719325251557     
          14 :    13.6243542827389     
          15 :   -14.2119038472939     
          16 :    14.7639391238132     
          17 :   -13.7983301794147     
          18 :    11.3253400558796     
          19 :   -8.57405615353485     
          20 :    6.95524038406643     
          21 :   -7.04679225903487     
          22 :    8.27286518779999     
          23 :   -9.40453608729058     
          24 :    9.44244368197229     
          25 :   -8.24913619286434     
          26 :    6.54138870607079     
          27 :   -5.32323731262147     
          28 :    5.19142317602564     
          29 :   -5.98069081877969     
          30 :    6.94374773237297     
          31 :   -24.7638758830551     
          32 :   -17.5518012380894     

     Forces acting on atoms (Ry/au):


     negative rho (up, down):  1.043E-02 0.000E+00
     atom    1 type  1   force =     0.00000347    0.00801107    0.01516305
     atom    2 type  1   force =     0.00693746   -0.00400537    0.01518693
     atom    3 type  1   force =    -0.00693571   -0.00400822    0.01517570
     atom    4 type  2   force =     0.00001411   -0.00001289   -0.00808201
     atom    5 type  1   force =     0.00000282   -0.00000440    0.00001924
     atom    6 type  1   force =     0.00000157    0.00000027    0.00001888
     atom    7 type  1   force =     0.00000617    0.00000202    0.00001967
     atom    8 type  2   force =    -0.00003097    0.00001211   -0.00011332
     atom    9 type  1   force =     0.00000328   -0.00800614   -0.01513385
     atom   10 type  1   force =    -0.00692942    0.00400292   -0.01513746
     atom   11 type  1   force =     0.00693088    0.00399978   -0.01514889
     atom   12 type  2   force =    -0.00000367    0.00000886    0.00803205

     Total force =     0.043509     Total SCF correction =     0.001001


     entering subroutine stress ...


     negative rho (up, down):  1.043E-02 0.000E+00
          total   stress  (Ry/bohr**3)                   (kbar)     P=  -19.48
  -0.00014600  -0.00000000  -0.00000000        -21.48     -0.00     -0.00
  -0.00000000  -0.00014602   0.00000001         -0.00    -21.48      0.00
  -0.00000000   0.00000001  -0.00010519         -0.00      0.00    -15.47

 !ASE

     Writing output data file calc.save
 
     init_run     :     12.30s CPU     21.95s WALL (       1 calls)
     electrons    :    852.66s CPU   1297.41s WALL (       1 calls)
     forces       :      2.20s CPU      2.76s WALL (       1 calls)
     stress       :      4.89s CPU      5.91s WALL (       1 calls)

     Called by init_run:
     wfcinit      :     10.79s CPU     19.65s WALL (       1 calls)
     potinit      :      0.78s CPU      1.44s WALL (       1 calls)

     Called by electrons:
     c_bands      :    672.79s CPU   1017.47s WALL (      24 calls)
     sum_band     :    123.35s CPU    197.39s WALL (      24 calls)
     v_of_rho     :     21.32s CPU     32.27s WALL (      25 calls)
     newd         :      4.70s CPU      4.97s WALL (      25 calls)
     mix_rho      :      1.08s CPU      1.68s WALL (      24 calls)
     vdW_energy   :      1.32s CPU      1.32s WALL (      61 calls)
     vdW_ffts     :     34.25s CPU     52.72s WALL (     124 calls)
     vdW_v        :      5.85s CPU      8.71s WALL (      61 calls)

     Called by c_bands:
     init_us_2    :      0.49s CPU      0.49s WALL (    1020 calls)
     cegterg      :    663.64s CPU   1005.59s WALL (     480 calls)

     Called by *egterg:
     h_psi        :    508.40s CPU    826.68s WALL (    1544 calls)
     s_psi        :      6.34s CPU      6.38s WALL (    1544 calls)
     g_psi        :      0.35s CPU      0.34s WALL (    1044 calls)
     cdiaghg      :     72.40s CPU     76.25s WALL (    1524 calls)

     Called by h_psi:
     add_vuspsi   :      6.66s CPU      6.75s WALL (    1544 calls)

     General routines
     calbec       :     24.03s CPU     31.61s WALL (    2064 calls)
     fft          :     51.73s CPU     79.81s WALL (    3753 calls)
     ffts         :      0.23s CPU      0.34s WALL (      49 calls)
     fftw         :    588.51s CPU    970.91s WALL (  304244 calls)
     interpolate  :      0.86s CPU      1.41s WALL (      49 calls)
     davcio       :      0.00s CPU      0.01s WALL (      20 calls)
 
     Parallel routines
     fft_scatter  :    620.19s CPU   1027.09s WALL (  308046 calls)
 
     PWSCF        : 14m33.14s CPU    22m 9.70s WALL

 
   This run was terminated on:   4:23:13   2Jan2019            

=------------------------------------------------------------------------------=
   JOB DONE.
=------------------------------------------------------------------------------=
Job  /afs/slac/g/suncat/bin/suncat-tsmpirun -x LD_LIBRARY_PATH -wdir /scratch/qe649298_YoFJB pw.x -in pw.inp

TID   HOST_NAME   COMMAND_LINE            STATUS            TERMINATION_TIME
===== ========== ================  =======================  ===================
00000 suncat0259 pw.x -in pw.inp   Done                     01/02/2019 04:23:13
00001 suncat0259 pw.x -in pw.inp   Done                     01/02/2019 04:23:13
00002 suncat0259 pw.x -in pw.inp   Done                     01/02/2019 04:23:13
00003 suncat0259 pw.x -in pw.inp   Done                     01/02/2019 04:23:13
00004 suncat0259 pw.x -in pw.inp   Done                     01/02/2019 04:23:13
00005 suncat0259 pw.x -in pw.inp   Done                     01/02/2019 04:23:13
00006 suncat0259 pw.x -in pw.inp   Done                     01/02/2019 04:23:13
00007 suncat0259 pw.x -in pw.inp   Done                     01/02/2019 04:23:13
00008 suncat0256 pw.x -in pw.inp   Done                     01/02/2019 04:23:13
00009 suncat0256 pw.x -in pw.inp   Done                     01/02/2019 04:23:13
00010 suncat0256 pw.x -in pw.inp   Done                     01/02/2019 04:23:13
00011 suncat0256 pw.x -in pw.inp   Done                     01/02/2019 04:23:13
00012 suncat0256 pw.x -in pw.inp   Done                     01/02/2019 04:23:13
00013 suncat0256 pw.x -in pw.inp   Done                     01/02/2019 04:23:13
00014 suncat0256 pw.x -in pw.inp   Done                     01/02/2019 04:23:13
00015 suncat0256 pw.x -in pw.inp   Done                     01/02/2019 04:23:13
00016 suncat0255 pw.x -in pw.inp   Done                     01/02/2019 04:23:13
00017 suncat0255 pw.x -in pw.inp   Done                     01/02/2019 04:23:13
00018 suncat0255 pw.x -in pw.inp   Done                     01/02/2019 04:23:13
00019 suncat0255 pw.x -in pw.inp   Done                     01/02/2019 04:23:13
00020 suncat0255 pw.x -in pw.inp   Done                     01/02/2019 04:23:13
00021 suncat0255 pw.x -in pw.inp   Done                     01/02/2019 04:23:13
00022 suncat0255 pw.x -in pw.inp   Done                     01/02/2019 04:23:13
00023 suncat0255 pw.x -in pw.inp   Done                     01/02/2019 04:23:13
00024 suncat0232 pw.x -in pw.inp   Done                     01/02/2019 04:23:13
00025 suncat0232 pw.x -in pw.inp   Done                     01/02/2019 04:23:13
00026 suncat0232 pw.x -in pw.inp   Done                     01/02/2019 04:23:13
00027 suncat0232 pw.x -in pw.inp   Done                     01/02/2019 04:23:13
00028 suncat0232 pw.x -in pw.inp   Done                     01/02/2019 04:23:13
00029 suncat0232 pw.x -in pw.inp   Done                     01/02/2019 04:23:13
00030 suncat0232 pw.x -in pw.inp   Done                     01/02/2019 04:23:13
00031 suncat0232 pw.x -in pw.inp   Done                     01/02/2019 04:23:13
00032 suncat0220 pw.x -in pw.inp   Done                     01/02/2019 04:23:13
00033 suncat0220 pw.x -in pw.inp   Done                     01/02/2019 04:23:13
00034 suncat0220 pw.x -in pw.inp   Done                     01/02/2019 04:23:13
00035 suncat0220 pw.x -in pw.inp   Done                     01/02/2019 04:23:13
00036 suncat0220 pw.x -in pw.inp   Done                     01/02/2019 04:23:13
00037 suncat0220 pw.x -in pw.inp   Done                     01/02/2019 04:23:13
00038 suncat0220 pw.x -in pw.inp   Done                     01/02/2019 04:23:13
00039 suncat0220 pw.x -in pw.inp   Done                     01/02/2019 04:23:13
00040 suncat0219 pw.x -in pw.inp   Done                     01/02/2019 04:23:13
00041 suncat0219 pw.x -in pw.inp   Done                     01/02/2019 04:23:13
00042 suncat0219 pw.x -in pw.inp   Done                     01/02/2019 04:23:13
00043 suncat0219 pw.x -in pw.inp   Done                     01/02/2019 04:23:13
00044 suncat0219 pw.x -in pw.inp   Done                     01/02/2019 04:23:13
00045 suncat0219 pw.x -in pw.inp   Done                     01/02/2019 04:23:13
00046 suncat0219 pw.x -in pw.inp   Done                     01/02/2019 04:23:13
00047 suncat0219 pw.x -in pw.inp   Done                     01/02/2019 04:23:13
00048 suncat0201 pw.x -in pw.inp   Done                     01/02/2019 04:23:13
00049 suncat0201 pw.x -in pw.inp   Done                     01/02/2019 04:23:13
00050 suncat0201 pw.x -in pw.inp   Done                     01/02/2019 04:23:13
00051 suncat0201 pw.x -in pw.inp   Done                     01/02/2019 04:23:13
00052 suncat0201 pw.x -in pw.inp   Done                     01/02/2019 04:23:13
00053 suncat0201 pw.x -in pw.inp   Done                     01/02/2019 04:23:13
00054 suncat0201 pw.x -in pw.inp   Done                     01/02/2019 04:23:13
00055 suncat0201 pw.x -in pw.inp   Done                     01/02/2019 04:23:13
00056 suncat0200 pw.x -in pw.inp   Done                     01/02/2019 04:23:13
00057 suncat0200 pw.x -in pw.inp   Done                     01/02/2019 04:23:13
00058 suncat0200 pw.x -in pw.inp   Done                     01/02/2019 04:23:13
00059 suncat0200 pw.x -in pw.inp   Done                     01/02/2019 04:23:13
00060 suncat0200 pw.x -in pw.inp   Done                     01/02/2019 04:23:13
00061 suncat0200 pw.x -in pw.inp   Done                     01/02/2019 04:23:13
00062 suncat0200 pw.x -in pw.inp   Done                     01/02/2019 04:23:13
00063 suncat0200 pw.x -in pw.inp   Done                     01/02/2019 04:23:13

     Program PWSCF v.5.1rc2 (svn rev. 11289) starts on  2Jan2019 at  4:23:19 

     This program is part of the open-source Quantum ESPRESSO suite
     for quantum simulation of materials; please cite
         "P. Giannozzi et al., J. Phys.:Condens. Matter 21 395502 (2009);
          URL http://www.quantum-espresso.org", 
     in publications or presentations arising from this work. More details at
     http://www.quantum-espresso.org/quote

     Parallel version (MPI), running on    64 processors
     R & G space division:  proc/nbgrp/npool/nimage =      64
     Reading input from pw.inp
     Message from routine read_cards :
     DEPRECATED: no units specified in CELL_PARAMETERS card

     Current dimensions of program PWSCF are:
     Max number of different atomic species (ntypx) = 10
     Max number of k-points (npk) =  40000
     Max angular momentum in pseudopotentials (lmaxx) =  3
     Presently stress not available with electric field


     **************************************************************************
     Initializing libbeef V0.1.1 with the BEEF-vdW functional.
     Citation: Wellendorff et al., PRB 85, 235149 (2012).
     **************************************************************************


     IMPORTANT: XC functional enforced from input :
     Exchange-correlation      = BEEF-VDW ( 1  4 27 13 2)
     Any further DFT definition will be discarded
     Please, verify this is what you really want


     Subspace diagonalization in iterative solution of the eigenvalue problem:
     a serial algorithm will be used

 
     Parallelization info
     --------------------
     sticks:   dense  smooth     PW     G-vecs:    dense   smooth      PW
     Min          40      16      4                 7450     1880     298
     Max          41      17      5                 7478     1908     329
     Sum        2563    1027    313               477767   121107   20401
 


     bravais-lattice index     =            0
     lattice parameter (alat)  =       1.8897  a.u.
     unit-cell volume          =    4014.5468 (a.u.)^3
     number of atoms/cell      =           12
     number of atomic types    =            2
     number of electrons       =       174.00
     number of Kohn-Sham states=          117
     kinetic-energy cutoff     =      36.7493  Ry
     charge density cutoff     =     367.4932  Ry
     convergence threshold     =      1.0E-06
     mixing beta               =       0.1000
     number of iterations used =           10  plain     mixing
     Exchange-correlation      = BEEF-VDW ( 1  4 27 13 2)
     nstep                     =           50


     celldm(1)=   1.889726  celldm(2)=   0.000000  celldm(3)=   0.000000
     celldm(4)=   0.000000  celldm(5)=   0.000000  celldm(6)=   0.000000

     crystal axes: (cart. coord. in units of alat)
               a(1) = (   5.312685   0.000000   0.000000 )  
               a(2) = (  -2.656343   4.600920   0.000000 )  
               a(3) = (   0.000000   0.000000  24.337789 )  

     reciprocal axes: (cart. coord. in units 2 pi/alat)
               b(1) = (  0.188229  0.108674  0.000000 )  
               b(2) = (  0.000000  0.217348  0.000000 )  
               b(3) = (  0.000000  0.000000  0.041088 )  


     PseudoPot. # 1 for V  read from file:
     /afs/slac.stanford.edu/u/if/mamunm/psp/gbrv1.5pbe/V.UPF
     MD5 check sum: 22b79981416ebb76fdaf5b1b8640f6fb
     Pseudo is Ultrasoft + core correction, Zval = 13.0
     Generated by new atomic code, or converted to UPF format
     Using radial grid of  853 points,  6 beta functions with: 
                l(1) =   0
                l(2) =   0
                l(3) =   1
                l(4) =   1
                l(5) =   2
                l(6) =   2
     Q(r) pseudized with  8 coefficients,  rinner =    1.100   1.100   1.100
                                                       1.100   1.100

     PseudoPot. # 2 for Cu read from file:
     /afs/slac.stanford.edu/u/if/mamunm/psp/gbrv1.5pbe/Cu.UPF
     MD5 check sum: 6e991ff952a84172a2a52a1c1e996048
     Pseudo is Ultrasoft + core correction, Zval = 19.0
     Generated by new atomic code, or converted to UPF format
     Using radial grid of  867 points,  6 beta functions with: 
                l(1) =   0
                l(2) =   0
                l(3) =   1
                l(4) =   1
                l(5) =   2
                l(6) =   2
     Q(r) pseudized with  8 coefficients,  rinner =    1.150   1.150   1.150
                                                       1.150   1.150

     vdW kernel table read from file vdW_kernel_table
     MD5 check sum: 095c7af220d748ca6e76c0b4c6cfb241

     atomic species   valence    mass     pseudopotential
        V1            13.00    50.94150     V ( 1.00)
        Cu1           19.00    63.54600     Cu( 1.00)

     No symmetry found



   Cartesian axes

     site n.     atom                  positions (alat units)
         1           V1  tau(   1) = (   0.0000000   0.0000000  10.0000000  )
         2           V1  tau(   2) = (  -1.3281713   2.3004602  10.0000000  )
         3           V1  tau(   3) = (   1.3281713   2.3004602  10.0000000  )
         4           Cu1 tau(   4) = (   2.6563426   0.0000000  10.0000000  )
         5           V1  tau(   5) = (   2.6563426   1.5336401  12.1688946  )
         6           V1  tau(   6) = (   1.3281713   3.8341003  12.1688946  )
         7           V1  tau(   7) = (  -1.3281713   3.8341003  12.1688946  )
         8           Cu1 tau(   8) = (   0.0000000   1.5336401  12.1688946  )
         9           V1  tau(   9) = (   0.0000084   3.0466956  14.2988786  )
        10           V1  tau(  10) = (   1.3103550   0.7771120  14.2988693  )
        11           V1  tau(  11) = (   4.0023339   0.7771039  14.2988399  )
        12           Cu1 tau(  12) = (   2.6563331   3.0673030  14.3584405  )

     number of k points=    20  Fermi-Dirac smearing, width (Ry)=  0.0110
                       cart. coord. in units 2pi/alat
        k(    1) = (   0.0000000   0.0000000   0.0000000), wk =   0.0555556
        k(    2) = (   0.0000000   0.0362246   0.0000000), wk =   0.1111111
        k(    3) = (   0.0000000   0.0724493   0.0000000), wk =   0.1111111
        k(    4) = (   0.0000000  -0.1086739   0.0000000), wk =   0.0555556
        k(    5) = (   0.0313715   0.0181123   0.0000000), wk =   0.1111111
        k(    6) = (   0.0313715   0.0543370   0.0000000), wk =   0.1111111
        k(    7) = (   0.0313715   0.0905616   0.0000000), wk =   0.1111111
        k(    8) = (   0.0313715  -0.0905616   0.0000000), wk =   0.1111111
        k(    9) = (   0.0313715  -0.0543370   0.0000000), wk =   0.1111111
        k(   10) = (   0.0313715  -0.0181123   0.0000000), wk =   0.1111111
        k(   11) = (   0.0627429   0.0362246   0.0000000), wk =   0.1111111
        k(   12) = (   0.0627429   0.0724493   0.0000000), wk =   0.1111111
        k(   13) = (   0.0627429   0.1086739   0.0000000), wk =   0.1111111
        k(   14) = (   0.0627429  -0.0724493   0.0000000), wk =   0.1111111
        k(   15) = (   0.0627429  -0.0362246   0.0000000), wk =   0.1111111
        k(   16) = (   0.0627429   0.0000000   0.0000000), wk =   0.1111111
        k(   17) = (  -0.0941144  -0.0543370   0.0000000), wk =   0.0555556
        k(   18) = (  -0.0941144  -0.0181123   0.0000000), wk =   0.1111111
        k(   19) = (  -0.0941144   0.0181123   0.0000000), wk =   0.1111111
        k(   20) = (  -0.0941144  -0.1630109   0.0000000), wk =   0.0555556

     Dense  grid:   477767 G-vectors     FFT dimensions: (  64,  64, 288)

     Smooth grid:   121107 G-vectors     FFT dimensions: (  40,  40, 180)

     Largest allocated arrays     est. size (Mb)     dimensions
        Kohn-Sham Wavefunctions         0.45 Mb     (     254,  117)
        NL pseudopotentials             0.84 Mb     (     254,  216)
        Each V/rho on FFT grid          0.31 Mb     (   20480)
        Each G-vector array             0.06 Mb     (    7476)
        G-vector shells                 0.03 Mb     (    3758)
     Largest temporary arrays     est. size (Mb)     dimensions
        Auxiliary wavefunctions         1.81 Mb     (     254,  468)
        Each subspace H/S matrix        3.34 Mb     (     468,  468)
        Each <psi_i|beta_j> matrix      0.39 Mb     (     216,  117)
        Arrays for rho mixing           3.12 Mb     (   20480,   10)

     Check: negative/imaginary core charge=   -0.000001    0.000000

     Initial potential from superposition of free atoms
     Check: negative starting charge=   -0.008018

     starting charge  170.98895, renormalised to  174.00000

     negative rho (up, down):  8.159E-03 0.000E+00


     ************************************************************************
     *
     * You are using vdW-DF for exchange-correlation in this calculation.
     * Please cite the following three references that made this development
     * possible:
     *
     *   M. Dion, H. Rydberg, E. Schroder, D. C. Langreth, and
     *   B. I. Lundqvist, Phys. Rev. Lett. 92, 246401 (2004).
     *
     *   T. Thonhauser, V. R. Cooper, S. Li, A. Puzder, P. Hyldgaard, and
     *   D. C. Langreth, Phys. Rev. B 76, 125112 (2007).
     *
     *   G. Roman-Perez and J. M. Soler, Phys. Rev. Lett. 103, 096102 (2009).
     *
     *
     * If you are using vdW-DF2, please also cite:
     *
     *   K. Lee, E. D. Murray, L. Kong, B. I. Lundqvist, and
     *   D. C. Langreth, Phys. Rev. B 82, 081101(R) (2010).
     *
     *
     * If you are calculating the stress with vdW-DF, please also cite:
     *
     *   R. Sabatini, E. Kucukbenli, B. Kolb, T. Thonhauser, and
     *   S. de Gironcoli, J. Phys.: Condens. Matter 24, 424209 (2012).
     *
     ************************************************************************

     Carrying out vdW-DF run using the following parameters:

     Nqs =      20    Nr_points =    1024   r_max =   100.000
     q_mesh =
               0.00001000     0.04494208     0.09755937     0.15916263
               0.23128650     0.31572767     0.41458969     0.53033537
               0.66584808     0.82450364     1.01025438     1.22772762
               1.48234092     1.78043706     2.12944203     2.53805004
               3.01644009     3.57652955     4.23227104     5.00000000

     Gradients computed in reciprocal space

     ************************************************************************


 
     Adding external electric field

     Computed dipole along edir(3) : 
        Dipole                0.0769 Ry au,          0.1955 Debye
        Dipole field          0.0002 Ry au
 
        Potential amp.       -0.0216 Ry
        Total length         44.8420 bohr
 
     Starting wfc are  129 randomized atomic wfcs

     total cpu time spent up to now is       22.5 secs

     per-process dynamical memory:    33.8 Mb

     Self-consistent Calculation

     iteration #  1     ecut=    36.75 Ry     beta=0.10
     Davidson diagonalization with overlap
     ethr =  1.00E-02,  avg # of iterations =  2.9

     negative rho (up, down):  8.905E-03 0.000E+00
 
     Adding external electric field

     Computed dipole along edir(3) : 
        Dipole               -0.5371 Ry au,         -1.3651 Debye
        Dipole field         -0.0017 Ry au
 
        Potential amp.        0.1508 Ry
        Total length         44.8420 bohr
 

     total cpu time spent up to now is       85.6 secs

     total energy              =   -2526.02044703 Ry
     Harris-Foulkes estimate   =   -2527.80353528 Ry
     estimated scf accuracy    <      10.03145878 Ry

     iteration #  2     ecut=    36.75 Ry     beta=0.10
     Davidson diagonalization with overlap
     ethr =  5.77E-03,  avg # of iterations =  1.3

     negative rho (up, down):  9.085E-03 0.000E+00
 
     Adding external electric field

     Computed dipole along edir(3) : 
        Dipole                0.6938 Ry au,          1.7635 Debye
        Dipole field          0.0022 Ry au
 
        Potential amp.       -0.1948 Ry
        Total length         44.8420 bohr
 

     total cpu time spent up to now is      130.9 secs

     total energy              =   -2525.25938274 Ry
     Harris-Foulkes estimate   =   -2527.70733105 Ry
     estimated scf accuracy    <      57.70703228 Ry

     iteration #  3     ecut=    36.75 Ry     beta=0.10
     Davidson diagonalization with overlap
     ethr =  5.77E-03,  avg # of iterations =  1.4

     negative rho (up, down):  9.301E-03 0.000E+00
 
     Adding external electric field

     Computed dipole along edir(3) : 
        Dipole               -0.0184 Ry au,         -0.0468 Debye
        Dipole field         -0.0001 Ry au
 
        Potential amp.        0.0052 Ry
        Total length         44.8420 bohr
 

     total cpu time spent up to now is      180.7 secs

     total energy              =   -2525.89502754 Ry
     Harris-Foulkes estimate   =   -2527.65786685 Ry
     estimated scf accuracy    <      71.52368328 Ry

     iteration #  4     ecut=    36.75 Ry     beta=0.10
     Davidson diagonalization with overlap
     ethr =  5.77E-03,  avg # of iterations =  1.0

     negative rho (up, down):  1.036E-02 0.000E+00
 
     Adding external electric field

     Computed dipole along edir(3) : 
        Dipole               -0.0064 Ry au,         -0.0162 Debye
        Dipole field         -0.0000 Ry au
 
        Potential amp.        0.0018 Ry
        Total length         44.8420 bohr
 

     total cpu time spent up to now is      227.9 secs

     total energy              =   -2526.27695889 Ry
     Harris-Foulkes estimate   =   -2526.73623124 Ry
     estimated scf accuracy    <       1.75659614 Ry

     iteration #  5     ecut=    36.75 Ry     beta=0.10
     Davidson diagonalization with overlap
     ethr =  1.01E-03,  avg # of iterations =  2.0

     negative rho (up, down):  9.988E-03 0.000E+00
 
     Adding external electric field

     Computed dipole along edir(3) : 
        Dipole                0.0292 Ry au,          0.0742 Debye
        Dipole field          0.0001 Ry au
 
        Potential amp.       -0.0082 Ry
        Total length         44.8420 bohr
 

     total cpu time spent up to now is      283.4 secs

     total energy              =   -2526.33115735 Ry
     Harris-Foulkes estimate   =   -2526.46670702 Ry
     estimated scf accuracy    <       0.42153121 Ry

     iteration #  6     ecut=    36.75 Ry     beta=0.10
     Davidson diagonalization with overlap
     ethr =  2.42E-04,  avg # of iterations =  3.9

     negative rho (up, down):  1.064E-02 0.000E+00
 
     Adding external electric field

     Computed dipole along edir(3) : 
        Dipole                0.0039 Ry au,          0.0099 Debye
        Dipole field          0.0000 Ry au
 
        Potential amp.       -0.0011 Ry
        Total length         44.8420 bohr
 

     total cpu time spent up to now is      346.3 secs

     total energy              =   -2526.38033073 Ry
     Harris-Foulkes estimate   =   -2526.61090763 Ry
     estimated scf accuracy    <       1.32475457 Ry

     iteration #  7     ecut=    36.75 Ry     beta=0.10
     Davidson diagonalization with overlap
     ethr =  2.42E-04,  avg # of iterations =  2.6

     negative rho (up, down):  1.066E-02 0.000E+00
 
     Adding external electric field

     Computed dipole along edir(3) : 
        Dipole                0.0096 Ry au,          0.0245 Debye
        Dipole field          0.0000 Ry au
 
        Potential amp.       -0.0027 Ry
        Total length         44.8420 bohr
 

     total cpu time spent up to now is      403.3 secs

     total energy              =   -2526.40946794 Ry
     Harris-Foulkes estimate   =   -2526.43790802 Ry
     estimated scf accuracy    <       0.27064314 Ry

     iteration #  8     ecut=    36.75 Ry     beta=0.10
     Davidson diagonalization with overlap
     ethr =  1.56E-04,  avg # of iterations =  1.0

     negative rho (up, down):  1.086E-02 0.000E+00
 
     Adding external electric field

     Computed dipole along edir(3) : 
        Dipole               -0.0120 Ry au,         -0.0305 Debye
        Dipole field         -0.0000 Ry au
 
        Potential amp.        0.0034 Ry
        Total length         44.8420 bohr
 

[...]
    -2.5001  -2.3519  -2.3162  -2.2958  -2.2657  -2.2208  -2.1286  -2.0403
    -2.0084  -1.9500  -1.7890  -1.7755  -1.5584  -1.0184  -0.8832  -0.8643
    -0.6233  -0.6020  -0.3606  -0.0973  -0.0539   0.0503   0.0730   0.1278
     0.1474   0.2856   0.3798   0.4829   0.6579   0.6650   0.7273   0.8055
     0.8588   1.1312   1.1858   1.3376   1.4140   1.6878   1.7770   1.8196
     1.9635   2.2923   2.3132   2.3256   2.5257   2.5302   2.5564   2.6563
     2.6826   2.7325   2.8942   2.9116   3.0747   3.1265   3.2490   3.3460
     3.3960   3.6495   3.8949   4.4082   4.5152

          k = 0.0627-0.0724 0.0000 ( 15102 PWs)   bands (ev):

  -112.2263-112.0220-111.9311 -69.6028 -69.5856 -69.5856 -69.4163 -69.4162
   -69.3517 -69.3368 -69.3368 -69.2440 -63.2668 -63.2341 -63.2245 -63.2014
   -63.1895 -63.1554 -63.1184 -63.0968 -63.0741 -37.3076 -37.2765 -37.2484
   -37.2107 -37.2001 -37.1801 -37.1639 -37.1421 -37.1276 -37.1194 -37.0944
   -37.0608 -37.0422 -37.0130 -36.9998 -36.9803 -36.9219 -36.9106 -36.8838
   -36.8522 -36.8150 -36.7742 -36.7611 -36.7428 -36.7064 -36.6900 -36.6567
    -4.5001  -3.6301  -3.2044  -2.8356  -2.8091  -2.7105  -2.6748  -2.5383
    -2.4604  -2.4316  -2.3514  -2.3233  -2.2526  -2.1774  -2.1694  -2.0873
    -2.0288  -1.9792  -1.9002  -1.7582  -1.3578  -1.2001  -0.8805  -0.6298
    -0.4437  -0.3740  -0.2332  -0.1135  -0.0570  -0.0288   0.0289   0.1425
     0.2317   0.3958   0.4941   0.5979   0.6649   0.7112   0.7753   0.8501
     1.0417   1.0965   1.2726   1.3344   1.4252   1.5683   1.6096   1.6767
     2.0364   2.1701   2.2368   2.3982   2.4210   2.5438   2.6535   2.6774
     2.7704   2.8228   2.8606   2.9975   3.1821   3.2485   3.3683   3.4802
     3.5745   3.7247   3.8846   4.3342   4.9462

          k = 0.0627-0.0362 0.0000 ( 15077 PWs)   bands (ev):

  -112.2263-112.0220-111.9311 -69.6028 -69.5856 -69.5856 -69.4163 -69.4162
   -69.3517 -69.3368 -69.3368 -69.2440 -63.2798 -63.2382 -63.2211 -63.1997
   -63.1788 -63.1525 -63.1290 -63.0893 -63.0727 -37.3458 -37.2858 -37.2599
   -37.2282 -37.2129 -37.2084 -37.1973 -37.1750 -37.1385 -37.1173 -37.1057
   -37.1013 -37.0848 -36.9845 -36.9600 -36.9427 -36.9216 -36.8743 -36.8518
   -36.8183 -36.8002 -36.7519 -36.7380 -36.7324 -36.6987 -36.6928 -36.6426
    -5.0420  -3.6212  -3.2958  -2.9170  -2.8879  -2.8228  -2.6996  -2.6725
    -2.5118  -2.4937  -2.4510  -2.3803  -2.3682  -2.2252  -2.1978  -2.1041
    -2.0376  -2.0020  -1.9415  -1.7167  -1.2126  -0.8643  -0.8254  -0.5703
    -0.4827  -0.2514  -0.2104  -0.0421  -0.0296   0.0700   0.0858   0.3083
     0.4236   0.4441   0.6086   0.6449   0.7274   0.7977   0.9364   1.0366
     1.1436   1.1626   1.2617   1.3146   1.3729   1.4040   1.5646   1.9644
     2.1285   2.1920   2.3984   2.4009   2.5874   2.6635   2.6775   2.7801
     2.8076   2.9164   2.9350   3.0613   3.2005   3.2243   3.4069   3.5841
     3.7171   4.0333   4.0882   4.4973   4.7334

          k = 0.0627 0.0000 0.0000 ( 15080 PWs)   bands (ev):

  -112.2263-112.0220-111.9311 -69.6028 -69.5856 -69.5856 -69.4162 -69.4162
   -69.3517 -69.3368 -69.3368 -69.2440 -63.2847 -63.2425 -63.2165 -63.2001
   -63.1727 -63.1539 -63.1324 -63.0849 -63.0733 -37.3590 -37.2689 -37.2554
   -37.2476 -37.2405 -37.2325 -37.2074 -37.1787 -37.1510 -37.1411 -37.1042
   -37.1030 -37.0944 -36.9871 -36.9462 -36.9396 -36.9212 -36.8346 -36.8309
   -36.7874 -36.7804 -36.7567 -36.7380 -36.7303 -36.7053 -36.6700 -36.6545
    -5.2370  -3.7173  -3.1630  -3.0049  -2.9371  -2.8701  -2.8277  -2.7021
    -2.5459  -2.5098  -2.4920  -2.4375  -2.4047  -2.2307  -2.2001  -2.1201
    -2.0609  -2.0059  -1.9882  -1.6379  -1.1272  -0.8896  -0.6544  -0.5808
    -0.4108  -0.2837  -0.1663  -0.1547  -0.0275   0.0824   0.2031   0.2399
     0.4179   0.5047   0.6040   0.7455   0.8586   0.9527   1.0139   1.0394
     1.1450   1.1674   1.3057   1.3755   1.4363   1.4428   1.5385   2.1218
     2.1582   2.2026   2.3678   2.4556   2.6021   2.6969   2.7785   2.8097
     2.8429   3.0673   3.1448   3.2447   3.3193   3.4078   3.4320   3.5204
     3.6537   3.6812   3.9239   4.1339   5.0979

          k =-0.0941-0.0543 0.0000 ( 15114 PWs)   bands (ev):

  -112.2263-112.0220-111.9311 -69.6028 -69.5857 -69.5856 -69.4163 -69.4162
   -69.3517 -69.3368 -69.3368 -69.2440 -63.2661 -63.2370 -63.2224 -63.1997
   -63.1929 -63.1525 -63.1176 -63.1003 -63.0726 -37.3089 -37.2998 -37.2604
   -37.2030 -37.1867 -37.1864 -37.1584 -37.1555 -37.1145 -37.0978 -37.0575
   -37.0498 -37.0234 -37.0099 -36.9845 -36.9835 -36.9767 -36.9414 -36.8813
   -36.8684 -36.8521 -36.7543 -36.7416 -36.7382 -36.7090 -36.6971 -36.6419
    -4.3164  -4.0266  -3.1210  -2.7981  -2.7636  -2.7587  -2.5514  -2.4963
    -2.4908  -2.4405  -2.2953  -2.2918  -2.2568  -2.1954  -2.1617  -2.0873
    -2.0681  -1.9813  -1.9481  -1.6801  -1.5432  -1.1146  -1.0390  -0.6306
    -0.4193  -0.2313  -0.0800  -0.0648  -0.0541   0.0152   0.0464   0.2357
     0.2903   0.4017   0.4104   0.5454   0.5616   0.6561   0.7955   0.8323
     1.0193   1.1072   1.3284   1.3748   1.3838   1.5099   1.5617   1.5843
     2.0215   2.2138   2.2506   2.4695   2.4779   2.5183   2.5213   2.6148
     2.6800   2.7057   2.7557   2.8045   3.1076   3.3907   3.4424   3.5645
     3.7784   3.9231   4.0606   4.5566   5.1761

          k =-0.0941-0.0181 0.0000 ( 15102 PWs)   bands (ev):

  -112.2263-112.0220-111.9311 -69.6028 -69.5856 -69.5856 -69.4163 -69.4162
   -69.3517 -69.3368 -69.3368 -69.2440 -63.2668 -63.2342 -63.2246 -63.2014
   -63.1895 -63.1554 -63.1183 -63.0969 -63.0741 -37.3076 -37.2765 -37.2484
   -37.2107 -37.2001 -37.1801 -37.1639 -37.1421 -37.1276 -37.1195 -37.0944
   -37.0608 -37.0422 -37.0130 -36.9998 -36.9804 -36.9219 -36.9106 -36.8838
   -36.8521 -36.8150 -36.7742 -36.7611 -36.7428 -36.7064 -36.6900 -36.6567
    -4.5001  -3.6301  -3.2044  -2.8356  -2.8091  -2.7105  -2.6748  -2.5383
    -2.4604  -2.4316  -2.3514  -2.3233  -2.2526  -2.1774  -2.1694  -2.0873
    -2.0288  -1.9792  -1.9002  -1.7582  -1.3578  -1.2000  -0.8805  -0.6298
    -0.4437  -0.3740  -0.2332  -0.1135  -0.0570  -0.0289   0.0289   0.1425
     0.2317   0.3958   0.4941   0.5979   0.6649   0.7112   0.7753   0.8500
     1.0418   1.0966   1.2726   1.3343   1.4252   1.5683   1.6096   1.6767
     2.0364   2.1701   2.2367   2.3982   2.4209   2.5438   2.6535   2.6774
     2.7704   2.8228   2.8606   2.9975   3.1822   3.2485   3.3683   3.4801
     3.5745   3.7247   3.8846   4.3341   4.9462

          k =-0.0941 0.0181 0.0000 ( 15102 PWs)   bands (ev):

  -112.2263-112.0220-111.9311 -69.6028 -69.5856 -69.5856 -69.4163 -69.4162
   -69.3517 -69.3368 -69.3368 -69.2440 -63.2668 -63.2342 -63.2245 -63.2014
   -63.1895 -63.1554 -63.1184 -63.0968 -63.0741 -37.3076 -37.2765 -37.2484
   -37.2107 -37.2001 -37.1801 -37.1639 -37.1421 -37.1276 -37.1195 -37.0944
   -37.0608 -37.0421 -37.0131 -36.9998 -36.9804 -36.9219 -36.9106 -36.8838
   -36.8522 -36.8150 -36.7742 -36.7611 -36.7428 -36.7064 -36.6900 -36.6567
    -4.5001  -3.6301  -3.2044  -2.8356  -2.8091  -2.7105  -2.6748  -2.5383
    -2.4604  -2.4316  -2.3515  -2.3233  -2.2526  -2.1774  -2.1694  -2.0872
    -2.0288  -1.9792  -1.9002  -1.7582  -1.3578  -1.2000  -0.8805  -0.6298
    -0.4437  -0.3740  -0.2332  -0.1135  -0.0570  -0.0289   0.0289   0.1425
     0.2317   0.3958   0.4941   0.5979   0.6649   0.7112   0.7753   0.8500
     1.0418   1.0966   1.2726   1.3343   1.4252   1.5683   1.6096   1.6767
     2.0364   2.1701   2.2368   2.3982   2.4209   2.5438   2.6535   2.6774
     2.7704   2.8228   2.8606   2.9975   3.1821   3.2485   3.3683   3.4801
     3.5745   3.7247   3.8846   4.3341   4.9462

          k =-0.0941-0.1630 0.0000 ( 15114 PWs)   bands (ev):

  -112.2263-112.0220-111.9311 -69.6028 -69.5856 -69.5856 -69.4163 -69.4162
   -69.3517 -69.3368 -69.3368 -69.2440 -63.2661 -63.2369 -63.2224 -63.1997
   -63.1930 -63.1525 -63.1176 -63.1003 -63.0726 -37.3089 -37.2998 -37.2605
   -37.2030 -37.1867 -37.1864 -37.1583 -37.1555 -37.1145 -37.0978 -37.0575
   -37.0498 -37.0234 -37.0100 -36.9845 -36.9835 -36.9766 -36.9414 -36.8814
   -36.8684 -36.8520 -36.7543 -36.7415 -36.7383 -36.7090 -36.6970 -36.6420
    -4.3164  -4.0266  -3.1210  -2.7980  -2.7636  -2.7587  -2.5514  -2.4963
    -2.4908  -2.4405  -2.2953  -2.2918  -2.2568  -2.1954  -2.1617  -2.0873
    -2.0681  -1.9813  -1.9481  -1.6801  -1.5432  -1.1146  -1.0390  -0.6306
    -0.4193  -0.2313  -0.0799  -0.0648  -0.0541   0.0152   0.0464   0.2357
     0.2903   0.4017   0.4104   0.5454   0.5616   0.6561   0.7955   0.8323
     1.0193   1.1072   1.3284   1.3748   1.3838   1.5099   1.5617   1.5843
     2.0215   2.2139   2.2506   2.4695   2.4779   2.5183   2.5212   2.6148
     2.6800   2.7058   2.7557   2.8045   3.1075   3.3907   3.4424   3.5645
     3.7784   3.9231   4.0605   4.5566   5.1761

     the Fermi energy is     0.9602 ev

!    total energy              =   -2526.40721098 Ry
     Harris-Foulkes estimate   =   -2526.40720981 Ry
     estimated scf accuracy    <       0.00000021 Ry

     The total energy is the sum of the following terms:

     one-electron contribution =  -19931.83488152 Ry
     hartree contribution      =    9959.72523517 Ry
     xc contribution           =    -303.19893252 Ry
     ewald contribution        =    7749.01567994 Ry
     electric field correction =       0.00000011 Ry
     smearing contrib. (-TS)   =      -0.11431214 Ry

     convergence has been achieved in  25 iterations
 
 BEEF-vdW xc energy contributions
           1 :   -264.334532181634     
           2 :    238.386229782540     
           3 :   -194.989989285204     
           4 :    147.016501836722     
           5 :   -105.987739613784     
           6 :    77.7975211908227     
           7 :   -61.7955862489092     
           8 :    53.0720696582026     
           9 :   -46.1636545813540     
          10 :    37.9868821000011     
          11 :   -28.6756558421768     
          12 :    20.3802968366853     
          13 :   -15.1858122326842     
          14 :    13.5503887201163     
          15 :   -14.1062849437802     
          16 :    14.7006445694409     
          17 :   -13.8197182857875     
          18 :    11.4142234083523     
          19 :   -8.66536898589044     
          20 :    6.97950246090613     
          21 :   -6.97731603735468     
          22 :    8.14453827679614     
          23 :   -9.29034294087279     
          24 :    9.40410531792139     
          25 :   -8.29670105189933     
          26 :    6.62933415990580     
          27 :   -5.38419327743958     
          28 :    5.18236788865471     
          29 :   -5.90943142489556     
          30 :    6.85979186822402     
          31 :   -24.7723270809916     
          32 :   -17.5664968156373     

     Forces acting on atoms (Ry/au):


     negative rho (up, down):  1.070E-02 0.000E+00
     atom    1 type  1   force =     0.00000580    0.00762001    0.01454042
     atom    2 type  1   force =     0.00660604   -0.00380897    0.01453798
     atom    3 type  1   force =    -0.00659469   -0.00380950    0.01453323
     atom    4 type  2   force =     0.00002751    0.00001844   -0.00864641
     atom    5 type  1   force =     0.00000033    0.00523859   -0.00318281
     atom    6 type  1   force =     0.00453640   -0.00261945   -0.00318467
     atom    7 type  1   force =    -0.00452527   -0.00261325   -0.00317518
     atom    8 type  2   force =    -0.00006029   -0.00000096   -0.02456858
     atom    9 type  1   force =    -0.00000007   -0.00014682   -0.00022382
     atom   10 type  1   force =    -0.00012706    0.00007193   -0.00021002
     atom   11 type  1   force =     0.00013957    0.00007926   -0.00020560
     atom   12 type  2   force =    -0.00000824   -0.00002927   -0.00021454

     Total force =     0.039992     Total SCF correction =     0.001113


     entering subroutine stress ...


     negative rho (up, down):  1.070E-02 0.000E+00
          total   stress  (Ry/bohr**3)                   (kbar)     P=  -13.98
  -0.00011284  -0.00000000  -0.00000000        -16.60     -0.00     -0.00
  -0.00000000  -0.00011285  -0.00000001         -0.00    -16.60     -0.00
  -0.00000000  -0.00000001  -0.00005950         -0.00     -0.00     -8.75

 !ASE

     Writing output data file calc.save
 
     init_run     :     14.67s CPU     22.55s WALL (       1 calls)
     electrons    :    963.46s CPU   1482.47s WALL (       1 calls)
     forces       :      2.34s CPU      2.89s WALL (       1 calls)
     stress       :      4.74s CPU      5.60s WALL (       1 calls)

     Called by init_run:
     wfcinit      :     12.74s CPU     20.00s WALL (       1 calls)
     potinit      :      1.04s CPU      1.48s WALL (       1 calls)

     Called by electrons:
     c_bands      :    755.83s CPU   1160.51s WALL (      25 calls)
     sum_band     :    146.72s CPU    235.59s WALL (      25 calls)
     v_of_rho     :     23.71s CPU     34.40s WALL (      26 calls)
     newd         :      5.31s CPU      5.91s WALL (      26 calls)
     mix_rho      :      1.27s CPU      1.88s WALL (      25 calls)
     vdW_energy   :      1.56s CPU      1.56s WALL (      62 calls)
     vdW_ffts     :     36.05s CPU     53.66s WALL (     126 calls)
     vdW_v        :      6.35s CPU      8.97s WALL (      62 calls)

     Called by c_bands:
     init_us_2    :      0.55s CPU      0.58s WALL (    1060 calls)
     cegterg      :    744.79s CPU   1145.73s WALL (     500 calls)

     Called by *egterg:
     h_psi        :    586.08s CPU    955.70s WALL (    1542 calls)
     s_psi        :      6.57s CPU      6.66s WALL (    1542 calls)
     g_psi        :      0.32s CPU      0.34s WALL (    1022 calls)
     cdiaghg      :     70.51s CPU     74.14s WALL (    1522 calls)

     Called by h_psi:
     add_vuspsi   :      6.89s CPU      6.90s WALL (    1542 calls)

     General routines
     calbec       :     26.77s CPU     35.52s WALL (    2082 calls)
     fft          :     55.27s CPU     82.23s WALL (    3819 calls)
     ffts         :      0.26s CPU      0.43s WALL (      51 calls)
     fftw         :    685.42s CPU   1132.95s WALL (  311068 calls)
     interpolate  :      1.07s CPU      1.63s WALL (      51 calls)
     davcio       :      0.00s CPU      0.01s WALL (      20 calls)
 
     Parallel routines
     fft_scatter  :    720.45s CPU   1191.59s WALL (  314938 calls)
 
     PWSCF        : 16m26.57s CPU    25m15.59s WALL

 
   This run was terminated on:   6: 0: 5   2Jan2019            

=------------------------------------------------------------------------------=
   JOB DONE.
=------------------------------------------------------------------------------=
Job  /afs/slac/g/suncat/bin/suncat-tsmpirun -x LD_LIBRARY_PATH -wdir /scratch/qe649298_YoFJB pw.x -in pw.inp

TID   HOST_NAME   COMMAND_LINE            STATUS            TERMINATION_TIME
===== ========== ================  =======================  ===================
00000 suncat0259 pw.x -in pw.inp   Done                     01/02/2019 06:00:05
00001 suncat0259 pw.x -in pw.inp   Done                     01/02/2019 06:00:05
00002 suncat0259 pw.x -in pw.inp   Done                     01/02/2019 06:00:05
00003 suncat0259 pw.x -in pw.inp   Done                     01/02/2019 06:00:05
00004 suncat0259 pw.x -in pw.inp   Done                     01/02/2019 06:00:05
00005 suncat0259 pw.x -in pw.inp   Done                     01/02/2019 06:00:05
00006 suncat0259 pw.x -in pw.inp   Done                     01/02/2019 06:00:05
00007 suncat0259 pw.x -in pw.inp   Done                     01/02/2019 06:00:05
00008 suncat0256 pw.x -in pw.inp   Done                     01/02/2019 06:00:05
00009 suncat0256 pw.x -in pw.inp   Done                     01/02/2019 06:00:05
00010 suncat0256 pw.x -in pw.inp   Done                     01/02/2019 06:00:05
00011 suncat0256 pw.x -in pw.inp   Done                     01/02/2019 06:00:05
00012 suncat0256 pw.x -in pw.inp   Done                     01/02/2019 06:00:05
00013 suncat0256 pw.x -in pw.inp   Done                     01/02/2019 06:00:05
00014 suncat0256 pw.x -in pw.inp   Done                     01/02/2019 06:00:05
00015 suncat0256 pw.x -in pw.inp   Done                     01/02/2019 06:00:05
00016 suncat0255 pw.x -in pw.inp   Done                     01/02/2019 06:00:05
00017 suncat0255 pw.x -in pw.inp   Done                     01/02/2019 06:00:05
00018 suncat0255 pw.x -in pw.inp   Done                     01/02/2019 06:00:05
00019 suncat0255 pw.x -in pw.inp   Done                     01/02/2019 06:00:05
00020 suncat0255 pw.x -in pw.inp   Done                     01/02/2019 06:00:05
00021 suncat0255 pw.x -in pw.inp   Done                     01/02/2019 06:00:05
00022 suncat0255 pw.x -in pw.inp   Done                     01/02/2019 06:00:05
00023 suncat0255 pw.x -in pw.inp   Done                     01/02/2019 06:00:05
00024 suncat0232 pw.x -in pw.inp   Done                     01/02/2019 06:00:05
00025 suncat0232 pw.x -in pw.inp   Done                     01/02/2019 06:00:05
00026 suncat0232 pw.x -in pw.inp   Done                     01/02/2019 06:00:05
00027 suncat0232 pw.x -in pw.inp   Done                     01/02/2019 06:00:05
00028 suncat0232 pw.x -in pw.inp   Done                     01/02/2019 06:00:05
00029 suncat0232 pw.x -in pw.inp   Done                     01/02/2019 06:00:05
00030 suncat0232 pw.x -in pw.inp   Done                     01/02/2019 06:00:05
00031 suncat0232 pw.x -in pw.inp   Done                     01/02/2019 06:00:05
00032 suncat0220 pw.x -in pw.inp   Done                     01/02/2019 06:00:05
00033 suncat0220 pw.x -in pw.inp   Done                     01/02/2019 06:00:05
00034 suncat0220 pw.x -in pw.inp   Done                     01/02/2019 06:00:05
00035 suncat0220 pw.x -in pw.inp   Done                     01/02/2019 06:00:05
00036 suncat0220 pw.x -in pw.inp   Done                     01/02/2019 06:00:05
00037 suncat0220 pw.x -in pw.inp   Done                     01/02/2019 06:00:05
00038 suncat0220 pw.x -in pw.inp   Done                     01/02/2019 06:00:05
00039 suncat0220 pw.x -in pw.inp   Done                     01/02/2019 06:00:05
00040 suncat0219 pw.x -in pw.inp   Done                     01/02/2019 06:00:05
00041 suncat0219 pw.x -in pw.inp   Done                     01/02/2019 06:00:05
00042 suncat0219 pw.x -in pw.inp   Done                     01/02/2019 06:00:05
00043 suncat0219 pw.x -in pw.inp   Done                     01/02/2019 06:00:05
00044 suncat0219 pw.x -in pw.inp   Done                     01/02/2019 06:00:05
00045 suncat0219 pw.x -in pw.inp   Done                     01/02/2019 06:00:05
00046 suncat0219 pw.x -in pw.inp   Done                     01/02/2019 06:00:05
00047 suncat0219 pw.x -in pw.inp   Done                     01/02/2019 06:00:05
00048 suncat0201 pw.x -in pw.inp   Done                     01/02/2019 06:00:05
00049 suncat0201 pw.x -in pw.inp   Done                     01/02/2019 06:00:05
00050 suncat0201 pw.x -in pw.inp   Done                     01/02/2019 06:00:05
00051 suncat0201 pw.x -in pw.inp   Done                     01/02/2019 06:00:05
00052 suncat0201 pw.x -in pw.inp   Done                     01/02/2019 06:00:05
00053 suncat0201 pw.x -in pw.inp   Done                     01/02/2019 06:00:05
00054 suncat0201 pw.x -in pw.inp   Done                     01/02/2019 06:00:05
00055 suncat0201 pw.x -in pw.inp   Done                     01/02/2019 06:00:05
00056 suncat0200 pw.x -in pw.inp   Done                     01/02/2019 06:00:05
00057 suncat0200 pw.x -in pw.inp   Done                     01/02/2019 06:00:05
00058 suncat0200 pw.x -in pw.inp   Done                     01/02/2019 06:00:05
00059 suncat0200 pw.x -in pw.inp   Done                     01/02/2019 06:00:05
00060 suncat0200 pw.x -in pw.inp   Done                     01/02/2019 06:00:05
00061 suncat0200 pw.x -in pw.inp   Done                     01/02/2019 06:00:05
00062 suncat0200 pw.x -in pw.inp   Done                     01/02/2019 06:00:05
00063 suncat0200 pw.x -in pw.inp   Done                     01/02/2019 06:00:05
