  python dir          : /home/users/vossj/suncat/lib/python2.7/site-packages/espresso
  espresso dir        : /home/users/vossj/suncat/s2/qe5/bin
  pseudo dir          : /home/users/vossj/suncat/psp/gbrv1.5pbe
  ase-espresso py git : ffa2778-git



     Program PWSCF v.5.1rc2 starts on 14Nov2017 at 11:24:25 

     This program is part of the open-source Quantum ESPRESSO suite
     for quantum simulation of materials; please cite
         "P. Giannozzi et al., J. Phys.:Condens. Matter 21 395502 (2009);
          URL http://www.quantum-espresso.org", 
     in publications or presentations arising from this work. More details at
     http://www.quantum-espresso.org/quote

     Parallel version (MPI), running on    16 processors
     R & G space division:  proc/nbgrp/npool/nimage =      16
     Reading input from pw.inp
     Message from routine read_cards :
     DEPRECATED: no units specified in CELL_PARAMETERS card

     Current dimensions of program PWSCF are:
     Max number of different atomic species (ntypx) = 10
     Max number of k-points (npk) =  40000
     Max angular momentum in pseudopotentials (lmaxx) =  3

     **************************************************************************
     Initializing libbeef V0.1.2 with the BEEF-vdW functional.
     Citation: Wellendorff et al., PRB 85, 235149 (2012).
     **************************************************************************


     IMPORTANT: XC functional enforced from input :
     Exchange-correlation      = BEEF-VDW ( 1  4 27 13 2)
     Any further DFT definition will be discarded
     Please, verify this is what you really want


     Subspace diagonalization in iterative solution of the eigenvalue problem:
     scalapack distributed-memory algorithm (size of sub-group:  2*  2 procs)

     Found symmetry operation: I + (  0.5000  0.5000  0.0000)
     This is a supercell, fractional translations are disabled
 
     Parallelization info
     --------------------
     sticks:   dense  smooth     PW     G-vecs:    dense   smooth      PW
     Min         206      82     24                 6286     1584     254
     Max         207      83     25                 6289     1597     256
     Sum        3297    1313    385               100581    25469    4071
 
     Generating pointlists ...
     new r_m :   0.4125 (alat units)  0.7795 (a.u.) for type    1
     new r_m :   0.4125 (alat units)  0.7795 (a.u.) for type    2


     bravais-lattice index     =            0
     lattice parameter (alat)  =       1.8897  a.u.
     unit-cell volume          =     417.7532 (a.u.)^3
     number of atoms/cell      =            4
     number of atomic types    =            2
     number of electrons       =        56.00
     number of Kohn-Sham states=           48
     kinetic-energy cutoff     =      58.7989  Ry
     charge density cutoff     =     587.9892  Ry
     convergence threshold     =      1.0E-06
     mixing beta               =       0.1000
     number of iterations used =           10  plain     mixing
     Exchange-correlation      = BEEF-VDW ( 1  4 27 13 2)

     celldm(1)=   1.889726  celldm(2)=   0.000000  celldm(3)=   0.000000
     celldm(4)=   0.000000  celldm(5)=   0.000000  celldm(6)=   0.000000

     crystal axes: (cart. coord. in units of alat)
               a(1) = (   4.437691   0.000000   0.000000 )  
               a(2) = (   0.000000   4.437691   0.000000 )  
               a(3) = (   0.000000   0.000000   3.143468 )  

     reciprocal axes: (cart. coord. in units 2 pi/alat)
               b(1) = (  0.225342  0.000000  0.000000 )  
               b(2) = (  0.000000  0.225342  0.000000 )  
               b(3) = (  0.000000  0.000000  0.318120 )  


     PseudoPot. # 1 for Fe read from file:
     /home/users/vossj/suncat/psp/gbrv1.5pbe/Fe.UPF
     MD5 check sum: a130daea23fe5165f5d574ae7f82ed95
     Pseudo is Ultrasoft + core correction, Zval = 16.0
     Generated by new atomic code, or converted to UPF format
     Using radial grid of  861 points,  6 beta functions with: 
                l(1) =   0
                l(2) =   0
                l(3) =   1
                l(4) =   1
                l(5) =   2
                l(6) =   2
     Q(r) pseudized with  8 coefficients,  rinner =    1.000   1.000   1.000
                                                       1.000   1.000

     PseudoPot. # 2 for Hf read from file:
     /home/users/vossj/suncat/psp/gbrv1.5pbe/Hf.UPF
     MD5 check sum: 8ee9378dfe14276e333edf04c5e4aa26
     Pseudo is Ultrasoft + core correction, Zval = 12.0
     Generated by new atomic code, or converted to UPF format
     Using radial grid of  921 points,  8 beta functions with: 
                l(1) =   0
                l(2) =   0
                l(3) =   0
                l(4) =   1
                l(5) =   1
                l(6) =   2
                l(7) =   2
                l(8) =   3
     Q(r) pseudized with  6 coefficients,  rinner =    1.200   1.200   1.200
                                                       1.200   1.200   1.200
                                                       1.200

     vdW kernel table read from file vdW_kernel_table
     MD5 check sum: 095c7af220d748ca6e76c0b4c6cfb241

     atomic species   valence    mass     pseudopotential
        Fe1           16.00    55.84700     Fe( 1.00)
        Hf1           12.00   178.49000     Hf( 1.00)

     Starting magnetic structure 
     atomic species   magnetization
        Fe1          0.125
        Hf1          0.167

     16 Sym. Ops., with inversion, found



   Cartesian axes

     site n.     atom                  positions (alat units)
         1           Fe1 tau(   1) = (   0.0000000   0.0000000   0.0000000  )
         2           Fe1 tau(   2) = (   2.2188454   2.2188454   0.0000000  )
         3           Hf1 tau(   3) = (   2.2188454   0.0000000   1.5717340  )
         4           Hf1 tau(   4) = (   0.0000000   2.2188454   1.5717340  )

     number of k points=   150  Fermi-Dirac smearing, width (Ry)=  0.0073

     Number of k-points >= 100: set verbosity='high' to print them.

     Dense  grid:   100581 G-vectors     FFT dimensions: (  72,  72,  45)

     Smooth grid:    25469 G-vectors     FFT dimensions: (  45,  45,  30)

     Largest allocated arrays     est. size (Mb)     dimensions
        Kohn-Sham Wavefunctions         0.15 Mb     (     203,   48)
        NL pseudopotentials             0.27 Mb     (     203,   88)
        Each V/rho on FFT grid          0.47 Mb     (   15552,   2)
        Each G-vector array             0.05 Mb     (    6288)
        G-vector shells                 0.02 Mb     (    2494)
     Largest temporary arrays     est. size (Mb)     dimensions
        Auxiliary wavefunctions         0.59 Mb     (     203,  192)
        Each subspace H/S matrix        0.14 Mb     (      96,   96)
        Each <psi_i|beta_j> matrix      0.06 Mb     (      88,   48)
        Arrays for rho mixing           2.37 Mb     (   15552,   10)

     Check: negative/imaginary core charge=   -0.000011    0.000000

     Initial potential from superposition of free atoms
     Check: negative starting charge=(component1):   -0.126812
     Check: negative starting charge=(component2):   -0.090550

     starting charge   49.99998, renormalised to   56.00000

     negative rho (up, down):  1.420E-01 1.014E-01


     ************************************************************************
     *
     * You are using vdW-DF for exchange-correlation in this calculation.
     * Please cite the following three references that made this development
     * possible:
     *
     *   M. Dion, H. Rydberg, E. Schroder, D. C. Langreth, and
     *   B. I. Lundqvist, Phys. Rev. Lett. 92, 246401 (2004).
     *
     *   T. Thonhauser, V. R. Cooper, S. Li, A. Puzder, P. Hyldgaard, and
     *   D. C. Langreth, Phys. Rev. B 76, 125112 (2007).
     *
     *   G. Roman-Perez and J. M. Soler, Phys. Rev. Lett. 103, 096102 (2009).
     *
     *
     * If you are using vdW-DF2, please also cite:
     *
     *   K. Lee, E. D. Murray, L. Kong, B. I. Lundqvist, and
     *   D. C. Langreth, Phys. Rev. B 82, 081101(R) (2010).
     *
     *
     * If you are calculating the stress with vdW-DF, please also cite:
     *
     *   R. Sabatini, E. Kucukbenli, B. Kolb, T. Thonhauser, and
     *   S. de Gironcoli, J. Phys.: Condens. Matter 24, 424209 (2012).
     *
     ************************************************************************

     Carrying out vdW-DF run using the following parameters:

     Nqs =      20    Nr_points =    1024   r_max =   100.000
     q_mesh =
               0.00001000     0.04494208     0.09755937     0.15916263
               0.23128650     0.31572767     0.41458969     0.53033537
               0.66584808     0.82450364     1.01025438     1.22772762
               1.48234092     1.78043706     2.12944203     2.53805004
               3.01644009     3.57652955     4.23227104     5.00000000

     Gradients computed in reciprocal space

     ************************************************************************


     Starting wfc are   52 randomized atomic wfcs

     total cpu time spent up to now is        2.3 secs

     per-process dynamical memory:    39.1 Mb

     Self-consistent Calculation

     iteration #  1     ecut=    58.80 Ry     beta=0.10
     Davidson diagonalization with overlap
     ethr =  1.00E-02,  avg # of iterations =  4.1

     negative rho (up, down):  1.383E-01 1.017E-01
 
     Magnetic moment per site:
     atom:    1    charge:    7.4659    magn:    0.8829    constr:    0.0000
     atom:    2    charge:    7.4659    magn:    0.8829    constr:    0.0000
     atom:    3    charge:    1.2333    magn:    0.1871    constr:    0.0000
     atom:    4    charge:    1.2333    magn:    0.1871    constr:    0.0000

     total cpu time spent up to now is       12.4 secs

     total energy              =    -824.26702849 Ry
     Harris-Foulkes estimate   =    -831.51143765 Ry
     estimated scf accuracy    <      42.67290909 Ry

     total magnetization       =     0.62 Bohr mag/cell
     absolute magnetization    =     0.63 Bohr mag/cell

     iteration #  2     ecut=    58.80 Ry     beta=0.10
     Davidson diagonalization with overlap
     ethr =  1.00E-02,  avg # of iterations =  2.3

     negative rho (up, down):  1.342E-01 1.028E-01
 
     Magnetic moment per site:
     atom:    1    charge:    7.2365    magn:    0.7959    constr:    0.0000
     atom:    2    charge:    7.2365    magn:    0.7959    constr:    0.0000
     atom:    3    charge:    1.2064    magn:    0.1585    constr:    0.0000
     atom:    4    charge:    1.2064    magn:    0.1585    constr:    0.0000

     total cpu time spent up to now is       18.1 secs

     total energy              =    -823.97172819 Ry
     Harris-Foulkes estimate   =    -825.87097055 Ry
     estimated scf accuracy    <       8.30148483 Ry

     total magnetization       =     1.09 Bohr mag/cell
     absolute magnetization    =     1.65 Bohr mag/cell

     iteration #  3     ecut=    58.80 Ry     beta=0.10
     Davidson diagonalization with overlap
     ethr =  1.00E-02,  avg # of iterations =  2.0

     negative rho (up, down):  1.308E-01 1.044E-01
 
     Magnetic moment per site:
     atom:    1    charge:    7.3523    magn:    0.7310    constr:    0.0000
     atom:    2    charge:    7.3523    magn:    0.7310    constr:    0.0000
     atom:    3    charge:    1.1754    magn:    0.1318    constr:    0.0000
     atom:    4    charge:    1.1754    magn:    0.1318    constr:    0.0000

     total cpu time spent up to now is       23.4 secs

     total energy              =    -823.86650481 Ry
     Harris-Foulkes estimate   =    -824.87783029 Ry
     estimated scf accuracy    <       2.82262736 Ry

     total magnetization       =     1.18 Bohr mag/cell
     absolute magnetization    =     1.79 Bohr mag/cell

     iteration #  4     ecut=    58.80 Ry     beta=0.10
     Davidson diagonalization with overlap
     ethr =  5.04E-03,  avg # of iterations =  1.7

     negative rho (up, down):  1.207E-01 1.082E-01
 
     Magnetic moment per site:
     atom:    1    charge:    6.9729    magn:    0.5070    constr:    0.0000
     atom:    2    charge:    6.9729    magn:    0.5070    constr:    0.0000
     atom:    3    charge:    1.1134    magn:    0.0574    constr:    0.0000
     atom:    4    charge:    1.1134    magn:    0.0574    constr:    0.0000

     total cpu time spent up to now is       28.4 secs

     total energy              =    -822.28047071 Ry
     Harris-Foulkes estimate   =    -825.29466289 Ry
     estimated scf accuracy    <      11.37690693 Ry

     total magnetization       =     0.90 Bohr mag/cell
     absolute magnetization    =     1.36 Bohr mag/cell

     iteration #  5     ecut=    58.80 Ry     beta=0.10
     Davidson diagonalization with overlap
     ethr =  5.04E-03,  avg # of iterations =  2.1

     negative rho (up, down):  1.209E-01 1.079E-01
 
     Magnetic moment per site:
     atom:    1    charge:    6.9664    magn:    0.5167    constr:    0.0000
     atom:    2    charge:    6.9664    magn:    0.5167    constr:    0.0000
     atom:    3    charge:    1.1147    magn:    0.0602    constr:    0.0000
     atom:    4    charge:    1.1147    magn:    0.0602    constr:    0.0000

     total cpu time spent up to now is       34.3 secs

     total energy              =    -824.43535904 Ry
     Harris-Foulkes estimate   =    -824.35900430 Ry
     estimated scf accuracy    <       4.49469836 Ry

     total magnetization       =     0.61 Bohr mag/cell
     absolute magnetization    =     1.31 Bohr mag/cell

     iteration #  6     ecut=    58.80 Ry     beta=0.10
     Davidson diagonalization with overlap
     ethr =  5.04E-03,  avg # of iterations =  1.0

     negative rho (up, down):  1.190E-01 1.123E-01
 
     Magnetic moment per site:
     atom:    1    charge:    7.1047    magn:    0.4071    constr:    0.0000
     atom:    2    charge:    7.1047    magn:    0.4071    constr:    0.0000
     atom:    3    charge:    1.1079    magn:    0.0271    constr:    0.0000
     atom:    4    charge:    1.1079    magn:    0.0271    constr:    0.0000

     total cpu time spent up to now is       38.8 secs

     total energy              =    -823.14314427 Ry
     Harris-Foulkes estimate   =    -824.44003857 Ry
     estimated scf accuracy    <       5.44314494 Ry

     total magnetization       =     0.58 Bohr mag/cell
     absolute magnetization    =     1.21 Bohr mag/cell

     iteration #  7     ecut=    58.80 Ry     beta=0.10
     Davidson diagonalization with overlap
     ethr =  5.04E-03,  avg # of iterations =  1.5

     negative rho (up, down):  1.191E-01 1.163E-01
 
     Magnetic moment per site:
     atom:    1    charge:    7.1299    magn:    0.3232    constr:    0.0000
     atom:    2    charge:    7.1299    magn:    0.3232    constr:    0.0000
     atom:    3    charge:    1.1301    magn:    0.0069    constr:    0.0000
     atom:    4    charge:    1.1301    magn:    0.0069    constr:    0.0000

     total cpu time spent up to now is       43.6 secs

     total energy              =    -824.13505832 Ry
     Harris-Foulkes estimate   =    -824.32088524 Ry
     estimated scf accuracy    <       4.55859985 Ry

     total magnetization       =     0.49 Bohr mag/cell
     absolute magnetization    =     1.55 Bohr mag/cell

     iteration #  8     ecut=    58.80 Ry     beta=0.10
     Davidson diagonalization with overlap
     ethr =  5.04E-03,  avg # of iterations =  1.0

     negative rho (up, down):  1.178E-01 1.186E-01
 
     Magnetic moment per site:
     atom:    1    charge:    7.0769    magn:    0.2447    constr:    0.0000
     atom:    2    charge:    7.0769    magn:    0.2447    constr:    0.0000
     atom:    3    charge:    1.1297    magn:   -0.0125    constr:    0.0000
     atom:    4    charge:    1.1297    magn:   -0.0125    constr:    0.0000

     total cpu time spent up to now is       48.1 secs

     total energy              =    -823.96367691 Ry
     Harris-Foulkes estimate   =    -824.17870646 Ry
     estimated scf accuracy    <       2.06602845 Ry

     total magnetization       =     0.25 Bohr mag/cell
     absolute magnetization    =     1.35 Bohr mag/cell

     iteration #  9     ecut=    58.80 Ry     beta=0.10
     Davidson diagonalization with overlap
     ethr =  3.69E-03,  avg # of iterations =  1.0

     negative rho (up, down):  1.188E-01 1.185E-01
 
     Magnetic moment per site:
     atom:    1    charge:    7.0599    magn:    0.2311    constr:    0.0000
     atom:    2    charge:    7.0600    magn:    0.2311    constr:    0.0000
     atom:    3    charge:    1.1342    magn:   -0.0070    constr:    0.0000
     atom:    4    charge:    1.1342    magn:   -0.0070    constr:    0.0000

     total cpu time spent up to now is       52.6 secs

     total energy              =    -824.03686659 Ry
     Harris-Foulkes estimate   =    -824.04726668 Ry
     estimated scf accuracy    <       0.07418544 Ry

     total magnetization       =     0.20 Bohr mag/cell
     absolute magnetization    =     1.33 Bohr mag/cell

     iteration # 10     ecut=    58.80 Ry     beta=0.10
     Davidson diagonalization with overlap
     ethr =  1.32E-04,  avg # of iterations =  1.6

     negative rho (up, down):  1.199E-01 1.193E-01
 
     Magnetic moment per site:
     atom:    1    charge:    7.0582    magn:    0.1946    constr:    0.0000
     atom:    2    charge:    7.0582    magn:    0.1945    constr:    0.0000
     atom:    3    charge:    1.1421    magn:   -0.0049    constr:    0.0000
     atom:    4    charge:    1.1421    magn:   -0.0049    constr:    0.0000

     total cpu time spent up to now is       57.5 secs

     total energy              =    -824.04351344 Ry
     Harris-Foulkes estimate   =    -824.04368230 Ry
     estimated scf accuracy    <       0.00427292 Ry

     total magnetization       =     0.24 Bohr mag/cell
     absolute magnetization    =     1.29 Bohr mag/cell

     iteration # 11     ecut=    58.80 Ry     beta=0.10
     Davidson diagonalization with overlap
     ethr =  7.63E-06,  avg # of iterations =  2.0

     negative rho (up, down):  1.200E-01 1.193E-01
 
     Magnetic moment per site:
     atom:    1    charge:    7.0582    magn:    0.1926    constr:    0.0000
     atom:    2    charge:    7.0581    magn:    0.1926    constr:    0.0000
     atom:    3    charge:    1.1421    magn:   -0.0049    constr:    0.0000
     atom:    4    charge:    1.1421    magn:   -0.0049    constr:    0.0000

     total cpu time spent up to now is       62.6 secs

     total energy              =    -824.04393004 Ry
     Harris-Foulkes estimate   =    -824.04387612 Ry
     estimated scf accuracy    <       0.00092565 Ry

     total magnetization       =     0.20 Bohr mag/cell
     absolute magnetization    =     1.17 Bohr mag/cell

     iteration # 12     ecut=    58.80 Ry     beta=0.10
     Davidson diagonalization with overlap
     ethr =  1.65E-06,  avg # of iterations =  1.2

     negative rho (up, down):  1.200E-01 1.193E-01
 
     Magnetic moment per site:
     atom:    1    charge:    7.0599    magn:    0.1937    constr:    0.0000
     atom:    2    charge:    7.0599    magn:    0.1937    constr:    0.0000
     atom:    3    charge:    1.1424    magn:   -0.0048    constr:    0.0000
     atom:    4    charge:    1.1424    magn:   -0.0048    constr:    0.0000

     total cpu time spent up to now is       67.2 secs

     total energy              =    -824.04392635 Ry
     Harris-Foulkes estimate   =    -824.04394074 Ry
     estimated scf accuracy    <       0.00102876 Ry

     total magnetization       =     0.20 Bohr mag/cell
     absolute magnetization    =     1.16 Bohr mag/cell

     iteration # 13     ecut=    58.80 Ry     beta=0.10
     Davidson diagonalization with overlap
     ethr =  1.65E-06,  avg # of iterations =  1.0

     negative rho (up, down):  1.198E-01 1.191E-01
 
     Magnetic moment per site:
     atom:    1    charge:    7.0628    magn:    0.1874    constr:    0.0000
     atom:    2    charge:    7.0627    magn:    0.1875    constr:    0.0000
     atom:    3    charge:    1.1413    magn:   -0.0039    constr:    0.0000
     atom:    4    charge:    1.1413    magn:   -0.0039    constr:    0.0000

     total cpu time spent up to now is       71.7 secs

     total energy              =    -824.04374622 Ry
     Harris-Foulkes estimate   =    -824.04405125 Ry
     estimated scf accuracy    <       0.00345530 Ry

     total magnetization       =     0.19 Bohr mag/cell
     absolute magnetization    =     1.16 Bohr mag/cell

     iteration # 14     ecut=    58.80 Ry     beta=0.10
     Davidson diagonalization with overlap
     ethr =  1.65E-06,  avg # of iterations =  1.0

     negative rho (up, down):  1.198E-01 1.192E-01
 
     Magnetic moment per site:
     atom:    1    charge:    7.0628    magn:    0.1859    constr:    0.0000
     atom:    2    charge:    7.0628    magn:    0.1859    constr:    0.0000
     atom:    3    charge:    1.1412    magn:   -0.0043    constr:    0.0000
     atom:    4    charge:    1.1412    magn:   -0.0043    constr:    0.0000

     total cpu time spent up to now is       76.3 secs

     total energy              =    -824.04405084 Ry
     Harris-Foulkes estimate   =    -824.04384189 Ry
     estimated scf accuracy    <       0.00098044 Ry

     total magnetization       =     0.19 Bohr mag/cell
     absolute magnetization    =     1.11 Bohr mag/cell

     iteration # 15     ecut=    58.80 Ry     beta=0.10
     Davidson diagonalization with overlap
     ethr =  1.65E-06,  avg # of iterations =  1.0

     negative rho (up, down):  1.198E-01 1.191E-01
 
     Magnetic moment per site:
     atom:    1    charge:    7.0640    magn:    0.1777    constr:    0.0000
     atom:    2    charge:    7.0640    magn:    0.1777    constr:    0.0000
     atom:    3    charge:    1.1406    magn:   -0.0039    constr:    0.0000
     atom:    4    charge:    1.1406    magn:   -0.0039    constr:    0.0000

     total cpu time spent up to now is       80.7 secs

     total energy              =    -824.04439584 Ry
     Harris-Foulkes estimate   =    -824.04416971 Ry
     estimated scf accuracy    <       0.00511303 Ry

     total magnetization       =     0.19 Bohr mag/cell
     absolute magnetization    =     1.11 Bohr mag/cell

     iteration # 16     ecut=    58.80 Ry     beta=0.10
     Davidson diagonalization with overlap
     ethr =  1.65E-06,  avg # of iterations =  1.0

     negative rho (up, down):  1.199E-01 1.194E-01
 
     Magnetic moment per site:
     atom:    1    charge:    7.0641    magn:    0.1393    constr:    0.0000
     atom:    2    charge:    7.0640    magn:    0.1393    constr:    0.0000
     atom:    3    charge:    1.1425    magn:   -0.0039    constr:    0.0000
     atom:    4    charge:    1.1425    magn:   -0.0039    constr:    0.0000

     total cpu time spent up to now is       85.2 secs

     total energy              =    -824.04408496 Ry
     Harris-Foulkes estimate   =    -824.04442993 Ry
     estimated scf accuracy    <       0.00773988 Ry

     total magnetization       =     0.18 Bohr mag/cell
     absolute magnetization    =     1.06 Bohr mag/cell

     iteration # 17     ecut=    58.80 Ry     beta=0.10
     Davidson diagonalization with overlap
     ethr =  1.65E-06,  avg # of iterations =  1.2

     negative rho (up, down):  1.197E-01 1.196E-01
 
     Magnetic moment per site:
     atom:    1    charge:    7.0639    magn:    0.0496    constr:    0.0000
     atom:    2    charge:    7.0640    magn:    0.0496    constr:    0.0000
     atom:    3    charge:    1.1423    magn:   -0.0021    constr:    0.0000
     atom:    4    charge:    1.1423    magn:   -0.0021    constr:    0.0000

     total cpu time spent up to now is       90.0 secs

     total energy              =    -824.04294199 Ry
     Harris-Foulkes estimate   =    -824.04441811 Ry
     estimated scf accuracy    <       0.00279103 Ry

     total magnetization       =     0.15 Bohr mag/cell
     absolute magnetization    =     0.87 Bohr mag/cell

     iteration # 18     ecut=    58.80 Ry     beta=0.10
     Davidson diagonalization with overlap
     ethr =  1.65E-06,  avg # of iterations =  2.2

     negative rho (up, down):  1.197E-01 1.194E-01
 
     Magnetic moment per site:
     atom:    1    charge:    7.0627    magn:    0.0395    constr:    0.0000
     atom:    2    charge:    7.0627    magn:    0.0395    constr:    0.0000
     atom:    3    charge:    1.1421    magn:   -0.0008    constr:    0.0000
     atom:    4    charge:    1.1421    magn:   -0.0008    constr:    0.0000

     total cpu time spent up to now is       96.2 secs

     total energy              =    -824.04471848 Ry
     Harris-Foulkes estimate   =    -824.04482176 Ry
     estimated scf accuracy    <       0.00087575 Ry

     total magnetization       =     0.06 Bohr mag/cell
     absolute magnetization    =     0.35 Bohr mag/cell

     iteration # 19     ecut=    58.80 Ry     beta=0.10
     Davidson diagonalization with overlap
     ethr =  1.56E-06,  avg # of iterations =  1.0

     negative rho (up, down):  1.194E-01 1.195E-01
 
     Magnetic moment per site:
     atom:    1    charge:    7.0624    magn:   -0.0289    constr:    0.0000
     atom:    2    charge:    7.0624    magn:   -0.0289    constr:    0.0000
     atom:    3    charge:    1.1413    magn:    0.0005    constr:    0.0000
     atom:    4    charge:    1.1413    magn:    0.0005    constr:    0.0000

     total cpu time spent up to now is      100.7 secs

     total energy              =    -824.04347756 Ry
     Harris-Foulkes estimate   =    -824.04481902 Ry
     estimated scf accuracy    <       0.00011424 Ry

     total magnetization       =     0.05 Bohr mag/cell
     absolute magnetization    =     0.28 Bohr mag/cell

     iteration # 20     ecut=    58.80 Ry     beta=0.10
     Davidson diagonalization with overlap
     ethr =  2.04E-07,  avg # of iterations =  3.0

     negative rho (up, down):  1.195E-01 1.195E-01
 
     Magnetic moment per site:
     atom:    1    charge:    7.0641    magn:   -0.0013    constr:    0.0000
     atom:    2    charge:    7.0641    magn:   -0.0014    constr:    0.0000
     atom:    3    charge:    1.1418    magn:    0.0001    constr:    0.0000
     atom:    4    charge:    1.1418    magn:    0.0001    constr:    0.0000

     total cpu time spent up to now is      107.7 secs

     total energy              =    -824.04472119 Ry
     Harris-Foulkes estimate   =    -824.04488870 Ry
     estimated scf accuracy    <       0.00008671 Ry

     total magnetization       =    -0.03 Bohr mag/cell
     absolute magnetization    =     0.17 Bohr mag/cell

     iteration # 21     ecut=    58.80 Ry     beta=0.10
     Davidson diagonalization with overlap
     ethr =  1.55E-07,  avg # of iterations =  2.3

     negative rho (up, down):  1.195E-01 1.194E-01
 
     Magnetic moment per site:
     atom:    1    charge:    7.0637    magn:    0.0358    constr:    0.0000
     atom:    2    charge:    7.0637    magn:    0.0357    constr:    0.0000
     atom:    3    charge:    1.1415    magn:   -0.0008    constr:    0.0000
     atom:    4    charge:    1.1415    magn:   -0.0008    constr:    0.0000

     total cpu time spent up to now is      113.7 secs

     total energy              =    -824.04448252 Ry
     Harris-Foulkes estimate   =    -824.04491715 Ry
     estimated scf accuracy    <       0.00007835 Ry

     total magnetization       =    -0.00 Bohr mag/cell
     absolute magnetization    =     0.01 Bohr mag/cell

     iteration # 22     ecut=    58.80 Ry     beta=0.10
     Davidson diagonalization with overlap
     ethr =  1.40E-07,  avg # of iterations =  2.3

     negative rho (up, down):  1.195E-01 1.195E-01
 
     Magnetic moment per site:
     atom:    1    charge:    7.0635    magn:    0.0184    constr:    0.0000
     atom:    2    charge:    7.0635    magn:    0.0183    constr:    0.0000
     atom:    3    charge:    1.1417    magn:   -0.0005    constr:    0.0000
     atom:    4    charge:    1.1417    magn:   -0.0005    constr:    0.0000

     total cpu time spent up to now is      120.0 secs

     total energy              =    -824.04482190 Ry
     Harris-Foulkes estimate   =    -824.04487382 Ry
     estimated scf accuracy    <       0.00000847 Ry

     total magnetization       =     0.04 Bohr mag/cell
     absolute magnetization    =     0.22 Bohr mag/cell

     iteration # 23     ecut=    58.80 Ry     beta=0.10
     Davidson diagonalization with overlap
     ethr =  1.51E-08,  avg # of iterations =  2.8

     negative rho (up, down):  1.195E-01 1.195E-01
 
     Magnetic moment per site:
     atom:    1    charge:    7.0634    magn:    0.0112    constr:    0.0000
     atom:    2    charge:    7.0634    magn:    0.0111    constr:    0.0000
     atom:    3    charge:    1.1415    magn:   -0.0004    constr:    0.0000
     atom:    4    charge:    1.1415    magn:   -0.0004    constr:    0.0000

     total cpu time spent up to now is      126.7 secs

     total energy              =    -824.04489458 Ry
     Harris-Foulkes estimate   =    -824.04490203 Ry
     estimated scf accuracy    <       0.00000203 Ry

     total magnetization       =     0.02 Bohr mag/cell
     absolute magnetization    =     0.12 Bohr mag/cell

     iteration # 24     ecut=    58.80 Ry     beta=0.10
     Davidson diagonalization with overlap
     ethr =  3.63E-09,  avg # of iterations =  2.5

     negative rho (up, down):  1.194E-01 1.195E-01
 
     Magnetic moment per site:
     atom:    1    charge:    7.0634    magn:    0.0007    constr:    0.0000
     atom:    2    charge:    7.0634    magn:    0.0007    constr:    0.0000
     atom:    3    charge:    1.1416    magn:   -0.0002    constr:    0.0000
     atom:    4    charge:    1.1416    magn:   -0.0002    constr:    0.0000

     total cpu time spent up to now is      133.3 secs

     total energy              =    -824.04488298 Ry
     Harris-Foulkes estimate   =    -824.04490886 Ry
     estimated scf accuracy    <       0.00000186 Ry

     total magnetization       =     0.01 Bohr mag/cell
     absolute magnetization    =     0.07 Bohr mag/cell

     iteration # 25     ecut=    58.80 Ry     beta=0.10
     Davidson diagonalization with overlap
     ethr =  3.32E-09,  avg # of iterations =  3.0

     negative rho (up, down):  1.195E-01 1.195E-01
 
     Magnetic moment per site:
     atom:    1    charge:    7.0634    magn:    0.0009    constr:    0.0000
     atom:    2    charge:    7.0635    magn:    0.0009    constr:    0.0000
     atom:    3    charge:    1.1417    magn:   -0.0000    constr:    0.0000
     atom:    4    charge:    1.1417    magn:   -0.0000    constr:    0.0000

     total cpu time spent up to now is      140.4 secs

     End of self-consistent calculation

     Number of k-points >= 100: set verbosity='high' to print the bands.

     the Fermi energy is    17.1443 ev

!    total energy              =    -824.04491648 Ry
     Harris-Foulkes estimate   =    -824.04491299 Ry
     estimated scf accuracy    <       0.00000030 Ry

     The total energy is the sum of the following terms:

     one-electron contribution =    -305.07237564 Ry
     hartree contribution      =     182.92076814 Ry
     xc contribution           =    -215.52875543 Ry
     ewald contribution        =    -486.36049731 Ry
     smearing contrib. (-TS)   =      -0.00405624 Ry

     total magnetization       =     0.00 Bohr mag/cell
     absolute magnetization    =     0.01 Bohr mag/cell

     convergence has been achieved in  25 iterations

     Forces acting on atoms (Ry/au):


     negative rho (up, down):  1.195E-01 1.195E-01
     atom    1 type  1   force =     0.00000000    0.00000000    0.00000000
     atom    2 type  1   force =     0.00000000    0.00000000    0.00000000
     atom    3 type  2   force =     0.00000000    0.00000000    0.00000000
     atom    4 type  2   force =     0.00000000    0.00000000    0.00000000

     Total force =     0.000000     Total SCF correction =     0.000000
 
     init_run     :      1.93s CPU      2.06s WALL (       1 calls)
     electrons    :    133.70s CPU    138.05s WALL (       1 calls)
     forces       :      0.64s CPU      0.66s WALL (       1 calls)

     Called by init_run:
     wfcinit      :      1.55s CPU      1.63s WALL (       1 calls)
     potinit      :      0.10s CPU      0.11s WALL (       1 calls)

     Called by electrons:
     c_bands      :    113.75s CPU    117.28s WALL (      25 calls)
     sum_band     :     16.48s CPU     17.14s WALL (      25 calls)
     v_of_rho     :      1.69s CPU      1.82s WALL (      26 calls)
     newd         :      1.79s CPU      1.80s WALL (      26 calls)
     mix_rho      :      0.08s CPU      0.08s WALL (      25 calls)
     vdW_energy   :      0.34s CPU      0.37s WALL (      27 calls)
     vdW_ffts     :      0.43s CPU      0.46s WALL (      54 calls)
     vdW_v        :      0.20s CPU      0.20s WALL (      27 calls)

     Called by c_bands:
     init_us_2    :      0.70s CPU      0.74s WALL (    7800 calls)
     cegterg      :    107.78s CPU    111.20s WALL (    3750 calls)

     Called by *egterg:
     h_psi        :     55.89s CPU     58.25s WALL (   10785 calls)
     s_psi        :      2.75s CPU      2.81s WALL (   10785 calls)
     g_psi        :      0.23s CPU      0.23s WALL (    6885 calls)
     cdiaghg      :     34.01s CPU     34.74s WALL (   10635 calls)

     Called by h_psi:
     add_vuspsi   :      2.75s CPU      2.93s WALL (   10785 calls)

     General routines
     calbec       :      6.06s CPU      6.58s WALL (   14685 calls)
     fft          :      0.87s CPU      0.93s WALL (    2165 calls)
     ffts         :      0.02s CPU      0.02s WALL (     102 calls)
     fftw         :     51.11s CPU     53.06s WALL (  985662 calls)
     interpolate  :      0.06s CPU      0.07s WALL (     102 calls)
 
     Parallel routines
     fft_scatter  :     22.38s CPU     23.37s WALL (  987929 calls)
 
     PWSCF        :  2m16.50s CPU     2m21.04s WALL

 
   This run was terminated on:  11:26:46  14Nov2017            

=------------------------------------------------------------------------------=
   JOB DONE.
=------------------------------------------------------------------------------=
