  python dir          : /home/users/vossj/suncat/lib/python2.7/site-packages/espresso
  espresso dir        : /home/users/vossj/suncat/s2/qe5/bin
  pseudo dir          : /home/users/vossj/suncat/psp/gbrv1.5pbe
  ase-espresso py git : ffa2778-git



     Program PWSCF v.5.1rc2 starts on 14Nov2017 at  9:31:16 

     This program is part of the open-source Quantum ESPRESSO suite
     for quantum simulation of materials; please cite
         "P. Giannozzi et al., J. Phys.:Condens. Matter 21 395502 (2009);
          URL http://www.quantum-espresso.org", 
     in publications or presentations arising from this work. More details at
     http://www.quantum-espresso.org/quote

     Parallel version (MPI), running on    16 processors
     R & G space division:  proc/nbgrp/npool/nimage =      16
     Reading input from pw.inp
     Message from routine read_cards :
     DEPRECATED: no units specified in CELL_PARAMETERS card

     Current dimensions of program PWSCF are:
     Max number of different atomic species (ntypx) = 10
     Max number of k-points (npk) =  40000
     Max angular momentum in pseudopotentials (lmaxx) =  3

     **************************************************************************
     Initializing libbeef V0.1.2 with the BEEF-vdW functional.
     Citation: Wellendorff et al., PRB 85, 235149 (2012).
     **************************************************************************


     IMPORTANT: XC functional enforced from input :
     Exchange-correlation      = BEEF-VDW ( 1  4 27 13 2)
     Any further DFT definition will be discarded
     Please, verify this is what you really want


     Subspace diagonalization in iterative solution of the eigenvalue problem:
     scalapack distributed-memory algorithm (size of sub-group:  2*  2 procs)

     Found symmetry operation: I + ( -0.5000 -0.5000  0.0000)
     This is a supercell, fractional translations are disabled
 
     Parallelization info
     --------------------
     sticks:   dense  smooth     PW     G-vecs:    dense   smooth      PW
     Min         169      67     20                 6597     1668     264
     Max         170      68     21                 6602     1680     266
     Sum        2709    1085    325               105583    26785    4247
 


     bravais-lattice index     =            0
     lattice parameter (alat)  =       1.8897  a.u.
     unit-cell volume          =     438.7418 (a.u.)^3
     number of atoms/cell      =            4
     number of atomic types    =            2
     number of electrons       =        66.00
     number of Kohn-Sham states=           53
     kinetic-energy cutoff     =      58.7989  Ry
     charge density cutoff     =     587.9892  Ry
     convergence threshold     =      1.0E-06
     mixing beta               =       0.1000
     number of iterations used =           10  plain     mixing
     Exchange-correlation      = BEEF-VDW ( 1  4 27 13 2)

     celldm(1)=   1.889726  celldm(2)=   0.000000  celldm(3)=   0.000000
     celldm(4)=   0.000000  celldm(5)=   0.000000  celldm(6)=   0.000000

     crystal axes: (cart. coord. in units of alat)
               a(1) = (   4.032640   0.000000   0.000000 )  
               a(2) = (   0.000000   4.032640   0.000000 )  
               a(3) = (   0.000000   0.000000   3.997915 )  

     reciprocal axes: (cart. coord. in units 2 pi/alat)
               b(1) = (  0.247977  0.000000  0.000000 )  
               b(2) = (  0.000000  0.247977  0.000000 )  
               b(3) = (  0.000000  0.000000  0.250130 )  


     PseudoPot. # 1 for Zn read from file:
     /home/users/vossj/suncat/psp/gbrv1.5pbe/Zn.UPF
     MD5 check sum: df62231357ef9e81f77b2b3087fa5675
     Pseudo is Ultrasoft, Zval = 20.0
     Generated by new atomic code, or converted to UPF format
     Using radial grid of  943 points,  6 beta functions with: 
                l(1) =   0
                l(2) =   0
                l(3) =   1
                l(4) =   1
                l(5) =   2
                l(6) =   2
     Q(r) pseudized with  8 coefficients,  rinner =    1.100   1.100   1.100
                                                       1.100   1.100

     PseudoPot. # 2 for Nb read from file:
     /home/users/vossj/suncat/psp/gbrv1.5pbe/Nb.UPF
     MD5 check sum: 573aab8a2fa660278ed4a62cd769473f
     Pseudo is Ultrasoft + core correction, Zval = 13.0
     Generated by new atomic code, or converted to UPF format
     Using radial grid of  887 points,  6 beta functions with: 
                l(1) =   0
                l(2) =   0
                l(3) =   1
                l(4) =   1
                l(5) =   2
                l(6) =   2
     Q(r) pseudized with  6 coefficients,  rinner =    1.000   1.000   1.000
                                                       1.000   1.000

     vdW kernel table read from file vdW_kernel_table
     MD5 check sum: 095c7af220d748ca6e76c0b4c6cfb241

     atomic species   valence    mass     pseudopotential
        Zn1           20.00    65.39000     Zn( 1.00)
        Nb1           13.00    92.90640     Nb( 1.00)

     16 Sym. Ops., with inversion, found



   Cartesian axes

     site n.     atom                  positions (alat units)
         1           Zn1 tau(   1) = (   0.0000000   0.0000000   0.0000000  )
         2           Zn1 tau(   2) = (   2.0163200   2.0163200   0.0000000  )
         3           Nb1 tau(   3) = (   2.0163200   0.0000000   1.9989574  )
         4           Nb1 tau(   4) = (   0.0000000   2.0163200   1.9989574  )

     number of k points=    75  Fermi-Dirac smearing, width (Ry)=  0.0073
                       cart. coord. in units 2pi/alat
        k(    1) = (   0.0000000   0.0000000   0.0000000), wk =   0.0027435
        k(    2) = (   0.0000000   0.0000000   0.0277923), wk =   0.0054870
        k(    3) = (   0.0000000   0.0000000   0.0555845), wk =   0.0054870
        k(    4) = (   0.0000000   0.0000000   0.0833768), wk =   0.0054870
        k(    5) = (   0.0000000   0.0000000   0.1111691), wk =   0.0054870
        k(    6) = (   0.0000000   0.0275529   0.0000000), wk =   0.0109739
        k(    7) = (   0.0000000   0.0275529   0.0277923), wk =   0.0219479
        k(    8) = (   0.0000000   0.0275529   0.0555845), wk =   0.0219479
        k(    9) = (   0.0000000   0.0275529   0.0833768), wk =   0.0219479
        k(   10) = (   0.0000000   0.0275529   0.1111691), wk =   0.0219479
        k(   11) = (   0.0000000   0.0551059   0.0000000), wk =   0.0109739
        k(   12) = (   0.0000000   0.0551059   0.0277923), wk =   0.0219479
        k(   13) = (   0.0000000   0.0551059   0.0555845), wk =   0.0219479
        k(   14) = (   0.0000000   0.0551059   0.0833768), wk =   0.0219479
        k(   15) = (   0.0000000   0.0551059   0.1111691), wk =   0.0219479
        k(   16) = (   0.0000000   0.0826588   0.0000000), wk =   0.0109739
        k(   17) = (   0.0000000   0.0826588   0.0277923), wk =   0.0219479
        k(   18) = (   0.0000000   0.0826588   0.0555845), wk =   0.0219479
        k(   19) = (   0.0000000   0.0826588   0.0833768), wk =   0.0219479
        k(   20) = (   0.0000000   0.0826588   0.1111691), wk =   0.0219479
        k(   21) = (   0.0000000   0.1102118   0.0000000), wk =   0.0109739
        k(   22) = (   0.0000000   0.1102118   0.0277923), wk =   0.0219479
        k(   23) = (   0.0000000   0.1102118   0.0555845), wk =   0.0219479
        k(   24) = (   0.0000000   0.1102118   0.0833768), wk =   0.0219479
        k(   25) = (   0.0000000   0.1102118   0.1111691), wk =   0.0219479
        k(   26) = (   0.0275529   0.0275529   0.0000000), wk =   0.0109739
        k(   27) = (   0.0275529   0.0275529   0.0277923), wk =   0.0219479
        k(   28) = (   0.0275529   0.0275529   0.0555845), wk =   0.0219479
        k(   29) = (   0.0275529   0.0275529   0.0833768), wk =   0.0219479
        k(   30) = (   0.0275529   0.0275529   0.1111691), wk =   0.0219479
        k(   31) = (   0.0275529   0.0551059   0.0000000), wk =   0.0219479
        k(   32) = (   0.0275529   0.0551059   0.0277923), wk =   0.0438957
        k(   33) = (   0.0275529   0.0551059   0.0555845), wk =   0.0438957
        k(   34) = (   0.0275529   0.0551059   0.0833768), wk =   0.0438957
        k(   35) = (   0.0275529   0.0551059   0.1111691), wk =   0.0438957
        k(   36) = (   0.0275529   0.0826588   0.0000000), wk =   0.0219479
        k(   37) = (   0.0275529   0.0826588   0.0277923), wk =   0.0438957
        k(   38) = (   0.0275529   0.0826588   0.0555845), wk =   0.0438957
        k(   39) = (   0.0275529   0.0826588   0.0833768), wk =   0.0438957
        k(   40) = (   0.0275529   0.0826588   0.1111691), wk =   0.0438957
        k(   41) = (   0.0275529   0.1102118   0.0000000), wk =   0.0219479
        k(   42) = (   0.0275529   0.1102118   0.0277923), wk =   0.0438957
        k(   43) = (   0.0275529   0.1102118   0.0555845), wk =   0.0438957
        k(   44) = (   0.0275529   0.1102118   0.0833768), wk =   0.0438957
        k(   45) = (   0.0275529   0.1102118   0.1111691), wk =   0.0438957
        k(   46) = (   0.0551059   0.0551059   0.0000000), wk =   0.0109739
        k(   47) = (   0.0551059   0.0551059   0.0277923), wk =   0.0219479
        k(   48) = (   0.0551059   0.0551059   0.0555845), wk =   0.0219479
        k(   49) = (   0.0551059   0.0551059   0.0833768), wk =   0.0219479
        k(   50) = (   0.0551059   0.0551059   0.1111691), wk =   0.0219479
        k(   51) = (   0.0551059   0.0826588   0.0000000), wk =   0.0219479
        k(   52) = (   0.0551059   0.0826588   0.0277923), wk =   0.0438957
        k(   53) = (   0.0551059   0.0826588   0.0555845), wk =   0.0438957
        k(   54) = (   0.0551059   0.0826588   0.0833768), wk =   0.0438957
        k(   55) = (   0.0551059   0.0826588   0.1111691), wk =   0.0438957
        k(   56) = (   0.0551059   0.1102118   0.0000000), wk =   0.0219479
        k(   57) = (   0.0551059   0.1102118   0.0277923), wk =   0.0438957
        k(   58) = (   0.0551059   0.1102118   0.0555845), wk =   0.0438957
        k(   59) = (   0.0551059   0.1102118   0.0833768), wk =   0.0438957
        k(   60) = (   0.0551059   0.1102118   0.1111691), wk =   0.0438957
        k(   61) = (   0.0826588   0.0826588   0.0000000), wk =   0.0109739
        k(   62) = (   0.0826588   0.0826588   0.0277923), wk =   0.0219479
        k(   63) = (   0.0826588   0.0826588   0.0555845), wk =   0.0219479
        k(   64) = (   0.0826588   0.0826588   0.0833768), wk =   0.0219479
        k(   65) = (   0.0826588   0.0826588   0.1111691), wk =   0.0219479
        k(   66) = (   0.0826588   0.1102118   0.0000000), wk =   0.0219479
        k(   67) = (   0.0826588   0.1102118   0.0277923), wk =   0.0438957
        k(   68) = (   0.0826588   0.1102118   0.0555845), wk =   0.0438957
        k(   69) = (   0.0826588   0.1102118   0.0833768), wk =   0.0438957
        k(   70) = (   0.0826588   0.1102118   0.1111691), wk =   0.0438957
        k(   71) = (   0.1102118   0.1102118   0.0000000), wk =   0.0109739
        k(   72) = (   0.1102118   0.1102118   0.0277923), wk =   0.0219479
        k(   73) = (   0.1102118   0.1102118   0.0555845), wk =   0.0219479
        k(   74) = (   0.1102118   0.1102118   0.0833768), wk =   0.0219479
        k(   75) = (   0.1102118   0.1102118   0.1111691), wk =   0.0219479

     Dense  grid:   105583 G-vectors     FFT dimensions: (  60,  60,  60)

     Smooth grid:    26785 G-vectors     FFT dimensions: (  40,  40,  40)

     Largest allocated arrays     est. size (Mb)     dimensions
        Kohn-Sham Wavefunctions         0.17 Mb     (     211,   53)
        NL pseudopotentials             0.23 Mb     (     211,   72)
        Each V/rho on FFT grid          0.22 Mb     (   14400)
        Each G-vector array             0.05 Mb     (    6599)
        G-vector shells                 0.02 Mb     (    2544)
     Largest temporary arrays     est. size (Mb)     dimensions
        Auxiliary wavefunctions         0.68 Mb     (     211,  212)
        Each subspace H/S matrix        0.17 Mb     (     106,  106)
        Each <psi_i|beta_j> matrix      0.06 Mb     (      72,   53)
        Arrays for rho mixing           2.20 Mb     (   14400,   10)

     Initial potential from superposition of free atoms

     starting charge   65.99425, renormalised to   66.00000


     ************************************************************************
     *
     * You are using vdW-DF for exchange-correlation in this calculation.
     * Please cite the following three references that made this development
     * possible:
     *
     *   M. Dion, H. Rydberg, E. Schroder, D. C. Langreth, and
     *   B. I. Lundqvist, Phys. Rev. Lett. 92, 246401 (2004).
     *
     *   T. Thonhauser, V. R. Cooper, S. Li, A. Puzder, P. Hyldgaard, and
     *   D. C. Langreth, Phys. Rev. B 76, 125112 (2007).
     *
     *   G. Roman-Perez and J. M. Soler, Phys. Rev. Lett. 103, 096102 (2009).
     *
     *
     * If you are using vdW-DF2, please also cite:
     *
     *   K. Lee, E. D. Murray, L. Kong, B. I. Lundqvist, and
     *   D. C. Langreth, Phys. Rev. B 82, 081101(R) (2010).
     *
     *
     * If you are calculating the stress with vdW-DF, please also cite:
     *
     *   R. Sabatini, E. Kucukbenli, B. Kolb, T. Thonhauser, and
     *   S. de Gironcoli, J. Phys.: Condens. Matter 24, 424209 (2012).
     *
     ************************************************************************

     Carrying out vdW-DF run using the following parameters:

     Nqs =      20    Nr_points =    1024   r_max =   100.000
     q_mesh =
               0.00001000     0.04494208     0.09755937     0.15916263
               0.23128650     0.31572767     0.41458969     0.53033537
               0.66584808     0.82450364     1.01025438     1.22772762
               1.48234092     1.78043706     2.12944203     2.53805004
               3.01644009     3.57652955     4.23227104     5.00000000

     Gradients computed in reciprocal space

     ************************************************************************


     Starting wfc are   52 randomized atomic wfcs +    1 random wfc

     total cpu time spent up to now is        1.8 secs

     per-process dynamical memory:    39.1 Mb

     Self-consistent Calculation

     iteration #  1     ecut=    58.80 Ry     beta=0.10
     Davidson diagonalization with overlap
     ethr =  1.00E-02,  avg # of iterations =  4.5

     Threshold (ethr) on eigenvalues was too large:
     Diagonalizing with lowered threshold

     Davidson diagonalization with overlap
     ethr =  3.66E-04,  avg # of iterations =  1.3

     total cpu time spent up to now is        9.6 secs

     total energy              =   -1162.77845568 Ry
     Harris-Foulkes estimate   =   -1162.80594316 Ry
     estimated scf accuracy    <       0.23763570 Ry

     iteration #  2     ecut=    58.80 Ry     beta=0.10
     Davidson diagonalization with overlap
     ethr =  3.60E-04,  avg # of iterations =  1.0

     total cpu time spent up to now is       12.2 secs

     total energy              =   -1162.73532420 Ry
     Harris-Foulkes estimate   =   -1162.78116448 Ry
     estimated scf accuracy    <       0.14481774 Ry

     iteration #  3     ecut=    58.80 Ry     beta=0.10
     Davidson diagonalization with overlap
     ethr =  2.19E-04,  avg # of iterations =  2.1

     total cpu time spent up to now is       15.4 secs

     total energy              =   -1162.74586983 Ry
     Harris-Foulkes estimate   =   -1162.75101256 Ry
     estimated scf accuracy    <       0.02767911 Ry

     iteration #  4     ecut=    58.80 Ry     beta=0.10
     Davidson diagonalization with overlap
     ethr =  4.19E-05,  avg # of iterations =  2.4

     total cpu time spent up to now is       18.7 secs

     total energy              =   -1162.74794030 Ry
     Harris-Foulkes estimate   =   -1162.74812024 Ry
     estimated scf accuracy    <       0.00509303 Ry

     iteration #  5     ecut=    58.80 Ry     beta=0.10
     Davidson diagonalization with overlap
     ethr =  7.72E-06,  avg # of iterations =  3.0

     total cpu time spent up to now is       22.3 secs

     total energy              =   -1162.74797787 Ry
     Harris-Foulkes estimate   =   -1162.74853690 Ry
     estimated scf accuracy    <       0.00162117 Ry

     iteration #  6     ecut=    58.80 Ry     beta=0.10
     Davidson diagonalization with overlap
     ethr =  2.46E-06,  avg # of iterations =  2.1

     total cpu time spent up to now is       25.4 secs

     total energy              =   -1162.74822079 Ry
     Harris-Foulkes estimate   =   -1162.74826862 Ry
     estimated scf accuracy    <       0.00045372 Ry

     iteration #  7     ecut=    58.80 Ry     beta=0.10
     Davidson diagonalization with overlap
     ethr =  6.87E-07,  avg # of iterations =  2.0

     total cpu time spent up to now is       28.6 secs

     total energy              =   -1162.74825208 Ry
     Harris-Foulkes estimate   =   -1162.74828789 Ry
     estimated scf accuracy    <       0.00013579 Ry

     iteration #  8     ecut=    58.80 Ry     beta=0.10
     Davidson diagonalization with overlap
     ethr =  2.06E-07,  avg # of iterations =  1.9

     total cpu time spent up to now is       31.6 secs

     total energy              =   -1162.74826947 Ry
     Harris-Foulkes estimate   =   -1162.74826484 Ry
     estimated scf accuracy    <       0.00001288 Ry

     iteration #  9     ecut=    58.80 Ry     beta=0.10
     Davidson diagonalization with overlap
     ethr =  1.95E-08,  avg # of iterations =  1.4

     total cpu time spent up to now is       34.4 secs

     total energy              =   -1162.74826287 Ry
     Harris-Foulkes estimate   =   -1162.74827024 Ry
     estimated scf accuracy    <       0.00002206 Ry

     iteration # 10     ecut=    58.80 Ry     beta=0.10
     Davidson diagonalization with overlap
     ethr =  1.95E-08,  avg # of iterations =  2.0

     total cpu time spent up to now is       37.7 secs

     End of self-consistent calculation

          k = 0.0000 0.0000 0.0000 (  3351 PWs)   bands (ev):

  -110.1897-110.1888 -64.3648 -64.3648 -64.3576 -64.3576 -64.3462 -64.3450
   -39.0766 -38.8684 -15.3464 -15.3464 -15.2055 -14.9903 -14.5549 -14.5549
     7.6085   8.3714   8.4453   8.5502   8.5572   8.5572   8.7249   9.0157
     9.0157   9.2034   9.4267  12.4007  13.9636  14.0147  16.0602  16.0602
    16.7234  17.0709  17.0709  17.5140  18.7054  18.7054  20.2343  21.9364
    22.2117  22.8927  25.5204  25.6082  25.6082  26.2737  27.8872  27.8872
    30.9216  30.9630  31.2396  32.6647  33.9805

          k = 0.0000 0.0000 0.0278 (  3343 PWs)   bands (ev):

  -110.1897-110.1888 -64.3648 -64.3648 -64.3576 -64.3576 -64.3462 -64.3450
   -39.0764 -38.8682 -15.3461 -15.3461 -15.2109 -14.9938 -14.5548 -14.5548
     7.7396   8.3931   8.4522   8.5797   8.5797   8.5873   8.7675   9.0214
     9.0214   9.2040   9.4268  12.3968  13.8255  13.9541  15.3170  15.3170
    16.8615  17.2946  17.9993  17.9993  18.5871  18.5871  20.2323  20.9895
    21.9373  24.2291  25.8591  25.9278  25.9278  26.0296  27.6183  27.6183
    29.7144  30.9817  32.2124  32.4371  34.1262

          k = 0.0000 0.0000 0.0556 (  3318 PWs)   bands (ev):

  -110.1897-110.1888 -64.3647 -64.3647 -64.3576 -64.3576 -64.3462 -64.3450
   -39.0759 -38.8679 -15.3454 -15.3454 -15.2246 -15.0026 -14.5545 -14.5545
     8.0784   8.4477   8.4697   8.6396   8.6396   8.7319   8.8797   9.0360
     9.0360   9.2056   9.4269  12.3855  13.2415  13.9300  14.4369  14.4369
    16.8928  17.2639  18.3136  18.3136  19.4338  19.4338  19.7231  20.2271
    21.9393  24.7701  25.7825  26.7970  26.7970  26.8465  26.8465  27.1727
    28.7787  30.5861  31.5070  34.1708  34.1708

          k = 0.0000 0.0000 0.0834 (  3346 PWs)   bands (ev):

  -110.1897-110.1888 -64.3647 -64.3647 -64.3576 -64.3576 -64.3462 -64.3450
   -39.0753 -38.8675 -15.3447 -15.3447 -15.2401 -15.0126 -14.5541 -14.5541
     8.3813   8.4897   8.5090   8.7135   8.7135   9.0160   9.0529   9.0529
     9.1619   9.2074   9.4270  12.3373  12.3698  13.7904  13.7904  13.9022
    16.6154  17.8678  18.0376  18.0376  18.7926  20.2212  20.9999  20.9999
    21.9417  23.4384  25.6719  25.6719  27.0210  27.9572  28.0307  28.0307
    28.1491  30.3469  31.8326  32.9301  32.9301

          k = 0.0000 0.0000 0.1112 (  3362 PWs)   bands (ev):

  -110.1897-110.1888 -64.3648 -64.3648 -64.3576 -64.3576 -64.3462 -64.3450
   -39.0749 -38.8672 -15.3442 -15.3442 -15.2502 -15.0192 -14.5539 -14.5539
     8.4920   8.5029   8.5486   8.7657   8.7657   9.0641   9.0641   9.1107
     9.2086   9.4271   9.8680  11.3923  12.3575  13.4470  13.4470  13.8839
    16.4989  17.8727  17.8727  18.2975  18.4370  20.2173  21.9432  22.4286
    22.6057  22.6057  24.2390  24.2390  27.6934  27.8329  27.9968  29.3689
    29.3689  30.2475  31.5400  31.5400  33.6238

          k = 0.0000 0.0276 0.0000 (  3331 PWs)   bands (ev):

  -110.1896-110.1888 -64.3645 -64.3645 -64.3578 -64.3578 -64.3461 -64.3450
   -39.0703 -38.8746 -15.3269 -15.3238 -15.1990 -14.9967 -14.5836 -14.5802
     7.7402   8.3992   8.4692   8.5725   8.5789   8.5819   8.7430   9.0033
     9.0152   9.1901   9.3880  12.4200  14.0758  14.1143  15.8187  15.9330
    16.1156  16.9273  17.1028  17.6279  18.5866  19.4563  19.9772  21.6253
    22.5922  23.1924  24.8837  25.1560  25.9649  25.9813  27.9986  28.4327
    30.7450  31.1200  31.4411  33.1661  34.0961

          k = 0.0000 0.0276 0.0278 (  3329 PWs)   bands (ev):

  -110.1896-110.1888 -64.3645 -64.3645 -64.3578 -64.3578 -64.3461 -64.3450
   -39.0701 -38.8745 -15.3266 -15.3236 -15.2043 -15.0002 -14.5834 -14.5800
     7.8652   8.4192   8.4754   8.5941   8.6016   8.6160   8.7843   9.0091
     9.0220   9.1906   9.3875  12.4217  13.9216  14.0690  15.0009  15.3943
    16.5467  16.8111  17.9832  18.1191  18.4592  19.2153  19.9901  21.3807
    21.6509  24.4914  25.2958  25.4556  25.7870  26.3701  27.3056  28.1460
    30.1361  31.0277  32.6963  32.8074  33.9140

          k = 0.0000 0.0276 0.0556 (  3329 PWs)   bands (ev):

  -110.1896-110.1888 -64.3645 -64.3645 -64.3578 -64.3578 -64.3461 -64.3450
   -39.0696 -38.8741 -15.3258 -15.3229 -15.2177 -15.0091 -14.5830 -14.5797
     8.1792   8.4701   8.4911   8.6517   8.6546   8.7588   8.8907   9.0239
     9.0476   9.1916   9.3859  12.4292  13.3342  14.0517  14.1786  14.5349
    16.6206  17.1077  18.1667  18.7116  19.1716  19.2815  20.0056  20.1988
    21.7629  24.8727  25.8111  26.2169  26.2672  26.5232  27.3130  27.3391
    29.3700  31.2047  32.0112  33.2484  34.1792

          k = 0.0000 0.0276 0.0834 (  3352 PWs)   bands (ev):

  -110.1896-110.1888 -64.3645 -64.3645 -64.3578 -64.3578 -64.3462 -64.3451
   -39.0690 -38.8737 -15.3249 -15.3221 -15.2329 -15.0191 -14.5825 -14.5794
     8.4408   8.5092   8.5296   8.7188   8.7228   8.9912   9.0170   9.0410
     9.1902   9.2771   9.3835  12.4481  12.4499  13.5455  13.9031  14.0319
    16.5409  17.7736  17.8731  18.2243  19.1437  20.0138  20.4102  20.5492
    22.1695  23.5294  25.3496  26.1474  27.0236  27.3544  27.3843  28.1950
    29.2130  31.0092  31.7703  32.7391  33.0544

          k = 0.0000 0.0276 0.1112 (  3353 PWs)   bands (ev):

  -110.1896-110.1888 -64.3645 -64.3645 -64.3578 -64.3578 -64.3462 -64.3451
   -39.0686 -38.8735 -15.3243 -15.3217 -15.2429 -15.0257 -14.5822 -14.5791
     8.5211   8.5366   8.5695   8.7628   8.7731   9.0277   9.0523   9.1036
     9.1918   9.3815   9.9139  11.5600  12.4836  13.1817  13.5680  14.0191
    16.5530  17.6983  17.9196  18.3841  18.6911  20.0169  20.8961  21.4038
    22.5577  23.2186  24.7093  24.7601  27.3335  27.7700  27.9909  29.2245
    30.0082  30.7897  30.8715  31.5846  33.8504

          k = 0.0000 0.0551 0.0000 (  3341 PWs)   bands (ev):

  -110.1896-110.1889 -64.3639 -64.3639 -64.3584 -64.3584 -64.3460 -64.3451
   -39.0521 -38.8926 -15.2694 -15.2585 -15.1802 -15.0153 -14.6645 -14.6525
     8.1151   8.4773   8.5391   8.6159   8.6504   8.6587   8.7843   8.9672
     9.0092   9.1579   9.2814  12.3254  14.4029  14.4051  14.8942  15.6410
    16.1663  16.2810  17.1108  17.8610  18.2662  19.2708  20.7048  21.0648
    23.1072  23.9371  24.1338  24.1483  25.8258  26.1696  28.2285  29.7574
    29.7586  31.6590  32.4881  33.6923  34.2048

          k = 0.0000 0.0551 0.0278 (  3344 PWs)   bands (ev):

  -110.1896-110.1889 -64.3639 -64.3639 -64.3584 -64.3584 -64.3460 -64.3451
   -39.0519 -38.8925 -15.2690 -15.2582 -15.1852 -15.0188 -14.6642 -14.6523
     8.2168   8.4928   8.5434   8.6352   8.6635   8.6977   8.8211   8.9734
     9.0207   9.1593   9.2798  12.3307  14.1966  14.4058  14.4466  15.6128
    16.0598  16.1594  17.8408  18.1138  18.1213  19.2743  20.3419  21.1870
    22.1369  24.4507  24.5180  24.7909  25.7990  26.5690  27.2584  29.4032
    30.6593  30.9934  32.7646  33.3744  34.2573

          k = 0.0000 0.0551 0.0556 (  3332 PWs)   bands (ev):

  -110.1896-110.1889 -64.3639 -64.3639 -64.3584 -64.3584 -64.3460 -64.3451
   -39.0514 -38.8921 -15.2679 -15.2576 -15.1979 -15.0278 -14.6633 -14.6520
     8.4383   8.5338   8.5544   8.6863   8.6999   8.8269   8.9115   8.9894
     9.0880   9.1767   9.2750  12.3512  13.6033  13.8089  14.4083  14.8138
    16.2264  16.7256  17.7690  18.7340  18.7470  19.1886  19.6799  21.0306
    21.6372  24.4437  25.2026  25.3562  25.7232  27.1942  27.5467  28.4724
    30.3535  31.4811  31.7367  33.9465  34.3749

          k = 0.0000 0.0551 0.0834 (  3337 PWs)   bands (ev):

  -110.1896-110.1889 -64.3639 -64.3639 -64.3584 -64.3584 -64.3461 -64.3452
   -39.0509 -38.8917 -15.2667 -15.2568 -15.2124 -15.0380 -14.6624 -14.6516
     8.5670   8.5870   8.5894   8.7390   8.7497   8.9274   9.0078   9.0146
     9.1415   9.2677   9.5056  12.4012  12.7818  13.2742  14.2240  14.4129
    16.4364  17.4272  17.5060  18.6237  19.2947  19.4177  19.4732  20.2561
    22.5368  22.7849  25.9707  26.0470  26.2438  27.2142  27.8551  28.5880
    30.1767  30.6391  32.5172  33.5195  33.5452

          k = 0.0000 0.0551 0.1112 (  3356 PWs)   bands (ev):

  -110.1896-110.1889 -64.3639 -64.3639 -64.3584 -64.3584 -64.3461 -64.3452
   -39.0505 -38.8915 -15.2659 -15.2564 -15.2218 -15.0447 -14.6618 -14.6513
     8.5752   8.6284   8.6523   8.7589   8.7949   8.9506   9.0200   9.0835
     9.1432   9.2614  10.0359  12.0463  12.4871  12.9248  13.9117  14.4171
    16.7072  17.2243  18.0625  18.2205  19.4620  19.5186  19.6061  20.2998
    21.3123  23.6513  25.9550  26.1445  26.5718  26.8078  28.1938  29.3063
    30.1131  30.6035  32.2101  32.2841  33.6930

          k = 0.0000 0.0827 0.0000 (  3346 PWs)   bands (ev):

  -110.1894-110.1890 -64.3630 -64.3630 -64.3594 -64.3594 -64.3459 -64.3453
   -39.0243 -38.9202 -15.1772 -15.1571 -15.1514 -15.0438 -14.7831 -14.7617
     8.5807   8.5899   8.6501   8.6811   8.7473   8.8017   8.8201   8.9104
     8.9859   9.1298   9.1978  11.7267  14.6794  14.8229  14.9276  15.3535
    15.5968  16.5520  16.8723  17.7320  17.8277  18.3360  20.8401  22.0618
    22.9753  23.0171  23.4830  24.6314  26.2945  26.3614  28.9987  29.0424
    31.4074  32.4007  32.8041  33.3742  33.5347

          k = 0.0000 0.0827 0.0278 (  3346 PWs)   bands (ev):

  -110.1894-110.1890 -64.3630 -64.3630 -64.3594 -64.3594 -64.3459 -64.3453
   -39.0241 -38.9201 -15.1767 -15.1568 -15.1561 -15.0475 -14.7826 -14.7616
     8.6005   8.6164   8.6517   8.6968   8.7532   8.8365   8.8498   8.9180
     9.0030   9.1277   9.2384  11.7289  14.3989  14.5746  14.9382  15.6827
    15.7182  15.9244  17.4100  17.6415  17.8620  18.3596  21.1131  21.4904
    22.5234  23.3510  23.8680  24.7606  25.9363  26.7447  28.4642  30.1504
    30.8896  31.6616  31.8403  34.1974  34.2676

          k = 0.0000 0.0827 0.0556 (  3340 PWs)   bands (ev):

  -110.1894-110.1890 -64.3630 -64.3630 -64.3594 -64.3594 -64.3459 -64.3453
   -39.0237 -38.9197 -15.1753 -15.1678 -15.1562 -15.0568 -14.7814 -14.7611
     8.6281   8.6560   8.6846   8.7387   8.7708   8.8750   8.9204   8.9375
     9.0472   9.1215   9.4456  11.7412  13.9717  13.9944  14.9697  15.2316
    16.0075  16.3174  17.2269  17.8584  18.1739  18.4107  20.4546  21.7570
    21.8939  23.6581  24.1769  24.5014  26.1963  27.8359  28.5449  29.7462
    30.4761  31.1054  31.3435  33.9736  35.0550

          k = 0.0000 0.0827 0.0834 (  3337 PWs)   bands (ev):

  -110.1894-110.1890 -64.3630 -64.3630 -64.3594 -64.3594 -64.3459 -64.3453
   -39.0232 -38.9193 -15.1812 -15.1738 -15.1555 -15.0673 -14.7800 -14.7607
     8.6612   8.6682   8.7475   8.7803   8.7910   8.8792   8.9598   9.0002
     9.0670   9.1116   9.8581  11.7710  13.3029  13.6086  14.7112  15.0165
    16.4392  16.8150  17.1421  18.0952  18.4379  18.5314  19.4173  21.0505
    22.0487  23.0099  25.0901  25.1478  26.9589  28.4063  28.6021  28.8977
    29.9545  30.5545  32.5902  33.2080  34.5514

          k = 0.0000 0.0827 0.1112 (  3346 PWs)   bands (ev):

  -110.1894-110.1890 -64.3630 -64.3630 -64.3594 -64.3594 -64.3459 -64.3453
   -39.0229 -38.9190 -15.1898 -15.1727 -15.1551 -15.0742 -14.7791 -14.7604
     8.6647   8.7117   8.7665   8.7877   8.8291   8.8742   8.9745   9.0532
     9.0704   9.1025  10.2529  11.8040  12.7640  13.3936  14.4336  15.0571
    16.5637  16.9405  17.9417  18.1920  18.2551  18.7782  19.0030  20.0651
    21.1298  24.0755  25.4578  25.8481  27.2443  27.7344  28.3683  28.8196
    30.2532  30.7622  33.0904  33.1412  33.8422

          k = 0.0000 0.1102 0.0000 (  3346 PWs)   bands (ev):

  -110.1893-110.1892 -64.3618 -64.3618 -64.3606 -64.3605 -64.3457 -64.3455
   -38.9903 -38.9541 -15.1162 -15.0788 -15.0571 -15.0306 -14.9204 -14.8933
     8.7091   8.7407   8.7586   8.7942   8.8289   8.8383   8.8493   8.8531
     8.9332   8.9598   9.7982  10.7539  15.0149  15.1577  15.2045  15.2742
    15.5935  16.3037  16.9180  17.3568  17.4543  17.5711  21.1922  21.9807
    22.8342  23.0193  23.3943  24.4435  26.4343  26.5376  29.4526  30.7820
    30.9307  32.6699  33.0001  33.1866  33.9071

          k = 0.0000 0.1102 0.0278 (  3345 PWs)   bands (ev):

  -110.1893-110.1892 -64.3618 -64.3618 -64.3606 -64.3605 -64.3457 -64.3455
   -38.9901 -38.9540 -15.1205 -15.0828 -15.0564 -15.0304 -14.9198 -14.8932
     8.7160   8.7543   8.7701   8.7909   8.8497   8.8508   8.8525   8.8620
     8.9382   8.9589   9.8671  10.7872  14.7153  14.8158  15.5382  15.5766
    15.6001  16.1033  16.9376  17.1559  17.5085  17.6023  21.5519  22.3450
    22.4068  22.5918  23.5989  24.1394  26.6397  26.8870  29.4477  30.3896
    30.9408  32.0899  32.3694  32.7294  34.7664

          k = 0.0000 0.1102 0.0556 (  3347 PWs)   bands (ev):

  -110.1893-110.1892 -64.3618 -64.3618 -64.3606 -64.3605 -64.3457 -64.3455
   -38.9897 -38.9536 -15.1312 -15.0927 -15.0548 -15.0298 -14.9183 -14.8927
     8.7317   8.7862   8.7873   8.8008   8.8495   8.8642   8.8779   8.9106
     8.9557   8.9616  10.0730  10.8863  14.3268  14.3332  15.6222  15.6880
    16.0049  16.0790  16.7217  16.9619  17.6415  17.6853  21.2755  21.8708
    22.4612  23.2432  23.3878  23.8041  27.1085  27.8675  29.5086  29.7324
    30.7845  31.2856  31.3613  32.5294  35.5660

          k = 0.0000 0.1102 0.0834 (  3339 PWs)   bands (ev):

  -110.1893-110.1892 -64.3618 -64.3618 -64.3606 -64.3605 -64.3457 -64.3455
   -38.9893 -38.9532 -15.1434 -15.1039 -15.0531 -15.0292 -14.9166 -14.8921
     8.7510   8.7865   8.8106   8.8403   8.8406   8.8626   8.9060   8.9485
     8.9752   8.9882  10.3718  11.0308  13.8284  13.9611  15.3030  15.6683
    16.2929  16.5874  16.8193  16.9773  17.7988  17.8032  20.0065  20.6732
    22.7924  23.6104  23.9400  24.3296  27.7555  28.4488  29.4696  29.6873
    30.1520  30.2443  31.9362  32.1548  35.9378

          k = 0.0000 0.1102 0.1112 (  3338 PWs)   bands (ev):

  -110.1893-110.1892 -64.3618 -64.3618 -64.3606 -64.3605 -64.3457 -64.3455
   -38.9890 -38.9529 -15.1513 -15.1112 -15.0520 -15.0288 -14.9155 -14.8917
     8.7702   8.7868   8.8122   8.8245   8.8718   8.8721   8.9239   8.9384
     9.0030   9.0162  10.6194  11.1493  13.4735  13.7235  15.0824  15.7524
    15.9907  16.9850  17.2229  17.5643  18.0105  18.1279  18.8288  19.3439
    22.5189  23.9969  24.5862  25.1825  28.1680  28.3997  28.4382  29.4673
    29.9181  31.8191  31.8994  32.6917  33.9773

          k = 0.0276 0.0276 0.0000 (  3323 PWs)   bands (ev):

  -110.1896-110.1889 -64.3648 -64.3639 -64.3585 -64.3575 -64.3461 -64.3450
   -39.0643 -38.8805 -15.3622 -15.2487 -15.1928 -15.0027 -14.6689 -14.5452
     7.8671   8.4271   8.4928   8.5827   8.6084   8.6102   8.7599   8.9828
     9.0249   9.1774   9.3493  12.4604  14.0544  14.3321  15.4297  15.7051
    16.2901  16.5072  16.8845  17.8051  18.7336  19.7732  19.7776  21.4931
    23.0168  23.4761  23.7722  25.7303  26.0547  26.1374  27.3969  29.1197
    30.3100  31.0839  31.2730  34.1607  34.4966

          k = 0.0276 0.0276 0.0278 (  3323 PWs)   bands (ev):

  -110.1896-110.1889 -64.3648 -64.3639 -64.3585 -64.3575 -64.3461 -64.3451
   -39.0641 -38.8803 -15.3619 -15.2484 -15.1980 -15.0063 -14.6687 -14.5450
     7.9836   8.4446   8.5003   8.6034   8.6274   8.6442   8.8000   8.9940
     9.0289   9.1776   9.3482  12.4656  13.9315  14.2550  15.0178  15.0269
    16.4340  16.5474  17.7333  18.1744  18.6233  19.4550  19.7899  21.5457
    21.7721  24.1030  24.8015  25.8911  26.2338  26.4246  27.2447  27.8751
    30.1389  31.3288  32.2940  33.1223  34.0472

          k = 0.0276 0.0276 0.0556 (  3336 PWs)   bands (ev):

  -110.1896-110.1889 -64.3648 -64.3639 -64.3585 -64.3575 -64.3461 -64.3451
   -39.0636 -38.8800 -15.3610 -15.2478 -15.2112 -15.0151 -14.6681 -14.5447
     8.2617   8.4911   8.5218   8.6547   8.6777   8.7772   8.9008   9.0396
     9.0463   9.1778   9.3448  12.4844  13.3972  14.1424  14.1891  14.3934
    16.3553  17.0436  18.3743  18.7616  18.9222  19.0335  19.8184  20.6287
    21.7001  24.9283  25.1585  25.8377  26.6133  27.1226  27.2149  27.3538
    29.3523  31.7742  31.9295  33.1039  33.9228

          k = 0.0276 0.0276 0.0834 (  3346 PWs)   bands (ev):

  -110.1896-110.1889 -64.3648 -64.3639 -64.3585 -64.3575 -64.3461 -64.3451
   -39.0631 -38.8796 -15.3600 -15.2470 -15.2262 -15.0252 -14.6674 -14.5443
     8.4568   8.5486   8.5632   8.7101   8.7452   8.9375   9.0175   9.0527
     9.1773   9.3397   9.3614  12.5276  12.5473  13.4619  13.8839  14.1623
    16.4213  17.7083  18.0548  18.1268  19.4093  19.5932  19.8378  20.8544
    21.7678  24.1411  25.2618  25.8911  25.9208  27.9058  28.1561  28.3399
    29.0498  31.1160  31.5782  33.3501  33.4385

          k = 0.0276 0.0276 0.1112 (  3356 PWs)   bands (ev):

  -110.1896-110.1889 -64.3648 -64.3639 -64.3585 -64.3575 -64.3462 -64.3451
   -39.0627 -38.8793 -15.3593 -15.2466 -15.2359 -15.0318 -14.6670 -14.5441
     8.5044   8.5896   8.6092   8.7441   8.7953   8.9747   9.0619   9.0959
     9.1763   9.3350   9.9576  11.7212  12.6053  13.0442  13.6067  14.1497
    16.5916  17.5462  17.9798  18.3294  19.0240  19.8465  20.0527  21.2476
    22.1821  24.0573  24.1384  25.3250  26.5338  28.1363  28.4742  29.3396
    29.4906  30.7820  31.1783  32.1546  33.8903

          k = 0.0276 0.0551 0.0000 (  3332 PWs)   bands (ev):

  -110.1895-110.1889 -64.3647 -64.3629 -64.3595 -64.3577 -64.3460 -64.3451
   -39.0472 -38.8973 -15.3548 -15.1751 -15.1399 -15.0201 -14.7938 -14.5632
     8.2151   8.5051   8.5781   8.6200   8.6808   8.6891   8.7979   8.9435
     9.0274   9.1460   9.2440  12.4271  14.2257  14.6695  14.7243  15.3670
    15.8377  16.5393  16.8685  17.6375  18.5460  19.1762  20.8097  21.2830
    22.6485  23.6950  24.1906  25.4038  25.9957  26.4029  27.5190  29.3830
    30.0406  31.2137  31.6282  34.3321  34.3561

          k = 0.0276 0.0551 0.0278 (  3345 PWs)   bands (ev):

  -110.1895-110.1889 -64.3647 -64.3629 -64.3595 -64.3577 -64.3460 -64.3452
   -39.0470 -38.8972 -15.3544 -15.1800 -15.1396 -15.0237 -14.7934 -14.5630
     8.2936   8.5160   8.5918   8.6396   8.6912   8.7231   8.8339   8.9691
     9.0322   9.1474   9.2419  12.4307  14.0942  14.4072  14.6496  15.0353
    15.8434  16.4847  17.5988  17.8330  18.4191  19.1943  20.3708  21.3841
    22.5750  22.9635  25.2035  25.9495  25.9683  26.6734  27.1505  28.3037
    30.4849  31.4315  32.3465  32.8530  34.0592

          k = 0.0276 0.0551 0.0556 (  3333 PWs)   bands (ev):

  -110.1895-110.1889 -64.3647 -64.3628 -64.3595 -64.3577 -64.3460 -64.3452
   -39.0466 -38.8968 -15.3533 -15.1925 -15.1390 -15.0327 -14.7925 -14.5626
     8.4360   8.5495   8.6339   8.6831   8.7276   8.8123   8.9188   9.0247
     9.1098   9.1832   9.2356  12.4412  13.5978  13.8453  14.5215  14.5651
    15.9456  16.8562  18.1222  18.1657  18.7423  19.1449  19.5650  21.4051
    21.6803  23.7614  24.8415  26.0446  26.8502  26.9351  27.5380  28.0728
    29.7263  31.3558  32.4933  33.5118  34.0859

          k = 0.0276 0.0551 0.0834 (  3345 PWs)   bands (ev):

  -110.1895-110.1889 -64.3647 -64.3628 -64.3595 -64.3577 -64.3460 -64.3452
   -39.0460 -38.8964 -15.3520 -15.2067 -15.1382 -15.0429 -14.7915 -14.5621
     8.5089   8.5997   8.6912   8.7186   8.7829   8.8701   9.0118   9.0377
     9.1330   9.2254   9.5885  12.4564  12.8480  13.3352  14.1193  14.5378
    16.2125  17.5127  17.7407  18.5037  18.5455  19.3612  19.6674  20.7246
    21.6752  23.8354  24.7358  26.0264  26.4516  27.6060  28.6480  28.6938
    29.0852  30.9821  32.8810  33.3864  33.5188

          k = 0.0276 0.0551 0.1112 (  3351 PWs)   bands (ev):

  -110.1895-110.1889 -64.3647 -64.3628 -64.3595 -64.3577 -64.3461 -64.3452
   -39.0457 -38.8962 -15.3512 -15.2159 -15.1377 -15.0495 -14.7908 -14.5618
     8.5331   8.6451   8.7274   8.7300   8.8275   8.8905   9.0455   9.0718
     9.1313   9.2162  10.0836  12.1852  12.4696  13.0479  13.8993  14.5316
    16.6413  17.2245  18.1175  18.1208  18.8710  19.3609  19.8071  20.4732
    21.2950  23.9600  25.2318  25.4930  26.5138  27.8330  28.4089  28.9852
    29.7455  31.6694  32.4363  32.4538  33.5751

          k = 0.0276 0.0827 0.0000 (  3341 PWs)   bands (ev):

  -110.1894-110.1890 -64.3641 -64.3616 -64.3607 -64.3583 -64.3458 -64.3453
   -39.0210 -38.9232 -15.3024 -15.1480 -15.0469 -15.0095 -14.9384 -14.6316
     8.5423   8.6170   8.6786   8.7430   8.7781   8.8279   8.8732   8.8889
     9.0099   9.0996   9.2179  11.8597  14.5029  14.6015  15.0730  15.1628
    15.3021  16.6284  16.8502  17.4300  18.1404  18.3485  21.1007  21.7785
    22.1126  23.6820  24.7980  24.8476  26.3049  26.3590  28.6751  28.6824
    31.1297  31.6524  31.7081  33.6621  34.4056

          k = 0.0276 0.0827 0.0278 (  3349 PWs)   bands (ev):

  -110.1894-110.1890 -64.3641 -64.3616 -64.3607 -64.3583 -64.3459 -64.3453
   -39.0209 -38.9231 -15.3019 -15.1526 -15.0505 -15.0092 -14.9379 -14.6314
     8.5540   8.6170   8.6995   8.7535   8.7804   8.8309   8.8568   8.9678
     9.0165   9.0980   9.2834  11.8592  14.3587  14.4120  14.9828  15.1015
    15.4359  16.4764  17.1054  17.7245  17.9888  18.3754  21.2459  21.4886
    22.0836  23.0662  25.1226  25.3537  26.0119  26.6976  28.2425  29.0363
    30.4893  31.6966  32.5358  33.1771  33.9063

          k = 0.0276 0.0827 0.0556 (  3339 PWs)   bands (ev):

  -110.1894-110.1890 -64.3641 -64.3616 -64.3607 -64.3583 -64.3459 -64.3453
   -39.0204 -38.9227 -15.3006 -15.1642 -15.0598 -15.0084 -14.9366 -14.6308
     8.5771   8.6305   8.7376   8.7821   8.7986   8.8181   8.9189   8.9957
     9.0503   9.0932   9.5437  11.8563  13.9209  14.0167  14.7817  15.0836
    15.6811  16.6597  17.2894  17.6588  18.3860  18.4235  20.3737  21.5296
    22.1848  22.8412  24.2195  26.1239  26.5062  27.7788  27.8152  29.3293
    29.5036  31.8479  32.0476  33.9822  34.2595

          k = 0.0276 0.0827 0.0834 (  3348 PWs)   bands (ev):

  -110.1894-110.1890 -64.3641 -64.3616 -64.3607 -64.3583 -64.3459 -64.3453
   -39.0199 -38.9223 -15.2991 -15.1773 -15.0703 -15.0076 -14.9353 -14.6302
     8.5964   8.6621   8.7589   8.8081   8.8282   8.8329   8.9805   9.0028
     9.0632   9.0879   9.9562  11.8484  13.3259  13.7024  14.5505  15.1023
    16.0139  17.2049  17.3353  17.4628  18.4491  18.9927  19.3286  21.2331
    21.4229  23.7518  23.7889  26.6673  26.8943  27.5395  28.3214  29.2749
    29.6317  31.5186  32.4403  33.0160  34.6736

          k = 0.0276 0.0827 0.1112 (  3344 PWs)   bands (ev):

  -110.1894-110.1890 -64.3641 -64.3616 -64.3607 -64.3583 -64.3459 -64.3453
   -39.0196 -38.9220 -15.2981 -15.1858 -15.0771 -15.0071 -14.9344 -14.6298
     8.6066   8.7026   8.7465   8.8120   8.8511   8.8670   9.0087   9.0092
     9.0638   9.0903  10.3153  11.8384  12.8720  13.5388  14.3951  15.1239
    16.3317  17.1670  17.4085  18.1360  18.3081  18.7446  19.3776  20.0980
    21.0704  24.3951  24.4509  26.1583  26.9605  27.6433  28.0923  29.4169
    30.5164  31.6680  32.5517  32.8067  34.0359

          k = 0.0276 0.1102 0.0000 (  3342 PWs)   bands (ev):

  -110.1893-110.1892 -64.3632 -64.3620 -64.3604 -64.3592 -64.3457 -64.3455
   -38.9890 -38.9550 -15.2088 -15.1149 -15.0828 -15.0798 -14.8707 -14.7393
     8.6944   8.7299   8.7491   8.8220   8.8259   8.8436   8.8794   8.8799
     8.9527   8.9612   9.9056  10.8777  14.9150  14.9250  14.9920  15.0901
    15.4193  15.9553  17.2344  17.4868  17.6779  17.6949  20.9884  21.1965
    23.4498  23.7236  24.1551  24.5635  26.3642  26.4115  29.1174  30.4763
    30.7458  31.9345  31.9668  33.2933  33.7263

          k = 0.0276 0.1102 0.0278 (  3348 PWs)   bands (ev):

  -110.1893-110.1892 -64.3632 -64.3620 -64.3604 -64.3592 -64.3457 -64.3455
   -38.9889 -38.9549 -15.2082 -15.1191 -15.0836 -15.0822 -14.8704 -14.7390
     8.6970   8.7137   8.7753   8.8052   8.8447   8.8486   8.8751   8.9125
     8.9590   8.9597   9.9820  10.9133  14.6581  14.6674  15.0622  15.3223
    15.4739  16.0413  17.0769  17.5028  17.6724  17.7571  21.2041  21.4762
    22.5179  23.0867  24.7083  24.7884  26.6408  26.7861  28.7296  29.6430
    30.8567  32.4600  32.4702  33.1617  33.6227

          k = 0.0276 0.1102 0.0556 (  3350 PWs)   bands (ev):

  -110.1893-110.1892 -64.3632 -64.3620 -64.3604 -64.3592 -64.3457 -64.3455
   -38.9885 -38.9545 -15.2068 -15.1298 -15.0934 -15.0807 -14.8697 -14.7383
     8.7019   8.7072   8.7901   8.8087   8.8597   8.8637   8.8891   8.9517
     8.9650   8.9772  10.1960  11.0101  14.2396  14.3115  15.1390  15.4880
    15.6581  16.2586  16.9203  17.2172  17.8401  17.9529  21.2183  21.6994
    21.9537  22.1570  24.5204  25.2735  27.2780  27.9422  28.3848  28.6033
    31.0058  32.0097  32.0505  32.6879  34.4565

          k = 0.0276 0.1102 0.0834 (  3343 PWs)   bands (ev):

  -110.1893-110.1892 -64.3632 -64.3620 -64.3604 -64.3592 -64.3457 -64.3455
   -38.9880 -38.9541 -15.2051 -15.1417 -15.1045 -15.0791 -14.8688 -14.7375
     8.7086   8.7129   8.7726   8.8259   8.8646   8.8901   8.9088   8.9570
     8.9935   9.0086  10.4789  11.1311  13.8368  14.0193  15.1018  15.5882
    15.8452  16.4636  17.1224  17.1224  17.9441  18.1950  19.9328  20.6076
    22.1307  22.9028  24.5629  25.6178  27.2857  27.7227  28.9495  29.6190
    30.6747  31.3729  31.8621  32.0562  35.4653

          k = 0.0276 0.1102 0.1112 (  3337 PWs)   bands (ev):

  -110.1893-110.1892 -64.3632 -64.3620 -64.3604 -64.3592 -64.3457 -64.3455
   -38.9877 -38.9538 -15.2041 -15.1495 -15.1118 -15.0781 -14.8683 -14.7370
     8.7166   8.7206   8.7565   8.8244   8.8743   8.9071   8.9160   8.9632
     9.0084   9.0342  10.6932  11.2159  13.5776  13.8633  15.0165  15.6734
    15.8394  16.5037  17.4142  17.7692  18.1158  18.4226  18.8222  19.3205
    22.2359  23.3758  25.0913  25.9777  26.7463  27.1537  29.7510  30.2030
    30.7506  31.6015  31.7544  32.3223  33.8568

          k = 0.0551 0.0551 0.0000 (  3337 PWs)   bands (ev):

  -110.1895-110.1890 -64.3650 -64.3616 -64.3608 -64.3573 -64.3459 -64.3452
   -39.0331 -38.9109 -15.4020 -15.1605 -15.0342 -14.9962 -14.9504 -14.5205
     8.4068   8.5821   8.6434   8.7335   8.7539   8.8257   8.8330   8.9016
     9.0481   9.1125   9.1484  12.6290  14.0285  14.2314  14.9451  15.0925
    15.2522  16.7232  16.9541  17.0131  18.8066  18.8417  21.3291  21.4802
    21.6415  24.8588  24.9366  25.4569  26.2529  26.6763  27.3903  28.5013
    30.1179  30.4864  31.4246  34.1314  34.3513

          k = 0.0551 0.0551 0.0278 (  3347 PWs)   bands (ev):

  -110.1895-110.1890 -64.3650 -64.3616 -64.3608 -64.3573 -64.3459 -64.3452
   -39.0329 -38.9108 -15.4015 -15.1652 -15.0377 -14.9959 -14.9498 -14.5204
     8.4264   8.5775   8.6686   8.7449   8.7564   8.7953   8.8576   9.0472
     9.0489   9.1124   9.1465  12.6134  14.0385  14.0852  14.5245  15.0060
    15.3348  16.8832  17.1788  17.3222  18.6758  18.9267  20.6825  21.6748
    21.8184  23.4675  25.9268  26.1466  26.6987  26.7354  27.2701  27.6035
    29.6658  31.7838  31.9075  32.5374  33.7352

          k = 0.0551 0.0551 0.0556 (  3336 PWs)   bands (ev):

  -110.1895-110.1890 -64.3650 -64.3616 -64.3608 -64.3573 -64.3459 -64.3452
   -39.0325 -38.9104 -15.4001 -15.1771 -15.0468 -14.9953 -14.9486 -14.5200
     8.4644   8.5882   8.7078   8.7733   8.7810   8.7871   8.9237   9.0468
     9.1103   9.1406   9.3798  12.5483  13.6468  13.9291  14.0459  14.9119
    15.5328  17.0173  17.3752  18.4403  18.5030  18.9892  19.4930  21.6044
    22.2756  22.5970  25.6912  25.7247  26.9245  27.4574  28.1871  28.1899
    28.9244  31.1265  32.7885  33.0035  33.6265

          k = 0.0551 0.0551 0.0834 (  3345 PWs)   bands (ev):

  -110.1895-110.1890 -64.3650 -64.3616 -64.3608 -64.3573 -64.3460 -64.3453
   -39.0320 -38.9100 -15.3985 -15.1906 -15.0570 -14.9946 -14.9471 -14.5195
     8.4953   8.6228   8.7266   8.7882   8.8174   8.8284   8.9865   9.0501
     9.1041   9.1308   9.8343  12.4128  13.0567  13.5626  14.0263  14.8734
    15.8759  17.3392  17.6784  18.3020  18.3486  19.0265  19.5705  21.0305
    21.4457  23.5792  24.8479  25.1884  27.2082  27.7784  28.6957  28.9770
    29.4072  30.8218  32.6490  33.6359  33.8802

          k = 0.0551 0.0551 0.1112 (  3343 PWs)   bands (ev):

  -110.1895-110.1890 -64.3650 -64.3616 -64.3608 -64.3573 -64.3460 -64.3453
   -39.0317 -38.9098 -15.3974 -15.1993 -15.0636 -14.9941 -14.9462 -14.5192
     8.5115   8.6681   8.7142   8.7963   8.8433   8.8722   9.0182   9.0555
     9.0967   9.1235  10.2324  12.2855  12.5804  13.4270  14.0007  14.8624
    16.3851  17.3205  17.4614  18.2586  18.3671  19.0445  20.0707  20.2741
    21.1297  24.4041  24.6114  24.6969  27.1274  27.4608  28.6331  29.6423
    29.9439  31.9444  32.7538  33.1623  33.3169

          k = 0.0551 0.0827 0.0000 (  3339 PWs)   bands (ev):

  -110.1894-110.1891 -64.3649 -64.3621 -64.3602 -64.3575 -64.3458 -64.3453
   -39.0116 -38.9319 -15.3994 -15.1383 -15.1073 -15.0558 -14.8476 -14.5346
     8.5319   8.6854   8.6909   8.8293   8.8311   8.8498   8.8518   9.0297
     9.0374   9.0491   9.4112  12.2434  13.8650  14.4405  14.6020  14.7593
    15.2975  16.1989  16.9634  17.3879  18.2811  18.6551  20.8650  21.6860
    22.3627  25.0147  25.1948  25.4692  26.2001  27.4399  27.7703  28.1596
    30.3083  30.7849  30.9893  34.2613  34.4271

          k = 0.0551 0.0827 0.0278 (  3336 PWs)   bands (ev):

  -110.1894-110.1891 -64.3649 -64.3621 -64.3602 -64.3575 -64.3458 -64.3454
   -39.0115 -38.9317 -15.3987 -15.1427 -15.1066 -15.0594 -14.8474 -14.5344
     8.5313   8.6497   8.7347   8.8019   8.8371   8.8510   8.8567   9.0397
     9.0428   9.0508   9.5402  12.2230  13.9099  14.1971  14.4049  14.8989
    15.3412  16.2789  17.2289  17.4627  18.2878  18.5957  21.0091  21.6670
    21.6869  23.8971  25.9463  26.0363  26.5456  27.0798  27.5605  28.5514
    29.4596  31.6001  31.8301  33.0424  33.5274

          k = 0.0551 0.0827 0.0556 (  3339 PWs)   bands (ev):

  -110.1894-110.1891 -64.3649 -64.3621 -64.3602 -64.3575 -64.3458 -64.3454
   -39.0110 -38.9314 -15.3970 -15.1538 -15.1050 -15.0686 -14.8467 -14.5339
     8.5307   8.6322   8.7569   8.7705   8.8490   8.8748   8.8794   9.0336
     9.0550   9.0602   9.8584  12.1373  13.7902  14.0018  14.1647  15.0930
    15.4434  16.4080  17.3224  18.2086  18.2739  18.4662  20.1441  21.4549
    21.9006  22.6963  25.2052  26.4558  27.2379  27.5599  27.9985  28.5860
    29.3862  31.7639  32.5084  32.6214  33.3285

          k = 0.0551 0.0827 0.0834 (  3330 PWs)   bands (ev):

  -110.1894-110.1891 -64.3649 -64.3621 -64.3602 -64.3575 -64.3458 -64.3454
   -39.0106 -38.9310 -15.3951 -15.1663 -15.1032 -15.0790 -14.8460 -14.5333
     8.5335   8.6354   8.7296   8.7837   8.8666   8.9056   8.9071   9.0310
     9.0574   9.0659  10.2334  11.9906  13.4094  13.9658  14.2416  15.2625
    15.6395  16.4948  17.5818  18.0402  18.4201  19.0666  19.1095  20.7228
    21.7638  22.7351  24.7649  25.9923  26.9538  28.1976  28.3047  29.4468
    30.2736  31.2310  31.9592  33.2366  34.2048

          k = 0.0551 0.0827 0.1112 (  3340 PWs)   bands (ev):

  -110.1894-110.1891 -64.3649 -64.3621 -64.3602 -64.3575 -64.3459 -64.3454
   -39.0103 -38.9307 -15.3939 -15.1744 -15.1021 -15.0858 -14.8455 -14.5329
     8.5381   8.6469   8.7158   8.7803   8.8822   8.9224   8.9300   9.0365
     9.0474   9.0705  10.5006  11.8765  13.1698  13.9581  14.3399  15.3343
    15.9618  16.5103  17.5212  18.1684  18.4193  18.6111  19.5211  19.9868
    21.1706  23.4551  24.8728  25.5026  26.2705  28.2576  28.7656  30.1857
    30.5475  31.6172  32.0219  33.4004  34.4011

          k = 0.0551 0.1102 0.0000 (  3355 PWs)   bands (ev):

  -110.1893-110.1892 -64.3643 -64.3634 -64.3590 -64.3581 -64.3457 -64.3455
   -38.9854 -38.9577 -15.3454 -15.2445 -15.1111 -15.0825 -14.7106 -14.6014
     8.6435   8.7388   8.7473   8.7962   8.8317   8.9037   8.9401   8.9452
     8.9617   9.0160  10.2344  11.2329  14.4268  14.4382  14.4736  14.8493
    15.0634  15.4617  17.3346  17.7583  17.8354  18.2791  20.8347  21.2631
    23.6423  24.8100  24.8927  24.9526  26.5174  26.9101  28.3507  29.6370
    30.4715  30.9241  31.2895  33.2342  34.6021

          k = 0.0551 0.1102 0.0278 (  3337 PWs)   bands (ev):

  -110.1893-110.1892 -64.3643 -64.3634 -64.3590 -64.3581 -64.3457 -64.3455
   -38.9853 -38.9576 -15.3447 -15.2438 -15.1152 -15.0863 -14.7104 -14.6012
     8.6394   8.7060   8.7608   8.7679   8.8494   8.9108   8.9233   8.9557
     8.9885   9.0152  10.3229  11.2705  14.1809  14.2302  14.6237  14.9982
    15.1847  15.5507  17.4659  17.8041  17.8290  18.2135  20.9641  21.2910
    22.5970  23.4194  26.0703  26.2236  26.5087  26.9619  27.6867  28.7562
    30.8222  31.7057  31.9241  33.2999  33.6717

          k = 0.0551 0.1102 0.0556 (  3345 PWs)   bands (ev):

  -110.1893-110.1892 -64.3643 -64.3634 -64.3590 -64.3581 -64.3457 -64.3455
   -38.9849 -38.9572 -15.3428 -15.2420 -15.1254 -15.0958 -14.7097 -14.6006
     8.6262   8.6700   8.7261   8.7625   8.8658   8.9203   8.9226   8.9736
     9.0170   9.0187  10.5388  11.3428  13.9498  14.0218  14.7585  15.1343
    15.4364  15.7143  17.5493  17.8699  18.0805  18.1013  20.8323  21.1977
    21.7303  22.1988  25.9787  26.8160  27.0127  27.1174  28.0392  28.3007
    30.9881  31.7928  32.5567  33.1374  33.2677

          k = 0.0551 0.1102 0.0834 (  3339 PWs)   bands (ev):

  -110.1893-110.1892 -64.3643 -64.3634 -64.3590 -64.3581 -64.3457 -64.3455
   -38.9844 -38.9568 -15.3407 -15.2399 -15.1369 -15.1067 -14.7090 -14.5999
     8.6138   8.6484   8.6908   8.7479   8.8697   8.9369   8.9417   8.9836
     9.0238   9.0347  10.7636  11.3784  13.8290  14.0762  14.8522  15.2947
    15.6174  15.8304  17.6226  17.7954  18.1523  18.5091  19.6954  20.2915
    21.8564  22.1696  25.5046  26.3347  26.5640  27.2284  29.4538  29.8478
    31.0548  31.2524  31.6703  32.3622  34.1682

          k = 0.0551 0.1102 0.1112 (  3334 PWs)   bands (ev):

  -110.1893-110.1892 -64.3643 -64.3633 -64.3590 -64.3581 -64.3457 -64.3455
   -38.9842 -38.9565 -15.3394 -15.2385 -15.1445 -15.1137 -14.7085 -14.5995
     8.6125   8.6401   8.6642   8.7341   8.8677   8.9419   8.9651   9.0021
     9.0191   9.0394  10.8924  11.3741  13.8357  14.2385  14.8722  15.4313
    15.7038  15.8612  17.7691  17.9751  18.2761  18.7951  18.7973  19.2217
    21.8551  22.6194  25.3690  25.7711  26.3606  27.3270  30.2026  30.9335
    31.0883  31.2201  31.6714  32.2365  34.2848

          k = 0.0827 0.0827 0.0000 (  3341 PWs)   bands (ev):

  -110.1893-110.1891 -64.3652 -64.3634 -64.3590 -64.3572 -64.3457 -64.3454
   -38.9973 -38.9453 -15.4469 -15.2585 -15.1235 -15.0696 -14.6992 -14.4924
     8.5571   8.7065   8.7824   8.7924   8.8129   8.9027   8.9381   9.0029
     9.0401   9.0747   9.9736  12.8225  12.8746  14.2138  14.2951  14.4256
    15.0874  15.6366  16.9590  17.9278  18.0056  18.8928  20.7498  22.1179
    23.0020  24.7164  24.8079  26.3857  26.6066  27.5670  28.3073  29.0419
    29.4018  29.8489  31.1933  33.6849  33.9503

          k = 0.0827 0.0827 0.0278 (  3339 PWs)   bands (ev):

  -110.1893-110.1891 -64.3652 -64.3634 -64.3590 -64.3572 -64.3457 -64.3454
   -38.9972 -38.9451 -15.4461 -15.2578 -15.1276 -15.0733 -14.6990 -14.4922
     8.5509   8.6784   8.7743   8.7843   8.8134   8.9155   8.9185   9.0245
     9.0338   9.0740  10.0957  12.6446  13.0114  13.9667  14.2813  14.6590
    15.2401  15.6657  17.2322  17.8897  18.0310  18.8640  20.7905  21.9425
    22.0935  24.1054  25.6928  26.0313  26.4621  28.1925  28.6354  28.7634
    29.1382  30.5728  31.6655  33.0255  33.1166

          k = 0.0827 0.0827 0.0556 (  3327 PWs)   bands (ev):

  -110.1893-110.1891 -64.3652 -64.3634 -64.3590 -64.3572 -64.3457 -64.3454
   -38.9968 -38.9448 -15.4441 -15.2558 -15.1379 -15.0824 -14.6984 -14.4917
     8.5332   8.6373   8.7121   8.7767   8.8359   8.9101   8.9379   9.0213
     9.0496   9.0687  10.3759  12.2855  13.3951  13.6708  14.4074  14.8556
    15.5304  15.7296  17.8257  17.9196  18.1007  18.7876  20.1119  21.3314
    21.6611  23.0644  25.2468  26.3924  26.4899  28.5502  29.1104  29.3607
    29.4420  31.4833  31.7376  32.1824  32.5661

          k = 0.0827 0.0827 0.0834 (  3334 PWs)   bands (ev):

  -110.1893-110.1891 -64.3652 -64.3634 -64.3590 -64.3572 -64.3458 -64.3455
   -38.9964 -38.9444 -15.4418 -15.2536 -15.1497 -15.0928 -14.6977 -14.4911
     8.5153   8.6094   8.6635   8.7541   8.8411   8.9347   8.9627   9.0112
     9.0570   9.0584  10.6486  11.9656  13.5678  13.9269  14.5213  15.1103
    15.7371  15.7559  17.8799  18.1952  18.6886  18.7646  18.8060  20.3255
    22.0991  22.1639  24.8365  25.9494  26.4814  29.1760  29.4713  29.5609
    30.6745  30.9106  31.3774  32.5951  33.4130

          k = 0.0827 0.0827 0.1112 (  3326 PWs)   bands (ev):

  -110.1893-110.1891 -64.3652 -64.3634 -64.3590 -64.3572 -64.3458 -64.3455
   -38.9961 -38.9442 -15.4403 -15.2521 -15.1574 -15.0995 -14.6972 -14.4907
     8.5086   8.5970   8.6340   8.7371   8.8381   8.9650   8.9801   9.0069
     9.0493   9.0494  10.7953  11.7879  13.5981  14.3793  14.5896  15.4692
    15.6933  15.7575  17.8619  18.1948  18.2774  18.6053  19.3280  19.4713
    21.3903  22.6785  24.7015  25.3760  26.4681  29.3757  29.6277  29.6518
    30.8826  30.9442  31.5193  33.7715  34.4452

          k = 0.0827 0.1102 0.0000 (  3346 PWs)   bands (ev):

  -110.1893-110.1892 -64.3651 -64.3644 -64.3580 -64.3573 -64.3456 -64.3455
   -38.9801 -38.9620 -15.4382 -15.3732 -15.1056 -15.0869 -14.5815 -14.5092
     8.6137   8.6951   8.7376   8.7742   8.8975   8.9594   8.9855   8.9900
     9.0186   9.0675  10.7845  11.7728  13.5851  14.0066  14.0306  14.3128
    14.7711  15.0959  17.2696  17.6482  18.4062  18.7651  21.2350  21.9020
    24.0317  24.3234  24.4482  25.2742  27.5758  28.1346  28.5918  28.7648
    30.1555  30.4610  31.4563  32.8960  33.4619

          k = 0.0827 0.1102 0.0278 (  3337 PWs)   bands (ev):

  -110.1893-110.1892 -64.3651 -64.3644 -64.3580 -64.3573 -64.3456 -64.3455
   -38.9799 -38.9619 -15.4374 -15.3724 -15.1095 -15.0906 -14.5813 -14.5090
     8.6056   8.6869   8.7112   8.7420   8.9052   8.9624   8.9716   8.9849
     9.0361   9.0653  10.8728  11.8095  13.3494  13.6962  14.3706  14.7438
    14.8258  15.1284  17.4060  17.7007  18.3675  18.7316  21.1719  21.7183
    22.7766  23.5171  25.5060  25.6293  27.3685  28.2882  28.4193  28.8600
    30.7046  30.9467  31.5614  32.9892  33.1403

          k = 0.0827 0.1102 0.0556 (  3336 PWs)   bands (ev):

  -110.1893-110.1892 -64.3651 -64.3644 -64.3580 -64.3573 -64.3456 -64.3455
   -38.9796 -38.9615 -15.4352 -15.3702 -15.1192 -15.0999 -14.5807 -14.5085
     8.5797   8.6446   8.6758   8.6799   8.9104   8.9615   8.9676   8.9817
     9.0502   9.0591  11.0466  11.7857  13.3777  13.5389  14.8032  14.8665
    15.2199  15.3230  17.7801  17.8420  18.2776  18.6366  20.5519  21.0202
    21.9597  22.5992  25.3805  25.8018  27.3993  28.2967  29.2990  29.3021
    31.0638  31.3680  31.9204  32.2994  32.4579

          k = 0.0827 0.1102 0.0834 (  3334 PWs)   bands (ev):

  -110.1893-110.1892 -64.3651 -64.3644 -64.3580 -64.3573 -64.3457 -64.3456
   -38.9792 -38.9611 -15.4327 -15.3677 -15.1303 -15.1105 -14.5800 -14.5078
     8.5475   8.5973   8.6236   8.6400   8.9061   8.9639   8.9751   8.9907
     9.0482   9.0490  11.1464  11.6383  13.7555  13.8573  14.9784  15.0177
    15.3612  15.7147  18.0187  18.1320  18.3375  18.4641  19.4022  19.9313
    21.9666  22.0241  24.9912  25.3559  27.5397  28.5729  30.0452  30.2649
    30.8471  30.8882  31.4485  32.1774  33.4102

          k = 0.0827 0.1102 0.1112 (  3334 PWs)   bands (ev):

  -110.1893-110.1892 -64.3651 -64.3644 -64.3580 -64.3573 -64.3457 -64.3456
   -38.9789 -38.9609 -15.4311 -15.3661 -15.1375 -15.1174 -14.5796 -14.5074
     8.5313   8.5722   8.5854   8.6122   8.9005   8.9577   9.0003   9.0065
     9.0328   9.0376  11.1603  11.5244  14.1009  14.4860  14.9239  15.1095
    15.4781  15.8749  18.0771  18.1719  18.1736  18.6900  18.7940  19.0541
    21.6765  22.0995  24.8050  24.9741  27.6375  28.6942  30.3475  30.3744
    30.5340  30.5918  31.8842  32.7741  34.3710

          k = 0.1102 0.1102 0.0000 (  3336 PWs)   bands (ev):

  -110.1892-110.1892 -64.3654 -64.3651 -64.3573 -64.3570 -64.3456 -64.3456
   -38.9738 -38.9676 -15.4759 -15.4535 -15.0991 -15.0926 -14.4992 -14.4739
     8.6123   8.6414   8.7444   8.7570   8.9613   8.9938   8.9977   9.0076
     9.0745   9.0921  11.5181  12.1819  12.9331  13.5271  13.7754  13.7824
    14.6928  14.8141  17.3918  17.5361  18.8096  18.9511  21.9180  22.3230
    23.6502  23.8219  24.6280  25.2218  27.3917  27.9521  29.7248  29.9238
    30.1021  30.9652  31.7230  32.2079  32.3241

          k = 0.1102 0.1102 0.0278 (  3333 PWs)   bands (ev):

  -110.1892-110.1892 -64.3654 -64.3651 -64.3573 -64.3571 -64.3456 -64.3456
   -38.9737 -38.9674 -15.4749 -15.4525 -15.1028 -15.0963 -14.4990 -14.4737
     8.6026   8.6324   8.7129   8.7242   8.9595   8.9885   8.9964   9.0007
     9.0736   9.0862  11.5974  12.3689  12.5521  13.1271  14.2443  14.3934
    14.7189  14.8401  17.4566  17.5720  18.7881  18.9370  21.6312  21.9007
    23.0629  23.3643  25.0339  25.0437  27.6462  27.9995  30.1819  30.2641
    30.5787  30.8224  31.9269  32.0036  32.1663

          k = 0.1102 0.1102 0.0556 (  3337 PWs)   bands (ev):

  -110.1892-110.1892 -64.3654 -64.3651 -64.3573 -64.3570 -64.3456 -64.3456
   -38.9733 -38.9671 -15.4726 -15.4502 -15.1122 -15.1055 -14.4984 -14.4731
     8.5716   8.6031   8.6428   8.6524   8.9515   8.9754   8.9930   8.9962
     9.0666   9.0714  11.6446  12.0644  12.8917  13.1104  14.7845  14.9016
    14.9566  15.1534  17.6412  17.6650  18.7282  18.9014  20.6060  20.8264
    22.3898  22.7327  24.8265  25.0487  28.1768  28.5220  30.3248  30.3893
    31.0493  31.5144  31.6187  31.9204  32.0741

          k = 0.1102 0.1102 0.0834 (  3343 PWs)   bands (ev):

  -110.1892-110.1892 -64.3654 -64.3651 -64.3573 -64.3570 -64.3456 -64.3456
   -38.9730 -38.9667 -15.4699 -15.4475 -15.1229 -15.1160 -14.4977 -14.4724
     8.5281   8.5598   8.5750   8.5830   8.9394   8.9607   8.9979   9.0019
     9.0523   9.0544  11.5204  11.7237  13.6422  13.6462  14.8530  14.9457
    15.5522  15.8013  17.7748  17.9040  18.6193  18.8604  19.2798  19.6036
    22.0125  22.0822  24.7268  24.8491  28.6518  29.3031  29.8851  30.2329
    30.8298  30.8739  31.5532  31.8652  33.7028

          k = 0.1102 0.1102 0.1112 (  3341 PWs)   bands (ev):

  -110.1892-110.1892 -64.3653 -64.3651 -64.3573 -64.3571 -64.3456 -64.3456
   -38.9727 -38.9664 -15.4681 -15.4457 -15.1298 -15.1228 -14.4973 -14.4720
     8.4988   8.5268   8.5356   8.5395   8.9307   8.9514   9.0085   9.0112
     9.0362   9.0432  11.4143  11.5547  14.2836  14.4044  14.8528  14.8675
    15.8832  16.1628  17.8492  18.1248  18.3077  18.3169  18.8330  18.9305
    21.6574  21.7930  24.6932  24.7213  28.8833  29.5722  29.9377  30.0982
    30.2931  30.4005  31.9361  32.2936  34.3098

     the Fermi energy is    16.0318 ev

!    total energy              =   -1162.74827302 Ry
     Harris-Foulkes estimate   =   -1162.74826698 Ry
     estimated scf accuracy    <       0.00000016 Ry

     The total energy is the sum of the following terms:

     one-electron contribution =    -795.91871088 Ry
     hartree contribution      =     430.03718580 Ry
     xc contribution           =    -125.13986944 Ry
     ewald contribution        =    -671.72192857 Ry
     smearing contrib. (-TS)   =      -0.00494993 Ry

     convergence has been achieved in  10 iterations

     Forces acting on atoms (Ry/au):

     atom    1 type  1   force =     0.00000000    0.00000000    0.00000000
     atom    2 type  1   force =     0.00000000    0.00000000    0.00000000
     atom    3 type  2   force =     0.00000000    0.00000000    0.00000000
     atom    4 type  2   force =     0.00000000    0.00000000    0.00000000

     Total force =     0.000000     Total SCF correction =     0.000000
 
     init_run     :      1.29s CPU      1.33s WALL (       1 calls)
     electrons    :     35.04s CPU     35.97s WALL (       1 calls)
     forces       :      0.34s CPU      0.34s WALL (       1 calls)

     Called by init_run:
     wfcinit      :      0.90s CPU      0.93s WALL (       1 calls)
     potinit      :      0.11s CPU      0.12s WALL (       1 calls)

     Called by electrons:
     c_bands      :     29.89s CPU     30.63s WALL (      11 calls)
     sum_band     :      4.14s CPU      4.26s WALL (      11 calls)
     v_of_rho     :      0.60s CPU      0.65s WALL (      11 calls)
     newd         :      0.51s CPU      0.52s WALL (      11 calls)
     mix_rho      :      0.01s CPU      0.01s WALL (      11 calls)
     vdW_energy   :      0.14s CPU      0.16s WALL (      12 calls)
     vdW_ffts     :      0.19s CPU      0.21s WALL (      24 calls)
     vdW_v        :      0.09s CPU      0.09s WALL (      12 calls)

     Called by c_bands:
     init_us_2    :      0.15s CPU      0.15s WALL (    1800 calls)
     cegterg      :     28.88s CPU     29.60s WALL (     825 calls)

     Called by *egterg:
     h_psi        :     14.17s CPU     14.64s WALL (    2673 calls)
     s_psi        :      0.61s CPU      0.61s WALL (    2673 calls)
     g_psi        :      0.06s CPU      0.06s WALL (    1773 calls)
     cdiaghg      :     10.28s CPU     10.47s WALL (    2523 calls)

     Called by h_psi:
     add_vuspsi   :      0.64s CPU      0.65s WALL (    2673 calls)

     General routines
     calbec       :      1.34s CPU      1.38s WALL (    3573 calls)
     fft          :      0.32s CPU      0.36s WALL (     787 calls)
     ffts         :      0.01s CPU      0.01s WALL (      22 calls)
     fftw         :     13.45s CPU     13.90s WALL (  237891 calls)
     interpolate  :      0.02s CPU      0.02s WALL (      22 calls)
 
     Parallel routines
     fft_scatter  :      6.26s CPU      6.52s WALL (  238700 calls)
 
     PWSCF        :    37.07s CPU        38.11s WALL

 
   This run was terminated on:   9:31:54  14Nov2017            

=------------------------------------------------------------------------------=
   JOB DONE.
=------------------------------------------------------------------------------=
