  python dir          : /home/vossj/suncat/lib/python2.7/site-packages/espresso
  espresso dir        : /home/vossj/suncat/esdld/espresso-dynpy-beef/bin
  pseudo dir          : /home/vossj/suncat/psp/gbrv1.5pbe
  ase-espresso py git : ffa2778-git



     Program PWSCF v.5.1rc2 (svn rev. ) starts on 14Nov2017 at 18:24:57 

     This program is part of the open-source Quantum ESPRESSO suite
     for quantum simulation of materials; please cite
         "P. Giannozzi et al., J. Phys.:Condens. Matter 21 395502 (2009);
          URL http://www.quantum-espresso.org", 
     in publications or presentations arising from this work. More details at
     http://www.quantum-espresso.org/quote

     Parallel version (MPI), running on    16 processors
     R & G space division:  proc/nbgrp/npool/nimage =      16
     Reading input from pw.inp
     Message from routine read_cards :
     DEPRECATED: no units specified in CELL_PARAMETERS card

     Current dimensions of program PWSCF are:
     Max number of different atomic species (ntypx) = 10
     Max number of k-points (npk) =  40000
     Max angular momentum in pseudopotentials (lmaxx) =  3

     **************************************************************************
     Initializing libbeef V0.1.1 with the BEEF-vdW functional.
     Citation: Wellendorff et al., PRB 85, 235149 (2012).
     **************************************************************************


     IMPORTANT: XC functional enforced from input :
     Exchange-correlation      = BEEF-VDW ( 1  4 27 13 2)
     Any further DFT definition will be discarded
     Please, verify this is what you really want


     Subspace diagonalization in iterative solution of the eigenvalue problem:
     a serial algorithm will be used

     Found symmetry operation: I + ( -0.5000 -0.5000  0.0000)
     This is a supercell, fractional translations are disabled
 
     Parallelization info
     --------------------
     sticks:   dense  smooth     PW     G-vecs:    dense   smooth      PW
     Min         195      77     23                 5765     1456     236
     Max         196      78     24                 5768     1472     237
     Sum        3125    1245    373                92273    23393    3787
 


     bravais-lattice index     =            0
     lattice parameter (alat)  =       1.8897  a.u.
     unit-cell volume          =     383.3913 (a.u.)^3
     number of atoms/cell      =            4
     number of atomic types    =            2
     number of electrons       =        36.00
     number of Kohn-Sham states=           38
     kinetic-energy cutoff     =      58.7989  Ry
     charge density cutoff     =     587.9892  Ry
     convergence threshold     =      1.0E-06
     mixing beta               =       0.1000
     number of iterations used =           10  plain     mixing
     Exchange-correlation      = BEEF-VDW ( 1  4 27 13 2)

     celldm(1)=   1.889726  celldm(2)=   0.000000  celldm(3)=   0.000000
     celldm(4)=   0.000000  celldm(5)=   0.000000  celldm(6)=   0.000000

     crystal axes: (cart. coord. in units of alat)
               a(1) = (   4.322238   0.000000   0.000000 )  
               a(2) = (   0.000000   4.322238   0.000000 )  
               a(3) = (   0.000000   0.000000   3.041083 )  

     reciprocal axes: (cart. coord. in units 2 pi/alat)
               b(1) = (  0.231362  0.000000  0.000000 )  
               b(2) = (  0.000000  0.231362  0.000000 )  
               b(3) = (  0.000000  0.000000  0.328830 )  


     PseudoPot. # 1 for Al read from file:
     /home/vossj/suncat/psp/gbrv1.5pbe/Al.UPF
     MD5 check sum: 0a6289f5291fc8f409219462bc851e1f
     Pseudo is Ultrasoft + core correction, Zval =  3.0
     Generated by new atomic code, or converted to UPF format
     Using radial grid of  893 points,  3 beta functions with: 
                l(1) =   0
                l(2) =   1
                l(3) =   2
     Q(r) pseudized with  8 coefficients,  rinner =    0.900   0.900   0.900
                                                       0.900   0.900

     PseudoPot. # 2 for Tc read from file:
     /home/vossj/suncat/psp/gbrv1.5pbe/Tc.UPF
     MD5 check sum: 9eb49e5b028550b2339a02317eb7b844
     Pseudo is Ultrasoft + core correction, Zval = 15.0
     Generated by new atomic code, or converted to UPF format
     Using radial grid of  965 points,  6 beta functions with: 
                l(1) =   0
                l(2) =   0
                l(3) =   1
                l(4) =   1
                l(5) =   2
                l(6) =   2
     Q(r) pseudized with  8 coefficients,  rinner =    1.300   1.300   1.300
                                                       1.300   1.300

     vdW kernel table read from file vdW_kernel_table
     MD5 check sum: 095c7af220d748ca6e76c0b4c6cfb241

     atomic species   valence    mass     pseudopotential
        Al1            3.00    26.98154     Al( 1.00)
        Tc1           15.00    97.90721     Tc( 1.00)

     16 Sym. Ops., with inversion, found



   Cartesian axes

     site n.     atom                  positions (alat units)
         1           Al1 tau(   1) = (   0.0000000   0.0000000   0.0000000  )
         2           Al1 tau(   2) = (   2.1611191   2.1611191   0.0000000  )
         3           Tc1 tau(   3) = (   2.1611191   0.0000000   1.5205415  )
         4           Tc1 tau(   4) = (   0.0000000   2.1611191   1.5205415  )

     number of k points=    75  Fermi-Dirac smearing, width (Ry)=  0.0073
                       cart. coord. in units 2pi/alat
        k(    1) = (   0.0000000   0.0000000   0.0000000), wk =   0.0027435
        k(    2) = (   0.0000000   0.0000000   0.0365367), wk =   0.0054870
        k(    3) = (   0.0000000   0.0000000   0.0730734), wk =   0.0054870
        k(    4) = (   0.0000000   0.0000000   0.1096101), wk =   0.0054870
        k(    5) = (   0.0000000   0.0000000   0.1461468), wk =   0.0054870
        k(    6) = (   0.0000000   0.0257068   0.0000000), wk =   0.0109739
        k(    7) = (   0.0000000   0.0257068   0.0365367), wk =   0.0219479
        k(    8) = (   0.0000000   0.0257068   0.0730734), wk =   0.0219479
        k(    9) = (   0.0000000   0.0257068   0.1096101), wk =   0.0219479
        k(   10) = (   0.0000000   0.0257068   0.1461468), wk =   0.0219479
        k(   11) = (   0.0000000   0.0514137   0.0000000), wk =   0.0109739
        k(   12) = (   0.0000000   0.0514137   0.0365367), wk =   0.0219479
        k(   13) = (   0.0000000   0.0514137   0.0730734), wk =   0.0219479
        k(   14) = (   0.0000000   0.0514137   0.1096101), wk =   0.0219479
        k(   15) = (   0.0000000   0.0514137   0.1461468), wk =   0.0219479
        k(   16) = (   0.0000000   0.0771205   0.0000000), wk =   0.0109739
        k(   17) = (   0.0000000   0.0771205   0.0365367), wk =   0.0219479
        k(   18) = (   0.0000000   0.0771205   0.0730734), wk =   0.0219479
        k(   19) = (   0.0000000   0.0771205   0.1096101), wk =   0.0219479
        k(   20) = (   0.0000000   0.0771205   0.1461468), wk =   0.0219479
        k(   21) = (   0.0000000   0.1028274   0.0000000), wk =   0.0109739
        k(   22) = (   0.0000000   0.1028274   0.0365367), wk =   0.0219479
        k(   23) = (   0.0000000   0.1028274   0.0730734), wk =   0.0219479
        k(   24) = (   0.0000000   0.1028274   0.1096101), wk =   0.0219479
        k(   25) = (   0.0000000   0.1028274   0.1461468), wk =   0.0219479
        k(   26) = (   0.0257068   0.0257068   0.0000000), wk =   0.0109739
        k(   27) = (   0.0257068   0.0257068   0.0365367), wk =   0.0219479
        k(   28) = (   0.0257068   0.0257068   0.0730734), wk =   0.0219479
        k(   29) = (   0.0257068   0.0257068   0.1096101), wk =   0.0219479
        k(   30) = (   0.0257068   0.0257068   0.1461468), wk =   0.0219479
        k(   31) = (   0.0257068   0.0514137   0.0000000), wk =   0.0219479
        k(   32) = (   0.0257068   0.0514137   0.0365367), wk =   0.0438957
        k(   33) = (   0.0257068   0.0514137   0.0730734), wk =   0.0438957
        k(   34) = (   0.0257068   0.0514137   0.1096101), wk =   0.0438957
        k(   35) = (   0.0257068   0.0514137   0.1461468), wk =   0.0438957
        k(   36) = (   0.0257068   0.0771205   0.0000000), wk =   0.0219479
        k(   37) = (   0.0257068   0.0771205   0.0365367), wk =   0.0438957
        k(   38) = (   0.0257068   0.0771205   0.0730734), wk =   0.0438957
        k(   39) = (   0.0257068   0.0771205   0.1096101), wk =   0.0438957
        k(   40) = (   0.0257068   0.0771205   0.1461468), wk =   0.0438957
        k(   41) = (   0.0257068   0.1028274   0.0000000), wk =   0.0219479
        k(   42) = (   0.0257068   0.1028274   0.0365367), wk =   0.0438957
        k(   43) = (   0.0257068   0.1028274   0.0730734), wk =   0.0438957
        k(   44) = (   0.0257068   0.1028274   0.1096101), wk =   0.0438957
        k(   45) = (   0.0257068   0.1028274   0.1461468), wk =   0.0438957
        k(   46) = (   0.0514137   0.0514137   0.0000000), wk =   0.0109739
        k(   47) = (   0.0514137   0.0514137   0.0365367), wk =   0.0219479
        k(   48) = (   0.0514137   0.0514137   0.0730734), wk =   0.0219479
        k(   49) = (   0.0514137   0.0514137   0.1096101), wk =   0.0219479
        k(   50) = (   0.0514137   0.0514137   0.1461468), wk =   0.0219479
        k(   51) = (   0.0514137   0.0771205   0.0000000), wk =   0.0219479
        k(   52) = (   0.0514137   0.0771205   0.0365367), wk =   0.0438957
        k(   53) = (   0.0514137   0.0771205   0.0730734), wk =   0.0438957
        k(   54) = (   0.0514137   0.0771205   0.1096101), wk =   0.0438957
        k(   55) = (   0.0514137   0.0771205   0.1461468), wk =   0.0438957
        k(   56) = (   0.0514137   0.1028274   0.0000000), wk =   0.0219479
        k(   57) = (   0.0514137   0.1028274   0.0365367), wk =   0.0438957
        k(   58) = (   0.0514137   0.1028274   0.0730734), wk =   0.0438957
        k(   59) = (   0.0514137   0.1028274   0.1096101), wk =   0.0438957
        k(   60) = (   0.0514137   0.1028274   0.1461468), wk =   0.0438957
        k(   61) = (   0.0771205   0.0771205   0.0000000), wk =   0.0109739
        k(   62) = (   0.0771205   0.0771205   0.0365367), wk =   0.0219479
        k(   63) = (   0.0771205   0.0771205   0.0730734), wk =   0.0219479
        k(   64) = (   0.0771205   0.0771205   0.1096101), wk =   0.0219479
        k(   65) = (   0.0771205   0.0771205   0.1461468), wk =   0.0219479
        k(   66) = (   0.0771205   0.1028274   0.0000000), wk =   0.0219479
        k(   67) = (   0.0771205   0.1028274   0.0365367), wk =   0.0438957
        k(   68) = (   0.0771205   0.1028274   0.0730734), wk =   0.0438957
        k(   69) = (   0.0771205   0.1028274   0.1096101), wk =   0.0438957
        k(   70) = (   0.0771205   0.1028274   0.1461468), wk =   0.0438957
        k(   71) = (   0.1028274   0.1028274   0.0000000), wk =   0.0109739
        k(   72) = (   0.1028274   0.1028274   0.0365367), wk =   0.0219479
        k(   73) = (   0.1028274   0.1028274   0.0730734), wk =   0.0219479
        k(   74) = (   0.1028274   0.1028274   0.1096101), wk =   0.0219479
        k(   75) = (   0.1028274   0.1028274   0.1461468), wk =   0.0219479

     Dense  grid:    92273 G-vectors     FFT dimensions: (  64,  64,  45)

     Smooth grid:    23393 G-vectors     FFT dimensions: (  40,  40,  30)

     Largest allocated arrays     est. size (Mb)     dimensions
        Kohn-Sham Wavefunctions         0.11 Mb     (     186,   38)
        NL pseudopotentials             0.15 Mb     (     186,   54)
        Each V/rho on FFT grid          0.19 Mb     (   12288)
        Each G-vector array             0.04 Mb     (    5767)
        G-vector shells                 0.02 Mb     (    2368)
     Largest temporary arrays     est. size (Mb)     dimensions
        Auxiliary wavefunctions         0.43 Mb     (     186,  152)
        Each subspace H/S matrix        0.35 Mb     (     152,  152)
        Each <psi_i|beta_j> matrix      0.03 Mb     (      54,   38)
        Arrays for rho mixing           1.88 Mb     (   12288,   10)

     Check: negative/imaginary core charge=   -0.000004    0.000000

     Initial potential from superposition of free atoms
     Check: negative starting charge=   -0.250674

     starting charge   33.99501, renormalised to   36.00000

     negative rho (up, down):  2.655E-01 0.000E+00


     ************************************************************************
     *
     * You are using vdW-DF for exchange-correlation in this calculation.
     * Please cite the following three references that made this development
     * possible:
     *
     *   M. Dion, H. Rydberg, E. Schroder, D. C. Langreth, and
     *   B. I. Lundqvist, Phys. Rev. Lett. 92, 246401 (2004).
     *
     *   T. Thonhauser, V. R. Cooper, S. Li, A. Puzder, P. Hyldgaard, and
     *   D. C. Langreth, Phys. Rev. B 76, 125112 (2007).
     *
     *   G. Roman-Perez and J. M. Soler, Phys. Rev. Lett. 103, 096102 (2009).
     *
     *
     * If you are using vdW-DF2, please also cite:
     *
     *   K. Lee, E. D. Murray, L. Kong, B. I. Lundqvist, and
     *   D. C. Langreth, Phys. Rev. B 82, 081101(R) (2010).
     *
     *
     * If you are calculating the stress with vdW-DF, please also cite:
     *
     *   R. Sabatini, E. Kucukbenli, B. Kolb, T. Thonhauser, and
     *   S. de Gironcoli, J. Phys.: Condens. Matter 24, 424209 (2012).
     *
     ************************************************************************

     Carrying out vdW-DF run using the following parameters:

     Nqs =      20    Nr_points =    1024   r_max =   100.000
     q_mesh =
               0.00001000     0.04494208     0.09755937     0.15916263
               0.23128650     0.31572767     0.41458969     0.53033537
               0.66584808     0.82450364     1.01025438     1.22772762
               1.48234092     1.78043706     2.12944203     2.53805004
               3.01644009     3.57652955     4.23227104     5.00000000

     Gradients computed in reciprocal space

     ************************************************************************


     Starting wfc are   34 randomized atomic wfcs +    4 random wfc

     total cpu time spent up to now is        1.1 secs

     Self-consistent Calculation

     iteration #  1     ecut=    58.80 Ry     beta=0.10
     Davidson diagonalization with overlap
     ethr =  1.00E-02,  avg # of iterations =  4.7

     negative rho (up, down):  2.654E-01 0.000E+00

     total cpu time spent up to now is        5.4 secs

     total energy              =    -364.84822281 Ry
     Harris-Foulkes estimate   =    -365.40869394 Ry
     estimated scf accuracy    <       3.40854258 Ry

     iteration #  2     ecut=    58.80 Ry     beta=0.10
     Davidson diagonalization with overlap
     ethr =  9.47E-03,  avg # of iterations =  1.0

     negative rho (up, down):  2.655E-01 0.000E+00

     total cpu time spent up to now is        7.4 secs

     total energy              =    -364.22453791 Ry
     Harris-Foulkes estimate   =    -364.91591902 Ry
     estimated scf accuracy    <       1.56899118 Ry

     iteration #  3     ecut=    58.80 Ry     beta=0.10
     Davidson diagonalization with overlap
     ethr =  4.36E-03,  avg # of iterations =  1.8

     negative rho (up, down):  2.638E-01 0.000E+00

     total cpu time spent up to now is        9.6 secs

     total energy              =    -364.50920252 Ry
     Harris-Foulkes estimate   =    -364.52012112 Ry
     estimated scf accuracy    <       0.03596284 Ry

     iteration #  4     ecut=    58.80 Ry     beta=0.10
     Davidson diagonalization with overlap
     ethr =  9.99E-05,  avg # of iterations =  2.9

     negative rho (up, down):  2.598E-01 0.000E+00

     total cpu time spent up to now is       12.3 secs

     total energy              =    -364.50134476 Ry
     Harris-Foulkes estimate   =    -364.51964687 Ry
     estimated scf accuracy    <       0.03608704 Ry

     iteration #  5     ecut=    58.80 Ry     beta=0.10
     Davidson diagonalization with overlap
     ethr =  9.99E-05,  avg # of iterations =  2.0

     negative rho (up, down):  2.597E-01 0.000E+00

     total cpu time spent up to now is       14.7 secs

     total energy              =    -364.51020943 Ry
     Harris-Foulkes estimate   =    -364.51023736 Ry
     estimated scf accuracy    <       0.00361072 Ry

     iteration #  6     ecut=    58.80 Ry     beta=0.10
     Davidson diagonalization with overlap
     ethr =  1.00E-05,  avg # of iterations =  2.2

     negative rho (up, down):  2.592E-01 0.000E+00

     total cpu time spent up to now is       17.0 secs

     total energy              =    -364.50996184 Ry
     Harris-Foulkes estimate   =    -364.51025884 Ry
     estimated scf accuracy    <       0.00341122 Ry

     iteration #  7     ecut=    58.80 Ry     beta=0.10
     Davidson diagonalization with overlap
     ethr =  9.48E-06,  avg # of iterations =  1.1

     negative rho (up, down):  2.590E-01 0.000E+00

     total cpu time spent up to now is       18.9 secs

     total energy              =    -364.50869212 Ry
     Harris-Foulkes estimate   =    -364.50997929 Ry
     estimated scf accuracy    <       0.00264054 Ry

     iteration #  8     ecut=    58.80 Ry     beta=0.10
     Davidson diagonalization with overlap
     ethr =  7.33E-06,  avg # of iterations =  2.1

     negative rho (up, down):  2.590E-01 0.000E+00

     total cpu time spent up to now is       21.3 secs

     total energy              =    -364.50909809 Ry
     Harris-Foulkes estimate   =    -364.50909749 Ry
     estimated scf accuracy    <       0.00000236 Ry

     iteration #  9     ecut=    58.80 Ry     beta=0.10
     Davidson diagonalization with overlap
     ethr =  6.57E-09,  avg # of iterations =  3.4

     negative rho (up, down):  2.590E-01 0.000E+00

     total cpu time spent up to now is       24.4 secs

     total energy              =    -364.50910221 Ry
     Harris-Foulkes estimate   =    -364.50910164 Ry
     estimated scf accuracy    <       0.00000209 Ry

     iteration # 10     ecut=    58.80 Ry     beta=0.10
     Davidson diagonalization with overlap
     ethr =  5.81E-09,  avg # of iterations =  1.0

     negative rho (up, down):  2.592E-01 0.000E+00

     total cpu time spent up to now is       26.4 secs

     total energy              =    -364.50910167 Ry
     Harris-Foulkes estimate   =    -364.50910221 Ry
     estimated scf accuracy    <       0.00000226 Ry

     iteration # 11     ecut=    58.80 Ry     beta=0.10
     Davidson diagonalization with overlap
     ethr =  5.81E-09,  avg # of iterations =  2.0

     negative rho (up, down):  2.592E-01 0.000E+00

     total cpu time spent up to now is       28.9 secs

     total energy              =    -364.50910196 Ry
     Harris-Foulkes estimate   =    -364.50910293 Ry
     estimated scf accuracy    <       0.00000315 Ry

     iteration # 12     ecut=    58.80 Ry     beta=0.10
     Davidson diagonalization with overlap
     ethr =  5.81E-09,  avg # of iterations =  2.0

     negative rho (up, down):  2.592E-01 0.000E+00

     total cpu time spent up to now is       31.2 secs

     End of self-consistent calculation

          k = 0.0000 0.0000 0.0000 (  2895 PWs)   bands (ev):

   -51.0956 -51.0590 -23.2386 -23.2386 -23.0296 -23.0296 -23.0258 -22.9838
     5.8256   9.3528  12.1259  12.1261  12.6148  13.8616  13.8616  14.6466
    14.6466  16.0286  16.0606  16.0606  17.4976  20.8679  20.8679  20.9393
    21.0136  21.5315  24.9940  26.0843  26.1121  29.0664  29.0664  29.3835
    29.5009  33.0706  33.0706  33.8433  33.8433  33.9446

          k = 0.0000 0.0000 0.0365 (  2902 PWs)   bands (ev):

   -51.0933 -51.0567 -23.2351 -23.2351 -23.0558 -23.0269 -23.0269 -23.0115
     6.0558   9.4880  12.1914  12.2131  12.9743  12.9743  12.9764  15.6611
    15.6611  15.7225  15.7225  16.0600  17.5098  20.1122  20.9290  21.0257
    21.3701  21.3701  24.4651  25.5354  26.7317  28.2432  28.2432  30.1566
    30.8521  33.2247  33.2247  34.0516  34.0516  34.3696

          k = 0.0000 0.0000 0.0731 (  2898 PWs)   bands (ev):

   -51.0875 -51.0512 -23.2261 -23.2261 -23.1311 -23.0813 -23.0202 -23.0202
     6.7212   9.8668  11.9936  11.9936  12.1910  12.4474  14.0157  15.0440
    15.0440  16.1411  17.0217  17.0217  17.5407  18.7370  19.6883  20.8458
    22.5475  22.5475  23.9969  24.2999  26.7045  26.7045  27.4193  31.5032
    31.5032  31.9138  32.4552  33.6012  34.5169  35.1410

          k = 0.0000 0.0000 0.1096 (  2906 PWs)   bands (ev):

   -51.0808 -51.0448 -23.2159 -23.2159 -23.2158 -23.1598 -23.0126 -23.0126
     7.7536  10.3867  11.2828  11.2828  11.6430  12.7432  14.4410  14.4410
    15.5771  16.2360  17.5762  18.1086  18.2195  18.3284  18.3284  20.5127
    23.1067  23.8614  24.0018  24.0018  25.1714  25.1714  27.7173  29.2086
    29.5514  29.5514  32.8546  33.5790  35.7075  35.9048

          k = 0.0000 0.0000 0.1461 (  2910 PWs)   bands (ev):

   -51.0765 -51.0407 -23.2705 -23.2105 -23.2093 -23.2093 -23.0075 -23.0075
     9.0488  10.4602  10.8093  10.9115  10.9115  12.9578  14.1047  14.1047
    16.2996  17.2445  17.2595  17.5995  18.1751  19.2901  19.2901  19.7369
    22.3919  23.8383  24.0728  24.0728  25.4894  25.4894  27.5562  27.7233
    27.7983  27.7983  31.4151  33.0500  35.9737  38.9297

          k = 0.0000 0.0257 0.0000 (  2896 PWs)   bands (ev):

   -51.0945 -51.0600 -23.2331 -23.2324 -23.0367 -23.0360 -23.0245 -22.9851
     5.9402   9.3783  12.1648  12.1660  12.3217  13.7874  13.9527  14.6548
    14.6847  15.8443  15.9495  16.0126  17.5780  20.7009  20.7790  21.0253
    21.2717  21.7149  25.1192  25.9627  26.3635  28.1358  29.2610  29.7213
    30.6516  32.1799  33.0464  33.5951  33.7126  33.9715

          k = 0.0000 0.0257 0.0365 (  2891 PWs)   bands (ev):

   -51.0922 -51.0578 -23.2295 -23.2288 -23.0544 -23.0339 -23.0333 -23.0128
     6.1681   9.5090  12.2382  12.2506  12.4349  12.9882  13.4069  15.5147
    15.5260  15.5881  15.6643  15.9050  17.6797  20.3352  20.9687  21.1933
    21.2553  21.3621  24.4490  25.8260  26.7375  28.0763  28.3920  30.4127
    30.8567  33.0882  33.1361  33.3582  34.0517  34.0691

          k = 0.0000 0.0257 0.0731 (  2911 PWs)   bands (ev):

   -51.0864 -51.0523 -23.2206 -23.2200 -23.1296 -23.0827 -23.0271 -23.0265
     6.8261   9.8727  11.9248  12.0415  12.2461  12.4832  14.0369  14.9495
    14.9659  15.9895  16.4670  16.6266  18.1100  18.9222  19.8781  21.2430
    22.2810  22.3310  23.9172  24.7243  26.5890  26.8020  27.7085  31.0271
    31.4907  32.1954  32.4772  33.4097  33.7795  34.9491

          k = 0.0000 0.0257 0.1096 (  2915 PWs)   bands (ev):

   -51.0797 -51.0459 -23.2140 -23.2105 -23.2099 -23.1614 -23.0194 -23.0188
     7.8447  10.3636  11.3012  11.3448  11.6812  12.7844  14.3354  14.4726
    15.5447  16.0927  16.9246  17.5997  18.1948  18.4587  19.0092  21.0008
    22.9168  23.6480  23.8424  24.3687  25.1258  25.2219  28.2496  28.9110
    29.6111  29.7417  33.0179  33.7043  35.5022  35.7717

          k = 0.0000 0.0257 0.1461 (  2914 PWs)   bands (ev):

   -51.0754 -51.0417 -23.2686 -23.2122 -23.2038 -23.2033 -23.0143 -23.0137
     9.1213  10.4985  10.7286  10.9790  10.9864  13.0192  13.9632  14.2295
    16.1622  17.0720  17.0955  17.5156  18.1770  18.4952  19.8914  19.9171
    22.4929  24.0236  24.0658  24.3715  25.0745  25.5158  26.9145  27.9537
    28.0310  28.5108  32.0588  33.0489  35.7600  38.2643

          k = 0.0000 0.0514 0.0000 (  2884 PWs)   bands (ev):

   -51.0913 -51.0632 -23.2168 -23.2144 -23.0568 -23.0543 -23.0208 -22.9886
     6.2773   9.3487  11.8347  12.2687  12.2793  13.5862  14.0328  14.6864
    14.7959  15.3383  15.6821  15.8767  17.8082  20.2749  20.6247  20.9990
    21.9721  22.4303  25.4272  25.6030  27.0554  27.3942  29.8203  30.6668
    30.7172  32.0376  32.5263  32.9844  33.3331  33.6622

          k = 0.0000 0.0514 0.0365 (  2910 PWs)   bands (ev):

   -51.0890 -51.0610 -23.2133 -23.2110 -23.0547 -23.0516 -23.0498 -23.0166
     6.4980   9.4686  11.9604  12.3594  12.3626  13.0130  13.7120  15.1825
    15.2398  15.2527  15.4932  15.5056  18.0788  20.7632  20.8051  20.9462
    21.1725  22.3489  24.3320  26.5923  26.6111  27.9757  28.8049  30.1292
    31.1513  32.1605  32.7086  32.7317  33.6887  34.0350

          k = 0.0000 0.0514 0.0731 (  2922 PWs)   bands (ev):

   -51.0832 -51.0554 -23.2045 -23.2023 -23.1252 -23.0869 -23.0467 -23.0446
     7.1322   9.7937  11.8588  12.1782  12.4029  12.5787  14.0861  14.7271
    14.7686  15.5523  15.7710  15.8315  18.8529  19.4164  20.2720  21.7951
    21.9273  22.0378  23.8025  25.6371  26.4465  27.0748  28.1007  30.0497
    31.3749  31.9660  32.1154  33.4174  33.9275  34.8913

          k = 0.0000 0.0514 0.1096 (  2921 PWs)   bands (ev):

   -51.0766 -51.0490 -23.2090 -23.1945 -23.1924 -23.1659 -23.0386 -23.0366
     8.1049  10.2065  11.4651  11.5273  11.8044  12.8774  14.0889  14.5614
    15.4506  15.6804  16.0713  16.3933  18.4568  19.0621  19.9336  21.2435
    22.6306  22.9973  24.2913  25.0650  25.0829  25.3751  27.6862  29.3806
    29.7887  31.0910  31.8939  34.9221  35.2153  35.3215

          k = 0.0000 0.0514 0.1461 (  2924 PWs)   bands (ev):

   -51.0722 -51.0448 -23.2632 -23.2173 -23.1878 -23.1859 -23.0334 -23.0314
     9.3001  10.4866  10.6588  11.1788  11.2411  13.1756  13.6177  14.5799
    15.7676  16.2082  16.4695  17.5759  18.2037  18.2405  19.6124  20.9562
    22.7263  24.0525  24.2618  24.4785  24.9893  25.5104  25.8579  28.4745
    29.2265  29.4054  32.6189  33.8944  35.3585  36.8944

          k = 0.0000 0.0771 0.0000 (  2896 PWs)   bands (ev):

   -51.0864 -51.0681 -23.1912 -23.1868 -23.0867 -23.0823 -23.0151 -22.9941
     6.8155   8.9907  11.6999  12.3666  12.4650  13.3072  14.0098  14.6759
    14.7593  14.9701  15.3730  15.6743  18.1644  19.7257  20.5528  20.8604
    22.9707  23.3786  25.1217  25.6229  27.2340  28.0817  29.6378  30.6462
    30.8841  31.9901  32.0095  32.9087  32.9134  33.2225

          k = 0.0000 0.0771 0.0365 (  2907 PWs)   bands (ev):

   -51.0841 -51.0658 -23.1878 -23.1835 -23.0839 -23.0795 -23.0444 -23.0224
     7.0229   9.1171  11.8689  12.4994  12.5268  13.0008  13.9219  14.7022
    14.8406  15.0325  15.0722  15.2907  18.5738  20.2280  20.8054  20.8984
    21.8581  23.6239  24.0523  26.3269  27.6628  28.2582  29.1748  29.3589
    30.1331  31.6458  32.1862  32.8046  33.0305  34.2948

          k = 0.0000 0.0771 0.0731 (  2911 PWs)   bands (ev):

   -51.0783 -51.0602 -23.1792 -23.1751 -23.1186 -23.0933 -23.0759 -23.0722
     7.6125   9.4510  12.0456  12.3792  12.6197  12.6875  14.1529  14.4720
    14.5585  14.9528  15.0421  15.1624  19.5552  20.0880  20.6908  21.2882
    21.6183  22.2397  24.3372  26.5330  26.6870  27.4486  27.9075  28.7597
    31.1402  31.3814  31.6198  33.4439  34.2410  35.2108

          k = 0.0000 0.0771 0.1096 (  2924 PWs)   bands (ev):

   -51.0717 -51.0537 -23.2014 -23.1747 -23.1679 -23.1656 -23.0675 -23.0639
     8.4956   9.8719  11.8185  11.8291  12.0198  12.8714  13.9415  14.6705
    15.1231  15.2836  15.2968  15.3062  18.8848  19.9109  20.7792  20.7949
    22.3370  22.3730  24.8997  25.6131  25.6244  25.7498  26.4832  30.1618
    30.1977  30.7321  32.8912  34.0810  34.2063  35.3076

          k = 0.0000 0.0771 0.1461 (  2930 PWs)   bands (ev):

   -51.0674 -51.0495 -23.2550 -23.2250 -23.1628 -23.1593 -23.0620 -23.0585
     9.5018  10.1923  11.0170  11.5028  11.5780  12.9741  13.6304  15.0805
    15.2307  15.3833  15.4549  16.9857  18.2881  19.0115  19.4092  22.0289
    22.9564  23.2250  24.0737  24.5548  25.0352  25.2922  26.1231  29.3440
    29.4539  31.3935  32.6561  34.7424  35.1843  35.7442

          k = 0.0000 0.1028 0.0000 (  2900 PWs)   bands (ev):

   -51.0804 -51.0740 -23.1585 -23.1528 -23.1222 -23.1165 -23.0083 -23.0010
     7.5134   8.2930  11.9862  12.3054  12.7118  13.0021  13.9753  14.1470
    14.8928  15.0990  15.1910  15.4352  18.6220  19.1546  20.5922  20.7086
    24.1149  24.1287  24.6419  25.1591  27.8893  29.2422  29.3654  29.6012
    30.5467  30.7515  32.1606  32.8724  32.9056  33.2345

          k = 0.0000 0.1028 0.0365 (  2907 PWs)   bands (ev):

   -51.0781 -51.0718 -23.1552 -23.1497 -23.1192 -23.1135 -23.0372 -23.0295
     7.6998   8.4498  12.1701  12.4796  12.7246  12.9019  14.0458  14.2209
    14.6686  14.7803  14.9758  15.0863  19.1098  19.6664  20.7915  20.8372
    22.7136  23.4487  25.0288  25.9157  28.2391  28.7134  28.8653  29.4227
    29.6443  30.4964  31.6873  31.7488  34.2038  34.9920

          k = 0.0000 0.1028 0.0731 (  2921 PWs)   bands (ev):

   -51.0724 -51.0661 -23.1471 -23.1417 -23.1144 -23.1068 -23.1059 -23.1012
     8.2187   8.8726  12.4563  12.5897  12.7139  12.7297  14.2532  14.2659
    14.4578  14.4845  14.4984  14.7102  20.1917  20.7629  20.7702  20.9751
    21.4728  21.7643  25.5921  26.9086  27.0115  27.5279  27.5529  27.7316
    31.1505  31.2254  31.3009  31.9442  35.5123  36.1589

          k = 0.0000 0.1028 0.1096 (  2924 PWs)   bands (ev):

   -51.0658 -51.0596 -23.1922 -23.1826 -23.1370 -23.1325 -23.1019 -23.0972
     8.9593   9.4355  12.1927  12.2033  12.2498  12.5923  14.1560  14.4977
    14.5542  14.6438  14.9631  15.1295  19.4467  20.0901  20.8851  21.4662
    21.7082  21.9727  25.0785  25.5695  25.9074  26.0349  27.0532  28.6357
    30.9735  31.8512  32.3316  33.0053  34.9673  35.9873

          k = 0.0000 0.1028 0.1461 (  2933 PWs)   bands (ev):

   -51.0616 -51.0554 -23.2451 -23.2347 -23.1310 -23.1266 -23.0960 -23.0915
     9.6975   9.9211  11.4986  11.7582  11.9347  12.4456  14.0713  14.6638
    14.7206  14.7313  15.7307  16.3809  18.4491  18.7046  20.5900  21.9380
    22.8192  23.0585  24.2782  24.5553  24.6561  24.7991  27.3824  28.5724
    30.8906  32.6922  33.3192  33.5288  34.8679  35.4997

          k = 0.0257 0.0257 0.0000 (  2896 PWs)   bands (ev):

   -51.0934 -51.0611 -23.2423 -23.2120 -23.0582 -23.0271 -23.0233 -22.9862
     6.0538   9.4160  12.0613  12.1838  12.2109  13.8329  13.8889  14.5797
    14.8059  15.6978  15.7378  16.0907  17.6447  19.9970  21.2459  21.3662
    21.5033  21.7869  25.2460  25.5148  26.7589  27.5579  29.7519  30.1119
    31.0813  31.5081  33.0660  33.1871  33.2883  34.2963

          k = 0.0257 0.0257 0.0365 (  2888 PWs)   bands (ev):

   -51.0911 -51.0589 -23.2387 -23.2086 -23.0559 -23.0525 -23.0244 -23.0140
     6.2793   9.5413  12.1761  12.2738  12.2838  12.9669  13.5735  15.2925
    15.3710  15.5483  15.6497  15.8567  17.7664  20.3138  20.6950  21.3654
    21.3662  21.8459  24.4250  25.6005  27.0716  28.0381  28.2730  30.6891
    31.0547  32.5898  32.8413  33.2511  33.6090  34.3006

          k = 0.0257 0.0257 0.0731 (  2913 PWs)   bands (ev):

   -51.0853 -51.0533 -23.2297 -23.2000 -23.1281 -23.0841 -23.0483 -23.0177
     6.9295   9.8869  11.9150  12.0100  12.2861  12.5184  14.0705  14.7043
    15.0758  15.8702  15.8889  16.8088  18.0981  19.0525  20.1190  21.5086
    21.6465  22.9851  23.8396  24.7305  26.2674  27.0670  28.0543  30.7012
    31.3650  32.6089  32.6228  33.0795  33.4464  34.4187

          k = 0.0257 0.0257 0.1096 (  2929 PWs)   bands (ev):

   -51.0787 -51.0469 -23.2194 -23.2124 -23.1901 -23.1629 -23.0402 -23.0101
     7.9330  10.3366  11.3332  11.4019  11.7071  12.8273  14.2654  14.4909
    15.5135  15.9737  16.2854  17.9355  18.2522  18.5087  18.7293  21.6263
    22.4827  23.7500  23.9374  24.3983  24.7405  25.6806  28.5005  28.8767
    29.3956  30.2052  33.2762  33.4946  35.1775  35.9113

          k = 0.0257 0.0257 0.1461 (  2918 PWs)   bands (ev):

   -51.0743 -51.0427 -23.2668 -23.2138 -23.2127 -23.1836 -23.0349 -23.0051
     9.1842  10.5377  10.6102  11.0675  11.0919  13.0786  14.0225  14.1603
    16.0461  16.3977  17.2458  17.7562  18.1691  18.7704  18.8271  20.5439
    22.5497  23.8543  24.4840  24.4990  24.6524  25.9111  26.6799  27.6365
    28.4451  29.1579  32.4076  33.0286  35.6960  37.5987

          k = 0.0257 0.0514 0.0000 (  2895 PWs)   bands (ev):

   -51.0904 -51.0640 -23.2396 -23.1825 -23.0899 -23.0315 -23.0198 -22.9895
     6.3879   9.4225  11.5923  12.2370  12.3291  13.6369  13.9446  14.5437
    14.9833  15.2715  15.4267  16.0518  17.8287  19.3913  21.3730  21.6041
    22.1483  22.4016  25.0799  25.5613  26.9089  27.2530  30.2473  30.4171
    31.1447  31.9668  32.2090  32.5048  33.0308  34.4497

          k = 0.0257 0.0514 0.0365 (  2901 PWs)   bands (ev):

   -51.0881 -51.0618 -23.2361 -23.1792 -23.0870 -23.0494 -23.0288 -23.0176
     6.6061   9.5347  11.7401  12.3378  12.4037  12.9948  13.7645  15.0456
    15.0574  15.3014  15.3366  15.7579  18.0269  19.7690  21.1663  21.3747
    22.0383  22.3757  24.2982  25.5450  27.5196  27.9418  28.2565  30.7355
    31.4928  31.5902  32.3187  33.0462  33.2051  34.0780

          k = 0.0257 0.0514 0.0731 (  2916 PWs)   bands (ev):

   -51.0823 -51.0562 -23.2270 -23.1709 -23.1240 -23.0880 -23.0792 -23.0221
     7.2314   9.8332  11.8154  12.1249  12.3894  12.6152  14.1450  14.4262
    15.0097  15.2344  15.5136  16.2669  18.5069  19.3860  20.6224  20.9425
    22.4529  23.0097  23.7275  25.2206  25.9092  27.4732  28.6129  29.8946
    30.9585  32.2704  32.3947  33.2328  33.7713  34.2460

          k = 0.0257 0.0514 0.1096 (  2919 PWs)   bands (ev):

   -51.0757 -51.0498 -23.2166 -23.2077 -23.1677 -23.1609 -23.0708 -23.0144
     8.1847  10.1842  11.5123  11.5724  11.7943  12.9272  14.0769  14.5711
    15.3841  15.4705  15.6183  16.9620  18.4420  18.9845  19.4064  21.9165
    22.0543  23.7201  24.0607  24.5905  24.9536  26.1088  27.8699  29.1261
    29.9988  31.4310  32.1541  33.9159  34.8214  35.2300

          k = 0.0257 0.0514 0.1461 (  2918 PWs)   bands (ev):

   -51.0714 -51.0456 -23.2618 -23.2186 -23.2098 -23.1551 -23.0652 -23.0094
     9.3344  10.3665  10.7033  11.3002  11.3486  13.2343  13.7277  14.4684
    15.5309  15.7024  16.9393  17.6083  18.1704  18.4468  19.0217  21.0100
    22.6165  23.8690  23.8783  25.1031  25.1967  25.3883  26.6716  27.7776
    29.6999  30.0245  32.6134  33.3518  35.9491  36.1798

          k = 0.0257 0.0771 0.0000 (  2908 PWs)   bands (ev):

   -51.0858 -51.0686 -23.2247 -23.1474 -23.1271 -23.0488 -23.0145 -22.9947
     6.9218   9.0909  11.4599  12.2600  12.5104  13.3415  13.9719  14.5707
    14.6846  15.1156  15.1985  15.9014  18.0897  18.9837  21.3054  21.4961
    23.0958  23.3268  24.7343  25.7621  26.8061  28.0503  29.2602  30.6620
    31.2102  31.4254  31.9580  32.5209  32.9791  33.5252

          k = 0.0257 0.0771 0.0365 (  2913 PWs)   bands (ev):

   -51.0835 -51.0664 -23.2212 -23.1443 -23.1240 -23.0465 -23.0434 -23.0230
     7.1266   9.2102  11.6354  12.3798  12.5769  13.0175  13.8448  14.7216
    14.7823  14.9165  15.0924  15.5761  18.3805  19.3562  21.3949  21.8060
    21.9831  23.6086  24.0835  25.6584  27.7813  28.1020  28.4844  30.0332
    30.4459  31.3880  31.9900  32.5567  33.3606  33.9257

          k = 0.0257 0.0771 0.0731 (  2915 PWs)   bands (ev):

   -51.0778 -51.0607 -23.2122 -23.1364 -23.1197 -23.1138 -23.0940 -23.0390
     7.7056   9.5163  11.9292  12.3348  12.4891  12.7381  14.2082  14.2504
    14.7116  14.7439  15.0645  15.5386  19.0133  19.6787  20.8392  21.2148
    22.5163  22.6502  24.3937  25.7932  25.8923  28.0185  28.7021  28.9036
    30.4522  31.5782  31.7064  33.1410  34.2138  34.7674

          k = 0.0257 0.0771 0.1096 (  2929 PWs)   bands (ev):

   -51.0712 -51.0543 -23.2020 -23.2005 -23.1741 -23.1271 -23.1068 -23.0311
     8.5616   9.8713  11.7911  11.9272  11.9501  12.9506  13.9571  14.6595
    14.6811  15.1261  15.2900  15.9056  18.7742  19.4990  20.1547  21.4729
    21.9082  23.3931  24.3215  25.0380  25.3973  26.5936  27.4274  29.2268
    30.5740  31.2502  32.7696  33.6470  34.3790  34.7911

          k = 0.0257 0.0771 0.1461 (  2930 PWs)   bands (ev):

   -51.0669 -51.0501 -23.2540 -23.2258 -23.1952 -23.1212 -23.1009 -23.0259
     9.4974  10.0943  11.0676  11.6060  11.7194  13.1052  13.6556  14.7091
    14.9809  15.2184  16.0782  16.8877  18.2232  18.8140  19.4455  21.7263
    22.4146  23.5975  23.8339  24.1850  25.4467  26.2714  26.7732  28.2750
    30.4735  31.5444  32.6457  33.8741  34.2640  36.5829

          k = 0.0257 0.1028 0.0000 (  2909 PWs)   bands (ev):

   -51.0802 -51.0742 -23.1989 -23.1650 -23.1106 -23.0763 -23.0080 -23.0012
     7.6159   8.3942  11.7596  12.1167  12.7473  13.0315  14.0047  14.2029
    14.6726  14.8560  15.4391  15.6838  18.3836  18.6779  21.2641  21.3281
    23.9888  24.2113  24.3870  25.2664  27.5610  28.9942  29.2203  29.2846
    30.2007  30.5965  32.3129  32.9793  33.1142  33.4309

          k = 0.0257 0.1028 0.0365 (  2919 PWs)   bands (ev):

   -51.0779 -51.0719 -23.1955 -23.1617 -23.1076 -23.0735 -23.0369 -23.0297
     7.7992   8.5469  11.9271  12.2618  12.7738  12.9456  13.9430  14.2290
    14.6245  14.7046  15.1512  15.3518  18.7343  19.0482  21.4567  21.6051
    22.7579  23.4349  25.0533  25.6350  27.4732  28.0375  29.2849  29.5976
    30.4344  30.5824  31.1964  31.3686  34.4376  34.5996

          k = 0.0257 0.1028 0.0731 (  2922 PWs)   bands (ev):

   -51.0722 -51.0663 -23.1867 -23.1535 -23.1097 -23.1033 -23.0983 -23.0661
     8.3046   8.9505  12.2319  12.4571  12.6062  12.7889  14.1471  14.1851
    14.4509  14.5129  14.8231  14.9582  19.4101  19.6529  21.2778  21.7316
    21.9791  22.2425  25.5836  26.0507  26.0601  27.2784  28.6343  29.0041
    30.4503  31.0285  31.3527  31.7931  35.4612  35.7525

          k = 0.0257 0.1028 0.1096 (  2920 PWs)   bands (ev):

   -51.0656 -51.0598 -23.1918 -23.1833 -23.1760 -23.1436 -23.0912 -23.0579
     9.0067   9.4602  12.0411  12.1026  12.3867  12.7449  14.0286  14.1499
    14.6730  14.9757  15.0506  15.1579  19.2006  19.5627  20.7022  21.1063
    22.2322  22.9094  24.3401  24.5834  26.5114  27.1553  27.4310  28.7636
    30.2314  31.5335  32.4085  33.5471  35.1853  35.2000

          k = 0.0257 0.1028 0.1461 (  2933 PWs)   bands (ev):

   -51.0614 -51.0555 -23.2447 -23.2349 -23.1701 -23.1374 -23.0856 -23.0525
     9.6577   9.8509  11.5537  11.8158  12.1181  12.6025  13.9372  14.1484
    14.8714  15.2286  15.6219  16.2743  18.3478  18.5493  20.6064  21.7169
    22.4579  23.1725  23.6374  23.7401  25.8513  26.3719  27.4548  28.3923
    30.8510  32.1904  33.5035  33.7118  34.3737  35.0720

          k = 0.0514 0.0514 0.0000 (  2902 PWs)   bands (ev):

   -51.0880 -51.0664 -23.2517 -23.1443 -23.1301 -23.0207 -23.0170 -22.9923
     6.7135   9.5642  11.0753  12.1640  12.4393  13.6324  13.8171  14.4183
    15.0320  15.0833  15.2435  16.1686  17.9128  18.6567  22.2642  22.3561
    22.5396  22.6640  24.2855  25.9118  26.2430  27.4570  29.2236  31.3889
    31.4617  31.5568  31.6777  32.3374  33.0587  35.0617

          k = 0.0514 0.0514 0.0365 (  2918 PWs)   bands (ev):

   -51.0857 -51.0642 -23.2481 -23.1412 -23.1270 -23.0464 -23.0204 -23.0181
     6.9239   9.6527  11.2606  12.2635  12.5156  13.0352  13.7427  14.7287
    15.0606  15.0658  15.2518  15.8899  18.0351  18.9839  21.5888  22.2295
    22.6204  22.9810  24.1804  24.7326  27.5003  28.0232  28.0921  30.7181
    30.9185  31.3394  32.5265  33.0667  33.4817  33.5663

          k = 0.0514 0.0514 0.0731 (  2920 PWs)   bands (ev):

   -51.0799 -51.0586 -23.2388 -23.1333 -23.1227 -23.1166 -23.0911 -23.0115
     7.5213   9.8724  11.5930  12.2089  12.3218  12.7262  14.1792  14.2184
    14.7960  15.0522  15.4042  16.2548  18.2421  19.1738  20.6413  21.2583
    23.4724  23.4789  24.0149  24.6377  25.2014  27.9970  29.2685  29.4287
    30.4670  31.8017  32.8397  33.1854  33.2587  34.2952

          k = 0.0514 0.0514 0.1096 (  2923 PWs)   bands (ev):

   -51.0733 -51.0522 -23.2282 -23.2038 -23.1709 -23.1240 -23.1096 -23.0039
     8.4110  10.0747  11.6802  11.7216  11.7859  13.0484  14.0334  14.6185
    14.7070  15.3598  15.4049  17.0883  18.3530  18.4277  19.8965  21.2856
    22.7098  23.6445  23.9890  24.8708  25.1746  26.8195  27.5697  29.1903
    30.6358  32.2846  32.3910  32.9229  33.7135  34.4887

          k = 0.0514 0.0514 0.1461 (  2923 PWs)   bands (ev):

   -51.0690 -51.0480 -23.2576 -23.2223 -23.2212 -23.1182 -23.1037 -22.9990
     9.4066  10.1271  10.8842  11.6054  11.6117  13.3841  13.9169  14.3070
    14.7357  15.4858  16.9321  17.6040  18.0986  18.1115  19.0272  21.0460
    22.2821  23.2848  23.9039  25.7492  25.9775  26.0794  26.1151  28.2448
    30.6664  31.0069  32.1065  33.0026  34.8596  35.6172

          k = 0.0514 0.0771 0.0000 (  2904 PWs)   bands (ev):

   -51.0842 -51.0701 -23.2502 -23.1710 -23.1050 -23.0242 -23.0126 -22.9965
     7.2353   9.3762  10.8654  11.9980  12.6027  13.3598  13.8976  14.3686
    14.6319  14.7771  15.5167  16.1443  18.0351  18.3010  22.2573  22.7602
    23.2749  23.4754  23.9688  26.1398  26.1666  27.8639  28.3521  30.2187
    30.5439  30.9777  32.1814  33.0516  33.5904  33.8878

          k = 0.0514 0.0771 0.0365 (  2920 PWs)   bands (ev):

   -51.0819 -51.0679 -23.2465 -23.1677 -23.1021 -23.0418 -23.0249 -23.0215
     7.4315   9.4691  11.0529  12.0915  12.6786  13.1178  13.6364  14.4825
    14.6904  15.0014  15.2413  15.8578  18.1609  18.5652  22.1948  22.3962
    23.1415  23.6049  24.2123  24.7135  26.8561  28.3501  28.5369  29.4468
    30.4730  30.4786  32.6216  32.7545  33.9237  33.9452

          k = 0.0514 0.0771 0.0731 (  2923 PWs)   bands (ev):

   -51.0762 -51.0623 -23.2372 -23.1593 -23.1150 -23.0978 -23.0929 -23.0149
     7.9771   9.6765  11.4919  12.1690  12.4629  12.8734  14.0602  14.0846
    14.7323  14.7879  15.2834  15.7293  18.3911  18.8924  20.9472  21.9557
    23.0570  23.8150  24.6840  24.8411  25.0244  28.4499  28.5871  29.6013
    30.1298  30.9427  31.9607  33.2556  33.6667  34.1583

          k = 0.0514 0.0771 0.1096 (  2930 PWs)   bands (ev):

   -51.0696 -51.0558 -23.2265 -23.1979 -23.1764 -23.1492 -23.0859 -23.0073
     8.7457   9.8418  11.8147  11.8153  12.1258  13.1343  13.9994  14.1489
    14.7050  15.0765  15.2398  16.2591  18.4760  18.5075  20.6166  20.9786
    22.4905  23.7385  23.8259  24.9649  25.8799  27.4354  27.8549  28.9207
    30.7092  32.0701  32.2049  33.3178  33.7539  34.2772

          k = 0.0514 0.0771 0.1461 (  2930 PWs)   bands (ev):

   -51.0653 -51.0516 -23.2512 -23.2282 -23.2195 -23.1430 -23.0803 -23.0023
     9.4764   9.8851  11.2565  11.9230  12.0425  13.4174  13.7726  14.0410
    14.7009  15.1484  16.4687  16.6259  18.0530  18.1262  19.8579  21.2834
    21.8392  22.9112  23.9443  25.0025  26.5445  26.7648  27.1680  28.5550
    31.2130  32.0341  32.1116  33.2305  33.3312  35.1885

          k = 0.0514 0.1028 0.0000 (  2921 PWs)   bands (ev):

   -51.0796 -51.0747 -23.2350 -23.2075 -23.0692 -23.0411 -23.0073 -23.0017
     7.9170   8.6903  11.2102  11.6691  12.8118  13.0670  14.0267  14.2549
    14.4091  14.5465  15.7791  16.0011  18.1311  18.1890  22.2759  22.4635
    23.7931  23.9562  24.5007  25.5743  27.0295  28.4745  28.5467  28.8637
    29.4703  29.9102  32.8620  33.1090  33.3512  33.5196

          k = 0.0514 0.1028 0.0365 (  2922 PWs)   bands (ev):

   -51.0773 -51.0725 -23.2313 -23.2040 -23.0665 -23.0388 -23.0358 -23.0303
     8.0910   8.8302  11.3490  11.7714  12.8707  13.0579  13.7399  14.1023
    14.5770  14.7385  15.4760  15.7006  18.2957  18.3993  22.4971  22.6322
    23.0420  23.4635  25.1271  25.2033  26.5473  27.6991  29.0219  29.3689
    29.8126  30.0539  31.8514  31.9233  34.6621  34.8962

          k = 0.0514 0.1028 0.0731 (  2929 PWs)   bands (ev):

   -51.0716 -51.0668 -23.2221 -23.1951 -23.1089 -23.1024 -23.0591 -23.0315
     8.5533   9.1702  11.6661  11.9337  12.7939  12.9587  13.8703  13.9598
    14.6812  14.8570  15.1319  15.1636  18.5928  18.7311  21.5146  22.0901
    22.9881  23.3900  24.7532  25.0615  26.1311  27.4404  29.1556  29.2198
    30.3691  30.5661  31.2835  32.0857  34.3870  35.0818

          k = 0.0514 0.1028 0.1096 (  2923 PWs)   bands (ev):

   -51.0651 -51.0603 -23.2116 -23.1914 -23.1840 -23.1831 -23.0511 -23.0237
     9.1326   9.5138  11.8776  11.8972  12.6324  13.0149  13.8708  13.9360
    14.8215  15.0094  15.0802  15.4211  18.5855  18.6379  20.9324  20.9597
    22.8478  23.6472  23.7588  24.0099  27.1482  28.1800  28.1889  29.1207
    29.3280  30.6489  33.1367  34.0149  34.2395  34.5396

          k = 0.0514 0.1028 0.1461 (  2931 PWs)   bands (ev):

   -51.0608 -51.0560 -23.2436 -23.2356 -23.2046 -23.1780 -23.0458 -23.0187
     9.5589   9.6904  11.7482  12.0735  12.5116  12.9926  13.6798  13.7813
    15.0364  15.3207  15.5804  15.9680  18.0686  18.1170  20.7437  21.3922
    21.7514  22.3950  24.0060  24.2676  27.2103  27.7435  27.8626  28.1910
    30.7055  31.4555  32.9709  33.6150  34.0883  35.0311

          k = 0.0771 0.0771 0.0000 (  2914 PWs)   bands (ev):

   -51.0817 -51.0726 -23.2624 -23.2109 -23.0664 -23.0134 -23.0097 -22.9992
     7.7379   9.7065  10.2125  11.6019  12.7270  13.2459  13.9085  14.2468
    14.4391  14.4971  15.8203  16.2596  18.0384  18.0708  22.6093  23.1038
    23.9131  23.9936  24.1101  25.9038  26.7354  27.3046  27.7306  29.5228
    29.6140  30.0598  32.6748  32.8441  33.0615  33.6681

          k = 0.0771 0.0771 0.0365 (  2916 PWs)   bands (ev):

   -51.0794 -51.0703 -23.2586 -23.2074 -23.0636 -23.0388 -23.0277 -23.0109
     7.9193   9.7321  10.4485  11.6727  12.8174  13.3184  13.3973  14.3049
    14.4905  14.8408  15.5243  15.9902  18.1176  18.1880  22.5318  22.8174
    23.9755  24.3446  24.3815  24.3943  26.1315  28.3982  28.5010  28.9333
    29.3820  29.6683  32.9454  33.3221  33.5003  34.1673

          k = 0.0771 0.0771 0.0731 (  2920 PWs)   bands (ev):

   -51.0737 -51.0646 -23.2490 -23.1983 -23.1117 -23.0994 -23.0564 -23.0043
     8.4028   9.7667  11.0660  11.7706  12.7588  13.0502  13.7969  14.0419
    14.6218  14.9775  15.4081  15.4816  18.1633  18.3832  21.3285  22.6132
    23.3571  24.0047  24.0104  25.1750  25.6515  27.5593  28.7522  29.1977
    30.2941  30.6797  32.3169  32.9201  33.3151  34.4186

          k = 0.0771 0.0771 0.1096 (  2928 PWs)   bands (ev):

   -51.0671 -51.0582 -23.2381 -23.1946 -23.1872 -23.1799 -23.0484 -22.9969
     9.0085   9.7386  11.7146  11.8109  12.4947  13.3310  13.8480  14.0475
    14.7091  14.9290  15.1538  15.9846  18.0719  18.1817  20.9018  21.2767
    22.2318  23.4098  23.8678  25.5308  26.8380  27.2130  27.9063  29.5479
    30.6067  31.4908  32.8564  33.0155  33.2137  33.5011

          k = 0.0771 0.0771 0.1461 (  2928 PWs)   bands (ev):

   -51.0629 -51.0539 -23.2469 -23.2320 -23.2309 -23.1812 -23.0431 -22.9920
     9.4489   9.6776  11.6057  12.3656  12.4548  13.4995  13.6624  13.9787
    14.4849  14.9474  16.0915  16.2782  17.6983  17.8701  20.5063  21.1163
    21.4086  22.4334  24.1472  25.4611  26.8774  27.4188  27.4811  30.1474
    30.3509  31.9393  32.0083  32.9989  33.2241  34.9710

          k = 0.0771 0.1028 0.0000 (  2914 PWs)   bands (ev):

   -51.0787 -51.0755 -23.2595 -23.2417 -23.0361 -23.0177 -23.0063 -23.0026
     8.3976   9.1574  10.5050  11.0819  12.8767  13.0553  14.0198  14.2016
    14.2240  14.3081  16.0704  16.2287  18.0466  18.0920  22.5426  22.6785
    24.5054  24.5135  24.9765  26.0128  26.6728  27.7168  27.8746  28.5053
    28.6504  29.1224  32.3303  32.4827  33.1073  33.3070

          k = 0.0771 0.1028 0.0365 (  2923 PWs)   bands (ev):

   -51.0764 -51.0733 -23.2557 -23.2380 -23.0351 -23.0338 -23.0309 -23.0151
     8.5559   9.2741  10.6338  11.1611  12.9767  13.1623  13.6387  14.0188
    14.4283  14.6025  15.7848  15.9560  18.1192  18.1303  22.6888  22.7286
    23.9982  24.2938  25.1370  25.5631  25.8820  27.3555  28.4992  28.5853
    29.2059  29.2324  32.6040  32.6534  33.6401  33.9613

          k = 0.0771 0.1028 0.0731 (  2920 PWs)   bands (ev):

   -51.0707 -51.0676 -23.2461 -23.2285 -23.1076 -23.1033 -23.0266 -23.0085
     8.9363   9.4768  11.0589  11.3714  13.1206  13.1960  13.6516  13.8737
    14.5982  14.9867  15.2216  15.3772  18.1617  18.2045  21.8709  22.4473
    23.6254  23.6947  24.1956  25.1403  26.7951  27.2040  28.2656  28.3981
    30.5366  31.1125  31.7927  32.6259  33.3832  33.8963

          k = 0.0771 0.1028 0.1096 (  2928 PWs)   bands (ev):

   -51.0642 -51.0611 -23.2351 -23.2178 -23.1891 -23.1843 -23.0189 -23.0010
     9.2947   9.5503  11.6953  11.7490  12.9958  13.3524  13.7862  13.9511
    14.7680  14.9495  15.0359  15.3170  18.0334  18.0571  21.0995  21.4112
    22.4120  22.9642  24.2652  24.9697  27.5978  27.8690  28.2018  29.3267
    30.2318  30.7185  32.8558  33.0119  33.3004  34.0903

          k = 0.0771 0.1028 0.1461 (  2918 PWs)   bands (ev):

   -51.0599 -51.0568 -23.2419 -23.2367 -23.2279 -23.2106 -23.0139 -22.9961
     9.4549   9.5280  12.0511  12.4435  12.9910  13.4171  13.4752  13.8188
    14.8881  14.9380  15.4978  15.5098  17.7051  17.7630  21.0010  21.1682
    21.3877  21.9757  24.4150  24.8866  27.7809  28.0109  28.3398  29.2044
    30.6995  30.8277  32.1538  33.2825  33.3517  33.9882

          k = 0.1028 0.1028 0.0000 (  2894 PWs)   bands (ev):

   -51.0776 -51.0765 -23.2693 -23.2631 -23.0151 -23.0087 -23.0050 -23.0037
     9.0242   9.7227   9.7811  10.4212  12.9353  12.9985  14.0418  14.1081
    14.1409  14.1691  16.2627  16.3204  18.0938  18.1239  22.3609  22.3978
    25.4831  25.5713  25.6013  26.1696  26.7884  27.3276  27.6986  27.7767
    27.8610  28.3098  31.4798  31.6436  33.0754  33.1462

          k = 0.1028 0.1028 0.0365 (  2917 PWs)   bands (ev):

   -51.0754 -51.0743 -23.2655 -23.2593 -23.0338 -23.0325 -23.0125 -23.0062
     9.1601   9.7556   9.9756  10.5083  13.0615  13.1359  13.8011  14.0708
    14.1653  14.3509  15.9959  16.0600  18.0925  18.1116  22.5649  22.5707
    24.5816  25.0280  25.6909  25.9095  26.2033  26.6875  27.5640  27.6280
    29.1831  29.1891  32.4740  32.7234  33.0158  33.0869

          k = 0.1028 0.1028 0.0731 (  2925 PWs)   bands (ev):

   -51.0697 -51.0686 -23.2557 -23.2496 -23.1061 -23.1046 -23.0060 -22.9996
     9.3866   9.6677  10.6727  10.8746  13.3819  13.4943  13.5685  13.9304
    14.3161  14.5943  15.4231  15.4859  18.0373  18.0380  22.3186  22.6467
    23.2164  23.3255  24.9958  26.0794  26.0974  27.1166  27.6809  28.2637
    30.8756  31.0695  32.1516  32.6378  32.9978  33.0194

          k = 0.1028 0.1028 0.1096 (  2928 PWs)   bands (ev):

   -51.0631 -51.0621 -23.2446 -23.2385 -23.1874 -23.1857 -22.9985 -22.9923
     9.4406   9.5305  11.6065  11.6323  13.4873  13.6643  13.8104  13.9770
    14.4991  14.8265  14.9358  14.9790  17.8333  17.8402  21.4286  21.7871
    22.0257  22.4449  24.9618  25.4626  26.8598  27.2680  29.1831  30.1803
    30.3836  31.4015  31.5561  31.9953  32.9582  33.4529

          k = 0.1028 0.1028 0.1461 (  2942 PWs)   bands (ev):

   -51.0589 -51.0578 -23.2401 -23.2382 -23.2373 -23.2313 -22.9937 -22.9875
     9.3996   9.4229  12.3416  12.5352  13.5067  13.6340  13.8128  13.9853
    14.6041  14.6403  14.9748  14.9790  17.5769  17.6061  21.0875  21.0887
    21.4922  21.7406  24.7685  25.0108  28.1010  28.3627  28.9032  29.1974
    30.2989  30.6404  32.1125  32.8113  32.9953  33.2869

     the Fermi energy is    15.2625 ev

!    total energy              =    -364.50910377 Ry
     Harris-Foulkes estimate   =    -364.50910233 Ry
     estimated scf accuracy    <       0.00000012 Ry

     The total energy is the sum of the following terms:

     one-electron contribution =    -106.10576938 Ry
     hartree contribution      =      72.49962217 Ry
     xc contribution           =     -75.56480887 Ry
     ewald contribution        =    -255.32599164 Ry
     smearing contrib. (-TS)   =      -0.01215605 Ry

     convergence has been achieved in  12 iterations

     Forces acting on atoms (Ry/au):


     negative rho (up, down):  2.592E-01 0.000E+00
     atom    1 type  1   force =     0.00000000    0.00000000    0.00000000
     atom    2 type  1   force =     0.00000000    0.00000000    0.00000000
     atom    3 type  2   force =     0.00000000    0.00000000    0.00000000
     atom    4 type  2   force =     0.00000000    0.00000000    0.00000000

     Total force =     0.000000     Total SCF correction =     0.000000
 
     init_run     :      0.83s CPU      0.92s WALL (       1 calls)
     electrons    :     27.75s CPU     30.05s WALL (       1 calls)
     forces       :      0.32s CPU      0.33s WALL (       1 calls)

     Called by init_run:
     wfcinit      :      0.50s CPU      0.52s WALL (       1 calls)
     potinit      :      0.09s CPU      0.11s WALL (       1 calls)

     Called by electrons:
     c_bands      :     23.39s CPU     25.34s WALL (      12 calls)
     sum_band     :      3.27s CPU      3.48s WALL (      12 calls)
     v_of_rho     :      0.74s CPU      0.89s WALL (      13 calls)
     newd         :      0.40s CPU      0.41s WALL (      13 calls)
     mix_rho      :      0.01s CPU      0.02s WALL (      12 calls)
     vdW_energy   :      0.21s CPU      0.24s WALL (      14 calls)
     vdW_ffts     :      0.22s CPU      0.27s WALL (      28 calls)
     vdW_v        :      0.09s CPU      0.10s WALL (      14 calls)

     Called by c_bands:
     init_us_2    :      0.16s CPU      0.18s WALL (    1950 calls)
     cegterg      :     22.59s CPU     24.50s WALL (     900 calls)

     Called by *egterg:
     h_psi        :     11.67s CPU     12.17s WALL (    2943 calls)
     s_psi        :      0.44s CPU      0.46s WALL (    2943 calls)
     g_psi        :      0.13s CPU      0.10s WALL (    1968 calls)
     cdiaghg      :      7.47s CPU      7.74s WALL (    2868 calls)

     Called by h_psi:
     add_vuspsi   :      0.52s CPU      0.47s WALL (    2943 calls)

     General routines
     calbec       :      1.00s CPU      1.13s WALL (    3918 calls)
     fft          :      0.36s CPU      0.45s WALL (     915 calls)
     ffts         :      0.00s CPU      0.00s WALL (      25 calls)
     fftw         :     11.30s CPU     11.71s WALL (  195106 calls)
     interpolate  :      0.02s CPU      0.02s WALL (      25 calls)
 
     Parallel routines
     fft_scatter  :      6.52s CPU      6.77s WALL (  196046 calls)
 
     PWSCF        :    29.09s CPU        31.53s WALL

 
   This run was terminated on:  18:25:29  14Nov2017            

=------------------------------------------------------------------------------=
   JOB DONE.
=------------------------------------------------------------------------------=
