  python dir          : /home/users/vossj/suncat/lib/python2.7/site-packages/espresso
  espresso dir        : /home/users/vossj/suncat/s2/qe5/bin
  pseudo dir          : /home/users/vossj/suncat/psp/gbrv1.5pbe
  ase-espresso py git : ffa2778-git



     Program PWSCF v.5.1rc2 starts on 13Nov2017 at 18: 0:47 

     This program is part of the open-source Quantum ESPRESSO suite
     for quantum simulation of materials; please cite
         "P. Giannozzi et al., J. Phys.:Condens. Matter 21 395502 (2009);
          URL http://www.quantum-espresso.org", 
     in publications or presentations arising from this work. More details at
     http://www.quantum-espresso.org/quote

     Parallel version (MPI), running on    16 processors
     R & G space division:  proc/nbgrp/npool/nimage =      16
     Reading input from pw.inp
     Message from routine read_cards :
     DEPRECATED: no units specified in CELL_PARAMETERS card

     Current dimensions of program PWSCF are:
     Max number of different atomic species (ntypx) = 10
     Max number of k-points (npk) =  40000
     Max angular momentum in pseudopotentials (lmaxx) =  3

     **************************************************************************
     Initializing libbeef V0.1.2 with the BEEF-vdW functional.
     Citation: Wellendorff et al., PRB 85, 235149 (2012).
     **************************************************************************


     IMPORTANT: XC functional enforced from input :
     Exchange-correlation      = BEEF-VDW ( 1  4 27 13 2)
     Any further DFT definition will be discarded
     Please, verify this is what you really want


     Subspace diagonalization in iterative solution of the eigenvalue problem:
     scalapack distributed-memory algorithm (size of sub-group:  2*  2 procs)

     Found symmetry operation: I + ( -0.5000 -0.5000  0.0000)
     This is a supercell, fractional translations are disabled
 
     Parallelization info
     --------------------
     sticks:   dense  smooth     PW     G-vecs:    dense   smooth      PW
     Min         153      60     18                 6683     1682     270
     Max         154      61     19                 6688     1697     274
     Sum        2449     973    293               106961    27069    4347
 


     bravais-lattice index     =            0
     lattice parameter (alat)  =       1.8897  a.u.
     unit-cell volume          =     444.4591 (a.u.)^3
     number of atoms/cell      =            4
     number of atomic types    =            2
     number of electrons       =        68.00
     number of Kohn-Sham states=           54
     kinetic-energy cutoff     =      58.7989  Ry
     charge density cutoff     =     587.9892  Ry
     convergence threshold     =      1.0E-06
     mixing beta               =       0.1000
     number of iterations used =           10  plain     mixing
     Exchange-correlation      = BEEF-VDW ( 1  4 27 13 2)

     celldm(1)=   1.889726  celldm(2)=   0.000000  celldm(3)=   0.000000
     celldm(4)=   0.000000  celldm(5)=   0.000000  celldm(6)=   0.000000

     crystal axes: (cart. coord. in units of alat)
               a(1) = (   3.834932   0.000000   0.000000 )  
               a(2) = (   0.000000   3.834932   0.000000 )  
               a(3) = (   0.000000   0.000000   4.478369 )  

     reciprocal axes: (cart. coord. in units 2 pi/alat)
               b(1) = (  0.260761  0.000000  0.000000 )  
               b(2) = (  0.000000  0.260761  0.000000 )  
               b(3) = (  0.000000  0.000000  0.223296 )  


     PseudoPot. # 1 for Ag read from file:
     /home/users/vossj/suncat/psp/gbrv1.5pbe/Ag.UPF
     MD5 check sum: d66d668201baa78d5eb5b04ef7011058
     Pseudo is Ultrasoft + core correction, Zval = 19.0
     Generated by new atomic code, or converted to UPF format
     Using radial grid of  887 points,  6 beta functions with: 
                l(1) =   0
                l(2) =   0
                l(3) =   1
                l(4) =   1
                l(5) =   2
                l(6) =   2
     Q(r) pseudized with  6 coefficients,  rinner =    1.300   1.300   1.300
                                                       1.300   1.300

     PseudoPot. # 2 for Ir read from file:
     /home/users/vossj/suncat/psp/gbrv1.5pbe/Ir.UPF
     MD5 check sum: 8836f839c3459d2b385c504ce6d91f2c
     Pseudo is Ultrasoft + core correction, Zval = 15.0
     Generated by new atomic code, or converted to UPF format
     Using radial grid of  983 points,  7 beta functions with: 
                l(1) =   0
                l(2) =   0
                l(3) =   1
                l(4) =   1
                l(5) =   1
                l(6) =   2
                l(7) =   2
     Q(r) pseudized with  8 coefficients,  rinner =    1.400   1.400   1.400
                                                       1.400   1.400

     vdW kernel table read from file vdW_kernel_table
     MD5 check sum: 095c7af220d748ca6e76c0b4c6cfb241

     atomic species   valence    mass     pseudopotential
        Ag1           19.00   107.86800     Ag( 1.00)
        Ir1           15.00   192.22000     Ir( 1.00)

     16 Sym. Ops., with inversion, found



   Cartesian axes

     site n.     atom                  positions (alat units)
         1           Ag1 tau(   1) = (   0.0000000   0.0000000   0.0000000  )
         2           Ag1 tau(   2) = (   1.9174659   1.9174659   0.0000000  )
         3           Ir1 tau(   3) = (   1.9174659   0.0000000   2.2391845  )
         4           Ir1 tau(   4) = (   0.0000000   1.9174659   2.2391845  )

     number of k points=    75  Fermi-Dirac smearing, width (Ry)=  0.0073
                       cart. coord. in units 2pi/alat
        k(    1) = (   0.0000000   0.0000000   0.0000000), wk =   0.0027435
        k(    2) = (   0.0000000   0.0000000   0.0248106), wk =   0.0054870
        k(    3) = (   0.0000000   0.0000000   0.0496212), wk =   0.0054870
        k(    4) = (   0.0000000   0.0000000   0.0744319), wk =   0.0054870
        k(    5) = (   0.0000000   0.0000000   0.0992425), wk =   0.0054870
        k(    6) = (   0.0000000   0.0289734   0.0000000), wk =   0.0109739
        k(    7) = (   0.0000000   0.0289734   0.0248106), wk =   0.0219479
        k(    8) = (   0.0000000   0.0289734   0.0496212), wk =   0.0219479
        k(    9) = (   0.0000000   0.0289734   0.0744319), wk =   0.0219479
        k(   10) = (   0.0000000   0.0289734   0.0992425), wk =   0.0219479
        k(   11) = (   0.0000000   0.0579468   0.0000000), wk =   0.0109739
        k(   12) = (   0.0000000   0.0579468   0.0248106), wk =   0.0219479
        k(   13) = (   0.0000000   0.0579468   0.0496212), wk =   0.0219479
        k(   14) = (   0.0000000   0.0579468   0.0744319), wk =   0.0219479
        k(   15) = (   0.0000000   0.0579468   0.0992425), wk =   0.0219479
        k(   16) = (   0.0000000   0.0869203   0.0000000), wk =   0.0109739
        k(   17) = (   0.0000000   0.0869203   0.0248106), wk =   0.0219479
        k(   18) = (   0.0000000   0.0869203   0.0496212), wk =   0.0219479
        k(   19) = (   0.0000000   0.0869203   0.0744319), wk =   0.0219479
        k(   20) = (   0.0000000   0.0869203   0.0992425), wk =   0.0219479
        k(   21) = (   0.0000000   0.1158937   0.0000000), wk =   0.0109739
        k(   22) = (   0.0000000   0.1158937   0.0248106), wk =   0.0219479
        k(   23) = (   0.0000000   0.1158937   0.0496212), wk =   0.0219479
        k(   24) = (   0.0000000   0.1158937   0.0744319), wk =   0.0219479
        k(   25) = (   0.0000000   0.1158937   0.0992425), wk =   0.0219479
        k(   26) = (   0.0289734   0.0289734   0.0000000), wk =   0.0109739
        k(   27) = (   0.0289734   0.0289734   0.0248106), wk =   0.0219479
        k(   28) = (   0.0289734   0.0289734   0.0496212), wk =   0.0219479
        k(   29) = (   0.0289734   0.0289734   0.0744319), wk =   0.0219479
        k(   30) = (   0.0289734   0.0289734   0.0992425), wk =   0.0219479
        k(   31) = (   0.0289734   0.0579468   0.0000000), wk =   0.0219479
        k(   32) = (   0.0289734   0.0579468   0.0248106), wk =   0.0438957
        k(   33) = (   0.0289734   0.0579468   0.0496212), wk =   0.0438957
        k(   34) = (   0.0289734   0.0579468   0.0744319), wk =   0.0438957
        k(   35) = (   0.0289734   0.0579468   0.0992425), wk =   0.0438957
        k(   36) = (   0.0289734   0.0869203   0.0000000), wk =   0.0219479
        k(   37) = (   0.0289734   0.0869203   0.0248106), wk =   0.0438957
        k(   38) = (   0.0289734   0.0869203   0.0496212), wk =   0.0438957
        k(   39) = (   0.0289734   0.0869203   0.0744319), wk =   0.0438957
        k(   40) = (   0.0289734   0.0869203   0.0992425), wk =   0.0438957
        k(   41) = (   0.0289734   0.1158937   0.0000000), wk =   0.0219479
        k(   42) = (   0.0289734   0.1158937   0.0248106), wk =   0.0438957
        k(   43) = (   0.0289734   0.1158937   0.0496212), wk =   0.0438957
        k(   44) = (   0.0289734   0.1158937   0.0744319), wk =   0.0438957
        k(   45) = (   0.0289734   0.1158937   0.0992425), wk =   0.0438957
        k(   46) = (   0.0579468   0.0579468   0.0000000), wk =   0.0109739
        k(   47) = (   0.0579468   0.0579468   0.0248106), wk =   0.0219479
        k(   48) = (   0.0579468   0.0579468   0.0496212), wk =   0.0219479
        k(   49) = (   0.0579468   0.0579468   0.0744319), wk =   0.0219479
        k(   50) = (   0.0579468   0.0579468   0.0992425), wk =   0.0219479
        k(   51) = (   0.0579468   0.0869203   0.0000000), wk =   0.0219479
        k(   52) = (   0.0579468   0.0869203   0.0248106), wk =   0.0438957
        k(   53) = (   0.0579468   0.0869203   0.0496212), wk =   0.0438957
        k(   54) = (   0.0579468   0.0869203   0.0744319), wk =   0.0438957
        k(   55) = (   0.0579468   0.0869203   0.0992425), wk =   0.0438957
        k(   56) = (   0.0579468   0.1158937   0.0000000), wk =   0.0219479
        k(   57) = (   0.0579468   0.1158937   0.0248106), wk =   0.0438957
        k(   58) = (   0.0579468   0.1158937   0.0496212), wk =   0.0438957
        k(   59) = (   0.0579468   0.1158937   0.0744319), wk =   0.0438957
        k(   60) = (   0.0579468   0.1158937   0.0992425), wk =   0.0438957
        k(   61) = (   0.0869203   0.0869203   0.0000000), wk =   0.0109739
        k(   62) = (   0.0869203   0.0869203   0.0248106), wk =   0.0219479
        k(   63) = (   0.0869203   0.0869203   0.0496212), wk =   0.0219479
        k(   64) = (   0.0869203   0.0869203   0.0744319), wk =   0.0219479
        k(   65) = (   0.0869203   0.0869203   0.0992425), wk =   0.0219479
        k(   66) = (   0.0869203   0.1158937   0.0000000), wk =   0.0219479
        k(   67) = (   0.0869203   0.1158937   0.0248106), wk =   0.0438957
        k(   68) = (   0.0869203   0.1158937   0.0496212), wk =   0.0438957
        k(   69) = (   0.0869203   0.1158937   0.0744319), wk =   0.0438957
        k(   70) = (   0.0869203   0.1158937   0.0992425), wk =   0.0438957
        k(   71) = (   0.1158937   0.1158937   0.0000000), wk =   0.0109739
        k(   72) = (   0.1158937   0.1158937   0.0248106), wk =   0.0219479
        k(   73) = (   0.1158937   0.1158937   0.0496212), wk =   0.0219479
        k(   74) = (   0.1158937   0.1158937   0.0744319), wk =   0.0219479
        k(   75) = (   0.1158937   0.1158937   0.0992425), wk =   0.0219479

     Dense  grid:   106961 G-vectors     FFT dimensions: (  60,  60,  72)

     Smooth grid:    27069 G-vectors     FFT dimensions: (  36,  36,  45)

     Largest allocated arrays     est. size (Mb)     dimensions
        Kohn-Sham Wavefunctions         0.18 Mb     (     219,   54)
        NL pseudopotentials             0.26 Mb     (     219,   78)
        Each V/rho on FFT grid          0.27 Mb     (   18000)
        Each G-vector array             0.05 Mb     (    6685)
        G-vector shells                 0.02 Mb     (    2552)
     Largest temporary arrays     est. size (Mb)     dimensions
        Auxiliary wavefunctions         0.72 Mb     (     219,  216)
        Each subspace H/S matrix        0.18 Mb     (     108,  108)
        Each <psi_i|beta_j> matrix      0.06 Mb     (      78,   54)
        Arrays for rho mixing           2.75 Mb     (   18000,   10)

     Initial potential from superposition of free atoms
     Check: negative starting charge=   -0.729348

     starting charge   65.99984, renormalised to   68.00000

     negative rho (up, down):  7.515E-01 0.000E+00


     ************************************************************************
     *
     * You are using vdW-DF for exchange-correlation in this calculation.
     * Please cite the following three references that made this development
     * possible:
     *
     *   M. Dion, H. Rydberg, E. Schroder, D. C. Langreth, and
     *   B. I. Lundqvist, Phys. Rev. Lett. 92, 246401 (2004).
     *
     *   T. Thonhauser, V. R. Cooper, S. Li, A. Puzder, P. Hyldgaard, and
     *   D. C. Langreth, Phys. Rev. B 76, 125112 (2007).
     *
     *   G. Roman-Perez and J. M. Soler, Phys. Rev. Lett. 103, 096102 (2009).
     *
     *
     * If you are using vdW-DF2, please also cite:
     *
     *   K. Lee, E. D. Murray, L. Kong, B. I. Lundqvist, and
     *   D. C. Langreth, Phys. Rev. B 82, 081101(R) (2010).
     *
     *
     * If you are calculating the stress with vdW-DF, please also cite:
     *
     *   R. Sabatini, E. Kucukbenli, B. Kolb, T. Thonhauser, and
     *   S. de Gironcoli, J. Phys.: Condens. Matter 24, 424209 (2012).
     *
     ************************************************************************

     Carrying out vdW-DF run using the following parameters:

     Nqs =      20    Nr_points =    1024   r_max =   100.000
     q_mesh =
               0.00001000     0.04494208     0.09755937     0.15916263
               0.23128650     0.31572767     0.41458969     0.53033537
               0.66584808     0.82450364     1.01025438     1.22772762
               1.48234092     1.78043706     2.12944203     2.53805004
               3.01644009     3.57652955     4.23227104     5.00000000

     Gradients computed in reciprocal space

     ************************************************************************


     Starting wfc are   50 randomized atomic wfcs +    4 random wfc

     total cpu time spent up to now is        1.9 secs

     per-process dynamical memory:    39.0 Mb

     Self-consistent Calculation

     iteration #  1     ecut=    58.80 Ry     beta=0.10
     Davidson diagonalization with overlap
     ethr =  1.00E-02,  avg # of iterations =  4.8

     negative rho (up, down):  7.385E-01 0.000E+00

     total cpu time spent up to now is        7.7 secs

     total energy              =    -960.25565334 Ry
     Harris-Foulkes estimate   =    -960.91451456 Ry
     estimated scf accuracy    <       4.15178591 Ry

     iteration #  2     ecut=    58.80 Ry     beta=0.10
     Davidson diagonalization with overlap
     ethr =  6.11E-03,  avg # of iterations =  1.0

     negative rho (up, down):  7.159E-01 0.000E+00

     total cpu time spent up to now is       10.4 secs

     total energy              =    -960.01548012 Ry
     Harris-Foulkes estimate   =    -960.39446606 Ry
     estimated scf accuracy    <       1.63934510 Ry

     iteration #  3     ecut=    58.80 Ry     beta=0.10
     Davidson diagonalization with overlap
     ethr =  2.41E-03,  avg # of iterations =  1.1

     negative rho (up, down):  6.792E-01 0.000E+00

     total cpu time spent up to now is       13.1 secs

     total energy              =    -959.80436139 Ry
     Harris-Foulkes estimate   =    -960.07218205 Ry
     estimated scf accuracy    <       0.57625111 Ry

     iteration #  4     ecut=    58.80 Ry     beta=0.10
     Davidson diagonalization with overlap
     ethr =  8.47E-04,  avg # of iterations =  2.9

     negative rho (up, down):  6.708E-01 0.000E+00

     total cpu time spent up to now is       17.2 secs

     total energy              =    -959.90472957 Ry
     Harris-Foulkes estimate   =    -959.91021950 Ry
     estimated scf accuracy    <       0.01951198 Ry

     iteration #  5     ecut=    58.80 Ry     beta=0.10
     Davidson diagonalization with overlap
     ethr =  2.87E-05,  avg # of iterations =  5.1

     negative rho (up, down):  6.593E-01 0.000E+00

     total cpu time spent up to now is       23.1 secs

     total energy              =    -959.90558318 Ry
     Harris-Foulkes estimate   =    -959.90726372 Ry
     estimated scf accuracy    <       0.00687917 Ry

     iteration #  6     ecut=    58.80 Ry     beta=0.10
     Davidson diagonalization with overlap
     ethr =  1.01E-05,  avg # of iterations =  2.2

     negative rho (up, down):  6.596E-01 0.000E+00

     total cpu time spent up to now is       26.6 secs

     total energy              =    -959.90615898 Ry
     Harris-Foulkes estimate   =    -959.90675090 Ry
     estimated scf accuracy    <       0.00139996 Ry

     iteration #  7     ecut=    58.80 Ry     beta=0.10
     Davidson diagonalization with overlap
     ethr =  2.06E-06,  avg # of iterations =  2.5

     negative rho (up, down):  6.607E-01 0.000E+00

     total cpu time spent up to now is       30.6 secs

     total energy              =    -959.90659083 Ry
     Harris-Foulkes estimate   =    -959.90720976 Ry
     estimated scf accuracy    <       0.00385611 Ry

     iteration #  8     ecut=    58.80 Ry     beta=0.10
     Davidson diagonalization with overlap
     ethr =  2.06E-06,  avg # of iterations =  1.2

     negative rho (up, down):  6.611E-01 0.000E+00

     total cpu time spent up to now is       33.3 secs

     total energy              =    -959.90627727 Ry
     Harris-Foulkes estimate   =    -959.90670278 Ry
     estimated scf accuracy    <       0.00140537 Ry

     iteration #  9     ecut=    58.80 Ry     beta=0.10
     Davidson diagonalization with overlap
     ethr =  2.06E-06,  avg # of iterations =  1.3

     negative rho (up, down):  6.612E-01 0.000E+00

     total cpu time spent up to now is       36.1 secs

     total energy              =    -959.90645725 Ry
     Harris-Foulkes estimate   =    -959.90645815 Ry
     estimated scf accuracy    <       0.00003100 Ry

     iteration # 10     ecut=    58.80 Ry     beta=0.10
     Davidson diagonalization with overlap
     ethr =  4.56E-08,  avg # of iterations =  2.0

     negative rho (up, down):  6.613E-01 0.000E+00

     total cpu time spent up to now is       39.3 secs

     total energy              =    -959.90646699 Ry
     Harris-Foulkes estimate   =    -959.90646120 Ry
     estimated scf accuracy    <       0.00000561 Ry

     iteration # 11     ecut=    58.80 Ry     beta=0.10
     Davidson diagonalization with overlap
     ethr =  8.24E-09,  avg # of iterations =  1.0

     negative rho (up, down):  6.614E-01 0.000E+00

     total cpu time spent up to now is       41.9 secs

     total energy              =    -959.90647016 Ry
     Harris-Foulkes estimate   =    -959.90646724 Ry
     estimated scf accuracy    <       0.00000427 Ry

     iteration # 12     ecut=    58.80 Ry     beta=0.10
     Davidson diagonalization with overlap
     ethr =  6.28E-09,  avg # of iterations =  2.0

     negative rho (up, down):  6.615E-01 0.000E+00

     total cpu time spent up to now is       45.1 secs

     End of self-consistent calculation

          k = 0.0000 0.0000 0.0000 (  3381 PWs)   bands (ev):

   -73.3425 -73.3143 -36.9126 -36.9126 -36.8067 -36.7736 -36.7569 -36.7569
   -30.2306 -30.2306 -29.9107 -29.8659 -29.8659 -29.8326  10.4310  12.2689
    12.4518  12.5475  12.8378  12.8816  12.8816  14.4739  14.8518  14.8518
    15.6778  15.7407  16.4132  16.5121  17.6398  17.6398  18.7520  18.9470
    18.9470  19.2954  19.6764  21.2575  21.9304  21.9304  24.8279  28.2572
    28.6182  29.0698  29.7621  29.7621  29.9124  30.3595  30.3627  32.0966
    32.0966  34.7348  36.2413  36.7031  38.3268  38.3870

          k = 0.0000 0.0000 0.0248 (  3405 PWs)   bands (ev):

   -73.3425 -73.3144 -36.9126 -36.9126 -36.8067 -36.7737 -36.7569 -36.7569
   -30.2307 -30.2307 -29.9112 -29.8659 -29.8659 -29.8328  10.5426  12.3141
    12.4819  12.5676  12.9136  12.9476  12.9476  14.4443  14.8775  14.8775
    15.6618  15.6794  16.2923  16.5121  17.3632  17.3632  18.6655  18.7414
    18.8837  18.8837  19.6732  21.2576  22.2999  22.2999  25.5907  28.1291
    28.2571  29.5393  29.5393  29.6488  29.7004  30.3593  30.3641  32.3173
    32.3173  34.8539  36.5323  36.8179  38.5037  38.5418

          k = 0.0000 0.0000 0.0496 (  3373 PWs)   bands (ev):

   -73.3424 -73.3143 -36.9126 -36.9126 -36.8062 -36.7736 -36.7568 -36.7568
   -30.2308 -30.2308 -29.9121 -29.8660 -29.8660 -29.8329  10.8646  12.4336
    12.5561  12.6219  13.1317  13.1367  13.1367  14.3670  14.9459  14.9459
    15.4238  15.6835  15.9621  16.5121  16.7456  16.7456  17.6600  18.4422
    18.7238  18.7238  19.6653  21.2576  23.1989  23.1989  27.3207  27.6266
    28.2619  28.9144  28.9144  29.2630  30.3600  30.3654  30.3658  32.9507
    32.9507  35.1825  36.0831  38.3182  38.8269  38.8269

          k = 0.0000 0.0000 0.0744 (  3376 PWs)   bands (ev):

   -73.3425 -73.3143 -36.9125 -36.9125 -36.8058 -36.7736 -36.7568 -36.7568
   -30.2310 -30.2310 -29.9132 -29.8660 -29.8660 -29.8331  11.3472  12.5797
    12.6189  12.6896  13.4114  13.4114  13.4556  14.2732  15.0275  15.0292
    15.0292  15.5134  15.6882  16.0890  16.0890  16.5122  16.7293  18.1783
    18.5395  18.5395  19.6562  21.2578  24.3393  24.3393  27.2949  27.9899
    27.9899  28.2849  28.8603  29.3989  30.3614  30.3659  30.9172  33.9207
    33.9207  35.3387  35.6234  37.7977  37.7977  39.0630

          k = 0.0000 0.0000 0.0992 (  3360 PWs)   bands (ev):

   -73.3425 -73.3143 -36.9124 -36.9124 -36.8056 -36.7736 -36.7567 -36.7567
   -30.2311 -30.2311 -29.9140 -29.8661 -29.8661 -29.8332  11.8315  12.5832
    12.6820  12.7383  13.6588  13.6588  13.7695  14.2078  14.6222  15.0875
    15.0875  15.1196  15.6297  15.6297  15.6913  16.2595  16.5122  17.9994
    18.4174  18.4174  19.6503  21.2579  25.5314  25.5314  26.9065  26.9065
    27.1336  28.3364  28.6027  30.3567  30.3662  31.2074  31.3839  34.1831
    35.1030  35.1030  35.9760  36.5454  36.5454  39.0431

          k = 0.0000 0.0290 0.0000 (  3409 PWs)   bands (ev):

   -73.3416 -73.3152 -36.9082 -36.9080 -36.8058 -36.7746 -36.7619 -36.7617
   -30.2206 -30.2198 -29.9085 -29.8779 -29.8771 -29.8351  10.5959  12.3504
    12.5564  12.6275  12.9254  12.9335  12.9371  14.5833  14.7902  14.8245
    15.6067  15.8036  16.3004  16.3953  17.5495  17.6671  18.0423  18.5991
    18.8867  19.5196  20.3853  20.4158  21.1870  22.7918  24.8087  27.9347
    28.7069  29.7513  29.8278  29.8891  30.2115  30.3590  30.3652  31.6947
    31.7726  34.8984  36.6498  36.7978  38.3191  38.6684

          k = 0.0000 0.0290 0.0248 (  3385 PWs)   bands (ev):

   -73.3416 -73.3152 -36.9081 -36.9079 -36.8056 -36.7746 -36.7618 -36.7616
   -30.2206 -30.2199 -29.9088 -29.8779 -29.8771 -29.8351  10.7054  12.3941
    12.5877  12.6467  12.9680  13.0015  13.0288  14.5370  14.8364  14.8419
    15.6044  15.7219  16.2707  16.2853  17.2534  17.4210  17.8626  18.5708
    18.8215  19.5155  19.9303  20.4978  21.5130  23.0651  25.6072  27.5343
    28.7246  29.1309  29.9787  30.1870  30.3524  30.3594  30.4065  31.8847
    31.9852  34.9964  36.4962  36.9421  38.2190  38.4563

          k = 0.0000 0.0290 0.0496 (  3378 PWs)   bands (ev):

   -73.3416 -73.3152 -36.9081 -36.9079 -36.8052 -36.7746 -36.7618 -36.7616
   -30.2207 -30.2200 -29.9097 -29.8779 -29.8772 -29.8353  11.0218  12.5117
    12.6659  12.6979  13.1376  13.1856  13.2522  14.4410  14.8832  14.9324
    15.4492  15.6154  15.9184  16.2057  16.6620  16.9138  17.3543  18.4165
    18.6556  19.2054  19.5339  20.6224  22.2989  23.8120  26.8107  27.3626
    28.4138  28.8579  29.3316  30.3566  30.3597  30.4751  30.9683  32.4174
    32.5898  35.2516  35.9154  37.5095  38.5225  38.7018

          k = 0.0000 0.0290 0.0744 (  3374 PWs)   bands (ev):

   -73.3416 -73.3152 -36.9080 -36.9078 -36.8049 -36.7746 -36.7618 -36.7615
   -30.2209 -30.2202 -29.9107 -29.8780 -29.8773 -29.8354  11.4969  12.6594
    12.7361  12.7615  13.3952  13.4521  13.5679  14.3401  14.9184  15.0104
    15.0347  15.4172  15.6118  15.9147  16.0972  16.5769  16.7893  18.1891
    18.4644  18.7575  19.5237  20.6974  23.2619  24.8565  26.0404  27.9553
    28.3853  28.9948  29.4525  30.2239  30.3616  30.3750  31.5497  33.1808
    33.4912  35.2632  35.5131  37.0939  38.0653  38.0737

          k = 0.0000 0.0290 0.0992 (  3378 PWs)   bands (ev):

   -73.3416 -73.3152 -36.9080 -36.9077 -36.8047 -36.7747 -36.7618 -36.7615
   -30.2210 -30.2203 -29.9114 -29.8780 -29.8773 -29.8355  11.9772  12.7078
    12.7658  12.8070  13.6209  13.6908  13.8895  14.2735  14.5703  14.9375
    14.9567  15.1027  15.5569  15.6114  15.7298  16.4893  16.4944  18.0244
    18.3372  18.5441  19.5193  20.7286  24.2108  25.2458  26.0302  27.2662
    27.7208  29.1922  29.8936  30.3562  30.3689  31.4836  31.8497  33.8092
    34.5051  34.5800  35.4043  35.4604  37.4510  38.6509

          k = 0.0000 0.0579 0.0000 (  3382 PWs)   bands (ev):

   -73.3392 -73.3176 -36.8953 -36.8945 -36.8027 -36.7773 -36.7760 -36.7752
   -30.1914 -30.1887 -29.9122 -29.9093 -29.9018 -29.8419  11.0744  12.5762
    12.8446  12.8648  13.0894  13.0987  13.1535  14.6130  14.7173  14.9098
    15.4019  15.7646  16.0052  16.3449  17.2399  17.3169  17.7481  18.0912
    18.7248  19.0751  19.2828  19.7862  21.7639  24.0192  24.7689  26.8559
    28.4144  29.7452  30.3509  30.3581  30.3593  30.9011  30.9161  31.4114
    31.9737  35.3475  36.8555  36.8874  37.5251  38.1130

          k = 0.0000 0.0579 0.0248 (  3396 PWs)   bands (ev):

   -73.3392 -73.3176 -36.8953 -36.8945 -36.8026 -36.7774 -36.7761 -36.7752
   -30.1914 -30.1888 -29.9122 -29.9094 -29.9020 -29.8420  11.1770  12.6162
    12.8794  12.8806  13.1147  13.1580  13.2526  14.5845  14.7160  14.9477
    15.3986  15.7416  15.8842  16.2238  16.9326  17.1917  17.5403  18.2704
    18.6530  19.0781  19.3625  20.0139  21.1093  24.2673  25.6891  26.2175
    28.7256  29.5789  30.3579  30.3584  30.7104  31.0654  31.1020  31.1435
    32.1530  35.3630  36.0634  37.1599  38.3118  38.3716

          k = 0.0000 0.0579 0.0496 (  3382 PWs)   bands (ev):

   -73.3392 -73.3176 -36.8953 -36.8944 -36.8023 -36.7774 -36.7761 -36.7752
   -30.1914 -30.1889 -29.9121 -29.9094 -29.9027 -29.8421  11.4732  12.7274
    12.9226  12.9690  13.2380  13.3271  13.4774  14.5170  14.7023  15.0417
    15.3850  15.5336  15.6586  15.8373  16.4050  17.0861  17.1086  18.3061
    18.4697  19.0780  19.4926  20.1065  20.6391  24.9466  25.1939  27.4979
    28.6577  29.5241  30.3594  30.3645  30.4248  31.4805  31.5147  31.6674
    32.5924  35.1765  35.3449  37.1859  38.4687  38.6634

          k = 0.0000 0.0579 0.0744 (  3371 PWs)   bands (ev):

   -73.3392 -73.3176 -36.8953 -36.8943 -36.8021 -36.7774 -36.7761 -36.7751
   -30.1915 -30.1890 -29.9120 -29.9095 -29.9035 -29.8422  11.9189  12.8799
    12.9741  13.0614  13.4155  13.5693  13.7915  14.4417  14.6408  15.0266
    15.1526  15.2736  15.3896  15.4850  16.0215  16.7287  16.9911  18.1727
    18.2564  19.0403  19.3909  19.5813  21.4421  24.2291  25.9183  28.3315
    29.4198  29.5751  29.6288  30.3629  30.3685  31.9517  32.0638  32.4931
    33.3465  34.4338  35.1180  36.6337  36.8823  38.6886

          k = 0.0000 0.0579 0.0992 (  3380 PWs)   bands (ev):

   -73.3392 -73.3176 -36.8953 -36.8943 -36.8020 -36.7774 -36.7762 -36.7751
   -30.1915 -30.1892 -29.9120 -29.9096 -29.9041 -29.8422  12.3729  13.0043
    13.0103  13.0600  13.5389  13.7829  14.1777  14.3913  14.4271  14.7340
    14.7577  15.2303  15.2840  15.3853  15.7902  16.5409  16.9416  18.0478
    18.1128  18.8710  19.1734  19.6220  22.2180  23.4107  27.0409  28.1303
    28.2795  29.7101  30.3549  30.3709  31.6997  32.0355  32.6203  33.3765
    33.7708  33.8372  34.5684  34.5890  37.2401  38.7400

          k = 0.0000 0.0869 0.0000 (  3400 PWs)   bands (ev):

   -73.3354 -73.3214 -36.8753 -36.8739 -36.7982 -36.7975 -36.7961 -36.7816
   -30.1458 -30.1409 -29.9636 -29.9585 -29.8915 -29.8525  11.8036  12.8765
    13.2311  13.2503  13.3474  13.3508  13.4082  14.3418  14.4732  15.0846
    15.1340  15.4477  16.1773  16.3550  16.7741  17.0275  17.2881  17.8798
    18.1489  18.4363  18.5049  18.6230  23.2323  24.7611  25.3807  25.8588
    27.4671  29.6788  29.6821  30.2413  30.3601  30.3678  31.5338  33.0738
    34.4920  35.9750  36.3032  36.5843  36.9158  37.7627

          k = 0.0000 0.0869 0.0248 (  3392 PWs)   bands (ev):

   -73.3354 -73.3213 -36.8753 -36.8739 -36.7981 -36.7975 -36.7960 -36.7816
   -30.1457 -30.1409 -29.9635 -29.9585 -29.8917 -29.8525  11.8917  12.9135
    13.2603  13.2704  13.3529  13.4017  13.4985  14.3505  14.4555  15.0690
    15.1260  15.4625  16.1138  16.1208  16.4662  16.9212  17.6636  17.8010
    18.2539  18.4225  18.4500  18.6902  22.2465  25.0247  25.6111  25.9357
    28.1271  29.8798  29.9258  30.3398  30.3590  30.4051  31.3677  32.7268
    34.5475  35.2081  35.7575  37.3997  37.8177  38.0724

          k = 0.0000 0.0869 0.0496 (  3382 PWs)   bands (ev):

   -73.3354 -73.3213 -36.8754 -36.8738 -36.7980 -36.7975 -36.7960 -36.7817
   -30.1456 -30.1410 -29.9634 -29.9586 -29.8921 -29.8526  12.1433  13.0118
    13.2864  13.3758  13.4385  13.5453  13.6771  14.3692  14.4028  15.0180
    15.1045  15.5098  15.6860  15.8489  15.9535  17.1153  17.2916  18.0637
    18.2106  18.3527  18.4911  19.0995  20.9973  23.8102  26.2475  27.7410
    28.6101  30.2916  30.3589  30.3935  30.4350  30.7883  31.6387  31.8722
    34.1603  34.7166  35.2000  38.0686  38.3068  38.5284

          k = 0.0000 0.0869 0.0744 (  3381 PWs)   bands (ev):

   -73.3354 -73.3213 -36.8753 -36.8737 -36.7980 -36.7976 -36.7959 -36.7817
   -30.1455 -30.1411 -29.9632 -29.9587 -29.8927 -29.8526  12.5111  13.1553
    13.3176  13.5023  13.5245  13.7476  13.9345  14.3208  14.3837  14.9257
    15.0801  15.2089  15.3323  15.5841  15.7512  16.9422  17.2591  17.9598
    18.0146  18.4041  18.5736  19.7881  20.0141  22.7293  27.1682  28.7053
    29.5782  30.0842  30.3644  30.3792  30.7793  31.2469  31.4570  33.0249
    33.2530  34.4236  35.0797  36.5750  37.0611  38.7881

          k = 0.0000 0.0869 0.0992 (  3375 PWs)   bands (ev):

   -73.3354 -73.3213 -36.8753 -36.8736 -36.7979 -36.7978 -36.7959 -36.7817
   -30.1454 -30.1412 -29.9632 -29.9587 -29.8931 -29.8526  12.8606  13.3258
    13.3390  13.4844  13.5567  13.9231  14.2535  14.2541  14.3891  14.8237
    14.8484  14.9173  15.0657  15.6257  15.6481  16.7334  17.3336  17.7868
    17.9331  18.4254  18.7171  19.3932  20.4413  21.9111  28.2088  28.7016
    29.6517  29.9088  30.3505  30.3749  31.1248  32.0901  32.1241  32.8205
    33.5785  34.1844  34.7324  35.8965  36.3477  37.6161

          k = 0.0000 0.1159 0.0000 (  3392 PWs)   bands (ev):

   -73.3308 -73.3259 -36.8504 -36.8485 -36.8233 -36.8215 -36.7927 -36.7869
   -30.0882 -30.0818 -30.0249 -30.0184 -29.8789 -29.8653  12.5996  13.0255
    13.5347  13.5521  13.6674  13.6964  13.7684  14.0121  14.0998  14.3938
    15.0266  15.5026  16.1842  16.6539  16.7756  16.8340  17.0469  17.0968
    17.8083  17.8272  18.0577  18.2721  24.7303  24.8692  25.2008  26.1795
    26.8240  28.2848  29.6819  29.8453  30.3605  30.3613  33.1063  34.8292
    34.9320  35.7543  36.0545  36.6512  36.7140  37.2681

          k = 0.0000 0.1159 0.0248 (  3384 PWs)   bands (ev):

   -73.3308 -73.3259 -36.8504 -36.8485 -36.8234 -36.8215 -36.7926 -36.7869
   -30.0881 -30.0818 -30.0249 -30.0185 -29.8790 -29.8653  12.6649  13.0718
    13.5725  13.5759  13.7057  13.7225  13.7671  14.0429  14.0887  14.3900
    15.0068  15.4484  16.1949  16.3635  16.4344  17.0841  17.0931  17.4269
    17.8397  17.8486  17.9635  18.1775  23.2275  24.0819  26.4734  27.0391
    27.2861  28.4882  29.8933  30.0004  30.3603  30.3616  32.6944  34.0909
    34.3994  35.6294  35.9796  36.7263  37.7212  37.7855

          k = 0.0000 0.1159 0.0496 (  3383 PWs)   bands (ev):

   -73.3308 -73.3259 -36.8505 -36.8484 -36.8235 -36.8214 -36.7926 -36.7870
   -30.0879 -30.0819 -30.0247 -30.0186 -29.8792 -29.8654  12.8393  13.1765
    13.6784  13.6822  13.7673  13.7720  13.8117  14.0708  14.1196  14.3760
    14.9576  15.3320  15.9686  16.0281  16.2307  17.0809  17.3143  17.6664
    17.7311  17.9324  18.0068  18.1294  21.8548  22.7388  27.6388  28.0657
    28.3820  29.0586  30.3592  30.3596  30.5437  30.6724  31.9806  33.0599
    33.3516  34.5445  36.2655  37.2216  38.7697  38.8003

          k = 0.0000 0.1159 0.0744 (  3377 PWs)   bands (ev):

   -73.3308 -73.3259 -36.8505 -36.8484 -36.8236 -36.8214 -36.7926 -36.7870
   -30.0877 -30.0820 -30.0245 -30.0187 -29.8795 -29.8655  13.0502  13.2711
    13.7708  13.7975  13.8262  13.9076  13.9570  14.0869  14.2075  14.3448
    14.9040  15.2409  15.5574  15.6369  16.2950  17.0557  17.4008  17.4804
    17.6292  17.6344  18.3247  18.7085  20.7463  21.6032  28.5140  28.9923
    29.3020  29.8945  30.3541  30.3615  30.8593  31.4941  32.1830  32.2867
    32.5827  33.4343  36.4284  36.6251  38.1539  39.5712

          k = 0.0000 0.1159 0.0992 (  3372 PWs)   bands (ev):

   -73.3308 -73.3259 -36.8506 -36.8483 -36.8237 -36.8213 -36.7926 -36.7870
   -30.0876 -30.0821 -30.0243 -30.0187 -29.8797 -29.8656  13.1877  13.3252
    13.7743  13.7925  13.9323  14.0881  14.1533  14.1791  14.2662  14.2951
    14.8706  15.2123  15.2268  15.3234  16.3625  17.0202  17.3349  17.4064
    17.4160  17.5803  18.6917  19.2436  20.0007  20.7999  29.4223  29.4851
    30.1941  30.2426  30.3753  30.4120  30.8112  31.0582  31.0757  32.4020
    33.4522  34.3622  35.2091  36.0533  37.0054  38.8891

          k = 0.0290 0.0290 0.0000 (  3399 PWs)   bands (ev):

   -73.3408 -73.3160 -36.9146 -36.8929 -36.8048 -36.7774 -36.7755 -36.7553
   -30.2359 -30.1849 -29.9149 -29.9063 -29.8620 -29.8373  10.7545  12.4329
    12.5773  12.7833  12.9519  13.0123  13.0206  14.6455  14.6750  14.8969
    15.5533  15.8709  16.0330  16.4503  17.4377  17.5861  17.7203  18.4666
    18.9337  19.3820  19.5819  20.9128  21.5848  22.4714  24.7898  28.4229
    28.8835  29.1309  29.7598  30.3516  30.3585  30.4136  30.4158  30.5124
    32.6891  35.0072  36.8753  37.3852  37.4396  38.3437

          k = 0.0290 0.0290 0.0248 (  3398 PWs)   bands (ev):

   -73.3408 -73.3160 -36.9146 -36.8929 -36.8046 -36.7774 -36.7755 -36.7553
   -30.2359 -30.1850 -29.9149 -29.9066 -29.8620 -29.8374  10.8609  12.4739
    12.6014  12.8096  13.0099  13.0378  13.1338  14.5713  14.7419  14.9176
    15.5533  15.7798  16.0064  16.3081  17.2519  17.3775  17.4516  18.4913
    18.8761  19.3898  19.7268  20.3710  21.9078  22.6326  25.6202  28.0253
    28.0666  29.5269  29.8592  30.3577  30.3633  30.4546  30.5991  31.0489
    32.8963  35.0509  36.2614  37.1331  37.9317  37.9643

          k = 0.0290 0.0290 0.0496 (  3385 PWs)   bands (ev):

   -73.3408 -73.3160 -36.9146 -36.8928 -36.8043 -36.7773 -36.7755 -36.7552
   -30.2360 -30.1851 -29.9149 -29.9074 -29.8620 -29.8375  11.1681  12.5873
    12.6597  12.8810  13.1660  13.1992  13.3733  14.4739  14.8136  14.9727
    15.4899  15.5520  15.8744  15.9320  16.7586  16.8948  17.1223  18.3815
    18.7397  19.4003  19.4763  19.9769  22.6978  23.1050  27.1745  27.2329
    27.3837  29.5357  29.8249  30.3593  30.3638  31.1189  31.1276  31.4557
    33.4963  34.9977  35.6777  37.2636  37.6782  38.1498

          k = 0.0290 0.0290 0.0744 (  3378 PWs)   bands (ev):

   -73.3408 -73.3160 -36.9146 -36.8927 -36.8040 -36.7773 -36.7755 -36.7552
   -30.2361 -30.1853 -29.9149 -29.9084 -29.8621 -29.8376  11.6287  12.7147
    12.7361  12.9630  13.3653  13.4800  13.6960  14.3808  14.8590  15.0033
    15.0411  15.3287  15.5470  15.6965  16.1869  16.6321  16.8120  18.1814
    18.5930  18.7956  19.4031  20.1412  23.6853  23.8086  26.2914  26.4613
    29.4590  29.4683  29.7602  30.3618  30.3634  31.2550  31.7870  31.8737
    34.4313  34.4758  35.3698  37.4749  37.7617  38.1419

          k = 0.0290 0.0290 0.0992 (  3369 PWs)   bands (ev):

   -73.3408 -73.3160 -36.9145 -36.8927 -36.8038 -36.7773 -36.7756 -36.7551
   -30.2362 -30.1854 -29.9149 -29.9090 -29.8621 -29.8377  12.0940  12.7071
    12.8483  12.9942  13.5154  13.7796  14.0151  14.3381  14.5344  14.8063
    14.8700  15.0904  15.4528  15.5408  15.8328  16.5242  16.6711  18.0301
    18.4376  18.4999  19.4020  20.2104  24.6137  24.6817  25.4506  25.6647
    29.2019  30.1375  30.3557  30.3584  30.7580  31.5288  32.1291  32.6388
    33.7153  34.3200  35.6114  36.9384  36.9900  37.9810

          k = 0.0290 0.0579 0.0000 (  3387 PWs)   bands (ev):

   -73.3385 -73.3183 -36.9118 -36.8710 -36.8019 -36.7999 -36.7780 -36.7587
   -30.2301 -30.1340 -29.9691 -29.9000 -29.8700 -29.8438  11.2146  12.6620
    12.7430  13.0644  13.1204  13.2094  13.2381  14.4215  14.8782  14.9363
    15.3774  15.4997  16.1181  16.4467  16.9242  17.1919  17.8243  17.9919
    18.4231  18.8335  18.9858  20.5371  22.0728  23.3047  24.7516  27.4174
    28.6695  29.1105  30.0637  30.0922  30.3597  30.3704  30.7135  32.2370
    32.7736  35.2572  36.1113  36.9599  37.9818  38.2229

          k = 0.0290 0.0579 0.0248 (  3383 PWs)   bands (ev):

   -73.3385 -73.3183 -36.9118 -36.8709 -36.8018 -36.7999 -36.7781 -36.7587
   -30.2301 -30.1340 -29.9691 -29.9002 -29.8700 -29.8438  11.3104  12.6937
    12.7627  13.1142  13.1501  13.2118  13.3665  14.4181  14.8644  14.9588
    15.3754  15.4751  15.9808  16.2749  16.9101  16.9760  17.4384  18.2270
    18.6003  18.7699  19.0065  20.7285  21.3438  23.4750  25.6869  26.6052
    29.0511  29.3181  29.4725  30.3284  30.3599  30.3882  31.4943  32.3094
    32.9428  34.9111  35.7515  37.3500  37.7113  38.1013

          k = 0.0290 0.0579 0.0496 (  3381 PWs)   bands (ev):

   -73.3385 -73.3183 -36.9118 -36.8709 -36.8016 -36.8000 -36.7781 -36.7586
   -30.2301 -30.1341 -29.9690 -29.9009 -29.8700 -29.8439  11.5857  12.7897
    12.8095  13.2325  13.2335  13.3398  13.6170  14.3988  14.8389  15.0021
    15.3679  15.3855  15.6060  15.8140  16.5792  16.9010  17.0540  18.1827
    18.6365  18.9599  19.0234  20.2190  21.2274  23.9450  25.5018  27.4236
    28.1185  29.9063  29.9160  30.3604  30.3657  30.8406  32.2512  32.6935
    33.4133  34.0802  35.6123  37.0268  37.2956  38.5170

          k = 0.0290 0.0579 0.0744 (  3379 PWs)   bands (ev):

   -73.3385 -73.3183 -36.9118 -36.8708 -36.8014 -36.8001 -36.7782 -36.7586
   -30.2301 -30.1342 -29.9690 -29.9016 -29.8701 -29.8439  11.9936  12.8506
    12.9377  13.3367  13.3470  13.5911  13.9416  14.3575  14.8071  14.9292
    15.1186  15.2239  15.3424  15.3562  16.2231  16.7613  16.9554  18.0558
    18.4684  18.9981  19.1705  19.3483  21.9059  24.2818  24.8688  27.2416
    29.2909  30.0239  30.3612  30.3622  30.8089  31.2091  32.4262  33.1250
    33.4162  34.1759  35.3429  36.6710  37.4790  37.6010

          k = 0.0290 0.0579 0.0992 (  3382 PWs)   bands (ev):

   -73.3385 -73.3182 -36.9119 -36.8708 -36.8013 -36.8001 -36.7782 -36.7586
   -30.2301 -30.1343 -29.9689 -29.9021 -29.8701 -29.8440  12.3986  12.8372
    13.0790  13.3821  13.3953  13.9045  14.2681  14.3228  14.5786  14.6295
    14.7828  15.1053  15.2030  15.3390  16.0165  16.6041  17.0671  17.9506
    18.2563  18.8103  19.0886  19.2509  22.6477  23.5387  25.5350  26.4422
    30.0238  30.3506  30.3562  30.9260  31.4435  31.8741  32.2517  32.2804
    33.8410  34.2263  35.2212  36.1846  36.7581  38.2424

          k = 0.0290 0.0869 0.0000 (  3384 PWs)   bands (ev):

   -73.3350 -73.3218 -36.8999 -36.8447 -36.8269 -36.7976 -36.7820 -36.7714
   -30.2031 -30.0729 -30.0332 -29.9003 -29.8904 -29.8537  11.9175  12.9693
    13.0528  13.2629  13.4868  13.4979  13.5449  14.1437  14.6775  14.8574
    15.0689  15.4198  16.3012  16.5205  16.5612  16.8924  17.1100  17.5430
    17.9746  18.4073  18.6301  19.3356  23.4605  24.3862  24.7477  26.3402
    27.6758  27.9746  30.3513  30.3592  30.5644  31.2426  31.8599  32.1527
    34.5082  35.0791  35.2332  36.8701  37.9447  38.3200

          k = 0.0290 0.0869 0.0248 (  3380 PWs)   bands (ev):

   -73.3350 -73.3218 -36.8999 -36.8447 -36.8269 -36.7976 -36.7821 -36.7714
   -30.2031 -30.0729 -30.0331 -29.9003 -29.8905 -29.8537  11.9908  12.9786
    13.0696  13.3165  13.4554  13.5711  13.6319  14.1618  14.6715  14.8409
    15.0661  15.3957  16.2238  16.2403  16.4491  16.7835  17.2994  17.5944
    18.0635  18.4152  18.5835  19.4164  22.4056  24.5588  25.3151  25.8725
    28.2684  28.7540  30.3224  30.3593  30.3868  30.6774  32.2737  32.6225
    34.0428  34.5609  35.8280  37.1980  37.2343  39.1223

          k = 0.0290 0.0869 0.0496 (  3377 PWs)   bands (ev):

   -73.3350 -73.3218 -36.8999 -36.8446 -36.8270 -36.7974 -36.7822 -36.7714
   -30.2030 -30.0729 -30.0330 -29.9003 -29.8909 -29.8537  12.1967  13.0232
    13.1061  13.4247  13.5353  13.6485  13.8533  14.2028  14.6583  14.7809
    15.0571  15.2997  15.8370  15.9361  16.1482  16.9802  17.1982  17.5513
    18.3718  18.4135  18.4865  19.6840  21.0804  23.9893  25.0351  27.3193
    29.2033  29.2842  29.9366  30.3596  30.3676  31.2613  32.5614  33.0038
    33.1398  34.7128  35.6672  37.0033  37.8038  38.0124

          k = 0.0290 0.0869 0.0744 (  3379 PWs)   bands (ev):

   -73.3350 -73.3218 -36.9000 -36.8446 -36.8271 -36.7974 -36.7822 -36.7714
   -30.2029 -30.0730 -30.0329 -29.9003 -29.8914 -29.8537  12.4861  13.1127
    13.1270  13.4907  13.7253  13.7629  14.1241  14.2380  14.6468  14.6550
    15.0257  15.0948  15.3781  15.7504  16.0105  16.9740  17.1827  17.4979
    18.2314  18.5410  18.5412  20.0076  20.1831  22.8428  25.7075  28.3273
    28.5322  30.3434  30.3567  30.4743  30.7113  31.8408  32.1343  33.2233
    33.4302  35.0338  35.1930  36.8082  36.8323  37.3576

          k = 0.0290 0.0869 0.0992 (  3381 PWs)   bands (ev):

   -73.3350 -73.3217 -36.9000 -36.8446 -36.8272 -36.7974 -36.7823 -36.7714
   -30.2029 -30.0730 -30.0328 -29.9004 -29.8917 -29.8537  12.7493  13.0989
    13.2149  13.4729  13.8606  13.9959  14.2424  14.2620  14.5802  14.6380
    14.8205  15.0394  15.0497  15.6947  15.9507  16.8105  17.4270  17.4652
    17.9635  18.5703  18.6756  19.3363  20.7891  21.9571  26.4296  27.5106
    29.6325  30.3543  30.3579  30.7089  30.7522  32.0513  32.5045  33.8011
    34.2928  34.5532  35.2168  35.6233  36.1835  37.0188

          k = 0.0290 0.1159 0.0000 (  3382 PWs)   bands (ev):

   -73.3307 -73.3261 -36.8801 -36.8548 -36.8172 -36.7924 -36.7918 -36.7870
   -30.1577 -30.0987 -30.0086 -29.9486 -29.8785 -29.8657  12.6954  13.1263
    13.4382  13.5294  13.6041  13.8351  13.8730  13.9022  14.2530  14.2981
    14.9984  15.5249  15.9854  16.4576  16.6198  16.6975  17.0513  17.0927
    17.9068  18.1688  18.3441  18.3950  24.8518  24.9262  25.0120  26.1007
    26.3698  26.9526  30.3569  30.3583  30.8699  31.4113  32.7165  33.1965
    34.2060  34.2287  36.5269  37.0999  37.5451  38.1858

          k = 0.0290 0.1159 0.0248 (  3381 PWs)   bands (ev):

   -73.3307 -73.3261 -36.8802 -36.8548 -36.8172 -36.7924 -36.7918 -36.7870
   -30.1576 -30.0986 -30.0086 -29.9486 -29.8785 -29.8658  12.7283  13.1181
    13.4608  13.5912  13.6326  13.8264  13.8839  13.9444  14.2681  14.3203
    14.9988  15.5144  15.8932  16.3262  16.4375  16.7251  17.1598  17.2950
    17.9363  18.1099  18.3393  18.3796  23.3676  24.2530  25.5899  26.0715
    27.6195  27.9327  30.3573  30.3585  30.9646  31.5069  31.7009  32.9605
    34.0876  35.4206  36.1772  36.5390  37.6267  38.7551

          k = 0.0290 0.1159 0.0496 (  3384 PWs)   bands (ev):

   -73.3306 -73.3261 -36.8802 -36.8549 -36.8172 -36.7924 -36.7918 -36.7871
   -30.1575 -30.0985 -30.0086 -29.9486 -29.8787 -29.8658  12.8132  13.1107
    13.5027  13.6955  13.7189  13.8141  13.9569  14.0776  14.2956  14.3762
    15.0021  15.5034  15.6762  15.9488  16.3887  16.7260  17.2756  17.4303
    18.0418  18.1517  18.2119  18.4770  21.9424  22.8637  25.9952  26.8066
    29.2528  29.6753  30.3544  30.3591  30.5503  31.3186  31.6599  31.9062
    34.4730  35.6487  35.8020  36.2552  37.9455  39.4879

          k = 0.0290 0.1159 0.0744 (  3376 PWs)   bands (ev):

   -73.3307 -73.3261 -36.8803 -36.8550 -36.8172 -36.7924 -36.7918 -36.7872
   -30.1573 -30.0983 -30.0086 -29.9486 -29.8789 -29.8659  12.9147  13.1124
    13.4946  13.7597  13.8219  13.8827  14.1160  14.2405  14.3172  14.4453
    15.0133  15.4223  15.5209  15.6251  16.3406  16.7313  17.2859  17.3595
    17.9480  18.1674  18.3678  18.8709  20.7605  21.6564  26.6598  27.5910
    29.4461  30.3395  30.3600  30.5390  30.9890  31.2363  32.2876  32.2939
    33.9019  34.8169  35.9107  36.0596  37.7796  38.9411

          k = 0.0290 0.1159 0.0992 (  3379 PWs)   bands (ev):

   -73.3307 -73.3261 -36.8803 -36.8550 -36.8172 -36.7925 -36.7918 -36.7872
   -30.1572 -30.0982 -30.0087 -29.9486 -29.8791 -29.8659  12.9876  13.1160
    13.4554  13.7795  13.9095  13.9848  14.2471  14.3276  14.3540  14.4942
    15.0320  15.2279  15.4233  15.5509  16.3148  16.7423  17.1478  17.4683
    17.7254  18.1132  18.7015  19.3787  19.9576  20.7868  27.4217  28.4833
    28.5157  29.5267  30.3604  30.3637  31.6500  32.7151  32.8627  33.1391
    34.1204  34.2336  34.8900  35.5990  36.9688  38.7062

          k = 0.0579 0.0579 0.0000 (  3379 PWs)   bands (ev):

   -73.3366 -73.3201 -36.9198 -36.8428 -36.8287 -36.7995 -36.7801 -36.7512
   -30.2493 -30.0681 -30.0376 -29.8949 -29.8519 -29.8491  11.6208  12.7919
    12.9015  13.1147  13.4151  13.4574  13.5094  14.1683  14.9762  15.0149
    15.0393  15.2516  16.3514  16.4893  16.5710  16.9169  17.2223  17.7856
    17.9798  18.7134  18.8971  20.8952  22.5566  22.9219  24.7155  27.5674
    28.4470  28.5221  29.2881  29.4570  30.3595  30.3629  32.2750  32.5467
    34.2694  34.4627  34.9164  37.1762  38.4877  38.9789

          k = 0.0579 0.0579 0.0248 (  3376 PWs)   bands (ev):

   -73.3366 -73.3201 -36.9198 -36.8428 -36.8287 -36.7995 -36.7801 -36.7511
   -30.2492 -30.0682 -30.0376 -29.8951 -29.8519 -29.8491  11.6939  12.8050
    12.8925  13.1814  13.3753  13.5382  13.6140  14.1918  14.9572  15.0178
    15.0191  15.2516  16.1150  16.2847  16.6299  16.9837  17.0570  17.6206
    18.2868  18.6933  18.9061  21.1209  21.9945  22.5769  25.6623  27.3366
    27.6596  27.9025  30.3330  30.3593  30.3596  30.4750  32.4775  32.5892
    33.6564  34.4369  35.3403  37.4522  37.7648  38.1889

          k = 0.0579 0.0579 0.0496 (  3382 PWs)   bands (ev):

   -73.3366 -73.3201 -36.9198 -36.8428 -36.8288 -36.7994 -36.7803 -36.7511
   -30.2492 -30.0683 -30.0374 -29.8956 -29.8520 -29.8491  11.8998  12.8325
    12.9186  13.2987  13.4441  13.6202  13.8833  14.2446  14.8865  14.9524
    15.0301  15.2455  15.7500  15.7766  16.7397  16.7912  16.9476  17.5447
    18.6117  18.6642  18.9080  20.6515  21.7011  22.6464  26.1239  26.5737
    26.9920  28.9289  30.3572  30.3594  31.4073  31.5709  32.5978  32.8193
    33.2544  34.9330  35.3544  36.7878  36.9906  37.8759

          k = 0.0579 0.0579 0.0744 (  3379 PWs)   bands (ev):

   -73.3366 -73.3201 -36.9198 -36.8427 -36.8289 -36.7993 -36.7803 -36.7511
   -30.2491 -30.0684 -30.0373 -29.8961 -29.8520 -29.8490  12.1929  12.8424
    13.0052  13.3654  13.6378  13.7352  14.2049  14.2851  14.7160  14.8150
    15.0565  15.2245  15.2908  15.4268  16.5099  16.8134  17.0272  17.5008
    18.6605  18.7927  18.8826  19.4590  22.4461  22.7710  25.2214  25.6102
    28.1782  30.3531  30.3584  30.4746  31.5435  31.9021  32.2377  33.4151
    34.1622  34.9185  35.7378  36.0686  36.3923  37.9290

          k = 0.0579 0.0579 0.0992 (  3388 PWs)   bands (ev):

   -73.3366 -73.3201 -36.9199 -36.8427 -36.8290 -36.7992 -36.7804 -36.7511
   -30.2490 -30.0684 -30.0372 -29.8965 -29.8520 -29.8491  12.4699  12.7972
    13.1139  13.3469  13.8306  13.9355  14.2916  14.3183  14.6071  14.6483
    14.9410  15.0886  15.1948  15.2716  16.4181  16.6977  17.3733  17.4685
    18.5874  18.6794  18.8458  18.8491  22.8973  23.1180  24.7177  24.8725
    29.3101  30.3382  30.3588  30.4571  32.0235  32.1179  32.7697  33.8941
    34.0100  34.0120  35.7587  36.8137  36.9550  37.5999

          k = 0.0579 0.0869 0.0000 (  3378 PWs)   bands (ev):

   -73.3337 -73.3230 -36.9176 -36.8582 -36.8139 -36.7960 -36.7833 -36.7540
   -30.2452 -30.1076 -30.0001 -29.8870 -29.8585 -29.8571  12.2416  12.9929
    13.2290  13.2372  13.6879  13.7137  13.9057  13.9370  14.4150  14.9368
    14.9892  15.3207  15.9859  16.1362  16.5899  16.7246  17.0751  17.2403
    18.1726  18.2936  18.8021  20.0400  23.0795  24.1190  24.6861  26.3819
    27.0259  28.2306  29.7016  30.3589  30.3667  30.4858  32.6612  33.0998
    34.1917  34.5623  34.5868  37.5213  38.5112  39.3959

          k = 0.0579 0.0869 0.0248 (  3383 PWs)   bands (ev):

   -73.3337 -73.3230 -36.9177 -36.8583 -36.8138 -36.7960 -36.7834 -36.7540
   -30.2451 -30.1075 -30.0001 -29.8871 -29.8585 -29.8571  12.2658  12.9983
    13.0838  13.4078  13.6011  13.8614  13.8629  14.0652  14.4320  14.9211
    14.9997  15.2698  15.9875  16.1557  16.2620  16.8535  17.0755  17.2312
    18.2740  18.3061  18.7940  20.1457  22.8604  23.1090  25.4227  25.9668
    27.2065  28.6323  29.5389  30.3586  30.3619  31.4668  32.3561  32.8133
    34.5181  34.6288  34.8363  37.6243  37.7588  39.1357

          k = 0.0579 0.0869 0.0496 (  3378 PWs)   bands (ev):

   -73.3337 -73.3230 -36.9177 -36.8584 -36.8138 -36.7959 -36.7835 -36.7540
   -30.2449 -30.1073 -30.0002 -29.8874 -29.8585 -29.8571  12.3385  12.9869
    12.9990  13.5508  13.5889  13.8562  14.0426  14.2909  14.4823  14.9034
    15.0001  15.1501  15.8160  15.9947  16.2597  16.8235  17.1090  17.1758
    18.3500  18.4935  18.7602  20.4229  21.3549  23.0943  24.8400  26.0972
    27.5002  28.9062  30.3575  30.3579  31.2031  31.2274  32.3063  33.5242
    34.7617  34.8737  34.9896  36.6558  37.9561  38.0913

          k = 0.0579 0.0869 0.0744 (  3372 PWs)   bands (ev):

   -73.3337 -73.3230 -36.9178 -36.8585 -36.8138 -36.7960 -36.7836 -36.7540
   -30.2447 -30.1070 -30.0002 -29.8877 -29.8585 -29.8570  12.4518  12.9415
    12.9630  13.6179  13.6584  13.8843  14.1835  14.5259  14.5260  14.8778
    14.9691  15.0580  15.4977  16.0095  16.4005  16.7436  17.0622  17.2772
    18.4288  18.6614  18.6702  20.0377  20.8141  22.6486  24.5303  26.4807
    26.9252  30.0775  30.3594  30.3672  30.7401  32.6904  32.7952  34.5416
    34.5998  34.9295  35.4013  35.7891  36.9389  38.3342

          k = 0.0579 0.0869 0.0992 (  3390 PWs)   bands (ev):

   -73.3337 -73.3230 -36.9178 -36.8586 -36.8138 -36.7960 -36.7837 -36.7540
   -30.2446 -30.1069 -30.0003 -29.8879 -29.8586 -29.8569  12.5670  12.8926
    12.9288  13.6575  13.7162  13.9190  14.2872  14.4600  14.6757  14.7945
    14.9853  15.0212  15.3961  16.0213  16.4995  16.6997  16.9781  17.6849
    18.3725  18.5475  18.7140  19.1699  21.3062  21.9364  24.9122  25.6312
    27.9040  28.9724  30.3594  30.3614  32.4014  32.9906  33.8361  33.9583
    34.6534  35.0628  35.6394  36.0792  36.3871  37.1965

          k = 0.0579 0.1159 0.0000 (  3384 PWs)   bands (ev):

   -73.3302 -73.3265 -36.9056 -36.8850 -36.7918 -36.7874 -36.7873 -36.7666
   -30.2178 -30.1702 -29.9377 -29.8885 -29.8774 -29.8670  12.9473  13.3219
    13.3995  13.4210  13.6502  13.6677  14.0726  14.1012  14.1600  14.5504
    14.8857  15.2884  15.7769  16.0301  16.2742  16.4327  17.0891  17.4333
    18.1973  18.3908  18.6132  19.0189  23.8894  24.5199  25.4882  25.7596
    26.0520  26.8998  30.3524  30.3575  30.9066  31.7747  31.9789  33.0843
    33.1704  33.9054  36.6712  37.9234  38.2800  38.6664

          k = 0.0579 0.1159 0.0248 (  3390 PWs)   bands (ev):

   -73.3302 -73.3265 -36.9056 -36.8851 -36.7918 -36.7875 -36.7874 -36.7666
   -30.2178 -30.1701 -29.9377 -29.8885 -29.8774 -29.8670  12.8716  13.1613
    13.3094  13.6091  13.7175  13.7433  13.9269  14.1787  14.3026  14.5937
    14.9204  15.3529  15.6681  16.1035  16.1234  16.4633  17.1872  17.4457
    18.2018  18.3960  18.6086  19.0504  23.7636  23.9406  24.7561  24.7660
    27.5005  28.3654  29.9603  30.3560  30.3675  31.1566  32.5690  33.3875
    33.5955  34.1797  36.5309  37.5035  38.0706  39.2018

          k = 0.0579 0.1159 0.0496 (  3387 PWs)   bands (ev):

   -73.3302 -73.3265 -36.9057 -36.8851 -36.7919 -36.7876 -36.7874 -36.7666
   -30.2175 -30.1698 -29.9378 -29.8885 -29.8774 -29.8669  12.7551  12.9668
    13.2678  13.5697  13.7832  13.8099  14.0119  14.3451  14.5139  14.6874
    15.0016  15.5043  15.5231  15.9003  16.2650  16.4426  17.3178  17.4737
    18.2490  18.4580  18.5813  19.1331  22.1682  23.0095  24.4888  25.1929
    28.7079  29.4138  29.9706  30.2791  30.3681  30.3797  33.0745  33.9445
    34.1730  34.6584  36.1302  37.2097  37.7443  39.1453

          k = 0.0579 0.1159 0.0744 (  3387 PWs)   bands (ev):

   -73.3302 -73.3265 -36.9058 -36.8853 -36.7920 -36.7877 -36.7874 -36.7666
   -30.2172 -30.1695 -29.9378 -29.8885 -29.8775 -29.8668  12.6867  12.8404
    13.1815  13.4583  13.8494  13.8723  14.1193  14.4872  14.6470  14.8041
    15.0823  15.4854  15.5813  15.9522  16.4008  16.4190  17.3664  17.5463
    18.3357  18.5468  18.5481  19.3218  20.7900  21.6986  25.0211  25.8739
    27.6175  28.8034  30.3596  30.3602  31.3051  32.1034  33.4335  34.3206
    34.5575  34.7077  35.5974  36.9257  37.4792  38.5334

          k = 0.0579 0.1159 0.0992 (  3386 PWs)   bands (ev):

   -73.3302 -73.3265 -36.9059 -36.8853 -36.7921 -36.7878 -36.7874 -36.7665
   -30.2171 -30.1693 -29.9378 -29.8885 -29.8776 -29.8668  12.6670  12.7793
    13.1042  13.3929  13.8950  13.9465  14.1736  14.5303  14.6410  14.8159
    15.1579  15.5371  15.6341  16.1223  16.3382  16.5413  17.4085  17.7622
    18.2084  18.5463  18.7109  19.7036  19.8192  20.7037  25.7289  26.6471
    26.7299  27.7304  30.3599  30.3604  32.8997  33.5250  33.8646  33.9423
    34.6413  34.9847  35.1220  36.0907  37.0277  38.3912

          k = 0.0869 0.0869 0.0000 (  3388 PWs)   bands (ev):

   -73.3318 -73.3248 -36.9256 -36.8870 -36.7936 -36.7857 -36.7854 -36.7464
   -30.2645 -30.1751 -29.9335 -29.8819 -29.8624 -29.8405  12.7122  13.0823
    13.2708  13.5940  13.6881  13.7902  14.0028  14.0938  14.3157  14.9284
    15.1559  15.2782  15.3703  15.4603  16.2345  16.8576  16.9218  17.7606
    18.0511  18.3929  18.8488  20.1230  22.4546  24.2989  25.1210  25.5900
    27.7437  28.1971  28.5889  29.8980  30.3571  30.3628  31.6065  33.0443
    34.6820  34.8931  36.4895  38.0565  38.2132  39.3746

          k = 0.0869 0.0869 0.0248 (  3388 PWs)   bands (ev):

   -73.3319 -73.3248 -36.9256 -36.8870 -36.7937 -36.7857 -36.7854 -36.7465
   -30.2644 -30.1750 -29.9334 -29.8820 -29.8624 -29.8405  12.6427  13.0556
    13.1213  13.7240  13.7613  13.7814  13.8126  14.3622  14.3696  14.9124
    15.1516  15.2146  15.4565  15.6191  16.0849  16.8439  16.9998  17.7352
    18.0736  18.4574  18.8583  20.2341  22.3641  23.5093  24.4642  26.7880
    27.1169  27.2579  30.1929  30.3539  30.3789  30.5866  30.8825  33.6118
    34.6944  34.9296  36.5837  37.6433  38.3632  38.4648

          k = 0.0869 0.0869 0.0496 (  3383 PWs)   bands (ev):

   -73.3319 -73.3248 -36.9257 -36.8871 -36.7937 -36.7857 -36.7855 -36.7465
   -30.2641 -30.1747 -29.9335 -29.8820 -29.8622 -29.8406  12.5262  12.9125
    12.9962  13.5473  13.8404  13.8690  13.8728  14.5759  14.6476  14.8781
    15.1341  15.2049  15.6748  15.8632  15.9371  16.8625  17.0588  17.6780
    18.1367  18.6033  18.8771  20.5410  21.8168  22.0636  24.9058  25.5704
    26.0982  29.0934  29.7711  30.3587  30.3655  31.7614  32.0703  34.0919
    34.7469  35.0608  36.8745  37.2177  37.2792  38.4801

          k = 0.0869 0.0869 0.0744 (  3404 PWs)   bands (ev):

   -73.3319 -73.3248 -36.9259 -36.8873 -36.7939 -36.7858 -36.7856 -36.7466
   -30.2638 -30.1744 -29.9335 -29.8821 -29.8621 -29.8406  12.4592  12.7573
    12.9014  13.4035  13.8271  13.9498  13.9547  14.7450  14.7702  14.8477
    15.1052  15.3268  15.8398  15.8834  16.3983  16.9904  17.0255  17.6698
    18.2198  18.7399  18.8870  20.2808  20.9484  21.5667  24.8394  25.2089
    25.5941  28.5490  30.3591  30.3594  30.9476  32.8385  33.7408  33.9659
    34.9084  35.3027  36.1350  37.1793  37.3767  37.6827

          k = 0.0869 0.0869 0.0992 (  3399 PWs)   bands (ev):

   -73.3319 -73.3248 -36.9259 -36.8873 -36.7940 -36.7859 -36.7856 -36.7466
   -30.2636 -30.1741 -29.9336 -29.8822 -29.8619 -29.8406  12.4481  12.6770
    12.8128  13.3325  13.8213  13.9764  14.0333  14.6857  14.8257  14.8322
    15.0821  15.4578  15.9736  15.9857  16.8200  16.8613  17.2625  17.9883
    18.2822  18.8033  18.8852  18.9746  21.1364  21.2689  24.5368  24.6590
    26.4674  27.4685  30.3597  30.3601  32.4056  33.4090  33.5905  34.5399
    35.2702  35.4541  35.6397  37.1449  37.4707  38.0560

          k = 0.0869 0.1159 0.0000 (  3386 PWs)   bands (ev):

   -73.3295 -73.3271 -36.9227 -36.9093 -36.7908 -36.7880 -36.7634 -36.7499
   -30.2584 -30.2275 -29.8807 -29.8756 -29.8689 -29.8484  13.1284  13.3614
    13.4363  13.4597  13.5032  13.8281  14.1889  14.3715  14.4319  14.7502
    14.8171  14.8279  15.5635  15.6602  15.8822  16.2817  17.2403  17.6471
    18.5856  18.6019  18.7676  19.4378  22.7888  23.4968  25.8174  26.3397
    26.6201  27.6255  29.1147  30.2548  30.3642  30.4013  30.6729  31.8420
    35.2907  36.1352  36.6869  38.1894  38.8741  39.3564

          k = 0.0869 0.1159 0.0248 (  3397 PWs)   bands (ev):

   -73.3296 -73.3271 -36.9227 -36.9094 -36.7909 -36.7881 -36.7634 -36.7499
   -30.2583 -30.2274 -29.8807 -29.8756 -29.8688 -29.8484  12.9887  13.1332
    13.2008  13.4313  13.7988  13.8992  14.1256  14.4231  14.5912  14.7091
    14.9317  14.9751  15.5589  15.7813  15.8607  16.3330  17.2764  17.6705
    18.5666  18.6290  18.7888  19.4706  22.6916  23.3900  24.5010  25.5532
    27.8677  27.9931  29.2682  29.5983  30.3624  30.3645  31.4516  32.5162
    35.2930  36.1179  36.5832  37.7833  38.8978  39.0927

          k = 0.0869 0.1159 0.0496 (  3393 PWs)   bands (ev):

   -73.3296 -73.3271 -36.9229 -36.9095 -36.7911 -36.7883 -36.7634 -36.7499
   -30.2579 -30.2270 -29.8807 -29.8755 -29.8686 -29.8484  12.7093  12.8327
    13.0905  13.3027  13.8230  13.8278  14.2543  14.6038  14.7632  14.8494
    15.0616  15.1392  15.6987  15.9266  16.1151  16.5167  17.3340  17.7209
    18.5370  18.7004  18.8269  19.5601  22.2278  22.2631  24.2520  24.5997
    27.0249  28.2523  29.8686  30.3567  30.3639  30.7927  32.6137  33.3168
    35.3184  36.0813  36.4336  37.5632  38.2897  38.6392

          k = 0.0869 0.1159 0.0744 (  3400 PWs)   bands (ev):

   -73.3296 -73.3271 -36.9231 -36.9097 -36.7913 -36.7885 -36.7635 -36.7498
   -30.2576 -30.2266 -29.8808 -29.8754 -29.8684 -29.8484  12.5168  12.6154
    12.9595  13.1407  13.7899  13.8274  14.3036  14.6264  14.9119  14.9505
    15.0408  15.3220  15.9616  16.2008  16.7036  16.8239  17.4104  17.7810
    18.5348  18.7786  18.8443  19.6852  20.7836  21.2943  24.3977  24.7025
    26.0489  27.2145  30.3594  30.3594  31.4236  32.1744  33.4603  33.5684
    35.4820  36.2010  36.4432  37.5920  37.6548  38.5556

          k = 0.0869 0.1159 0.0992 (  3385 PWs)   bands (ev):

   -73.3295 -73.3271 -36.9232 -36.9097 -36.7913 -36.7885 -36.7634 -36.7498
   -30.2573 -30.2263 -29.8807 -29.8753 -29.8683 -29.8484  12.4260  12.5043
    12.8644  13.0421  13.7828  13.8527  14.3157  14.6191  14.8719  14.9773
    15.0630  15.4121  16.1581  16.5510  16.8323  17.2538  17.7353  18.0733
    18.5520  18.7745  18.7954  19.5730  19.8690  20.3820  24.6803  25.2514
    25.3853  26.2350  30.3599  30.3600  32.5893  32.9845  33.3306  33.7430
    35.9601  36.3626  36.6807  37.3179  37.3885  38.5667

          k = 0.1159 0.1159 0.0000 (  3398 PWs)   bands (ev):

   -73.3287 -73.3279 -36.9293 -36.9248 -36.7899 -36.7888 -36.7482 -36.7435
   -30.2743 -30.2637 -29.8735 -29.8711 -29.8443 -29.8331  13.1627  13.2720
    13.3550  13.4030  13.8104  14.1131  14.2863  14.4489  14.6016  14.6881
    14.7276  14.9900  15.2523  15.5116  15.6905  15.9824  17.4771  17.6606
    18.7515  18.8126  19.0110  19.3964  22.3640  22.6703  26.4461  27.2153
    27.3346  27.9770  28.0227  28.8665  30.0452  30.3628  30.3634  30.6861
    36.5176  36.9604  37.4343  38.4626  39.0809  39.8033

          k = 0.1159 0.1159 0.0248 (  3384 PWs)   bands (ev):

   -73.3287 -73.3279 -36.9294 -36.9248 -36.7899 -36.7889 -36.7482 -36.7435
   -30.2742 -30.2635 -29.8734 -29.8710 -29.8443 -29.8331  13.0610  13.1032
    13.1543  13.2304  13.9720  14.0481  14.3757  14.4183  14.6193  14.7136
    14.9533  15.2276  15.3213  15.5723  15.8063  16.0880  17.5096  17.6996
    18.7790  18.8363  18.9877  19.4037  22.2064  22.5193  25.4030  26.4543
    26.7297  27.7047  29.0979  29.7269  30.3624  30.3657  30.5560  31.3224
    36.4448  36.8544  37.1989  37.8852  39.0453  40.0358

          k = 0.1159 0.1159 0.0496 (  3400 PWs)   bands (ev):

   -73.3287 -73.3279 -36.9296 -36.9250 -36.7901 -36.7892 -36.7482 -36.7435
   -30.2738 -30.2631 -29.8732 -29.8708 -29.8443 -29.8331  12.7049  12.7449
    13.0240  13.0984  13.8388  13.8397  14.5259  14.6790  14.7213  14.8422
    15.0922  15.1674  15.8631  15.9176  16.2380  16.4749  17.5689  17.7960
    18.8471  18.8951  18.9169  19.4269  21.6725  21.8816  24.5327  25.3216
    25.8480  26.8375  30.3502  30.3580  30.5133  31.4019  31.4730  32.2774
    36.3329  36.6712  36.8524  37.3675  38.9504  39.1464

          k = 0.1159 0.1159 0.0744 (  3410 PWs)   bands (ev):

   -73.3288 -73.3279 -36.9298 -36.9252 -36.7904 -36.7894 -36.7482 -36.7436
   -30.2733 -30.2626 -29.8730 -29.8705 -29.8444 -29.8331  12.4455  12.4795
    12.8701  12.9323  13.7495  13.7640  14.5177  14.6411  14.9235  15.0507
    15.0542  15.1026  16.3554  16.4277  17.0553  17.1973  17.5741  17.9026
    18.8069  18.9190  18.9600  19.4643  20.7156  20.7555  24.3626  24.7090
    25.0773  25.9097  30.3592  30.3595  31.7469  32.2031  32.6487  32.8709
    36.3778  36.6302  36.9297  37.4871  38.4866  38.8341

          k = 0.1159 0.1159 0.0992 (  3406 PWs)   bands (ev):

   -73.3287 -73.3279 -36.9300 -36.9252 -36.7905 -36.7895 -36.7482 -36.7436
   -30.2731 -30.2623 -29.8728 -29.8703 -29.8444 -29.8331  12.3140  12.3421
    12.7676  12.8271  13.7222  13.7477  14.5053  14.6173  15.0028  15.0112
    15.0623  15.1331  16.6704  16.8366  17.4870  17.9710  18.0809  18.1364
    18.7086  18.9287  19.0015  19.4007  19.4976  19.7656  24.4753  24.6172
    24.6338  25.1553  30.3596  30.3597  32.4244  32.5474  33.0400  33.1954
    36.5554  36.8239  37.4678  37.8918  38.1270  38.7531

     the Fermi energy is    18.7139 ev

!    total energy              =    -959.90649022 Ry
     Harris-Foulkes estimate   =    -959.90647085 Ry
     estimated scf accuracy    <       0.00000007 Ry

     The total energy is the sum of the following terms:

     one-electron contribution =    -288.31132243 Ry
     hartree contribution      =     190.56362708 Ry
     xc contribution           =    -164.23957604 Ry
     ewald contribution        =    -697.90466183 Ry
     smearing contrib. (-TS)   =      -0.01455700 Ry

     convergence has been achieved in  12 iterations

     Forces acting on atoms (Ry/au):


     negative rho (up, down):  6.615E-01 0.000E+00
     atom    1 type  1   force =     0.00000000    0.00000000    0.00000000
     atom    2 type  1   force =     0.00000000    0.00000000    0.00000000
     atom    3 type  2   force =     0.00000000    0.00000000    0.00000000
     atom    4 type  2   force =     0.00000000    0.00000000    0.00000000

     Total force =     0.000000     Total SCF correction =     0.000000
 
     init_run     :      1.36s CPU      1.42s WALL (       1 calls)
     electrons    :     41.79s CPU     43.16s WALL (       1 calls)
     forces       :      0.40s CPU      0.41s WALL (       1 calls)

     Called by init_run:
     wfcinit      :      0.93s CPU      0.97s WALL (       1 calls)
     potinit      :      0.13s CPU      0.14s WALL (       1 calls)

     Called by electrons:
     c_bands      :     35.91s CPU     36.98s WALL (      12 calls)
     sum_band     :      4.49s CPU      4.67s WALL (      12 calls)
     v_of_rho     :      0.80s CPU      0.92s WALL (      13 calls)
     newd         :      0.70s CPU      0.71s WALL (      13 calls)
     mix_rho      :      0.02s CPU      0.02s WALL (      12 calls)
     vdW_energy   :      0.18s CPU      0.23s WALL (      14 calls)
     vdW_ffts     :      0.23s CPU      0.26s WALL (      28 calls)
     vdW_v        :      0.13s CPU      0.13s WALL (      14 calls)

     Called by c_bands:
     init_us_2    :      0.17s CPU      0.18s WALL (    1950 calls)
     cegterg      :     34.58s CPU     35.61s WALL (     900 calls)

     Called by *egterg:
     h_psi        :     15.61s CPU     16.26s WALL (    2997 calls)
     s_psi        :      0.78s CPU      0.79s WALL (    2997 calls)
     g_psi        :      0.08s CPU      0.08s WALL (    2022 calls)
     cdiaghg      :     13.39s CPU     13.66s WALL (    2922 calls)

     Called by h_psi:
     add_vuspsi   :      0.80s CPU      0.85s WALL (    2997 calls)

     General routines
     calbec       :      1.75s CPU      1.89s WALL (    3972 calls)
     fft          :      0.39s CPU      0.44s WALL (     915 calls)
     ffts         :      0.01s CPU      0.01s WALL (      25 calls)
     fftw         :     13.84s CPU     14.35s WALL (  271844 calls)
     interpolate  :      0.02s CPU      0.02s WALL (      25 calls)
 
     Parallel routines
     fft_scatter  :      6.30s CPU      6.58s WALL (  272784 calls)
 
     PWSCF        :    43.96s CPU        45.48s WALL

 
   This run was terminated on:  18: 1:32  13Nov2017            

=------------------------------------------------------------------------------=
   JOB DONE.
=------------------------------------------------------------------------------=
