  python dir          : /home/users/vossj/suncat/lib/python2.7/site-packages/espresso
  espresso dir        : /home/users/vossj/suncat/s2/qe5/bin
  pseudo dir          : /home/users/vossj/suncat/psp/gbrv1.5pbe
  ase-espresso py git : ffa2778-git



     Program PWSCF v.5.1rc2 starts on 15Nov2017 at  9:13:17 

     This program is part of the open-source Quantum ESPRESSO suite
     for quantum simulation of materials; please cite
         "P. Giannozzi et al., J. Phys.:Condens. Matter 21 395502 (2009);
          URL http://www.quantum-espresso.org", 
     in publications or presentations arising from this work. More details at
     http://www.quantum-espresso.org/quote

     Parallel version (MPI), running on    16 processors
     R & G space division:  proc/nbgrp/npool/nimage =      16
     Reading input from pw.inp
     Message from routine read_cards :
     DEPRECATED: no units specified in CELL_PARAMETERS card

     Current dimensions of program PWSCF are:
     Max number of different atomic species (ntypx) = 10
     Max number of k-points (npk) =  40000
     Max angular momentum in pseudopotentials (lmaxx) =  3

     **************************************************************************
     Initializing libbeef V0.1.2 with the BEEF-vdW functional.
     Citation: Wellendorff et al., PRB 85, 235149 (2012).
     **************************************************************************


     IMPORTANT: XC functional enforced from input :
     Exchange-correlation      = BEEF-VDW ( 1  4 27 13 2)
     Any further DFT definition will be discarded
     Please, verify this is what you really want


     Subspace diagonalization in iterative solution of the eigenvalue problem:
     scalapack distributed-memory algorithm (size of sub-group:  2*  2 procs)

     Found symmetry operation: I + ( -0.5000 -0.5000  0.0000)
     This is a supercell, fractional translations are disabled
 
     Parallelization info
     --------------------
     sticks:   dense  smooth     PW     G-vecs:    dense   smooth      PW
     Min         153      60     18                 5519     1393     228
     Max         154      61     19                 5522     1411     231
     Sum        2449     973    293                88311    22391    3655
 
     Generating pointlists ...
     new r_m :   0.4125 (alat units)  0.7795 (a.u.) for type    1
     new r_m :   0.4125 (alat units)  0.7795 (a.u.) for type    2


     bravais-lattice index     =            0
     lattice parameter (alat)  =       1.8897  a.u.
     unit-cell volume          =     367.2019 (a.u.)^3
     number of atoms/cell      =            4
     number of atomic types    =            2
     number of electrons       =        68.00
     number of Kohn-Sham states=           54
     kinetic-energy cutoff     =      58.7989  Ry
     charge density cutoff     =     587.9892  Ry
     convergence threshold     =      1.0E-06
     mixing beta               =       0.1000
     number of iterations used =           10  plain     mixing
     Exchange-correlation      = BEEF-VDW ( 1  4 27 13 2)

     celldm(1)=   1.889726  celldm(2)=   0.000000  celldm(3)=   0.000000
     celldm(4)=   0.000000  celldm(5)=   0.000000  celldm(6)=   0.000000

     crystal axes: (cart. coord. in units of alat)
               a(1) = (   3.833686   0.000000   0.000000 )  
               a(2) = (   0.000000   3.833686   0.000000 )  
               a(3) = (   0.000000   0.000000   3.702330 )  

     reciprocal axes: (cart. coord. in units 2 pi/alat)
               b(1) = (  0.260846  0.000000  0.000000 )  
               b(2) = (  0.000000  0.260846  0.000000 )  
               b(3) = (  0.000000  0.000000  0.270100 )  


     PseudoPot. # 1 for Mn read from file:
     /home/users/vossj/suncat/psp/gbrv1.5pbe/Mn.UPF
     MD5 check sum: 82ef2b46521d7a7d9e736dc3972e4928
     Pseudo is Ultrasoft + core correction, Zval = 15.0
     Generated by new atomic code, or converted to UPF format
     Using radial grid of  859 points,  6 beta functions with: 
                l(1) =   0
                l(2) =   0
                l(3) =   1
                l(4) =   1
                l(5) =   2
                l(6) =   2
     Q(r) pseudized with  8 coefficients,  rinner =    0.950   0.950   0.950
                                                       0.950   0.950

     PseudoPot. # 2 for Ga read from file:
     /home/users/vossj/suncat/psp/gbrv1.5pbe/Ga.UPF
     MD5 check sum: ccd671392a58a050fbb373893b4fcd66
     Pseudo is Ultrasoft + core correction, Zval = 19.0
     Generated by new atomic code, or converted to UPF format
     Using radial grid of  871 points,  6 beta functions with: 
                l(1) =   0
                l(2) =   0
                l(3) =   1
                l(4) =   1
                l(5) =   2
                l(6) =   2
     Q(r) pseudized with  8 coefficients,  rinner =    1.250   1.250   1.250
                                                       1.250   1.250

     vdW kernel table read from file vdW_kernel_table
     MD5 check sum: 095c7af220d748ca6e76c0b4c6cfb241

     atomic species   valence    mass     pseudopotential
        Mn1           15.00    54.93800     Mn( 1.00)
        Ga1           19.00    69.72300     Ga( 1.00)

     Starting magnetic structure 
     atomic species   magnetization
        Mn1          0.133
        Ga1          0.105

     16 Sym. Ops., with inversion, found



   Cartesian axes

     site n.     atom                  positions (alat units)
         1           Mn1 tau(   1) = (   0.0000000   0.0000000   0.0000000  )
         2           Mn1 tau(   2) = (   1.9168432   1.9168432   0.0000000  )
         3           Ga1 tau(   3) = (   1.9168432   0.0000000   1.8511651  )
         4           Ga1 tau(   4) = (   0.0000000   1.9168432   1.8511651  )

     number of k points=   150  Fermi-Dirac smearing, width (Ry)=  0.0073

     Number of k-points >= 100: set verbosity='high' to print them.

     Dense  grid:    88311 G-vectors     FFT dimensions: (  60,  60,  60)

     Smooth grid:    22391 G-vectors     FFT dimensions: (  36,  36,  36)

     Largest allocated arrays     est. size (Mb)     dimensions
        Kohn-Sham Wavefunctions         0.15 Mb     (     185,   54)
        NL pseudopotentials             0.20 Mb     (     185,   72)
        Each V/rho on FFT grid          0.44 Mb     (   14400,   2)
        Each G-vector array             0.04 Mb     (    5521)
        G-vector shells                 0.02 Mb     (    2336)
     Largest temporary arrays     est. size (Mb)     dimensions
        Auxiliary wavefunctions         0.61 Mb     (     185,  216)
        Each subspace H/S matrix        0.18 Mb     (     108,  108)
        Each <psi_i|beta_j> matrix      0.06 Mb     (      72,   54)
        Arrays for rho mixing           2.20 Mb     (   14400,   10)

     Check: negative/imaginary core charge=   -0.000033    0.000000

     Initial potential from superposition of free atoms

     starting charge   64.99983, renormalised to   68.00000


     ************************************************************************
     *
     * You are using vdW-DF for exchange-correlation in this calculation.
     * Please cite the following three references that made this development
     * possible:
     *
     *   M. Dion, H. Rydberg, E. Schroder, D. C. Langreth, and
     *   B. I. Lundqvist, Phys. Rev. Lett. 92, 246401 (2004).
     *
     *   T. Thonhauser, V. R. Cooper, S. Li, A. Puzder, P. Hyldgaard, and
     *   D. C. Langreth, Phys. Rev. B 76, 125112 (2007).
     *
     *   G. Roman-Perez and J. M. Soler, Phys. Rev. Lett. 103, 096102 (2009).
     *
     *
     * If you are using vdW-DF2, please also cite:
     *
     *   K. Lee, E. D. Murray, L. Kong, B. I. Lundqvist, and
     *   D. C. Langreth, Phys. Rev. B 82, 081101(R) (2010).
     *
     *
     * If you are calculating the stress with vdW-DF, please also cite:
     *
     *   R. Sabatini, E. Kucukbenli, B. Kolb, T. Thonhauser, and
     *   S. de Gironcoli, J. Phys.: Condens. Matter 24, 424209 (2012).
     *
     ************************************************************************

     Carrying out vdW-DF run using the following parameters:

     Nqs =      20    Nr_points =    1024   r_max =   100.000
     q_mesh =
               0.00001000     0.04494208     0.09755937     0.15916263
               0.23128650     0.31572767     0.41458969     0.53033537
               0.66584808     0.82450364     1.01025438     1.22772762
               1.48234092     1.78043706     2.12944203     2.53805004
               3.01644009     3.57652955     4.23227104     5.00000000

     Gradients computed in reciprocal space

     ************************************************************************


     Starting wfc are   50 randomized atomic wfcs +    4 random wfc

     total cpu time spent up to now is        2.3 secs

     per-process dynamical memory:    39.1 Mb

     Self-consistent Calculation

     iteration #  1     ecut=    58.80 Ry     beta=0.10
     Davidson diagonalization with overlap
     ethr =  1.00E-02,  avg # of iterations =  4.2
 
     Magnetic moment per site:
     atom:    1    charge:    6.1739    magn:    0.8179    constr:    0.0000
     atom:    2    charge:    6.1739    magn:    0.8179    constr:    0.0000
     atom:    3    charge:   11.3549    magn:    1.1256    constr:    0.0000
     atom:    4    charge:   11.3549    magn:    1.1256    constr:    0.0000

     total cpu time spent up to now is       13.7 secs

     total energy              =   -1258.15418677 Ry
     Harris-Foulkes estimate   =   -1260.61626125 Ry
     estimated scf accuracy    <      14.58142558 Ry

     total magnetization       =     4.46 Bohr mag/cell
     absolute magnetization    =     4.78 Bohr mag/cell

     iteration #  2     ecut=    58.80 Ry     beta=0.10
     Davidson diagonalization with overlap
     ethr =  1.00E-02,  avg # of iterations =  1.1
 
     Magnetic moment per site:
     atom:    1    charge:    6.0413    magn:    0.8009    constr:    0.0000
     atom:    2    charge:    6.0413    magn:    0.8009    constr:    0.0000
     atom:    3    charge:   11.1344    magn:    0.9200    constr:    0.0000
     atom:    4    charge:   11.1344    magn:    0.9200    constr:    0.0000

     total cpu time spent up to now is       18.6 secs

     total energy              =   -1257.15755726 Ry
     Harris-Foulkes estimate   =   -1258.65894364 Ry
     estimated scf accuracy    <       4.99268457 Ry

     total magnetization       =     4.36 Bohr mag/cell
     absolute magnetization    =     4.65 Bohr mag/cell

     iteration #  3     ecut=    58.80 Ry     beta=0.10
     Davidson diagonalization with overlap
     ethr =  7.34E-03,  avg # of iterations =  1.9
 
     Magnetic moment per site:
     atom:    1    charge:    6.0003    magn:    0.8075    constr:    0.0000
     atom:    2    charge:    6.0003    magn:    0.8075    constr:    0.0000
     atom:    3    charge:   11.0483    magn:    0.7771    constr:    0.0000
     atom:    4    charge:   11.0483    magn:    0.7771    constr:    0.0000

     total cpu time spent up to now is       24.2 secs

     total energy              =   -1257.43850763 Ry
     Harris-Foulkes estimate   =   -1257.60212537 Ry
     estimated scf accuracy    <       0.78500388 Ry

     total magnetization       =     4.64 Bohr mag/cell
     absolute magnetization    =     4.95 Bohr mag/cell

     iteration #  4     ecut=    58.80 Ry     beta=0.10
     Davidson diagonalization with overlap
     ethr =  1.15E-03,  avg # of iterations =  1.5
 
     Magnetic moment per site:
     atom:    1    charge:    5.9982    magn:    0.8955    constr:    0.0000
     atom:    2    charge:    5.9982    magn:    0.8955    constr:    0.0000
     atom:    3    charge:   10.9363    magn:    0.2011    constr:    0.0000
     atom:    4    charge:   10.9363    magn:    0.2011    constr:    0.0000

     total cpu time spent up to now is       29.5 secs

     total energy              =   -1257.47351818 Ry
     Harris-Foulkes estimate   =   -1257.49499503 Ry
     estimated scf accuracy    <       0.31609987 Ry

     total magnetization       =     4.71 Bohr mag/cell
     absolute magnetization    =     5.03 Bohr mag/cell

     iteration #  5     ecut=    58.80 Ry     beta=0.10
     Davidson diagonalization with overlap
     ethr =  4.65E-04,  avg # of iterations =  2.4
 
     Magnetic moment per site:
     atom:    1    charge:    5.9793    magn:    0.9202    constr:    0.0000
     atom:    2    charge:    5.9793    magn:    0.9202    constr:    0.0000
     atom:    3    charge:   10.9674    magn:    0.0992    constr:    0.0000
     atom:    4    charge:   10.9674    magn:    0.0992    constr:    0.0000

     total cpu time spent up to now is       36.5 secs

     total energy              =   -1257.55870418 Ry
     Harris-Foulkes estimate   =   -1257.63256374 Ry
     estimated scf accuracy    <       0.43173293 Ry

     total magnetization       =     4.95 Bohr mag/cell
     absolute magnetization    =     5.29 Bohr mag/cell

     iteration #  6     ecut=    58.80 Ry     beta=0.10
     Davidson diagonalization with overlap
     ethr =  4.65E-04,  avg # of iterations =  1.0
 
     Magnetic moment per site:
     atom:    1    charge:    5.9977    magn:    0.9632    constr:    0.0000
     atom:    2    charge:    5.9977    magn:    0.9632    constr:    0.0000
     atom:    3    charge:   11.0516    magn:    0.0232    constr:    0.0000
     atom:    4    charge:   11.0516    magn:    0.0232    constr:    0.0000

     total cpu time spent up to now is       41.3 secs

     total energy              =   -1257.51042414 Ry
     Harris-Foulkes estimate   =   -1257.57863692 Ry
     estimated scf accuracy    <       0.12973954 Ry

     total magnetization       =     4.99 Bohr mag/cell
     absolute magnetization    =     5.42 Bohr mag/cell

     iteration #  7     ecut=    58.80 Ry     beta=0.10
     Davidson diagonalization with overlap
     ethr =  1.91E-04,  avg # of iterations =  2.1
 
     Magnetic moment per site:
     atom:    1    charge:    6.0056    magn:    0.9929    constr:    0.0000
     atom:    2    charge:    6.0058    magn:    0.9929    constr:    0.0000
     atom:    3    charge:   11.0570    magn:    0.0145    constr:    0.0000
     atom:    4    charge:   11.0570    magn:    0.0145    constr:    0.0000

     total cpu time spent up to now is       47.6 secs

     total energy              =   -1257.53881849 Ry
     Harris-Foulkes estimate   =   -1257.53795613 Ry
     estimated scf accuracy    <       0.00320141 Ry

     total magnetization       =     5.00 Bohr mag/cell
     absolute magnetization    =     5.47 Bohr mag/cell

     iteration #  8     ecut=    58.80 Ry     beta=0.10
     Davidson diagonalization with overlap
     ethr =  4.71E-06,  avg # of iterations =  3.0
 
     Magnetic moment per site:
     atom:    1    charge:    6.0071    magn:    1.0230    constr:    0.0000
     atom:    2    charge:    6.0068    magn:    1.0230    constr:    0.0000
     atom:    3    charge:   11.0404    magn:    0.0017    constr:    0.0000
     atom:    4    charge:   11.0404    magn:    0.0017    constr:    0.0000

     total cpu time spent up to now is       55.0 secs

     total energy              =   -1257.53848598 Ry
     Harris-Foulkes estimate   =   -1257.53945536 Ry
     estimated scf accuracy    <       0.00395663 Ry

     total magnetization       =     5.03 Bohr mag/cell
     absolute magnetization    =     5.52 Bohr mag/cell

     iteration #  9     ecut=    58.80 Ry     beta=0.10
     Davidson diagonalization with overlap
     ethr =  4.71E-06,  avg # of iterations =  2.0
 
     Magnetic moment per site:
     atom:    1    charge:    6.0064    magn:    1.0281    constr:    0.0000
     atom:    2    charge:    6.0065    magn:    1.0281    constr:    0.0000
     atom:    3    charge:   11.0385    magn:    0.0003    constr:    0.0000
     atom:    4    charge:   11.0385    magn:    0.0003    constr:    0.0000

     total cpu time spent up to now is       61.3 secs

     total energy              =   -1257.53949595 Ry
     Harris-Foulkes estimate   =   -1257.53941360 Ry
     estimated scf accuracy    <       0.00210149 Ry

     total magnetization       =     5.07 Bohr mag/cell
     absolute magnetization    =     5.58 Bohr mag/cell

     iteration # 10     ecut=    58.80 Ry     beta=0.10
     Davidson diagonalization with overlap
     ethr =  3.09E-06,  avg # of iterations =  1.0
 
     Magnetic moment per site:
     atom:    1    charge:    6.0028    magn:    1.0611    constr:    0.0000
     atom:    2    charge:    6.0029    magn:    1.0611    constr:    0.0000
     atom:    3    charge:   11.0467    magn:    0.0004    constr:    0.0000
     atom:    4    charge:   11.0467    magn:    0.0004    constr:    0.0000

     total cpu time spent up to now is       66.1 secs

     total energy              =   -1257.53900244 Ry
     Harris-Foulkes estimate   =   -1257.53951533 Ry
     estimated scf accuracy    <       0.00188756 Ry

     total magnetization       =     5.07 Bohr mag/cell
     absolute magnetization    =     5.60 Bohr mag/cell

     iteration # 11     ecut=    58.80 Ry     beta=0.10
     Davidson diagonalization with overlap
     ethr =  2.78E-06,  avg # of iterations =  2.0
 
     Magnetic moment per site:
     atom:    1    charge:    6.0032    magn:    1.0700    constr:    0.0000
     atom:    2    charge:    6.0032    magn:    1.0700    constr:    0.0000
     atom:    3    charge:   11.0450    magn:   -0.0007    constr:    0.0000
     atom:    4    charge:   11.0450    magn:   -0.0007    constr:    0.0000

     total cpu time spent up to now is       72.3 secs

     total energy              =   -1257.53962731 Ry
     Harris-Foulkes estimate   =   -1257.53971976 Ry
     estimated scf accuracy    <       0.00060982 Ry

     total magnetization       =     5.11 Bohr mag/cell
     absolute magnetization    =     5.67 Bohr mag/cell

     iteration # 12     ecut=    58.80 Ry     beta=0.10
     Davidson diagonalization with overlap
     ethr =  8.97E-07,  avg # of iterations =  1.0
 
     Magnetic moment per site:
     atom:    1    charge:    6.0027    magn:    1.0727    constr:    0.0000
     atom:    2    charge:    6.0027    magn:    1.0726    constr:    0.0000
     atom:    3    charge:   11.0424    magn:    0.0027    constr:    0.0000
     atom:    4    charge:   11.0424    magn:    0.0027    constr:    0.0000

     total cpu time spent up to now is       77.1 secs

     total energy              =   -1257.53951205 Ry
     Harris-Foulkes estimate   =   -1257.53965135 Ry
     estimated scf accuracy    <       0.00027040 Ry

     total magnetization       =     5.12 Bohr mag/cell
     absolute magnetization    =     5.69 Bohr mag/cell

     iteration # 13     ecut=    58.80 Ry     beta=0.10
     Davidson diagonalization with overlap
     ethr =  3.98E-07,  avg # of iterations =  2.0
 
     Magnetic moment per site:
     atom:    1    charge:    6.0027    magn:    1.0726    constr:    0.0000
     atom:    2    charge:    6.0027    magn:    1.0726    constr:    0.0000
     atom:    3    charge:   11.0424    magn:    0.0027    constr:    0.0000
     atom:    4    charge:   11.0424    magn:    0.0027    constr:    0.0000

     total cpu time spent up to now is       83.2 secs

     total energy              =   -1257.53957454 Ry
     Harris-Foulkes estimate   =   -1257.53957261 Ry
     estimated scf accuracy    <       0.00000379 Ry

     total magnetization       =     5.13 Bohr mag/cell
     absolute magnetization    =     5.70 Bohr mag/cell

     iteration # 14     ecut=    58.80 Ry     beta=0.10
     Davidson diagonalization with overlap
     ethr =  5.58E-09,  avg # of iterations =  2.6
 
     Magnetic moment per site:
     atom:    1    charge:    6.0027    magn:    1.0731    constr:    0.0000
     atom:    2    charge:    6.0027    magn:    1.0731    constr:    0.0000
     atom:    3    charge:   11.0423    magn:    0.0026    constr:    0.0000
     atom:    4    charge:   11.0423    magn:    0.0026    constr:    0.0000

     total cpu time spent up to now is       89.5 secs

     total energy              =   -1257.53957618 Ry
     Harris-Foulkes estimate   =   -1257.53957473 Ry
     estimated scf accuracy    <       0.00000319 Ry

     total magnetization       =     5.13 Bohr mag/cell
     absolute magnetization    =     5.70 Bohr mag/cell

     iteration # 15     ecut=    58.80 Ry     beta=0.10
     Davidson diagonalization with overlap
     ethr =  4.69E-09,  avg # of iterations =  1.0
 
     Magnetic moment per site:
     atom:    1    charge:    6.0030    magn:    1.0736    constr:    0.0000
     atom:    2    charge:    6.0030    magn:    1.0736    constr:    0.0000
     atom:    3    charge:   11.0422    magn:    0.0025    constr:    0.0000
     atom:    4    charge:   11.0422    magn:    0.0025    constr:    0.0000

     total cpu time spent up to now is       94.3 secs

     total energy              =   -1257.53957748 Ry
     Harris-Foulkes estimate   =   -1257.53957624 Ry
     estimated scf accuracy    <       0.00000207 Ry

     total magnetization       =     5.13 Bohr mag/cell
     absolute magnetization    =     5.70 Bohr mag/cell

     iteration # 16     ecut=    58.80 Ry     beta=0.10
     Davidson diagonalization with overlap
     ethr =  3.04E-09,  avg # of iterations =  1.8
 
     Magnetic moment per site:
     atom:    1    charge:    6.0029    magn:    1.0736    constr:    0.0000
     atom:    2    charge:    6.0029    magn:    1.0736    constr:    0.0000
     atom:    3    charge:   11.0422    magn:    0.0025    constr:    0.0000
     atom:    4    charge:   11.0422    magn:    0.0025    constr:    0.0000

     total cpu time spent up to now is      100.1 secs

     End of self-consistent calculation

     Number of k-points >= 100: set verbosity='high' to print the bands.

     the Fermi energy is    15.8923 ev

!    total energy              =   -1257.53958396 Ry
     Harris-Foulkes estimate   =   -1257.53957789 Ry
     estimated scf accuracy    <       0.00000011 Ry

     The total energy is the sum of the following terms:

     one-electron contribution =    -790.79985940 Ry
     hartree contribution      =     433.66934306 Ry
     xc contribution           =    -155.09623438 Ry
     ewald contribution        =    -745.30822252 Ry
     smearing contrib. (-TS)   =      -0.00461072 Ry

     total magnetization       =     5.13 Bohr mag/cell
     absolute magnetization    =     5.70 Bohr mag/cell

     convergence has been achieved in  16 iterations

     Forces acting on atoms (Ry/au):

     atom    1 type  1   force =     0.00000000    0.00000000    0.00000000
     atom    2 type  1   force =     0.00000000    0.00000000    0.00000000
     atom    3 type  2   force =     0.00000000    0.00000000    0.00000000
     atom    4 type  2   force =     0.00000000    0.00000000    0.00000000

     Total force =     0.000000     Total SCF correction =     0.000000
 
     init_run     :      1.86s CPU      1.98s WALL (       1 calls)
     electrons    :     94.76s CPU     97.83s WALL (       1 calls)
     forces       :      0.50s CPU      0.51s WALL (       1 calls)

     Called by init_run:
     wfcinit      :      1.54s CPU      1.61s WALL (       1 calls)
     potinit      :      0.09s CPU      0.11s WALL (       1 calls)

     Called by electrons:
     c_bands      :     82.65s CPU     85.20s WALL (      16 calls)
     sum_band     :     10.43s CPU     10.83s WALL (      16 calls)
     v_of_rho     :      1.04s CPU      1.15s WALL (      17 calls)
     newd         :      0.68s CPU      0.71s WALL (      17 calls)
     mix_rho      :      0.04s CPU      0.04s WALL (      16 calls)
     vdW_energy   :      0.19s CPU      0.22s WALL (      18 calls)
     vdW_ffts     :      0.28s CPU      0.31s WALL (      36 calls)
     vdW_v        :      0.13s CPU      0.14s WALL (      18 calls)

     Called by c_bands:
     init_us_2    :      0.38s CPU      0.39s WALL (    5100 calls)
     cegterg      :     80.11s CPU     82.58s WALL (    2400 calls)

     Called by *egterg:
     h_psi        :     37.61s CPU     39.16s WALL (    7148 calls)
     s_psi        :      1.59s CPU      1.61s WALL (    7148 calls)
     g_psi        :      0.16s CPU      0.17s WALL (    4598 calls)
     cdiaghg      :     29.97s CPU     30.62s WALL (    6998 calls)

     Called by h_psi:
     add_vuspsi   :      1.64s CPU      1.67s WALL (    7148 calls)

     General routines
     calbec       :      3.38s CPU      3.50s WALL (    9698 calls)
     fft          :      0.54s CPU      0.61s WALL (    1436 calls)
     ffts         :      0.01s CPU      0.02s WALL (      66 calls)
     fftw         :     35.35s CPU     36.83s WALL (  712484 calls)
     interpolate  :      0.04s CPU      0.05s WALL (      66 calls)
 
     Parallel routines
     fft_scatter  :     16.09s CPU     16.92s WALL (  713986 calls)
 
     PWSCF        :  1m37.36s CPU     1m40.60s WALL

 
   This run was terminated on:   9:14:58  15Nov2017            

=------------------------------------------------------------------------------=
   JOB DONE.
=------------------------------------------------------------------------------=
