  python dir          : /home/users/vossj/suncat/lib/python2.7/site-packages/espresso
  espresso dir        : /home/users/vossj/suncat/s2/qe5/bin
  pseudo dir          : /home/users/vossj/suncat/psp/gbrv1.5pbe
  ase-espresso py git : ffa2778-git



     Program PWSCF v.5.1rc2 starts on 13Nov2017 at 17:33:35 

     This program is part of the open-source Quantum ESPRESSO suite
     for quantum simulation of materials; please cite
         "P. Giannozzi et al., J. Phys.:Condens. Matter 21 395502 (2009);
          URL http://www.quantum-espresso.org", 
     in publications or presentations arising from this work. More details at
     http://www.quantum-espresso.org/quote

     Parallel version (MPI), running on    16 processors
     R & G space division:  proc/nbgrp/npool/nimage =      16
     Reading input from pw.inp
     Message from routine read_cards :
     DEPRECATED: no units specified in CELL_PARAMETERS card

     Current dimensions of program PWSCF are:
     Max number of different atomic species (ntypx) = 10
     Max number of k-points (npk) =  40000
     Max angular momentum in pseudopotentials (lmaxx) =  3

     **************************************************************************
     Initializing libbeef V0.1.2 with the BEEF-vdW functional.
     Citation: Wellendorff et al., PRB 85, 235149 (2012).
     **************************************************************************


     IMPORTANT: XC functional enforced from input :
     Exchange-correlation      = BEEF-VDW ( 1  4 27 13 2)
     Any further DFT definition will be discarded
     Please, verify this is what you really want


     Subspace diagonalization in iterative solution of the eigenvalue problem:
     scalapack distributed-memory algorithm (size of sub-group:  2*  2 procs)

     Found symmetry operation: I + (  0.5000  0.5000  0.0000)
     This is a supercell, fractional translations are disabled
 
     Parallelization info
     --------------------
     sticks:   dense  smooth     PW     G-vecs:    dense   smooth      PW
     Min         163      65     19                 5523     1389     223
     Max         164      66     20                 5528     1402     226
     Sum        2617    1049    305                88419    22335    3593
 


     bravais-lattice index     =            0
     lattice parameter (alat)  =       1.8897  a.u.
     unit-cell volume          =     367.6653 (a.u.)^3
     number of atoms/cell      =            4
     number of atomic types    =            2
     number of electrons       =        44.00
     number of Kohn-Sham states=           42
     kinetic-energy cutoff     =      58.7989  Ry
     charge density cutoff     =     587.9892  Ry
     convergence threshold     =      1.0E-06
     mixing beta               =       0.1000
     number of iterations used =           10  plain     mixing
     Exchange-correlation      = BEEF-VDW ( 1  4 27 13 2)

     celldm(1)=   1.889726  celldm(2)=   0.000000  celldm(3)=   0.000000
     celldm(4)=   0.000000  celldm(5)=   0.000000  celldm(6)=   0.000000

     crystal axes: (cart. coord. in units of alat)
               a(1) = (   3.971166   0.000000   0.000000 )  
               a(2) = (   0.000000   3.971166   0.000000 )  
               a(3) = (   0.000000   0.000000   3.454777 )  

     reciprocal axes: (cart. coord. in units 2 pi/alat)
               b(1) = (  0.251815  0.000000  0.000000 )  
               b(2) = (  0.000000  0.251815  0.000000 )  
               b(3) = (  0.000000  0.000000  0.289454 )  


     PseudoPot. # 1 for Al read from file:
     /home/users/vossj/suncat/psp/gbrv1.5pbe/Al.UPF
     MD5 check sum: 0a6289f5291fc8f409219462bc851e1f
     Pseudo is Ultrasoft + core correction, Zval =  3.0
     Generated by new atomic code, or converted to UPF format
     Using radial grid of  893 points,  3 beta functions with: 
                l(1) =   0
                l(2) =   1
                l(3) =   2
     Q(r) pseudized with  8 coefficients,  rinner =    0.900   0.900   0.900
                                                       0.900   0.900

     PseudoPot. # 2 for Cu read from file:
     /home/users/vossj/suncat/psp/gbrv1.5pbe/Cu.UPF
     MD5 check sum: 6e991ff952a84172a2a52a1c1e996048
     Pseudo is Ultrasoft + core correction, Zval = 19.0
     Generated by new atomic code, or converted to UPF format
     Using radial grid of  867 points,  6 beta functions with: 
                l(1) =   0
                l(2) =   0
                l(3) =   1
                l(4) =   1
                l(5) =   2
                l(6) =   2
     Q(r) pseudized with  8 coefficients,  rinner =    1.150   1.150   1.150
                                                       1.150   1.150

     vdW kernel table read from file vdW_kernel_table
     MD5 check sum: 095c7af220d748ca6e76c0b4c6cfb241

     atomic species   valence    mass     pseudopotential
        Al1            3.00    26.98154     Al( 1.00)
        Cu1           19.00    63.54600     Cu( 1.00)

     16 Sym. Ops., with inversion, found



   Cartesian axes

     site n.     atom                  positions (alat units)
         1           Al1 tau(   1) = (   0.0000000   0.0000000   0.0000000  )
         2           Al1 tau(   2) = (   1.9855828   1.9855828   0.0000000  )
         3           Cu1 tau(   3) = (   1.9855828   0.0000000   1.7273885  )
         4           Cu1 tau(   4) = (   0.0000000   1.9855828   1.7273885  )

     number of k points=    75  Fermi-Dirac smearing, width (Ry)=  0.0073
                       cart. coord. in units 2pi/alat
        k(    1) = (   0.0000000   0.0000000   0.0000000), wk =   0.0027435
        k(    2) = (   0.0000000   0.0000000   0.0321616), wk =   0.0054870
        k(    3) = (   0.0000000   0.0000000   0.0643232), wk =   0.0054870
        k(    4) = (   0.0000000   0.0000000   0.0964848), wk =   0.0054870
        k(    5) = (   0.0000000   0.0000000   0.1286463), wk =   0.0054870
        k(    6) = (   0.0000000   0.0279795   0.0000000), wk =   0.0109739
        k(    7) = (   0.0000000   0.0279795   0.0321616), wk =   0.0219479
        k(    8) = (   0.0000000   0.0279795   0.0643232), wk =   0.0219479
        k(    9) = (   0.0000000   0.0279795   0.0964848), wk =   0.0219479
        k(   10) = (   0.0000000   0.0279795   0.1286463), wk =   0.0219479
        k(   11) = (   0.0000000   0.0559589   0.0000000), wk =   0.0109739
        k(   12) = (   0.0000000   0.0559589   0.0321616), wk =   0.0219479
        k(   13) = (   0.0000000   0.0559589   0.0643232), wk =   0.0219479
        k(   14) = (   0.0000000   0.0559589   0.0964848), wk =   0.0219479
        k(   15) = (   0.0000000   0.0559589   0.1286463), wk =   0.0219479
        k(   16) = (   0.0000000   0.0839384   0.0000000), wk =   0.0109739
        k(   17) = (   0.0000000   0.0839384   0.0321616), wk =   0.0219479
        k(   18) = (   0.0000000   0.0839384   0.0643232), wk =   0.0219479
        k(   19) = (   0.0000000   0.0839384   0.0964848), wk =   0.0219479
        k(   20) = (   0.0000000   0.0839384   0.1286463), wk =   0.0219479
        k(   21) = (   0.0000000   0.1119179   0.0000000), wk =   0.0109739
        k(   22) = (   0.0000000   0.1119179   0.0321616), wk =   0.0219479
        k(   23) = (   0.0000000   0.1119179   0.0643232), wk =   0.0219479
        k(   24) = (   0.0000000   0.1119179   0.0964848), wk =   0.0219479
        k(   25) = (   0.0000000   0.1119179   0.1286463), wk =   0.0219479
        k(   26) = (   0.0279795   0.0279795   0.0000000), wk =   0.0109739
        k(   27) = (   0.0279795   0.0279795   0.0321616), wk =   0.0219479
        k(   28) = (   0.0279795   0.0279795   0.0643232), wk =   0.0219479
        k(   29) = (   0.0279795   0.0279795   0.0964848), wk =   0.0219479
        k(   30) = (   0.0279795   0.0279795   0.1286463), wk =   0.0219479
        k(   31) = (   0.0279795   0.0559589   0.0000000), wk =   0.0219479
        k(   32) = (   0.0279795   0.0559589   0.0321616), wk =   0.0438957
        k(   33) = (   0.0279795   0.0559589   0.0643232), wk =   0.0438957
        k(   34) = (   0.0279795   0.0559589   0.0964848), wk =   0.0438957
        k(   35) = (   0.0279795   0.0559589   0.1286463), wk =   0.0438957
        k(   36) = (   0.0279795   0.0839384   0.0000000), wk =   0.0219479
        k(   37) = (   0.0279795   0.0839384   0.0321616), wk =   0.0438957
        k(   38) = (   0.0279795   0.0839384   0.0643232), wk =   0.0438957
        k(   39) = (   0.0279795   0.0839384   0.0964848), wk =   0.0438957
        k(   40) = (   0.0279795   0.0839384   0.1286463), wk =   0.0438957
        k(   41) = (   0.0279795   0.1119179   0.0000000), wk =   0.0219479
        k(   42) = (   0.0279795   0.1119179   0.0321616), wk =   0.0438957
        k(   43) = (   0.0279795   0.1119179   0.0643232), wk =   0.0438957
        k(   44) = (   0.0279795   0.1119179   0.0964848), wk =   0.0438957
        k(   45) = (   0.0279795   0.1119179   0.1286463), wk =   0.0438957
        k(   46) = (   0.0559589   0.0559589   0.0000000), wk =   0.0109739
        k(   47) = (   0.0559589   0.0559589   0.0321616), wk =   0.0219479
        k(   48) = (   0.0559589   0.0559589   0.0643232), wk =   0.0219479
        k(   49) = (   0.0559589   0.0559589   0.0964848), wk =   0.0219479
        k(   50) = (   0.0559589   0.0559589   0.1286463), wk =   0.0219479
        k(   51) = (   0.0559589   0.0839384   0.0000000), wk =   0.0219479
        k(   52) = (   0.0559589   0.0839384   0.0321616), wk =   0.0438957
        k(   53) = (   0.0559589   0.0839384   0.0643232), wk =   0.0438957
        k(   54) = (   0.0559589   0.0839384   0.0964848), wk =   0.0438957
        k(   55) = (   0.0559589   0.0839384   0.1286463), wk =   0.0438957
        k(   56) = (   0.0559589   0.1119179   0.0000000), wk =   0.0219479
        k(   57) = (   0.0559589   0.1119179   0.0321616), wk =   0.0438957
        k(   58) = (   0.0559589   0.1119179   0.0643232), wk =   0.0438957
        k(   59) = (   0.0559589   0.1119179   0.0964848), wk =   0.0438957
        k(   60) = (   0.0559589   0.1119179   0.1286463), wk =   0.0438957
        k(   61) = (   0.0839384   0.0839384   0.0000000), wk =   0.0109739
        k(   62) = (   0.0839384   0.0839384   0.0321616), wk =   0.0219479
        k(   63) = (   0.0839384   0.0839384   0.0643232), wk =   0.0219479
        k(   64) = (   0.0839384   0.0839384   0.0964848), wk =   0.0219479
        k(   65) = (   0.0839384   0.0839384   0.1286463), wk =   0.0219479
        k(   66) = (   0.0839384   0.1119179   0.0000000), wk =   0.0219479
        k(   67) = (   0.0839384   0.1119179   0.0321616), wk =   0.0438957
        k(   68) = (   0.0839384   0.1119179   0.0643232), wk =   0.0438957
        k(   69) = (   0.0839384   0.1119179   0.0964848), wk =   0.0438957
        k(   70) = (   0.0839384   0.1119179   0.1286463), wk =   0.0438957
        k(   71) = (   0.1119179   0.1119179   0.0000000), wk =   0.0109739
        k(   72) = (   0.1119179   0.1119179   0.0321616), wk =   0.0219479
        k(   73) = (   0.1119179   0.1119179   0.0643232), wk =   0.0219479
        k(   74) = (   0.1119179   0.1119179   0.0964848), wk =   0.0219479
        k(   75) = (   0.1119179   0.1119179   0.1286463), wk =   0.0219479

     Dense  grid:    88419 G-vectors     FFT dimensions: (  60,  60,  54)

     Smooth grid:    22335 G-vectors     FFT dimensions: (  40,  40,  32)

     Largest allocated arrays     est. size (Mb)     dimensions
        Kohn-Sham Wavefunctions         0.12 Mb     (     186,   42)
        NL pseudopotentials             0.15 Mb     (     186,   54)
        Each V/rho on FFT grid          0.22 Mb     (   14400)
        Each G-vector array             0.04 Mb     (    5525)
        G-vector shells                 0.02 Mb     (    2227)
     Largest temporary arrays     est. size (Mb)     dimensions
        Auxiliary wavefunctions         0.48 Mb     (     186,  168)
        Each subspace H/S matrix        0.11 Mb     (      84,   84)
        Each <psi_i|beta_j> matrix      0.03 Mb     (      54,   42)
        Arrays for rho mixing           2.20 Mb     (   14400,   10)

     Initial potential from superposition of free atoms

     starting charge   41.99507, renormalised to   44.00000


     ************************************************************************
     *
     * You are using vdW-DF for exchange-correlation in this calculation.
     * Please cite the following three references that made this development
     * possible:
     *
     *   M. Dion, H. Rydberg, E. Schroder, D. C. Langreth, and
     *   B. I. Lundqvist, Phys. Rev. Lett. 92, 246401 (2004).
     *
     *   T. Thonhauser, V. R. Cooper, S. Li, A. Puzder, P. Hyldgaard, and
     *   D. C. Langreth, Phys. Rev. B 76, 125112 (2007).
     *
     *   G. Roman-Perez and J. M. Soler, Phys. Rev. Lett. 103, 096102 (2009).
     *
     *
     * If you are using vdW-DF2, please also cite:
     *
     *   K. Lee, E. D. Murray, L. Kong, B. I. Lundqvist, and
     *   D. C. Langreth, Phys. Rev. B 82, 081101(R) (2010).
     *
     *
     * If you are calculating the stress with vdW-DF, please also cite:
     *
     *   R. Sabatini, E. Kucukbenli, B. Kolb, T. Thonhauser, and
     *   S. de Gironcoli, J. Phys.: Condens. Matter 24, 424209 (2012).
     *
     ************************************************************************

     Carrying out vdW-DF run using the following parameters:

     Nqs =      20    Nr_points =    1024   r_max =   100.000
     q_mesh =
               0.00001000     0.04494208     0.09755937     0.15916263
               0.23128650     0.31572767     0.41458969     0.53033537
               0.66584808     0.82450364     1.01025438     1.22772762
               1.48234092     1.78043706     2.12944203     2.53805004
               3.01644009     3.57652955     4.23227104     5.00000000

     Gradients computed in reciprocal space

     ************************************************************************


     Starting wfc are   34 randomized atomic wfcs +    8 random wfc

     total cpu time spent up to now is        1.1 secs

     per-process dynamical memory:    38.9 Mb

     Self-consistent Calculation

     iteration #  1     ecut=    58.80 Ry     beta=0.10
     Davidson diagonalization with overlap
     ethr =  1.00E-02,  avg # of iterations =  4.9

     total cpu time spent up to now is        6.0 secs

     total energy              =    -822.48285858 Ry
     Harris-Foulkes estimate   =    -825.50261331 Ry
     estimated scf accuracy    <      16.90325594 Ry

     iteration #  2     ecut=    58.80 Ry     beta=0.10
     Davidson diagonalization with overlap
     ethr =  1.00E-02,  avg # of iterations =  2.0

     total cpu time spent up to now is        7.9 secs

     total energy              =    -823.71342069 Ry
     Harris-Foulkes estimate   =    -823.79393158 Ry
     estimated scf accuracy    <       0.41962378 Ry

     iteration #  3     ecut=    58.80 Ry     beta=0.10
     Davidson diagonalization with overlap
     ethr =  9.54E-04,  avg # of iterations =  2.1

     total cpu time spent up to now is        9.8 secs

     total energy              =    -823.71789246 Ry
     Harris-Foulkes estimate   =    -823.75600704 Ry
     estimated scf accuracy    <       0.08295818 Ry

     iteration #  4     ecut=    58.80 Ry     beta=0.10
     Davidson diagonalization with overlap
     ethr =  1.89E-04,  avg # of iterations =  2.1

     total cpu time spent up to now is       11.9 secs

     total energy              =    -823.72009699 Ry
     Harris-Foulkes estimate   =    -823.73395770 Ry
     estimated scf accuracy    <       0.03920245 Ry

     iteration #  5     ecut=    58.80 Ry     beta=0.10
     Davidson diagonalization with overlap
     ethr =  8.91E-05,  avg # of iterations =  1.2

     total cpu time spent up to now is       13.5 secs

     total energy              =    -823.72624825 Ry
     Harris-Foulkes estimate   =    -823.72553935 Ry
     estimated scf accuracy    <       0.00249332 Ry

     iteration #  6     ecut=    58.80 Ry     beta=0.10
     Davidson diagonalization with overlap
     ethr =  5.67E-06,  avg # of iterations =  3.3

     total cpu time spent up to now is       16.9 secs

     total energy              =    -823.71794335 Ry
     Harris-Foulkes estimate   =    -823.73236535 Ry
     estimated scf accuracy    <       0.04193892 Ry

     iteration #  7     ecut=    58.80 Ry     beta=0.10
     Davidson diagonalization with overlap
     ethr =  5.67E-06,  avg # of iterations =  3.1

     total cpu time spent up to now is       20.1 secs

     total energy              =    -823.72492874 Ry
     Harris-Foulkes estimate   =    -823.72556055 Ry
     estimated scf accuracy    <       0.00167166 Ry

     iteration #  8     ecut=    58.80 Ry     beta=0.10
     Davidson diagonalization with overlap
     ethr =  3.80E-06,  avg # of iterations =  2.0

     total cpu time spent up to now is       22.0 secs

     total energy              =    -823.72532107 Ry
     Harris-Foulkes estimate   =    -823.72540052 Ry
     estimated scf accuracy    <       0.00053907 Ry

     iteration #  9     ecut=    58.80 Ry     beta=0.10
     Davidson diagonalization with overlap
     ethr =  1.23E-06,  avg # of iterations =  1.0

     total cpu time spent up to now is       23.6 secs

     total energy              =    -823.72531422 Ry
     Harris-Foulkes estimate   =    -823.72534062 Ry
     estimated scf accuracy    <       0.00019333 Ry

     iteration # 10     ecut=    58.80 Ry     beta=0.10
     Davidson diagonalization with overlap
     ethr =  4.39E-07,  avg # of iterations =  1.0

     total cpu time spent up to now is       25.2 secs

     total energy              =    -823.72533233 Ry
     Harris-Foulkes estimate   =    -823.72532717 Ry
     estimated scf accuracy    <       0.00001690 Ry

     iteration # 11     ecut=    58.80 Ry     beta=0.10
     Davidson diagonalization with overlap
     ethr =  3.84E-08,  avg # of iterations =  1.5

     total cpu time spent up to now is       26.9 secs

     total energy              =    -823.72533246 Ry
     Harris-Foulkes estimate   =    -823.72533276 Ry
     estimated scf accuracy    <       0.00001695 Ry

     iteration # 12     ecut=    58.80 Ry     beta=0.10
     Davidson diagonalization with overlap
     ethr =  3.84E-08,  avg # of iterations =  1.5

     total cpu time spent up to now is       28.6 secs

     End of self-consistent calculation

          k = 0.0000 0.0000 0.0000 (  2763 PWs)   bands (ev):

  -101.7020-101.6998 -59.1199 -59.1170 -59.0734 -59.0734 -59.0571 -59.0571
     0.9080   6.5298   7.3583   7.4861   7.7436   7.8842   7.8842   8.4664
     8.4664   8.7410   9.0963   9.5413   9.5413  12.3028  12.7689  13.3792
    16.0501  18.5187  18.5187  19.6320  19.9960  22.3624  22.3624  22.8432
    22.8432  23.2036  23.7878  25.5289  27.9411  29.7110  29.7110  31.2099
    31.6766  31.6766

          k = 0.0000 0.0000 0.0322 (  2776 PWs)   bands (ev):

  -101.7020-101.6998 -59.1200 -59.1171 -59.0734 -59.0734 -59.0571 -59.0571
     1.0645   6.5755   7.2921   7.4984   7.7157   7.7157   7.8372   8.4466
     8.4466   8.7423   9.0966   9.8686   9.8686  11.1962  12.7997  13.4286
    17.4533  18.6988  18.6988  19.3299  19.6481  20.1881  20.1881  22.0083
    23.9125  25.2684  25.2684  26.4412  28.1609  28.1609  29.4504  30.0191
    30.5943  33.4427

          k = 0.0000 0.0000 0.0643 (  2776 PWs)   bands (ev):

  -101.7019-101.6997 -59.1203 -59.1174 -59.0733 -59.0733 -59.0571 -59.0571
     1.5299   6.6947   6.9608   7.4204   7.4204   7.5298   8.0879   8.3974
     8.3974   8.7457   9.0975   9.6281  10.6416  10.6416  12.8970  13.5840
    18.0362  18.0374  18.0374  19.2272  19.2272  19.6915  19.9895  20.0605
    24.3234  26.1384  26.1384  28.1616  28.1616  28.4301  28.4780  29.3291
    32.3473  33.8918

          k = 0.0000 0.0000 0.0965 (  2820 PWs)   bands (ev):

  -101.7019-101.6997 -59.1207 -59.1177 -59.0733 -59.0733 -59.0571 -59.0571
     2.2877   6.0328   6.8369   7.1841   7.1841   7.5659   8.3429   8.3429
     8.4003   8.7495   8.7611   9.0985  11.6775  11.6775  13.0626  13.8564
    16.1230  16.1230  16.7926  18.3878  19.7462  20.0723  20.0723  22.5082
    24.2908  24.2908  25.2448  27.2983  28.0903  30.9728  31.2594  31.2594
    33.9252  34.7543

          k = 0.0000 0.0000 0.1286 (  2816 PWs)   bands (ev):

  -101.7019-101.6997 -59.1210 -59.1179 -59.0733 -59.0733 -59.0571 -59.0571
     3.2673   4.7707   6.9340   7.0593   7.0593   7.5897   8.3081   8.3081
     8.5166   8.6231   8.7520   9.0992  12.9163  12.9163  13.2330  14.1826
    14.4521  14.4521  15.9271  17.3769  19.7856  21.1752  21.1752  22.6916
    22.6916  23.9533  26.5473  26.7092  28.0470  31.2668  33.5557  33.9478
    34.2463  34.2463

          k = 0.0000 0.0280 0.0000 (  2777 PWs)   bands (ev):

  -101.7019-101.6998 -59.1198 -59.1171 -59.0729 -59.0729 -59.0576 -59.0576
     1.0265   6.4629   7.3888   7.5052   7.5814   7.8837   7.9022   8.4156
     8.4493   8.7111   8.8411   9.0722   9.8837  12.4795  13.0660  14.0659
    16.0904  17.2369  18.0348  19.6476  21.0945  21.6933  21.8178  22.4998
    22.9262  24.4784  24.8883  26.0484  28.3784  28.5169  28.6601  30.3731
    31.3918  32.4185

          k = 0.0000 0.0280 0.0322 (  2777 PWs)   bands (ev):

  -101.7019-101.6998 -59.1199 -59.1172 -59.0729 -59.0729 -59.0576 -59.0576
     1.1824   6.5108   7.3266   7.5180   7.5545   7.7372   7.8625   8.3930
     8.4278   8.7126   8.9056   9.3250  10.1428  11.3531  13.1132  14.1448
    17.3753  17.4499  18.2761  18.4477  20.3019  20.3210  21.1392  22.6864
    24.6025  24.7141  25.3753  27.1216  27.1249  27.2736  29.9849  31.2752
    31.4272  32.2324

          k = 0.0000 0.0280 0.0643 (  2787 PWs)   bands (ev):

  -101.7019-101.6998 -59.1203 -59.1175 -59.0729 -59.0729 -59.0576 -59.0576
     1.6459   6.6360   7.0100   7.3536   7.4505   7.5507   8.0702   8.3415
     8.3739   8.7164   8.9705   9.7657   9.9060  10.8419  13.2546  14.3756
    16.5915  17.7641  18.1518  18.6043  18.7721  20.2044  21.0730  21.2608
    24.9672  25.2769  25.4065  26.9880  28.2688  29.4031  29.5786  30.1906
    32.7328  32.8781

          k = 0.0000 0.0280 0.0965 (  2803 PWs)   bands (ev):

  -101.7019-101.6998 -59.1206 -59.1178 -59.0728 -59.0728 -59.0576 -59.0576
     2.3997   6.1143   6.7889   7.1506   7.2208   7.5890   8.3069   8.3135
     8.3869   8.7200   8.8492   8.9985  10.6842  11.8424  13.4344  14.4611
    15.2543  16.2390  17.3821  18.3118  19.3879  19.4366  21.4107  22.8164
    23.6122  23.7862  25.8270  28.2930  28.9209  29.8318  31.3653  32.1337
    32.9036  34.7896

          k = 0.0000 0.0280 0.1286 (  2813 PWs)   bands (ev):

  -101.7019-101.6998 -59.1209 -59.1180 -59.0728 -59.0728 -59.0576 -59.0575
     3.3692   4.8795   6.9132   7.0178   7.0993   7.6148   8.2744   8.3198
     8.5382   8.6125   8.7241   9.0087  11.6575  12.8867  13.0727  14.0296
    14.5636  15.5352  16.4255  18.2436  18.7901  20.4873  21.4907  22.0018
    22.8882  24.6396  27.2707  27.5874  28.4127  31.3182  32.7749  33.1119
    34.3488  34.5677

          k = 0.0000 0.0560 0.0000 (  2808 PWs)   bands (ev):

  -101.7017-101.7000 -59.1196 -59.1173 -59.0715 -59.0715 -59.0591 -59.0590
     1.3800   5.9441   7.3394   7.4716   7.5634   7.8867   7.9539   8.2924
     8.4001   8.5101   8.5936   8.6222  10.4792  12.9787  13.3020  15.7061
    15.9068  16.1227  17.1617  18.5211  20.5135  21.7243  22.9067  23.1468
    23.1775  26.0136  26.7106  26.9363  27.0329  27.2635  28.7609  29.5984
    29.7509  30.8109

          k = 0.0000 0.0560 0.0322 (  2799 PWs)   bands (ev):

  -101.7017-101.7000 -59.1197 -59.1174 -59.0715 -59.0715 -59.0591 -59.0590
     1.5342   6.0202   7.3550   7.4205   7.5770   7.7972   7.8783   8.2670
     8.3736   8.5987   8.6242   8.7215  10.7045  11.7902  13.3578  15.8507
    16.0233  16.9012  17.0202  18.0352  20.6398  20.6837  22.3092  23.0748
    25.6853  25.6968  25.7608  25.8090  26.3345  27.7966  29.6820  30.6402
    31.4619  31.8931

          k = 0.0000 0.0560 0.0643 (  2798 PWs)   bands (ev):

  -101.7017-101.7000 -59.1200 -59.1177 -59.0715 -59.0714 -59.0590 -59.0590
     1.9917   6.2182   7.1451   7.3057   7.5355   7.6130   8.0299   8.2264
     8.3065   8.6291   8.7041   9.0253  10.1348  11.3335  13.4937  15.0605
    16.2651  16.3777  17.4865  18.4925  19.2073  20.5593  22.5141  22.9126
    23.9896  24.6692  25.8315  26.6144  28.5904  29.8255  30.0866  31.5790
    32.2218  33.4795

          k = 0.0000 0.0560 0.0965 (  2799 PWs)   bands (ev):

  -101.7017-101.7000 -59.1204 -59.1181 -59.0715 -59.0714 -59.0590 -59.0590
     2.7327   6.3463   6.4570   7.1858   7.3257   7.6579   8.2288   8.2490
     8.3492   8.6334   8.7605   9.0743   9.5024  12.2777  12.9414  14.1247
    16.5873  16.8822  16.9039  17.8122  18.2580  21.3110  21.4707  22.2328
    23.4424  24.5481  27.2351  28.5221  29.8352  30.2317  31.4214  31.6818
    32.7766  35.0271

          k = 0.0000 0.0560 0.1286 (  2801 PWs)   bands (ev):

  -101.7017-101.7000 -59.1206 -59.1183 -59.0714 -59.0714 -59.0590 -59.0590
     3.6694   5.2011   6.6325   7.0862   7.2139   7.6905   8.1761   8.3553
     8.5794   8.5916   8.6603   8.7835  10.3070  11.5004  13.4788  14.3942
    14.9186  16.7451  17.4931  17.5918  19.2410  20.2994  20.3327  20.7685
    24.6928  25.7539  28.3659  29.4470  29.4642  30.9643  31.5738  32.0994
    34.3494  34.6478

          k = 0.0000 0.0839 0.0000 (  2794 PWs)   bands (ev):

  -101.7014-101.7003 -59.1192 -59.1177 -59.0694 -59.0693 -59.0613 -59.0612
     1.9626   4.8784   7.4145   7.5777   7.6621   7.9041   8.0327   8.1511
     8.2252   8.3241   8.3884   8.4841  11.2137  13.6284  13.7400  14.3322
    15.6022  16.9734  17.1575  17.9531  19.6135  22.2520  23.5660  23.6041
    25.1872  25.4763  26.0398  26.5163  27.2175  27.5112  27.7279  29.3816
    30.4953  31.6349

          k = 0.0000 0.0839 0.0322 (  2799 PWs)   bands (ev):

  -101.7014-101.7003 -59.1193 -59.1178 -59.0694 -59.0693 -59.0613 -59.0612
     2.1134   4.9934   7.4363   7.5442   7.6753   7.8788   7.8958   8.1281
     8.2912   8.3268   8.4401   8.4870  11.4204  12.4489  13.6835  14.4901
    15.6623  15.9018  18.2439  18.4021  21.0424  21.1917  21.5414  23.7827
    24.4099  26.0467  26.2333  26.7265  27.8797  28.0469  28.3594  29.2685
    31.3918  33.3337

          k = 0.0000 0.0839 0.0643 (  2804 PWs)   bands (ev):

  -101.7014-101.7003 -59.1196 -59.1181 -59.0694 -59.0693 -59.0612 -59.0612
     2.5597   5.3148   7.3287   7.4173   7.6588   7.7123   7.9966   8.1198
     8.2071   8.4267   8.4942   8.5553  10.6900  12.0041  13.3476  14.2646
    14.9444  16.3720  18.6206  19.0529  19.8041  21.0422  21.8431  22.6694
    23.6794  26.2099  26.2836  27.0658  28.4938  29.1252  30.5793  31.9807
    33.0855  33.9189

          k = 0.0000 0.0839 0.0965 (  2802 PWs)   bands (ev):

  -101.7014-101.7003 -59.1200 -59.1185 -59.0693 -59.0693 -59.0612 -59.0611
     3.2759   5.7563   6.6870   7.2921   7.4830   7.7648   8.1048   8.2151
     8.2944   8.4825   8.5026   8.7322   9.4248  11.7376  12.8958  14.5347
    15.6344  17.0815  17.1668  18.2161  19.2923  20.1413  20.9804  23.8575
    23.9578  26.6257  27.3512  27.4318  29.1048  32.2038  32.4503  32.8491
    33.1100  33.3457

          k = 0.0000 0.0839 0.1286 (  2798 PWs)   bands (ev):

  -101.7014-101.7003 -59.1202 -59.1187 -59.0693 -59.0692 -59.0612 -59.0611
     4.1497   5.7160   6.1273   7.1454   7.3878   7.8154   8.0239   8.4075
     8.5069   8.5124   8.5148   8.7676   9.2462  10.3165  14.0228  15.0180
    15.5543  16.3645  17.1681  17.9852  18.9070  19.5668  19.8377  22.8586
    26.5743  26.9080  27.7014  29.9033  30.3403  31.6742  31.7094  32.5762
    32.8870  33.4839

          k = 0.0000 0.1119 0.0000 (  2794 PWs)   bands (ev):

  -101.7010-101.7007 -59.1187 -59.1182 -59.0668 -59.0667 -59.0640 -59.0638
     2.7620   3.7537   7.5811   7.6453   7.8036   7.9490   7.9904   8.0313
     8.1287   8.2299   8.3013   8.3430  12.0931  13.1294  14.1152  14.7130
    14.7879  15.8633  17.4142  18.0690  21.0784  23.1006  23.7254  24.1879
    24.2159  24.4438  25.0246  25.4195  27.7111  28.1059  28.4276  30.8975
    31.5086  31.8687

          k = 0.0000 0.1119 0.0322 (  2805 PWs)   bands (ev):

  -101.7010-101.7007 -59.1188 -59.1183 -59.0668 -59.0667 -59.0639 -59.0638
     2.9071   3.8887   7.5932   7.6352   7.8072   7.9174   7.9363   8.0136
     8.1619   8.1976   8.3178   8.3479  12.2831  13.2807  13.3029  13.9929
    14.6474  15.0262  18.9927  19.5726  21.3637  21.9419  22.2418  22.8608
    23.1540  23.9539  26.9769  27.7193  28.6495  28.7813  29.0138  30.2942
    30.9920  31.5107

          k = 0.0000 0.1119 0.0643 (  2800 PWs)   bands (ev):

  -101.7010-101.7006 -59.1191 -59.1186 -59.0667 -59.0666 -59.0639 -59.0638
     3.3337   4.2798   7.4926   7.5311   7.7857   7.8141   8.0007   8.0471
     8.1223   8.2009   8.3524   8.3597  11.4280  12.3519  12.8252  13.8011
    14.6741  15.4162  19.8209  20.4567  20.7738  21.0369  21.4857  21.5935
    23.1302  24.3915  28.4430  28.6402  29.8608  30.0314  30.8543  30.8764
    31.2481  31.2587

          k = 0.0000 0.1119 0.0965 (  2805 PWs)   bands (ev):

  -101.7010-101.7006 -59.1195 -59.1190 -59.0667 -59.0666 -59.0639 -59.0638
     4.0055   4.8703   7.0513   7.2915   7.6661   7.8158   8.0498   8.2148
     8.2261   8.2393   8.3745   8.3891   9.9484  10.7102  13.6581  14.5653
    15.1959  16.0486  17.9695  18.9462  18.9756  19.8659  21.7093  23.8819
    25.5608  25.6810  27.1329  29.0334  29.3753  31.6072  31.6140  32.7882
    32.9142  33.6615

          k = 0.0000 0.1119 0.1286 (  2815 PWs)   bands (ev):

  -101.7010-101.7006 -59.1197 -59.1192 -59.0667 -59.0666 -59.0639 -59.0638
     4.7727   5.4686   6.3636   6.9462   7.5972   7.8104   8.0122   8.2387
     8.3723   8.3929   8.5162   8.6730   9.0319   9.5093  14.6622  15.4284
    15.8438  16.4663  16.8410  17.6035  17.7509  18.5474  22.2608  24.7709
    25.6207  27.9766  28.6228  29.1669  29.3369  31.4671  31.9137  32.4641
    33.7422  34.0074

          k = 0.0280 0.0280 0.0000 (  2777 PWs)   bands (ev):

  -101.7018-101.6999 -59.1197 -59.1171 -59.0736 -59.0713 -59.0592 -59.0570
     1.1446   6.4445   7.3942   7.4161   7.5220   7.8502   7.9526   8.3294
     8.4758   8.6030   8.6842   9.1370   9.6155  12.6483  13.8828  14.2698
    15.8140  16.3506  18.7776  19.5599  20.8679  21.1284  21.5687  22.1107
    23.6976  25.2938  25.5482  26.6443  26.9249  28.7148  29.2925  29.8104
    31.5786  31.6732

          k = 0.0280 0.0280 0.0322 (  2787 PWs)   bands (ev):

  -101.7018-101.6999 -59.1199 -59.1173 -59.0736 -59.0713 -59.0592 -59.0570
     1.3000   6.4909   7.3574   7.4123   7.5355   7.6832   7.9183   8.3018
     8.4565   8.6860   8.6913   9.4314   9.7371  11.5001  13.9710  14.3514
    16.0913  17.6606  18.3479  18.9555  19.0282  21.1614  21.3060  23.1985
    24.4551  25.1827  25.4045  25.6103  27.8500  28.3233  30.1786  30.3935
    31.3644  31.9462

          k = 0.0280 0.0280 0.0643 (  2782 PWs)   bands (ev):

  -101.7018-101.6999 -59.1202 -59.1176 -59.0735 -59.0713 -59.0592 -59.0569
     1.7616   6.6123   7.0549   7.3344   7.4008   7.5703   8.0643   8.2446
     8.4084   8.6903   8.8093   9.8867  10.0984  10.1069  14.2088  14.6003
    16.5342  16.5390  16.9410  19.4768  19.9014  20.1187  21.2908  21.6245
    23.8862  25.7497  26.3360  26.7674  27.6414  28.9930  30.2075  31.6357
    32.1356  33.2954

          k = 0.0280 0.0280 0.0965 (  2804 PWs)   bands (ev):

  -101.7018-101.6999 -59.1205 -59.1179 -59.0735 -59.0713 -59.0592 -59.0569
     2.5112   6.1925   6.7597   7.1743   7.1939   7.6112   8.2227   8.3552
     8.3753   8.6949   8.8776   8.9127  10.7145  10.9730  14.1994  14.7203
    15.1719  15.5572  17.1798  18.4485  19.8917  20.3088  20.7811  22.3890
    23.4767  24.5147  26.3232  27.9112  29.5450  30.3350  30.7768  32.3622
    32.8948  34.5638

          k = 0.0280 0.0280 0.1286 (  2819 PWs)   bands (ev):

  -101.7018-101.6999 -59.1208 -59.1181 -59.0735 -59.0712 -59.0591 -59.0569
     3.4700   4.9872   6.8710   7.0428   7.1072   7.6387   8.2573   8.3212
     8.5534   8.5981   8.6979   8.9150  11.5245  12.0163  13.1254  13.3436
    15.6472  15.6680  17.3382  17.8478  18.7026  20.1341  21.3778  22.2134
    22.9550  25.3516  26.7114  28.2996  29.4677  31.4018  32.4574  32.5282
    33.9910  34.7066

          k = 0.0280 0.0560 0.0000 (  2790 PWs)   bands (ev):

  -101.7016-101.7001 -59.1195 -59.1174 -59.0732 -59.0690 -59.0615 -59.0573
     1.4972   6.0262   7.1278   7.4905   7.5703   7.8271   8.0281   8.1914
     8.3454   8.4595   8.6037   8.6974   9.9612  13.1299  14.3033  14.4583
    15.9883  16.4103  18.2765  18.6354  20.5639  20.5924  22.3363  22.4725
    24.2838  25.3872  26.9560  27.3373  27.4475  27.8836  28.8899  29.6073
    29.9269  31.6027

          k = 0.0280 0.0560 0.0322 (  2790 PWs)   bands (ev):

  -101.7016-101.7001 -59.1196 -59.1175 -59.0732 -59.0690 -59.0615 -59.0573
     1.6507   6.0969   7.1792   7.4414   7.5864   7.6873   7.9861   8.1606
     8.4137   8.4384   8.6059   8.8757  10.1022  11.9139  14.3956  14.6426
    16.1051  17.1327  17.7818  18.5370  19.0634  21.6763  22.3763  22.9342
    24.2667  24.9367  26.0341  26.9490  27.6219  28.6797  29.5371  29.6535
    31.6887  32.0317

          k = 0.0280 0.0560 0.0643 (  2791 PWs)   bands (ev):

  -101.7016-101.7000 -59.1199 -59.1178 -59.0732 -59.0690 -59.0615 -59.0573
     2.1062   6.2770   7.1767   7.2500   7.4456   7.6280   8.0579   8.1128
     8.3869   8.5152   8.6112   9.2203  10.2277  10.5300  14.5693  15.0897
    15.2516  16.4168  17.1245  18.7627  20.5795  20.6499  21.5525  23.1964
    23.4993  25.6098  25.8566  27.4842  27.6873  29.5809  30.5166  31.0210
    32.4863  33.5650

          k = 0.0280 0.0560 0.0965 (  2795 PWs)   bands (ev):

  -101.7016-101.7000 -59.1203 -59.1181 -59.0732 -59.0690 -59.0615 -59.0573
     2.8425   6.4139   6.4840   7.2149   7.2697   7.6771   8.1273   8.3367
     8.3431   8.5990   8.6163   9.1089   9.6651  11.2029  13.2823  14.9434
    15.5831  15.7721  17.0748  19.1794  19.3501  20.1738  21.6825  22.8734
    23.8815  24.3460  27.7963  28.5215  28.8987  30.5101  30.7723  32.4275
    33.5468  34.5574

          k = 0.0280 0.0560 0.1286 (  2798 PWs)   bands (ev):

  -101.7016-101.7000 -59.1205 -59.1184 -59.0731 -59.0689 -59.0615 -59.0573
     3.7668   5.3053   6.6223   7.1306   7.2078   7.7109   8.1748   8.3520
     8.5325   8.5932   8.6408   8.7084  10.3822  11.4302  12.5274  13.6497
    15.9646  16.5325  17.6648  18.0585  18.6603  20.4813  20.5171  22.3381
    23.8675  26.3945  27.7057  29.0273  30.6072  31.5048  31.6146  31.9504
    33.9646  34.2851

          k = 0.0280 0.0839 0.0000 (  2781 PWs)   bands (ev):

  -101.7014-101.7003 -59.1191 -59.1177 -59.0720 -59.0663 -59.0643 -59.0586
     2.0781   4.9804   7.2599   7.5897   7.6407   7.8282   8.0508   8.1189
     8.1287   8.4016   8.4437   8.4789  10.5191  13.1763  13.8731  14.7078
    16.5419  17.2684  17.4500  18.0244  19.7040  21.0797  22.9307  24.0217
    24.2559  24.8527  26.6865  26.8394  27.6199  28.0041  28.7343  29.5851
    31.2166  31.6156

          k = 0.0280 0.0839 0.0322 (  2793 PWs)   bands (ev):

  -101.7014-101.7003 -59.1192 -59.1179 -59.0719 -59.0663 -59.0643 -59.0586
     2.2282   5.0933   7.3045   7.5554   7.6565   7.7149   8.0252   8.0516
     8.2093   8.3763   8.4819   8.5383  10.6643  12.5175  13.4000  14.7748
    15.7954  17.1773  18.3126  18.5261  19.6151  21.2135  22.3940  23.0201
    24.8759  25.5304  26.1606  26.8422  28.0575  28.2571  29.2636  29.2926
    32.2401  32.9389

          k = 0.0280 0.0839 0.0643 (  2797 PWs)   bands (ev):

  -101.7014-101.7003 -59.1196 -59.1182 -59.0719 -59.0663 -59.0643 -59.0586
     2.6719   5.4059   7.3380   7.3895   7.5123   7.7100   8.0050   8.0733
     8.2647   8.3174   8.4891   8.7157  10.7568  11.0730  13.6957  13.8289
    15.2624  17.5600  17.6745  18.7935  20.4279  21.1712  21.3027  23.8658
    24.1838  25.5051  26.3018  27.1136  28.1269  29.3994  30.8718  31.4614
    32.7387  33.5944

          k = 0.0280 0.0839 0.0965 (  2801 PWs)   bands (ev):

  -101.7013-101.7003 -59.1199 -59.1185 -59.0719 -59.0662 -59.0643 -59.0586
     3.3822   5.8242   6.7338   7.3209   7.4198   7.7766   8.0340   8.2882
     8.2965   8.3009   8.4971   8.9164   9.4458  11.3985  12.3351  14.5314
    15.6384  15.9610  18.2077  18.9080  19.3285  19.8105  22.5309  24.0147
    24.0315  25.9300  27.3941  27.5400  29.7229  31.1471  31.2190  33.0373
    33.1568  34.1572

          k = 0.0280 0.0839 0.1286 (  2805 PWs)   bands (ev):

  -101.7013-101.7003 -59.1202 -59.1187 -59.0719 -59.0662 -59.0642 -59.0586
     4.2406   5.8127   6.1549   7.2021   7.3852   7.8294   8.0294   8.3168
     8.4072   8.5040   8.5783   8.7550   9.3515  10.3210  12.9169  14.2909
    15.3563  16.4788  17.3078  18.5921  19.2540  19.9486  21.2854  22.9941
    25.8480  26.9601  28.1932  29.5125  30.3132  30.9408  32.2650  32.5167
    33.1009  34.0345

          k = 0.0280 0.1119 0.0000 (  2788 PWs)   bands (ev):

  -101.7010-101.7007 -59.1187 -59.1182 -59.0699 -59.0672 -59.0634 -59.0608
     2.8749   3.8625   7.4879   7.6198   7.7570   7.8624   7.9266   7.9368
     8.2184   8.3167   8.3406   8.3598  11.2196  12.0960  14.8323  15.2832
    15.9745  16.0097  17.5409  18.1488  21.1688  21.8528  22.8404  23.7331
    23.7389  24.6711  25.5805  26.5024  27.6358  28.4542  29.2617  30.3375
    32.0195  32.2283

          k = 0.0280 0.1119 0.0322 (  2797 PWs)   bands (ev):

  -101.7010-101.7007 -59.1188 -59.1183 -59.0699 -59.0672 -59.0634 -59.0608
     3.0191   3.9962   7.5241   7.6402   7.7056   7.7387   7.9471   7.9949
     8.1936   8.2875   8.3679   8.3764  11.3603  12.2106  13.4697  14.4414
    15.5167  16.2609  19.0670  19.5736  20.4386  21.3340  21.4979  23.7825
    23.9644  24.7759  26.1801  26.6896  28.0135  29.4946  30.1271  30.3556
    31.1527  32.1212

          k = 0.0280 0.1119 0.0643 (  2812 PWs)   bands (ev):

  -101.7010-101.7007 -59.1191 -59.1186 -59.0698 -59.0672 -59.0634 -59.0607
     3.4424   4.3824   7.4812   7.5404   7.6015   7.7319   7.9879   8.0743
     8.1493   8.2284   8.3846   8.4470  11.4347  11.6609  12.6682  12.8204
    15.8793  16.6912  18.3405  19.3148  21.0886  21.6883  22.0696  23.1188
    23.2986  24.4755  27.6358  28.4500  28.7270  29.8069  30.5885  30.9960
    31.9932  32.4233

          k = 0.0280 0.1119 0.0965 (  2815 PWs)   bands (ev):

  -101.7010-101.7006 -59.1195 -59.1190 -59.0698 -59.0672 -59.0634 -59.0607
     4.1059   4.9598   7.0689   7.2968   7.6272   7.7934   8.0172   8.1094
     8.2583   8.2621   8.4022   8.5161   9.9613  10.6913  12.6813  13.4948
    16.4912  16.5767  17.2508  17.6669  20.5286  21.4727  21.8133  23.9935
    25.6068  25.7957  27.1728  28.0978  29.8750  30.7400  31.9955  32.0184
    32.7355  33.9615

          k = 0.0280 0.1119 0.1286 (  2807 PWs)   bands (ev):

  -101.7010-101.7006 -59.1197 -59.1192 -59.0698 -59.0671 -59.0633 -59.0607
     4.8519   5.5275   6.4464   7.0135   7.6016   7.8187   7.9950   8.1071
     8.4000   8.4815   8.5128   8.7168   9.0161   9.5012  13.5533  14.3641
    15.1245  16.1295  17.2064  18.1405  19.3094  20.2179  22.3697  24.8797
    25.7310  27.6866  28.4469  29.0784  29.4489  31.3185  31.7357  32.7455
    32.9049  33.6980

          k = 0.0560 0.0560 0.0000 (  2789 PWs)   bands (ev):

  -101.7015-101.7002 -59.1193 -59.1176 -59.0740 -59.0661 -59.0645 -59.0566
     1.8468   6.1737   6.5019   7.5413   7.5842   7.7651   8.0395   8.1354
     8.1724   8.4998   8.5457   8.6003   9.6259  13.0099  13.5698  16.2070
    16.2669  16.6257  18.9000  19.1302  19.5278  20.4531  21.6453  21.9120
    23.8470  25.5802  26.5238  28.4116  28.6391  28.8184  29.0418  30.0874
    30.6750  31.6223

          k = 0.0560 0.0560 0.0322 (  2799 PWs)   bands (ev):

  -101.7015-101.7002 -59.1194 -59.1177 -59.0740 -59.0661 -59.0645 -59.0566
     1.9984   6.2180   6.6112   7.4945   7.6084   7.6404   8.0095   8.0955
     8.2215   8.4812   8.5487   8.8246   9.6599  12.2399  13.2446  16.2844
    16.3882  17.4222  17.6058  18.1229  19.6989  21.5841  21.8833  23.0436
    23.3706  24.8825  26.8850  27.9406  28.6492  28.8369  29.3341  29.8444
    30.9049  32.5443

          k = 0.0560 0.0560 0.0643 (  2798 PWs)   bands (ev):

  -101.7015-101.7002 -59.1197 -59.1180 -59.0740 -59.0661 -59.0645 -59.0565
     2.4470   6.3285   6.8845   7.2547   7.4446   7.6700   7.9761   8.1172
     8.2727   8.4360   8.5548   9.3330   9.7603  10.5027  13.6698  15.4137
    15.4163  16.7230  16.8918  19.8517  20.1990  20.9506  22.0314  22.9769
    24.2207  25.7062  26.8503  26.8927  28.5615  29.4999  29.5093  31.0458
    31.9475  33.0978

          k = 0.0560 0.0560 0.0965 (  2793 PWs)   bands (ev):

  -101.7015-101.7002 -59.1201 -59.1183 -59.0740 -59.0661 -59.0644 -59.0565
     3.1680   6.4466   6.5992   7.1405   7.3088   7.7365   8.0244   8.3078
     8.3304   8.3863   8.5611   9.2413   9.9502  10.0247  13.5834  13.7653
    14.3677  17.2192  17.5175  18.4004  20.7959  20.9877  22.5125  22.5976
    24.4240  25.1782  27.6950  28.2748  29.7997  29.8473  29.9194  32.7098
    33.6209  34.0014

          k = 0.0560 0.0560 0.1286 (  2802 PWs)   bands (ev):

  -101.7015-101.7002 -59.1203 -59.1186 -59.0739 -59.0660 -59.0644 -59.0565
     4.0527   5.6110   6.5149   7.2424   7.2518   7.7748   8.1467   8.3256
     8.3545   8.5651   8.6297   8.6348  10.2866  10.8411  12.2440  12.4391
    15.2009  17.0841  17.8198  18.1705  19.7434  21.3760  21.9411  22.9355
    23.7600  26.8741  27.2571  30.1131  30.1361  31.0804  31.4460  33.3709
    33.6082  33.7625

          k = 0.0560 0.0839 0.0000 (  2797 PWs)   bands (ev):

  -101.7013-101.7004 -59.1190 -59.1179 -59.0738 -59.0675 -59.0631 -59.0569
     2.4224   5.2794   6.6938   7.5612   7.6221   7.7334   7.9006   8.0125
     8.2453   8.4318   8.4529   8.4884   9.8035  11.7855  14.2666  16.6337
    16.9457  17.5911  18.2617  19.1846  19.5613  19.9493  21.8800  22.4858
    22.9503  25.6013  26.5281  26.8836  29.1848  29.4202  30.2703  30.6341
    31.1882  31.7177

          k = 0.0560 0.0839 0.0322 (  2798 PWs)   bands (ev):

  -101.7013-101.7004 -59.1191 -59.1180 -59.0737 -59.0675 -59.0631 -59.0569
     2.5702   5.3856   6.7564   7.5372   7.6230   7.6496   7.8963   8.0374
     8.2244   8.4539   8.4715   8.5674   9.8536  11.8485  13.0151  15.9648
    16.8845  17.9316  18.3837  18.7265  19.4356  20.9426  21.4576  23.4557
    23.6805  25.6831  26.7228  26.9837  28.2508  28.6182  30.1981  30.8929
    31.3413  32.6838

          k = 0.0560 0.0839 0.0643 (  2802 PWs)   bands (ev):

  -101.7013-101.7004 -59.1194 -59.1183 -59.0737 -59.0675 -59.0631 -59.0568
     3.0058   5.6666   6.9279   7.3305   7.5217   7.7059   7.9049   8.0869
     8.1938   8.4210   8.4653   8.8562  10.0207  10.9093  12.5358  14.0650
    15.9856  17.2563  18.6702  19.0863  19.8208  21.3998  22.8839  24.2046
    24.5697  26.2881  26.4095  27.0769  27.2199  29.3086  30.4931  31.2832
    31.4204  33.2364

          k = 0.0560 0.0839 0.0965 (  2809 PWs)   bands (ev):

  -101.7013-101.7004 -59.1198 -59.1186 -59.0737 -59.0675 -59.0630 -59.0568
     3.6967   5.9953   6.8474   7.1568   7.4473   7.8198   7.9482   8.0795
     8.3132   8.3773   8.4724   9.1592   9.5211  10.3107  12.4563  13.1706
    14.2468  17.0762  17.8370  19.6853  20.4223  21.7805  23.6453  24.5539
    24.7905  25.2261  27.4464  27.5721  29.3237  29.9003  31.3187  32.1833
    32.1987  33.0678

          k = 0.0560 0.0839 0.1286 (  2804 PWs)   bands (ev):

  -101.7012-101.7004 -59.1200 -59.1189 -59.0737 -59.0675 -59.0630 -59.0568
     4.5047   6.0908   6.1966   7.3348   7.4187   7.8830   8.0411   8.0537
     8.3986   8.4767   8.5805   8.7305   9.5048  10.2109  11.9333  12.8314
    14.0261  15.6949  18.4788  20.2859  20.7150  21.1560  23.3832  23.4582
    24.7005  27.3442  27.9354  28.8741  30.0721  31.4834  31.7666  32.3924
    32.4671  33.3514

          k = 0.0560 0.1119 0.0000 (  2789 PWs)   bands (ev):

  -101.7010-101.7007 -59.1186 -59.1182 -59.0725 -59.0703 -59.0603 -59.0582
     3.2106   4.1844   7.0994   7.4206   7.7236   7.7423   7.7981   7.8561
     8.3484   8.3603   8.3709   8.4336  10.2108  10.8521  15.1865  16.3023
    17.1331  17.2926  18.4767  18.4920  20.3355  21.3133  21.4307  22.5768
    23.1250  24.2015  26.4861  27.4026  28.3673  28.4299  30.8657  30.8796
    32.3014  32.5097

          k = 0.0560 0.1119 0.0322 (  2795 PWs)   bands (ev):

  -101.7010-101.7007 -59.1187 -59.1184 -59.0725 -59.0703 -59.0603 -59.0582
     3.3519   4.3142   7.1278   7.4185   7.6728   7.6803   7.8554   7.9068
     8.3231   8.3816   8.4134   8.4162  10.2869  10.9434  13.7924  14.8002
    17.4117  18.0784  18.7108  19.2792  20.0343  20.0861  21.7683  24.1025
    24.1100  24.8772  26.4084  26.5526  27.4923  28.7635  30.8750  31.7914
    32.2023  32.4963

          k = 0.0560 0.1119 0.0643 (  2814 PWs)   bands (ev):

  -101.7010-101.7007 -59.1191 -59.1187 -59.0724 -59.0703 -59.0603 -59.0582
     3.7645   4.6844   7.1772   7.3255   7.6230   7.6890   7.9240   7.9682
     8.2775   8.3600   8.4143   8.5392  10.4872  10.9967  12.1981  12.9385
    16.7109  17.6023  17.9480  18.8410  21.3908  21.9706  23.2200  24.4056
    24.6342  25.1978  26.2988  27.2311  28.5753  28.5989  29.9200  31.7430
    32.2151  32.8522

          k = 0.0560 0.1119 0.0965 (  2813 PWs)   bands (ev):

  -101.7010-101.7007 -59.1194 -59.1190 -59.0724 -59.0702 -59.0603 -59.0581
     4.4004   5.2159   7.0726   7.1880   7.6299   7.7823   7.9733   7.9842
     8.3142   8.3408   8.4436   8.6675   9.9603  10.3839  11.8818  12.2701
    14.9982  15.9396  18.5378  19.4219  22.1255  22.6291  23.5355  24.3563
    25.6483  26.1086  27.0394  27.2574  29.6068  30.1984  30.8940  31.2665
    31.9128  32.7453

          k = 0.0560 0.1119 0.1286 (  2806 PWs)   bands (ev):

  -101.7010-101.7007 -59.1196 -59.1192 -59.0724 -59.0702 -59.0603 -59.0581
     5.0763   5.6815   6.6711   7.1781   7.6322   7.8521   7.9531   7.9870
     8.4451   8.4984   8.5238   8.8284   8.9675   9.4534  12.3426  13.0666
    13.5681  14.5230  19.2042  20.1085  21.5257  22.4481  22.7012  25.2029
    26.0722  26.7800  28.4284  28.6422  29.6362  30.7867  31.0491  32.4110
    32.7907  32.9309

          k = 0.0839 0.0839 0.0000 (  2795 PWs)   bands (ev):

  -101.7011-101.7006 -59.1188 -59.1181 -59.0745 -59.0705 -59.0602 -59.0561
     2.9880   5.6911   5.8094   7.3602   7.6667   7.6701   7.7719   7.9118
     8.3559   8.3625   8.3963   8.5273   9.6157  10.7118  14.9039  17.2948
    17.8688  18.0461  18.4264  19.1878  20.2751  20.7113  21.1264  21.2923
    22.1045  24.7288  26.4680  27.9608  28.8937  29.2799  30.4619  31.6009
    31.9368  32.7278

          k = 0.0839 0.0839 0.0322 (  2802 PWs)   bands (ev):

  -101.7011-101.7006 -59.1189 -59.1182 -59.0745 -59.0705 -59.0602 -59.0561
     3.1315   5.8327   5.8532   7.3375   7.6450   7.6559   7.8195   7.9258
     8.3411   8.3990   8.4638   8.5109   9.6158  10.7829  13.5492  16.5026
    16.5234  18.5832  18.9079  19.3538  19.9038  20.8720  21.6323  22.9090
    23.0454  25.7185  26.5544  26.9097  29.2135  29.5507  29.5690  29.8072
    32.0743  32.1383

          k = 0.0839 0.0839 0.0643 (  2807 PWs)   bands (ev):

  -101.7011-101.7006 -59.1192 -59.1185 -59.0745 -59.0704 -59.0602 -59.0561
     3.5513   5.9593   6.2392   7.2212   7.6110   7.7103   7.8964   7.9560
     8.3010   8.4056   8.4701   8.7622   9.6061  10.7334  12.0405  14.5244
    14.6743  17.4164  19.2982  19.8072  21.3357  21.6093  23.6661  23.8469
    25.6920  25.7764  26.7238  27.8011  27.9529  28.1229  28.9823  30.2177
    31.2591  32.3303

          k = 0.0839 0.0839 0.0965 (  2801 PWs)   bands (ev):

  -101.7011-101.7006 -59.1196 -59.1188 -59.0745 -59.0704 -59.0601 -59.0561
     4.2033   6.0687   6.8338   6.9518   7.6067   7.8423   7.9427   7.9632
     8.3391   8.4107   8.4269   9.2344   9.5511   9.6643  12.1293  12.7998
    13.0841  15.7209  19.8332  20.4816  22.0407  23.3528  23.4995  25.4705
    25.7610  26.1416  27.1621  27.6357  28.0410  29.2189  30.4280  30.9085
    31.5588  32.5782

          k = 0.0839 0.0839 0.1286 (  2804 PWs)   bands (ev):

  -101.7011-101.7005 -59.1198 -59.1191 -59.0745 -59.0704 -59.0601 -59.0561
     4.9122   6.1317   6.5045   7.3938   7.6185   7.8222   8.0019   8.0251
     8.3924   8.4208   8.5574   8.7453   9.3875   9.7826  11.7119  11.9479
    12.9038  14.3093  20.3899  21.1403  22.6090  22.7898  24.0123  24.5862
    25.0921  27.2548  27.9282  28.0967  29.2434  30.8249  31.7523  32.0077
    32.3738  32.5544

          k = 0.0839 0.1119 0.0000 (  2803 PWs)   bands (ev):

  -101.7009-101.7008 -59.1185 -59.1183 -59.0742 -59.0728 -59.0579 -59.0565
     3.7592   4.7024   6.3505   6.9404   7.6522   7.6862   7.7274   7.8110
     8.3228   8.3401   8.4559   8.5142   9.7213  10.0486  15.7628  16.8144
    17.7280  18.1131  18.9997  19.9480  19.9591  20.4595  21.5664  21.9398
    22.0998  24.3632  25.4466  27.3121  29.0829  29.1805  30.0137  30.1303
    33.2878  33.5861

          k = 0.0839 0.1119 0.0322 (  2797 PWs)   bands (ev):

  -101.7009-101.7008 -59.1187 -59.1184 -59.0742 -59.0728 -59.0579 -59.0565
     3.8951   4.8258   6.4063   6.9506   7.6678   7.6895   7.7820   7.8299
     8.3501   8.3689   8.4367   8.4970   9.7287  10.0859  14.3289  15.3236
    17.2034  18.0151  19.5872  19.8136  20.6573  20.7601  22.1938  23.1757
    23.5257  24.5789  25.6744  27.1717  28.5154  28.7653  29.6798  30.2573
    31.9270  33.3622

          k = 0.0839 0.1119 0.0643 (  2807 PWs)   bands (ev):

  -101.7009-101.7007 -59.1190 -59.1187 -59.0742 -59.0728 -59.0579 -59.0564
     4.2868   5.1642   6.5663   6.9637   7.7179   7.7362   7.8731   7.8958
     8.3800   8.3920   8.4549   8.5138   9.7416  10.1452  12.5401  13.4343
    15.3389  16.2754  20.1356  20.9108  21.9120  22.3894  23.6466  24.9105
    25.2139  25.7474  26.3944  26.7599  27.8389  28.3110  29.6217  29.8577
    30.7978  32.3045

          k = 0.0839 0.1119 0.0965 (  2795 PWs)   bands (ev):

  -101.7009-101.7007 -59.1193 -59.1191 -59.0741 -59.0727 -59.0578 -59.0564
     4.8643   5.5861   6.8543   6.9611   7.7781   7.8153   7.9079   8.0190
     8.3765   8.4118   8.4306   8.7373   9.6776   9.7777  11.6621  11.9915
    13.6620  14.5788  20.7434  21.5818  22.6792  24.4998  24.6832  25.3865
    25.8396  26.2625  26.6335  27.4811  29.0135  29.4543  29.8213  29.9775
    30.8876  30.8923

          k = 0.0839 0.1119 0.1286 (  2808 PWs)   bands (ev):

  -101.7009-101.7007 -59.1196 -59.1193 -59.0741 -59.0727 -59.0578 -59.0564
     5.3992   5.8515   6.9488   7.2893   7.7521   7.9123   7.9131   8.0904
     8.4434   8.4732   8.5125   8.8905   8.8947   9.2782  11.6231  12.0734
    12.3498  13.1859  21.3350  22.2096  23.2961  23.8292  24.7818  25.6347
    25.8837  26.6896  27.7693  28.1927  29.1711  30.1145  30.3944  31.0192
    31.1404  32.1853

          k = 0.1119 0.1119 0.0000 (  2795 PWs)   bands (ev):

  -101.7009-101.7008 -59.1185 -59.1184 -59.0749 -59.0744 -59.0563 -59.0558
     4.4964   5.2504   5.5636   6.2159   7.6091   7.6204   7.7406   7.7693
     8.2950   8.3030   8.5245   8.5452   9.6075   9.6972  16.5251  17.1913
    18.0792  18.1912  18.2714  18.8251  20.9818  21.2137  22.2708  22.3222
    22.4264  24.2177  24.8106  25.9781  27.5513  28.0893  30.3047  30.7566
    34.9377  35.0988

          k = 0.1119 0.1119 0.0322 (  2794 PWs)   bands (ev):

  -101.7009-101.7008 -59.1186 -59.1185 -59.0749 -59.0744 -59.0563 -59.0558
     4.6244   5.4008   5.6090   6.2702   7.6650   7.6806   7.7568   7.7798
     8.3062   8.3113   8.5078   8.5295   9.5894   9.6902  15.0787  15.9435
    16.1608  16.9800  20.2223  20.3527  22.2715  22.4215  22.6595  22.7395
    22.7569  24.3300  25.0881  26.0941  27.5593  28.1043  29.7451  30.1789
    33.3130  33.7318

          k = 0.1119 0.1119 0.0643 (  2800 PWs)   bands (ev):

  -101.7009-101.7008 -59.1189 -59.1188 -59.0748 -59.0744 -59.0563 -59.0558
     4.9788   5.7188   5.8411   6.4252   7.7714   7.8069   7.8314   7.8996
     8.3143   8.3764   8.4669   8.4902   9.5168   9.6475  13.2158  14.0202
    14.3042  15.1181  21.9288  22.4548  22.8319  22.9496  23.7165  24.6789
    24.9494  25.4150  26.2959  26.3742  27.6100  28.1577  28.8034  29.0279
    31.3083  32.0939

          k = 0.1119 0.1119 0.0965 (  2785 PWs)   bands (ev):

  -101.7009-101.7008 -59.1193 -59.1192 -59.0748 -59.0743 -59.0563 -59.0558
     5.4312   5.8321   6.5238   6.7093   7.8237   7.8392   8.0322   8.2087
     8.3236   8.4283   8.4461   8.5768   9.3119   9.4358  11.8465  12.4027
    12.7611  13.4660  22.6807  23.3672  23.7272  24.2595  25.2860  25.4441
    26.3471  26.5845  27.5037  27.8227  27.9007  28.7287  28.9913  29.1160
    29.5972  30.7145

          k = 0.1119 0.1119 0.1286 (  2800 PWs)   bands (ev):

  -101.7009-101.7008 -59.1195 -59.1194 -59.0748 -59.0743 -59.0563 -59.0558
     5.7221   5.8980   7.1491   7.2554   7.8628   7.9321   8.1240   8.3297
     8.4177   8.4631   8.4722   8.8341   8.8472   8.9193  11.4885  11.5281
    11.7418  12.1990  23.1436  23.7833  24.4767  25.3073  25.8483  26.0767
    26.6201  27.0197  27.4184  27.5703  27.6898  28.6671  29.3809  29.4195
    31.1831  31.7162

     the Fermi energy is    12.0768 ev

!    total energy              =    -823.72535276 Ry
     Harris-Foulkes estimate   =    -823.72533476 Ry
     estimated scf accuracy    <       0.00000002 Ry

     The total energy is the sum of the following terms:

     one-electron contribution =    -715.72085782 Ry
     hartree contribution      =     378.60852136 Ry
     xc contribution           =     -89.04234465 Ry
     ewald contribution        =    -397.56741089 Ry
     smearing contrib. (-TS)   =      -0.00326077 Ry

     convergence has been achieved in  12 iterations

     Forces acting on atoms (Ry/au):

     atom    1 type  1   force =     0.00000000    0.00000000    0.00000000
     atom    2 type  1   force =     0.00000000    0.00000000    0.00000000
     atom    3 type  2   force =     0.00000000    0.00000000    0.00000000
     atom    4 type  2   force =     0.00000000    0.00000000    0.00000000

     Total force =     0.000000     Total SCF correction =     0.000000
 
     init_run     :      0.81s CPU      0.85s WALL (       1 calls)
     electrons    :     26.59s CPU     27.48s WALL (       1 calls)
     forces       :      0.23s CPU      0.24s WALL (       1 calls)

     Called by init_run:
     wfcinit      :      0.53s CPU      0.56s WALL (       1 calls)
     potinit      :      0.08s CPU      0.09s WALL (       1 calls)

     Called by electrons:
     c_bands      :     23.07s CPU     23.77s WALL (      12 calls)
     sum_band     :      2.60s CPU      2.69s WALL (      12 calls)
     v_of_rho     :      0.65s CPU      0.73s WALL (      13 calls)
     newd         :      0.32s CPU      0.32s WALL (      13 calls)
     mix_rho      :      0.02s CPU      0.02s WALL (      12 calls)
     vdW_energy   :      0.15s CPU      0.18s WALL (      14 calls)
     vdW_ffts     :      0.19s CPU      0.22s WALL (      28 calls)
     vdW_v        :      0.10s CPU      0.11s WALL (      14 calls)

     Called by c_bands:
     init_us_2    :      0.11s CPU      0.12s WALL (    1950 calls)
     cegterg      :     22.42s CPU     23.11s WALL (     900 calls)

     Called by *egterg:
     h_psi        :      9.71s CPU     10.09s WALL (    2905 calls)
     s_psi        :      0.38s CPU      0.39s WALL (    2905 calls)
     g_psi        :      0.06s CPU      0.06s WALL (    1930 calls)
     cdiaghg      :      9.27s CPU      9.49s WALL (    2830 calls)

     Called by h_psi:
     add_vuspsi   :      0.40s CPU      0.41s WALL (    2905 calls)

     General routines
     calbec       :      0.86s CPU      0.89s WALL (    3880 calls)
     fft          :      0.32s CPU      0.36s WALL (     915 calls)
     ffts         :      0.00s CPU      0.01s WALL (      25 calls)
     fftw         :      8.75s CPU      9.10s WALL (  222818 calls)
     interpolate  :      0.02s CPU      0.02s WALL (      25 calls)
 
     Parallel routines
     fft_scatter  :      4.24s CPU      4.45s WALL (  223758 calls)
 
     PWSCF        :    27.83s CPU        28.82s WALL

 
   This run was terminated on:  17:34: 4  13Nov2017            

=------------------------------------------------------------------------------=
   JOB DONE.
=------------------------------------------------------------------------------=
