  python dir          : /home/users/vossj/suncat/lib/python2.7/site-packages/espresso
  espresso dir        : /home/users/vossj/suncat/s2/qe5/bin
  pseudo dir          : /home/users/vossj/suncat/psp/gbrv1.5pbe
  ase-espresso py git : ffa2778-git



     Program PWSCF v.5.1rc2 starts on 15Nov2017 at  6:42:56 

     This program is part of the open-source Quantum ESPRESSO suite
     for quantum simulation of materials; please cite
         "P. Giannozzi et al., J. Phys.:Condens. Matter 21 395502 (2009);
          URL http://www.quantum-espresso.org", 
     in publications or presentations arising from this work. More details at
     http://www.quantum-espresso.org/quote

     Parallel version (MPI), running on    16 processors
     R & G space division:  proc/nbgrp/npool/nimage =      16
     Reading input from pw.inp
     Message from routine read_cards :
     DEPRECATED: no units specified in CELL_PARAMETERS card

     Current dimensions of program PWSCF are:
     Max number of different atomic species (ntypx) = 10
     Max number of k-points (npk) =  40000
     Max angular momentum in pseudopotentials (lmaxx) =  3

     **************************************************************************
     Initializing libbeef V0.1.2 with the BEEF-vdW functional.
     Citation: Wellendorff et al., PRB 85, 235149 (2012).
     **************************************************************************


     IMPORTANT: XC functional enforced from input :
     Exchange-correlation      = BEEF-VDW ( 1  4 27 13 2)
     Any further DFT definition will be discarded
     Please, verify this is what you really want


     Subspace diagonalization in iterative solution of the eigenvalue problem:
     scalapack distributed-memory algorithm (size of sub-group:  2*  2 procs)

     Found symmetry operation: I + ( -0.5000 -0.5000  0.0000)
     This is a supercell, fractional translations are disabled
 
     Parallelization info
     --------------------
     sticks:   dense  smooth     PW     G-vecs:    dense   smooth      PW
     Min         200      80     23                 8048     2031     319
     Max         201      81     24                 8051     2043     322
     Sum        3209    1289    373               128797    32565    5113
 


     bravais-lattice index     =            0
     lattice parameter (alat)  =       1.8897  a.u.
     unit-cell volume          =     535.1295 (a.u.)^3
     number of atoms/cell      =            4
     number of atomic types    =            2
     number of electrons       =        52.00
     number of Kohn-Sham states=           46
     kinetic-energy cutoff     =      58.7989  Ry
     charge density cutoff     =     587.9892  Ry
     convergence threshold     =      1.0E-06
     mixing beta               =       0.1000
     number of iterations used =           10  plain     mixing
     Exchange-correlation      = BEEF-VDW ( 1  4 27 13 2)

     celldm(1)=   1.889726  celldm(2)=   0.000000  celldm(3)=   0.000000
     celldm(4)=   0.000000  celldm(5)=   0.000000  celldm(6)=   0.000000

     crystal axes: (cart. coord. in units of alat)
               a(1) = (   4.387926   0.000000   0.000000 )  
               a(2) = (   0.000000   4.387926   0.000000 )  
               a(3) = (   0.000000   0.000000   4.118543 )  

     reciprocal axes: (cart. coord. in units 2 pi/alat)
               b(1) = (  0.227898  0.000000  0.000000 )  
               b(2) = (  0.000000  0.227898  0.000000 )  
               b(3) = (  0.000000  0.000000  0.242804 )  


     PseudoPot. # 1 for Ti read from file:
     /home/users/vossj/suncat/psp/gbrv1.5pbe/Ti.UPF
     MD5 check sum: 88a00a6731bd790ddea75d31a80cb452
     Pseudo is Ultrasoft + core correction, Zval = 12.0
     Generated by new atomic code, or converted to UPF format
     Using radial grid of  851 points,  6 beta functions with: 
                l(1) =   0
                l(2) =   0
                l(3) =   1
                l(4) =   1
                l(5) =   2
                l(6) =   2
     Q(r) pseudized with  6 coefficients,  rinner =    1.000   1.000   1.000
                                                       1.000   1.000

     PseudoPot. # 2 for Sn read from file:
     /home/users/vossj/suncat/psp/gbrv1.5pbe/Sn.UPF
     MD5 check sum: 469debedee59599fedebd795477fea03
     Pseudo is Ultrasoft + core correction, Zval = 14.0
     Generated by new atomic code, or converted to UPF format
     Using radial grid of  891 points,  6 beta functions with: 
                l(1) =   0
                l(2) =   0
                l(3) =   1
                l(4) =   1
                l(5) =   2
                l(6) =   2
     Q(r) pseudized with  8 coefficients,  rinner =    1.350   1.350   1.350
                                                       1.350   1.350

     vdW kernel table read from file vdW_kernel_table
     MD5 check sum: 095c7af220d748ca6e76c0b4c6cfb241

     atomic species   valence    mass     pseudopotential
        Ti1           12.00    47.88000     Ti( 1.00)
        Sn1           14.00   118.71000     Sn( 1.00)

     16 Sym. Ops., with inversion, found



   Cartesian axes

     site n.     atom                  positions (alat units)
         1           Ti1 tau(   1) = (   0.0000000   0.0000000   0.0000000  )
         2           Ti1 tau(   2) = (   2.1939630   2.1939630   0.0000000  )
         3           Sn1 tau(   3) = (   2.1939630   0.0000000   2.0592717  )
         4           Sn1 tau(   4) = (   0.0000000   2.1939630   2.0592717  )

     number of k points=    75  Fermi-Dirac smearing, width (Ry)=  0.0073
                       cart. coord. in units 2pi/alat
        k(    1) = (   0.0000000   0.0000000   0.0000000), wk =   0.0027435
        k(    2) = (   0.0000000   0.0000000   0.0269783), wk =   0.0054870
        k(    3) = (   0.0000000   0.0000000   0.0539565), wk =   0.0054870
        k(    4) = (   0.0000000   0.0000000   0.0809348), wk =   0.0054870
        k(    5) = (   0.0000000   0.0000000   0.1079130), wk =   0.0054870
        k(    6) = (   0.0000000   0.0253220   0.0000000), wk =   0.0109739
        k(    7) = (   0.0000000   0.0253220   0.0269783), wk =   0.0219479
        k(    8) = (   0.0000000   0.0253220   0.0539565), wk =   0.0219479
        k(    9) = (   0.0000000   0.0253220   0.0809348), wk =   0.0219479
        k(   10) = (   0.0000000   0.0253220   0.1079130), wk =   0.0219479
        k(   11) = (   0.0000000   0.0506440   0.0000000), wk =   0.0109739
        k(   12) = (   0.0000000   0.0506440   0.0269783), wk =   0.0219479
        k(   13) = (   0.0000000   0.0506440   0.0539565), wk =   0.0219479
        k(   14) = (   0.0000000   0.0506440   0.0809348), wk =   0.0219479
        k(   15) = (   0.0000000   0.0506440   0.1079130), wk =   0.0219479
        k(   16) = (   0.0000000   0.0759660   0.0000000), wk =   0.0109739
        k(   17) = (   0.0000000   0.0759660   0.0269783), wk =   0.0219479
        k(   18) = (   0.0000000   0.0759660   0.0539565), wk =   0.0219479
        k(   19) = (   0.0000000   0.0759660   0.0809348), wk =   0.0219479
        k(   20) = (   0.0000000   0.0759660   0.1079130), wk =   0.0219479
        k(   21) = (   0.0000000   0.1012880   0.0000000), wk =   0.0109739
        k(   22) = (   0.0000000   0.1012880   0.0269783), wk =   0.0219479
        k(   23) = (   0.0000000   0.1012880   0.0539565), wk =   0.0219479
        k(   24) = (   0.0000000   0.1012880   0.0809348), wk =   0.0219479
        k(   25) = (   0.0000000   0.1012880   0.1079130), wk =   0.0219479
        k(   26) = (   0.0253220   0.0253220   0.0000000), wk =   0.0109739
        k(   27) = (   0.0253220   0.0253220   0.0269783), wk =   0.0219479
        k(   28) = (   0.0253220   0.0253220   0.0539565), wk =   0.0219479
        k(   29) = (   0.0253220   0.0253220   0.0809348), wk =   0.0219479
        k(   30) = (   0.0253220   0.0253220   0.1079130), wk =   0.0219479
        k(   31) = (   0.0253220   0.0506440   0.0000000), wk =   0.0219479
        k(   32) = (   0.0253220   0.0506440   0.0269783), wk =   0.0438957
        k(   33) = (   0.0253220   0.0506440   0.0539565), wk =   0.0438957
        k(   34) = (   0.0253220   0.0506440   0.0809348), wk =   0.0438957
        k(   35) = (   0.0253220   0.0506440   0.1079130), wk =   0.0438957
        k(   36) = (   0.0253220   0.0759660   0.0000000), wk =   0.0219479
        k(   37) = (   0.0253220   0.0759660   0.0269783), wk =   0.0438957
        k(   38) = (   0.0253220   0.0759660   0.0539565), wk =   0.0438957
        k(   39) = (   0.0253220   0.0759660   0.0809348), wk =   0.0438957
        k(   40) = (   0.0253220   0.0759660   0.1079130), wk =   0.0438957
        k(   41) = (   0.0253220   0.1012880   0.0000000), wk =   0.0219479
        k(   42) = (   0.0253220   0.1012880   0.0269783), wk =   0.0438957
        k(   43) = (   0.0253220   0.1012880   0.0539565), wk =   0.0438957
        k(   44) = (   0.0253220   0.1012880   0.0809348), wk =   0.0438957
        k(   45) = (   0.0253220   0.1012880   0.1079130), wk =   0.0438957
        k(   46) = (   0.0506440   0.0506440   0.0000000), wk =   0.0109739
        k(   47) = (   0.0506440   0.0506440   0.0269783), wk =   0.0219479
        k(   48) = (   0.0506440   0.0506440   0.0539565), wk =   0.0219479
        k(   49) = (   0.0506440   0.0506440   0.0809348), wk =   0.0219479
        k(   50) = (   0.0506440   0.0506440   0.1079130), wk =   0.0219479
        k(   51) = (   0.0506440   0.0759660   0.0000000), wk =   0.0219479
        k(   52) = (   0.0506440   0.0759660   0.0269783), wk =   0.0438957
        k(   53) = (   0.0506440   0.0759660   0.0539565), wk =   0.0438957
        k(   54) = (   0.0506440   0.0759660   0.0809348), wk =   0.0438957
        k(   55) = (   0.0506440   0.0759660   0.1079130), wk =   0.0438957
        k(   56) = (   0.0506440   0.1012880   0.0000000), wk =   0.0219479
        k(   57) = (   0.0506440   0.1012880   0.0269783), wk =   0.0438957
        k(   58) = (   0.0506440   0.1012880   0.0539565), wk =   0.0438957
        k(   59) = (   0.0506440   0.1012880   0.0809348), wk =   0.0438957
        k(   60) = (   0.0506440   0.1012880   0.1079130), wk =   0.0438957
        k(   61) = (   0.0759660   0.0759660   0.0000000), wk =   0.0109739
        k(   62) = (   0.0759660   0.0759660   0.0269783), wk =   0.0219479
        k(   63) = (   0.0759660   0.0759660   0.0539565), wk =   0.0219479
        k(   64) = (   0.0759660   0.0759660   0.0809348), wk =   0.0219479
        k(   65) = (   0.0759660   0.0759660   0.1079130), wk =   0.0219479
        k(   66) = (   0.0759660   0.1012880   0.0000000), wk =   0.0219479
        k(   67) = (   0.0759660   0.1012880   0.0269783), wk =   0.0438957
        k(   68) = (   0.0759660   0.1012880   0.0539565), wk =   0.0438957
        k(   69) = (   0.0759660   0.1012880   0.0809348), wk =   0.0438957
        k(   70) = (   0.0759660   0.1012880   0.1079130), wk =   0.0438957
        k(   71) = (   0.1012880   0.1012880   0.0000000), wk =   0.0109739
        k(   72) = (   0.1012880   0.1012880   0.0269783), wk =   0.0219479
        k(   73) = (   0.1012880   0.1012880   0.0539565), wk =   0.0219479
        k(   74) = (   0.1012880   0.1012880   0.0809348), wk =   0.0219479
        k(   75) = (   0.1012880   0.1012880   0.1079130), wk =   0.0219479

     Dense  grid:   128797 G-vectors     FFT dimensions: (  72,  72,  64)

     Smooth grid:    32565 G-vectors     FFT dimensions: (  45,  45,  40)

     Largest allocated arrays     est. size (Mb)     dimensions
        Kohn-Sham Wavefunctions         0.18 Mb     (     260,   46)
        NL pseudopotentials             0.29 Mb     (     260,   72)
        Each V/rho on FFT grid          0.32 Mb     (   20736)
        Each G-vector array             0.06 Mb     (    8050)
        G-vector shells                 0.02 Mb     (    3201)
     Largest temporary arrays     est. size (Mb)     dimensions
        Auxiliary wavefunctions         0.73 Mb     (     260,  184)
        Each subspace H/S matrix        0.13 Mb     (      92,   92)
        Each <psi_i|beta_j> matrix      0.05 Mb     (      72,   46)
        Arrays for rho mixing           3.16 Mb     (   20736,   10)

     Check: negative/imaginary core charge=   -0.000001    0.000000

     Initial potential from superposition of free atoms
     Check: negative starting charge=   -0.002553

     starting charge   47.99982, renormalised to   52.00000

     negative rho (up, down):  2.766E-03 0.000E+00


     ************************************************************************
     *
     * You are using vdW-DF for exchange-correlation in this calculation.
     * Please cite the following three references that made this development
     * possible:
     *
     *   M. Dion, H. Rydberg, E. Schroder, D. C. Langreth, and
     *   B. I. Lundqvist, Phys. Rev. Lett. 92, 246401 (2004).
     *
     *   T. Thonhauser, V. R. Cooper, S. Li, A. Puzder, P. Hyldgaard, and
     *   D. C. Langreth, Phys. Rev. B 76, 125112 (2007).
     *
     *   G. Roman-Perez and J. M. Soler, Phys. Rev. Lett. 103, 096102 (2009).
     *
     *
     * If you are using vdW-DF2, please also cite:
     *
     *   K. Lee, E. D. Murray, L. Kong, B. I. Lundqvist, and
     *   D. C. Langreth, Phys. Rev. B 82, 081101(R) (2010).
     *
     *
     * If you are calculating the stress with vdW-DF, please also cite:
     *
     *   R. Sabatini, E. Kucukbenli, B. Kolb, T. Thonhauser, and
     *   S. de Gironcoli, J. Phys.: Condens. Matter 24, 424209 (2012).
     *
     ************************************************************************

     Carrying out vdW-DF run using the following parameters:

     Nqs =      20    Nr_points =    1024   r_max =   100.000
     q_mesh =
               0.00001000     0.04494208     0.09755937     0.15916263
               0.23128650     0.31572767     0.41458969     0.53033537
               0.66584808     0.82450364     1.01025438     1.22772762
               1.48234092     1.78043706     2.12944203     2.53805004
               3.01644009     3.57652955     4.23227104     5.00000000

     Gradients computed in reciprocal space

     ************************************************************************


     Starting wfc are   38 randomized atomic wfcs +    8 random wfc

     total cpu time spent up to now is        1.7 secs

     per-process dynamical memory:    39.1 Mb

     Self-consistent Calculation

     iteration #  1     ecut=    58.80 Ry     beta=0.10
     Davidson diagonalization with overlap
     ethr =  1.00E-02,  avg # of iterations =  5.0

     negative rho (up, down):  2.669E-03 0.000E+00

     total cpu time spent up to now is        9.0 secs

     total energy              =    -562.17403429 Ry
     Harris-Foulkes estimate   =    -562.79161462 Ry
     estimated scf accuracy    <       3.63168556 Ry

     iteration #  2     ecut=    58.80 Ry     beta=0.10
     Davidson diagonalization with overlap
     ethr =  6.98E-03,  avg # of iterations =  1.0

     negative rho (up, down):  2.338E-03 0.000E+00

     total cpu time spent up to now is       11.8 secs

     total energy              =    -560.91204761 Ry
     Harris-Foulkes estimate   =    -562.21700999 Ry
     estimated scf accuracy    <       2.21405397 Ry

     iteration #  3     ecut=    58.80 Ry     beta=0.10
     Davidson diagonalization with overlap
     ethr =  4.26E-03,  avg # of iterations =  2.0

     negative rho (up, down):  2.152E-03 0.000E+00

     total cpu time spent up to now is       15.2 secs

     total energy              =    -561.29603467 Ry
     Harris-Foulkes estimate   =    -561.34362918 Ry
     estimated scf accuracy    <       0.11860473 Ry

     iteration #  4     ecut=    58.80 Ry     beta=0.10
     Davidson diagonalization with overlap
     ethr =  2.28E-04,  avg # of iterations =  2.7

     negative rho (up, down):  2.112E-03 0.000E+00

     total cpu time spent up to now is       18.9 secs

     total energy              =    -561.32192848 Ry
     Harris-Foulkes estimate   =    -561.32303913 Ry
     estimated scf accuracy    <       0.01885943 Ry

     iteration #  5     ecut=    58.80 Ry     beta=0.10
     Davidson diagonalization with overlap
     ethr =  3.63E-05,  avg # of iterations =  2.0

     negative rho (up, down):  1.494E-03 0.000E+00

     total cpu time spent up to now is       22.1 secs

     total energy              =    -561.31919047 Ry
     Harris-Foulkes estimate   =    -561.32253837 Ry
     estimated scf accuracy    <       0.01354064 Ry

     iteration #  6     ecut=    58.80 Ry     beta=0.10
     Davidson diagonalization with overlap
     ethr =  2.60E-05,  avg # of iterations =  1.7

     negative rho (up, down):  1.361E-03 0.000E+00

     total cpu time spent up to now is       25.2 secs

     total energy              =    -561.31964697 Ry
     Harris-Foulkes estimate   =    -561.32034876 Ry
     estimated scf accuracy    <       0.00234419 Ry

     iteration #  7     ecut=    58.80 Ry     beta=0.10
     Davidson diagonalization with overlap
     ethr =  4.51E-06,  avg # of iterations =  2.9

     negative rho (up, down):  1.248E-03 0.000E+00

     total cpu time spent up to now is       29.2 secs

     total energy              =    -561.31983362 Ry
     Harris-Foulkes estimate   =    -561.31996605 Ry
     estimated scf accuracy    <       0.00066124 Ry

     iteration #  8     ecut=    58.80 Ry     beta=0.10
     Davidson diagonalization with overlap
     ethr =  1.27E-06,  avg # of iterations =  2.1

     negative rho (up, down):  1.193E-03 0.000E+00

     total cpu time spent up to now is       32.7 secs

     total energy              =    -561.31994981 Ry
     Harris-Foulkes estimate   =    -561.31998011 Ry
     estimated scf accuracy    <       0.00019180 Ry

     iteration #  9     ecut=    58.80 Ry     beta=0.10
     Davidson diagonalization with overlap
     ethr =  3.69E-07,  avg # of iterations =  1.0

     negative rho (up, down):  1.190E-03 0.000E+00

     total cpu time spent up to now is       35.6 secs

     total energy              =    -561.31997514 Ry
     Harris-Foulkes estimate   =    -561.31996372 Ry
     estimated scf accuracy    <       0.00005240 Ry

     iteration # 10     ecut=    58.80 Ry     beta=0.10
     Davidson diagonalization with overlap
     ethr =  1.01E-07,  avg # of iterations =  1.0

     negative rho (up, down):  1.199E-03 0.000E+00

     total cpu time spent up to now is       38.4 secs

     total energy              =    -561.31996195 Ry
     Harris-Foulkes estimate   =    -561.31997620 Ry
     estimated scf accuracy    <       0.00004248 Ry

     iteration # 11     ecut=    58.80 Ry     beta=0.10
     Davidson diagonalization with overlap
     ethr =  8.17E-08,  avg # of iterations =  2.0

     negative rho (up, down):  1.198E-03 0.000E+00

     total cpu time spent up to now is       41.8 secs

     End of self-consistent calculation

          k = 0.0000 0.0000 0.0000 (  4111 PWs)   bands (ev):

   -43.5829 -43.5464 -19.9329 -19.8904 -19.8305 -19.8305 -19.6611 -19.6611
    -8.4165  -8.3194  -8.1878  -8.1827  -8.1827  -8.0962  -8.0805  -8.0805
    -8.0180  -7.9617   2.7317   8.4533  10.9931  10.9931  12.0578  12.2828
    12.7708  13.0184  13.5671  13.5671  15.0346  15.0346  15.4801  15.8359
    16.4054  17.4206  18.3253  18.3253  18.4388  18.6719  21.5366  21.5366
    23.1994  23.4289  24.2141  25.0343  25.5723  25.5723

          k = 0.0000 0.0000 0.0270 (  4087 PWs)   bands (ev):

   -43.5828 -43.5464 -19.9345 -19.8917 -19.8306 -19.8306 -19.6611 -19.6611
    -8.4163  -8.3180  -8.1852  -8.1818  -8.1818  -8.0962  -8.0803  -8.0803
    -8.0150  -7.9617   2.8279   8.5559  10.8555  10.8555  10.9573  12.7779
    13.0640  13.1498  13.8358  13.8358  14.7218  14.9077  14.9077  15.8347
    16.4060  18.0010  18.5189  18.5961  18.5961  19.0142  21.0325  21.0325
    23.0211  23.0324  24.1310  25.4239  26.1807  26.6225

          k = 0.0000 0.0000 0.0540 (  4079 PWs)   bands (ev):

   -43.5827 -43.5463 -19.9387 -19.8949 -19.8308 -19.8308 -19.6612 -19.6612
    -8.4158  -8.3142  -8.1799  -8.1799  -8.1785  -8.0960  -8.0798  -8.0798
    -8.0077  -7.9616   3.0990   8.8643   9.6719  10.5759  10.5759  12.7962
    13.4421  13.5350  13.5978  14.5077  14.5077  14.6393  14.6393  15.8316
    16.4074  18.0377  18.7538  19.2804  19.2804  19.9717  19.9717  20.5256
    22.3040  22.6371  23.9078  26.5782  26.9301  27.1702

          k = 0.0000 0.0000 0.0809 (  4067 PWs)   bands (ev):

   -43.5825 -43.5461 -19.9433 -19.8986 -19.8310 -19.8310 -19.6612 -19.6612
    -8.4152  -8.3101  -8.1777  -8.1777  -8.1710  -8.0957  -8.0793  -8.0793
    -7.9992  -7.9616   3.4764   8.5488   9.3784  10.3262  10.3262  12.1853
    12.8174  13.9099  14.1376  14.3921  14.3921  15.4062  15.4062  15.8280
    16.4090  17.2579  18.7798  18.7798  19.2196  20.1452  20.1452  21.7628
    22.2747  22.5064  23.7337  25.8101  25.8101  27.2664

          k = 0.0000 0.0000 0.1079 (  4059 PWs)   bands (ev):

   -43.5824 -43.5460 -19.9464 -19.9010 -19.8311 -19.8311 -19.6613 -19.6613
    -8.4148  -8.3074  -8.1763  -8.1763  -8.1661  -8.0956  -8.0790  -8.0790
    -7.9938  -7.9616   3.7907   7.8454  10.0825  10.1871  10.1871  11.0901
    12.8314  14.0649  14.2524  14.2524  14.8164  15.8257  16.4101  16.4329
    16.4345  16.4345  17.6016  17.6016  19.4232  20.8650  20.8650  21.5140
    22.0662  23.1797  24.8398  24.8398  25.3022  26.9903

          k = 0.0000 0.0253 0.0000 (  4079 PWs)   bands (ev):

   -43.5818 -43.5475 -19.9317 -19.8918 -19.8261 -19.8255 -19.6669 -19.6662
    -8.4037  -8.3115  -8.1819  -8.1795  -8.1789  -8.1018  -8.0835  -8.0829
    -8.0223  -7.9765   2.8340   8.0943  10.9406  11.0803  12.1205  12.2423
    12.7707  13.3767  13.4152  13.6046  14.9817  15.2028  15.6535  15.6959
    16.3055  17.6168  17.7002  17.9598  18.7395  18.8331  21.2059  21.7646
    22.9561  23.7224  24.7421  25.3871  25.5814  26.2387

          k = 0.0000 0.0253 0.0270 (  4070 PWs)   bands (ev):

   -43.5817 -43.5474 -19.9333 -19.8931 -19.8261 -19.8255 -19.6669 -19.6663
    -8.4035  -8.3102  -8.1793  -8.1788  -8.1784  -8.1017  -8.0833  -8.0829
    -8.0194  -7.9765   2.9290   8.1739  10.8754  10.9454  11.0140  12.7818
    13.0197  13.2544  13.8321  13.8602  14.8406  14.9624  15.0629  15.7152
    16.3130  18.0472  18.1084  18.2200  18.6373  19.3088  20.6696  21.2440
    23.0699  23.5502  24.6850  25.4745  26.2103  26.4257

          k = 0.0000 0.0253 0.0540 (  4064 PWs)   bands (ev):

   -43.5816 -43.5473 -19.9373 -19.8963 -19.8262 -19.8257 -19.6669 -19.6663
    -8.4030  -8.3068  -8.1770  -8.1769  -8.1727  -8.1016  -8.0830  -8.0829
    -8.0121  -7.9764   3.1961   8.4006   9.7536  10.6707  10.7345  12.8116
    13.3318  13.5226  13.8483  14.4865  14.5397  14.5446  14.7768  15.7372
    16.3435  18.1539  18.6559  18.7887  18.8478  19.8674  20.1743  20.6753
    22.8233  23.2137  24.5272  25.9503  26.1259  26.1570

          k = 0.0000 0.0253 0.0809 (  4070 PWs)   bands (ev):

   -43.5814 -43.5472 -19.9419 -19.8999 -19.8263 -19.8259 -19.6668 -19.6664
    -8.4025  -8.3030  -8.1755  -8.1748  -8.1653  -8.1015  -8.0832  -8.0824
    -8.0038  -7.9764   3.5668   8.6491   8.7200  10.4249  10.6445  12.4955
    12.8492  13.8421  14.1077  14.2701  14.4993  15.2409  15.2492  15.7472
    16.4506  17.3126  18.4085  18.9992  19.5692  19.5825  19.7013  22.3122
    22.5616  23.0012  24.4182  24.8852  25.2933  27.8732

          k = 0.0000 0.0253 0.1079 (  4081 PWs)   bands (ev):

   -43.5813 -43.5471 -19.9449 -19.9023 -19.8264 -19.8260 -19.6668 -19.6664
    -8.4022  -8.3005  -8.1746  -8.1735  -8.1604  -8.1014  -8.0833  -8.0820
    -7.9984  -7.9765   3.8738   7.9582   8.9840  10.2878  10.7207  11.6845
    12.8767  14.0628  14.1118  14.2856  14.7801  15.7506  15.7749  15.7781
    16.4258  16.8866  17.8832  17.9486  19.7742  20.0707  20.1629  21.9954
    23.0903  23.6903  24.1017  24.3982  25.5736  27.8503

          k = 0.0000 0.0506 0.0000 (  4066 PWs)   bands (ev):

   -43.5786 -43.5506 -19.9282 -19.8957 -19.8131 -19.8109 -19.6834 -19.6811
    -8.3667  -8.2894  -8.1706  -8.1685  -8.1653  -8.1181  -8.0923  -8.0901
    -8.0351  -8.0186   3.1396   7.2197  11.0551  11.3302  12.1667  12.2820
    12.7559  13.0679  13.7142  13.9091  14.8332  15.2634  15.6562  16.0294
    16.0717  17.0542  17.1894  17.9997  19.0455  19.0904  20.6669  22.3227
    22.3869  24.9737  25.6103  26.0059  26.0789  26.2245

          k = 0.0000 0.0506 0.0270 (  4066 PWs)   bands (ev):

   -43.5785 -43.5506 -19.9297 -19.8969 -19.8131 -19.8109 -19.6833 -19.6811
    -8.3665  -8.2884  -8.1699  -8.1685  -8.1628  -8.1181  -8.0921  -8.0907
    -8.0323  -8.0186   3.2308   7.2791  11.0628  11.1736  11.2049  12.7762
    12.9339  12.9942  13.9252  14.1144  14.6540  15.2603  15.4921  15.5428
    16.1071  17.3478  17.4552  18.1714  19.0965  19.5377  20.3633  21.8093
    22.6751  24.6790  25.8683  26.0741  26.1059  26.2723

          k = 0.0000 0.0506 0.0540 (  4072 PWs)   bands (ev):

   -43.5784 -43.5505 -19.9335 -19.9000 -19.8129 -19.8111 -19.6831 -19.6812
    -8.3662  -8.2858  -8.1686  -8.1682  -8.1564  -8.1181  -8.0922  -8.0916
    -8.0253  -8.0187   3.4861   7.4436   9.9917  10.9470  11.0355  12.8351
    12.9590  13.3749  14.2885  14.4059  14.4878  14.6883  15.0509  15.4910
    16.2421  17.7828  17.9507  18.0557  19.1120  20.1050  20.7050  20.8885
    23.4537  24.1158  24.5649  25.7598  25.9794  26.0136

          k = 0.0000 0.0506 0.0809 (  4066 PWs)   bands (ev):

   -43.5782 -43.5504 -19.9378 -19.9035 -19.8128 -19.8113 -19.6828 -19.6812
    -8.3657  -8.2827  -8.1689  -8.1663  -8.1490  -8.1181  -8.0938  -8.0910
    -8.0187  -8.0172   3.8373   7.6638   8.9428  10.7141  10.9134  12.9235
    12.9388  13.7245  13.9391  14.2673  14.7188  14.8775  14.9474  15.5133
    16.5733  16.7680  18.5547  18.7046  19.1347  19.5588  20.1054  22.6624
    23.6213  23.6224  23.6240  25.2884  25.9472  26.7248

          k = 0.0000 0.0506 0.1079 (  4075 PWs)   bands (ev):

   -43.5782 -43.5503 -19.9406 -19.9058 -19.8127 -19.8114 -19.6826 -19.6813
    -8.3655  -8.2807  -8.1691  -8.1651  -8.1443  -8.1181  -8.0949  -8.0906
    -8.0187  -8.0120   4.1239   7.8356   8.2884  10.5836  10.7738  12.7858
    13.0081  13.7131  14.0554  14.3844  14.6789  15.1251  15.2048  15.5276
    15.7051  17.1251  18.5894  18.9623  19.1449  19.1519  20.1232  22.7359
    23.3426  23.3509  24.7273  24.9308  26.2158  28.2543

          k = 0.0000 0.0760 0.0000 (  4072 PWs)   bands (ev):

   -43.5737 -43.5554 -19.9228 -19.9016 -19.7926 -19.7885 -19.7079 -19.7038
    -8.3091  -8.2565  -8.1569  -8.1531  -8.1469  -8.1382  -8.1059  -8.1019
    -8.0821  -8.0555   3.6432   6.1854  11.4112  11.7031  12.1363  12.4322
    12.6799  12.6942  13.8881  14.2167  14.6157  14.6848  15.8395  16.1924
    16.2955  16.4340  16.6065  18.1087  19.1611  19.5519  20.8873  22.2321
    23.2844  25.4313  25.6634  26.0335  26.3153  26.4884

          k = 0.0000 0.0760 0.0270 (  4069 PWs)   bands (ev):

   -43.5736 -43.5554 -19.9242 -19.9028 -19.7924 -19.7885 -19.7077 -19.7038
    -8.3090  -8.2559  -8.1564  -8.1538  -8.1464  -8.1362  -8.1056  -8.1030
    -8.0821  -8.0528   3.7282   6.2447  11.4079  11.4304  11.5993  12.6025
    12.7013  12.8305  14.0076  14.3016  14.4052  14.7661  15.8823  15.9376
    16.0082  16.7227  16.8787  17.9046  19.7100  19.7222  21.0321  22.2737
    22.5914  24.5896  24.9372  26.4818  26.9792  27.1104

          k = 0.0000 0.0760 0.0540 (  4075 PWs)   bands (ev):

   -43.5735 -43.5553 -19.9276 -19.9058 -19.7920 -19.7887 -19.7073 -19.7038
    -8.3088  -8.2543  -8.1558  -8.1550  -8.1459  -8.1304  -8.1059  -8.1049
    -8.0821  -8.0460   3.9647   6.4079  10.3629  11.3081  11.3782  12.6079
    12.7657  13.2073  14.0023  14.2477  14.4829  14.8840  15.3549  15.6023
    16.2514  17.2053  17.2460  17.3391  19.9924  20.9593  21.1183  21.4267
    23.2464  23.4021  23.8315  26.8018  26.9113  27.0412

          k = 0.0000 0.0760 0.0809 (  4065 PWs)   bands (ev):

   -43.5734 -43.5552 -19.9315 -19.9092 -19.7916 -19.7888 -19.7068 -19.7039
    -8.3085  -8.2523  -8.1581  -8.1534  -8.1457  -8.1234  -8.1092  -8.1042
    -8.0821  -8.0383   4.2854   6.6234   9.4052  10.9209  11.1722  12.8743
    13.0259  13.6069  13.6188  14.4410  14.6620  14.8666  14.9601  15.2662
    16.2048  16.7772  17.5652  17.9943  20.2117  20.3064  20.8157  22.2064
    22.9312  23.3104  24.7891  26.3770  26.5120  26.8676

          k = 0.0000 0.0760 0.1079 (  4055 PWs)   bands (ev):

   -43.5733 -43.5551 -19.9341 -19.9114 -19.7913 -19.7889 -19.7064 -19.7040
    -8.3084  -8.2509  -8.1596  -8.1523  -8.1456  -8.1187  -8.1114  -8.1037
    -8.0821  -8.0333   4.5419   6.7886   8.8073  10.5968  11.0548  13.0209
    13.3262  13.6499  14.0480  14.5336  14.5346  14.7200  14.8038  15.1861
    15.2776  17.3363  17.7606  18.4515  19.4607  20.3342  20.7748  21.7778
    22.3747  25.1584  25.3586  26.3783  26.8312  27.4928

          k = 0.0000 0.1013 0.0000 (  4080 PWs)   bands (ev):

   -43.5677 -43.5614 -19.9161 -19.9087 -19.7662 -19.7609 -19.7368 -19.7315
    -8.2369  -8.2180  -8.1793  -8.1581  -8.1402  -8.1352  -8.1225  -8.1174
    -8.1110  -8.0817   4.3349   5.1952  11.9013  12.1219  12.2045  12.3297
    12.3926  12.4749  14.1118  14.3000  14.3382  14.3639  15.7479  15.9254
    16.1926  16.3189  17.0218  17.7054  19.2759  19.4336  22.5446  22.8966
    24.0501  24.3549  24.7167  25.5095  25.7476  25.8701

          k = 0.0000 0.1013 0.0270 (  4079 PWs)   bands (ev):

   -43.5677 -43.5613 -19.9173 -19.9099 -19.7660 -19.7610 -19.7366 -19.7315
    -8.2368  -8.2178  -8.1793  -8.1581  -8.1398  -8.1365  -8.1221  -8.1189
    -8.1085  -8.0791   4.4115   5.2624  11.6725  11.7832  12.0588  12.3640
    12.4652  12.6028  14.0880  14.2003  14.3343  14.4036  15.9419  16.0707
    16.2002  16.2258  16.9108  17.4138  19.8945  20.0093  22.4995  22.6557
    23.4134  23.4592  24.2905  24.7470  26.7737  27.2153

          k = 0.0000 0.1013 0.0540 (  4080 PWs)   bands (ev):

   -43.5675 -43.5612 -19.9205 -19.9129 -19.7655 -19.7611 -19.7360 -19.7316
    -8.2368  -8.2170  -8.1791  -8.1582  -8.1398  -8.1387  -8.1225  -8.1213
    -8.1020  -8.0726   4.6234   5.4474  10.8166  11.2307  11.9104  12.4360
    12.6343  12.9561  13.9197  14.0510  14.4265  14.5316  15.8457  15.9169
    16.4363  16.7772  16.7821  16.7984  20.8091  21.2514  22.1678  22.2357
    22.5446  23.0630  23.1584  24.8182  28.3946  28.5675

          k = 0.0000 0.1013 0.0809 (  4070 PWs)   bands (ev):

   -43.5674 -43.5611 -19.9241 -19.9163 -19.7648 -19.7612 -19.7354 -19.7317
    -8.2367  -8.2161  -8.1788  -8.1581  -8.1436  -8.1374  -8.1267  -8.1203
    -8.0947  -8.0651   4.9066   5.6919   9.9823  10.5590  11.7582  12.3942
    13.1938  13.4438  13.7094  14.0309  14.5438  14.6507  15.4215  15.6222
    15.9570  16.6841  17.0678  17.4623  20.7782  21.1496  21.4166  22.0389
    22.4486  23.5421  24.5705  24.9238  27.7451  28.8251

          k = 0.0000 0.1013 0.1079 (  4056 PWs)   bands (ev):

   -43.5673 -43.5610 -19.9264 -19.9185 -19.7644 -19.7613 -19.7349 -19.7318
    -8.2367  -8.2153  -8.1787  -8.1581  -8.1462  -8.1366  -8.1295  -8.1197
    -8.0899  -8.0602   5.1281   5.8799   9.4555  10.1156  11.6665  12.3618
    13.6075  13.9436  14.0248  14.0329  14.6220  14.6723  14.8681  14.9405
    15.5951  16.6265  17.6012  17.9574  20.4002  20.6409  21.0924  21.3778
    22.6397  24.6851  25.9657  26.5859  27.2421  28.2296

          k = 0.0253 0.0253 0.0000 (  4061 PWs)   bands (ev):

   -43.5807 -43.5485 -19.9306 -19.8931 -19.8336 -19.8091 -19.6843 -19.6592
    -8.3927  -8.3040  -8.1826  -8.1753  -8.1694  -8.1069  -8.0924  -8.0790
    -8.0316  -7.9851   2.9364   7.8948  10.2910  11.7195  12.1747  12.1963
    12.7416  13.2260  13.5843  13.7030  15.0479  15.2596  15.6013  15.8503
    16.2445  16.7772  17.7970  18.7098  18.7137  18.8289  21.0111  21.8047
    22.5566  23.5664  25.6338  25.7556  25.8263  26.5890

          k = 0.0253 0.0253 0.0270 (  4068 PWs)   bands (ev):

   -43.5807 -43.5485 -19.9321 -19.8943 -19.8336 -19.8091 -19.6842 -19.6592
    -8.3925  -8.3029  -8.1821  -8.1728  -8.1689  -8.1069  -8.0926  -8.0789
    -8.0290  -7.9848   3.0301   7.9646  10.2691  11.0648  11.5098  12.7495
    12.9713  13.4763  13.5482  14.0361  14.9281  15.0752  15.1826  15.6266
    16.2606  17.0877  18.2372  18.7504  18.9436  19.2662  20.7141  20.8812
    23.3156  23.4130  25.3031  25.3792  25.9325  26.5075

          k = 0.0253 0.0253 0.0540 (  4067 PWs)   bands (ev):

   -43.5805 -43.5484 -19.9361 -19.8975 -19.8337 -19.8092 -19.6842 -19.6592
    -8.3921  -8.2998  -8.1810  -8.1673  -8.1663  -8.1069  -8.0929  -8.0787
    -8.0230  -7.9838   3.2932   8.1605   9.8322  10.2073  11.1607  12.8010
    13.4133  13.6218  13.8387  14.4760  14.5271  14.6848  14.7122  15.6597
    16.3073  17.7712  18.4180  18.5730  19.4867  19.5431  20.5499  20.7151
    23.0687  23.3047  24.5837  25.6693  25.8801  27.2277

          k = 0.0253 0.0253 0.0809 (  4071 PWs)   bands (ev):

   -43.5804 -43.5482 -19.9405 -19.9011 -19.8337 -19.8094 -19.6841 -19.6592
    -8.3915  -8.2963  -8.1799  -8.1656  -8.1589  -8.1069  -8.0934  -8.0786
    -8.0164  -7.9821   3.6571   8.4295   8.7477  10.1301  10.9032  12.8644
    12.9244  13.6756  14.0791  14.3834  14.4631  14.9776  15.2459  15.6780
    16.3045  17.6936  18.2165  18.4868  18.7777  20.3156  20.3306  22.6014
    22.7465  22.7481  23.7519  25.5491  26.0871  27.1647

          k = 0.0253 0.0253 0.1079 (  4072 PWs)   bands (ev):

   -43.5803 -43.5482 -19.9434 -19.9034 -19.8338 -19.8095 -19.6841 -19.6592
    -8.3912  -8.2939  -8.1792  -8.1645  -8.1540  -8.1068  -8.0937  -8.0785
    -8.0126  -7.9806   3.9568   8.0701   8.6462  10.0776  10.7955  12.2879
    12.9126  13.8161  14.1853  14.3375  14.7476  15.2509  15.6854  15.8330
    16.1173  17.3812  17.4650  18.3778  18.9738  20.2822  20.9506  22.3658
    22.6307  22.8589  24.6408  25.1677  25.9404  27.0872

          k = 0.0253 0.0506 0.0000 (  4074 PWs)   bands (ev):

   -43.5777 -43.5515 -19.9273 -19.8968 -19.8315 -19.7853 -19.7100 -19.6629
    -8.3607  -8.2831  -8.1792  -8.1570  -8.1544  -8.1220  -8.1058  -8.0806
    -8.0620  -8.0064   3.2417   7.2194  10.0599  12.1071  12.2084  12.2870
    12.6409  12.8866  13.8505  13.9147  14.9486  15.2474  15.6833  16.0194
    16.1133  16.3119  18.1593  18.3217  19.1023  19.2055  20.5104  21.9371
    22.2484  24.1387  25.3946  25.9971  26.4335  26.9382

          k = 0.0253 0.0506 0.0270 (  4069 PWs)   bands (ev):

   -43.5777 -43.5514 -19.9288 -19.8980 -19.8315 -19.7853 -19.7099 -19.6629
    -8.3605  -8.2822  -8.1791  -8.1544  -8.1541  -8.1221  -8.1063  -8.0807
    -8.0604  -8.0051   3.3316   7.2743  10.0857  11.2073  11.8795  12.5753
    12.9250  13.1822  13.8584  14.1204  14.7967  15.2509  15.5101  15.7347
    16.1533  16.3047  18.3332  18.6891  19.2208  19.5392  20.3523  21.0853
    23.2785  23.8700  24.8381  25.6334  26.8912  27.0769

          k = 0.0253 0.0506 0.0540 (  4067 PWs)   bands (ev):

   -43.5775 -43.5513 -19.9325 -19.9010 -19.8314 -19.7853 -19.7097 -19.6628
    -8.3601  -8.2798  -8.1791  -8.1532  -8.1482  -8.1222  -8.1075  -8.0809
    -8.0569  -8.0017   3.5828   7.4255  10.0608  10.1406  11.4239  12.6902
    13.2417  13.4123  14.3058  14.3903  14.4929  14.8306  15.0080  15.4453
    16.2433  16.9209  18.0299  19.2587  19.2879  19.4876  20.9183  21.1204
    23.0878  23.9397  24.2436  25.7965  26.2377  27.2278

          k = 0.0253 0.0506 0.0809 (  4071 PWs)   bands (ev):

   -43.5774 -43.5512 -19.9366 -19.9045 -19.8313 -19.7854 -19.7095 -19.6628
    -8.3597  -8.2770  -8.1792  -8.1522  -8.1410  -8.1223  -8.1090  -8.0812
    -8.0534  -7.9973   3.9269   7.6255   9.0362  10.1823  11.0502  12.8428
    13.3853  13.4953  14.2510  14.2726  14.5813  14.6893  15.0334  15.4722
    16.1870  17.3464  17.5658  18.7330  19.3486  19.8854  21.0122  22.1574
    22.8705  23.9098  23.9811  25.4211  26.6178  27.1742

          k = 0.0253 0.0506 0.1079 (  4064 PWs)   bands (ev):

   -43.5773 -43.5511 -19.9394 -19.9067 -19.8312 -19.7854 -19.7093 -19.6627
    -8.3594  -8.2751  -8.1794  -8.1514  -8.1363  -8.1223  -8.1100  -8.0813
    -8.0514  -7.9941   4.2061   7.7791   8.3971  10.1965  10.8225  13.0024
    13.3075  13.3509  14.2285  14.4371  14.5631  14.7447  15.4255  15.4882
    15.6574  17.3113  18.0082  18.0586  19.4048  20.3044  20.8939  21.6006
    23.5586  23.7051  24.7063  25.2506  26.9372  27.8229

          k = 0.0253 0.0760 0.0000 (  4076 PWs)   bands (ev):

   -43.5731 -43.5560 -19.9223 -19.9023 -19.8195 -19.7570 -19.7403 -19.6770
    -8.3107  -8.2519  -8.1699  -8.1472  -8.1363  -8.1289  -8.1220  -8.1139
    -8.0880  -8.0331   3.7448   6.2575  10.3214  12.0584  12.0900  12.5412
    12.5892  12.6734  14.0356  14.0919  14.7462  14.7738  15.6758  15.9715
    16.3346  16.6121  17.7540  18.2494  19.2047  19.5731  20.8248  21.7930
    22.9797  24.4379  25.1514  26.1414  26.3412  27.0039

          k = 0.0253 0.0760 0.0270 (  4077 PWs)   bands (ev):

   -43.5731 -43.5559 -19.9236 -19.9035 -19.8194 -19.7569 -19.7401 -19.6770
    -8.3105  -8.2514  -8.1702  -8.1472  -8.1364  -8.1267  -8.1226  -8.1131
    -8.0884  -8.0312   3.8282   6.3134  10.3668  11.4154  12.0369  12.1649
    12.9598  12.9907  14.0402  14.1855  14.5635  14.8399  15.9050  16.0018
    16.0164  16.2572  18.0743  18.1131  19.7201  19.8283  20.9859  21.2601
    23.4053  23.4460  25.6200  25.9617  26.3589  26.7613

          k = 0.0253 0.0760 0.0540 (  4073 PWs)   bands (ev):

   -43.5730 -43.5558 -19.9270 -19.9064 -19.8191 -19.7569 -19.7398 -19.6768
    -8.3102  -8.2500  -8.1714  -8.1474  -8.1363  -8.1251  -8.1201  -8.1114
    -8.0891  -8.0263   4.0601   6.4665  10.4151  10.4724  11.4884  12.2922
    13.2265  13.2469  14.0832  14.2476  14.4717  14.9257  15.5333  15.5541
    16.2263  16.3914  17.5160  18.5979  19.8318  20.5183  21.1613  21.8472
    22.1961  23.7498  25.0603  25.8106  26.7670  27.2093

          k = 0.0253 0.0760 0.0809 (  4069 PWs)   bands (ev):

   -43.5728 -43.5557 -19.9308 -19.9098 -19.8188 -19.7568 -19.7394 -19.6767
    -8.3097  -8.2483  -8.1729  -8.1475  -8.1362  -8.1274  -8.1134  -8.1097
    -8.0898  -8.0204   4.3732   6.6664   9.4895  10.5684  10.9863  12.4677
    13.3356  13.5153  14.0828  14.1739  14.8125  14.8835  15.0497  15.2382
    15.9894  16.8821  17.1964  19.0314  19.2587  20.6777  21.2049  21.7000
    23.1047  24.3128  24.9664  25.5114  26.3452  27.4786

          k = 0.0253 0.0760 0.1079 (  4064 PWs)   bands (ev):

   -43.5727 -43.5556 -19.9333 -19.9119 -19.8186 -19.7567 -19.7392 -19.6766
    -8.3094  -8.2470  -8.1742  -8.1476  -8.1360  -8.1290  -8.1089  -8.1087
    -8.0902  -8.0164   4.6219   6.8176   8.9110  10.6128  10.6633  12.6263
    13.2540  13.9386  14.2462  14.2487  14.5796  14.7980  15.0257  15.1816
    15.2620  17.2053  17.5314  18.6703  19.3328  20.6321  20.8938  21.4074
    23.6681  25.0715  25.2837  25.7441  27.3925  27.6850

          k = 0.0253 0.1013 0.0000 (  4088 PWs)   bands (ev):

   -43.5675 -43.5615 -19.9159 -19.9090 -19.7986 -19.7711 -19.7272 -19.6994
    -8.2478  -8.2155  -8.1791  -8.1790  -8.1560  -8.1394  -8.1176  -8.1008
    -8.0969  -8.0638   4.4344   5.2882  10.8542  11.5051  12.1050  12.2682
    12.8296  12.8296  14.2221  14.2589  14.4484  14.5046  15.5957  15.7614
    16.8267  17.0845  17.2122  17.8047  19.2750  19.4052  22.3738  22.5578
    23.3627  23.8495  24.6888  24.8099  26.3473  26.6589

          k = 0.0253 0.1013 0.0270 (  4086 PWs)   bands (ev):

   -43.5675 -43.5615 -19.9172 -19.9102 -19.7985 -19.7710 -19.7271 -19.6994
    -8.2476  -8.2154  -8.1790  -8.1788  -8.1567  -8.1402  -8.1179  -8.1013
    -8.0945  -8.0616   4.5092   5.3530  10.9037  11.5530  11.6618  11.9063
    13.0374  13.0397  14.0602  14.2691  14.3851  14.5684  15.7599  15.8310
    16.4886  16.5574  17.6539  17.6852  19.8974  20.0501  21.5916  22.4432
    22.6988  24.1636  24.8019  25.1740  26.1906  26.4462

          k = 0.0253 0.1013 0.0540 (  4073 PWs)   bands (ev):

   -43.5673 -43.5614 -19.9202 -19.9131 -19.7981 -19.7705 -19.7270 -19.6992
    -8.2471  -8.2149  -8.1790  -8.1779  -8.1587  -8.1426  -8.1186  -8.1023
    -8.0886  -8.0560   4.7156   5.5308  10.8456  11.0227  11.2599  11.6765
    13.3199  13.3211  13.8770  13.9895  14.5422  14.6528  15.8659  15.9150
    16.0924  16.2103  17.4619  17.9288  20.4485  21.1927  21.4716  21.5090
    22.9555  23.7417  24.3054  24.8652  27.4152  27.6649

          k = 0.0253 0.1013 0.0809 (  4066 PWs)   bands (ev):

   -43.5672 -43.5613 -19.9237 -19.9164 -19.7976 -19.7701 -19.7268 -19.6990
    -8.2466  -8.2141  -8.1790  -8.1771  -8.1614  -8.1456  -8.1192  -8.1031
    -8.0818  -8.0495   4.9898   5.7637  10.0527  10.6142  11.1433  11.8162
    13.5257  13.6408  13.8154  13.8907  14.6872  14.7402  15.3863  15.6397
    15.8178  16.3413  17.5541  18.2167  19.7690  20.3964  22.1079  22.7398
    22.9662  23.8501  24.6473  24.8915  27.6933  27.9867

          k = 0.0253 0.1013 0.1079 (  4056 PWs)   bands (ev):

   -43.5671 -43.5612 -19.9260 -19.9186 -19.7974 -19.7698 -19.7267 -19.6989
    -8.2463  -8.2135  -8.1789  -8.1765  -8.1633  -8.1477  -8.1195  -8.1036
    -8.0774  -8.0452   5.2026   5.9410   9.5519  10.2006  11.2053  11.9050
    13.4921  13.7475  14.2248  14.2467  14.7337  14.7758  14.8977  14.9640
    15.6343  16.4441  17.9241  18.5165  19.2589  19.8776  21.9806  22.7441
    22.7637  24.6659  25.9310  26.5680  27.2499  27.9847

          k = 0.0506 0.0506 0.0000 (  4074 PWs)   bands (ev):

   -43.5753 -43.5538 -19.9247 -19.8998 -19.8414 -19.7544 -19.7426 -19.6544
    -8.3423  -8.2652  -8.1823  -8.1359  -8.1340  -8.1338  -8.1227  -8.1072
    -8.0755  -8.0029   3.5463   7.0565   9.2439  11.9787  11.9851  12.5552
    12.5719  12.9058  13.8551  14.0855  15.0818  15.1458  15.4122  15.9234
    16.2110  17.0499  18.5230  18.6941  19.6268  19.6600  20.0439  21.2207
    22.2786  23.5580  24.3336  25.9528  26.6497  27.2301

          k = 0.0506 0.0506 0.0270 (  4072 PWs)   bands (ev):

   -43.5752 -43.5538 -19.9261 -19.9010 -19.8413 -19.7544 -19.7425 -19.6543
    -8.3421  -8.2646  -8.1828  -8.1357  -8.1339  -8.1317  -8.1236  -8.1062
    -8.0756  -8.0014   3.6321   7.0997   9.3049  11.2980  12.0393  12.0763
    12.9015  13.4608  13.8791  14.0781  14.9584  15.2264  15.4374  15.8035
    16.2343  16.3984  18.6238  19.4093  19.6578  19.8143  20.0846  20.6295
    23.0235  23.5366  24.0448  25.7515  26.6974  27.7251

          k = 0.0506 0.0506 0.0540 (  4077 PWs)   bands (ev):

   -43.5751 -43.5537 -19.9295 -19.9039 -19.8410 -19.7544 -19.7421 -19.6542
    -8.3416  -8.2630  -8.1840  -8.1352  -8.1343  -8.1271  -8.1245  -8.1036
    -8.0761  -7.9972   3.8707   7.2172   9.4650  10.2583  11.5491  12.1786
    13.1374  13.9430  14.0970  14.2048  14.7889  14.9746  15.2949  15.4069
    16.2239  16.2620  18.4881  18.7499  19.8256  20.2278  21.0292  21.6297
    21.9675  23.7527  24.8963  25.3667  27.0384  27.0745

          k = 0.0506 0.0506 0.0809 (  4072 PWs)   bands (ev):

   -43.5749 -43.5536 -19.9334 -19.9072 -19.8407 -19.7544 -19.7417 -19.6541
    -8.3410  -8.2609  -8.1855  -8.1347  -8.1347  -8.1288  -8.1186  -8.1009
    -8.0766  -7.9923   4.1941   7.3685   9.3083   9.6578  11.1342  12.3863
    13.1899  13.9839  14.2771  14.5741  14.6350  14.6422  14.9422  15.3377
    15.9442  16.8335  17.9158  18.1450  20.0114  20.7633  21.0123  22.0028
    22.9615  23.5910  24.7886  26.2459  26.8123  26.8704

          k = 0.0506 0.0506 0.1079 (  4071 PWs)   bands (ev):

   -43.5749 -43.5535 -19.9360 -19.9093 -19.8405 -19.7543 -19.7415 -19.6541
    -8.3406  -8.2594  -8.1867  -8.1350  -8.1343  -8.1304  -8.1142  -8.0994
    -8.0770  -7.9889   4.4523   7.4807   8.7149   9.7902  10.8933  12.5959
    13.1072  13.9962  14.2298  14.3809  14.5582  14.6777  15.3372  15.3589
    15.4864  17.2438  17.6342  17.7879  20.1657  20.4088  21.1809  21.9649
    23.1808  24.3278  25.4721  26.0561  26.7629  27.7582

          k = 0.0506 0.0760 0.0000 (  4087 PWs)   bands (ev):

   -43.5715 -43.5575 -19.9206 -19.9044 -19.8402 -19.7759 -19.7228 -19.6573
    -8.3110  -8.2390  -8.1791  -8.1605  -8.1531  -8.1403  -8.1163  -8.1019
    -8.0767  -8.0135   4.0466   6.4264   9.1611  11.2183  11.8951  12.2424
    12.7357  13.2798  13.8237  14.3276  14.8570  14.9984  15.4152  16.2267
    16.5209  17.7197  18.5697  18.6444  19.5291  19.8254  20.7385  20.8838
    22.6770  23.2834  23.8509  25.4371  27.1362  27.4036

          k = 0.0506 0.0760 0.0270 (  4080 PWs)   bands (ev):

   -43.5714 -43.5575 -19.9219 -19.9055 -19.8401 -19.7757 -19.7227 -19.6573
    -8.3107  -8.2387  -8.1800  -8.1598  -8.1533  -8.1415  -8.1163  -8.0997
    -8.0770  -8.0117   4.1255   6.4707   9.2340  11.2325  11.4634  11.9800
    12.9396  13.5092  13.8990  14.2755  14.8100  14.9859  15.5474  16.0884
    16.2211  17.0098  18.6071  19.3687  19.9088  19.9784  20.3115  21.1091
    22.2130  23.6591  24.4783  25.9725  26.1632  27.2875

          k = 0.0506 0.0760 0.0540 (  4081 PWs)   bands (ev):

   -43.5713 -43.5574 -19.9250 -19.9083 -19.8396 -19.7752 -19.7226 -19.6571
    -8.3100  -8.2380  -8.1824  -8.1580  -8.1539  -8.1449  -8.1166  -8.0941
    -8.0778  -8.0072   4.3433   6.5897   9.4321  10.5439  11.4461  11.5172
    13.1431  13.7528  13.9939  14.4038  14.6574  14.9934  15.4002  16.0090
    16.0223  16.2057  18.2251  19.0844  20.0791  20.9053  20.9197  21.3387
    22.1511  24.5554  24.7538  25.9549  26.5159  27.1519

          k = 0.0506 0.0760 0.0809 (  4072 PWs)   bands (ev):

   -43.5712 -43.5573 -19.9286 -19.9115 -19.8391 -19.7746 -19.7225 -19.6569
    -8.3092  -8.2369  -8.1855  -8.1560  -8.1544  -8.1486  -8.1168  -8.0877
    -8.0788  -8.0019   4.6334   6.7403   9.6871   9.7291  11.0916  11.6445
    13.2033  13.6418  14.2065  14.5072  14.8263  14.8938  15.1524  15.4345
    15.7713  16.3943  17.8378  18.6361  20.0344  20.4184  21.2076  22.8404
    23.2765  24.4487  25.4243  25.8192  26.3484  27.3919

          k = 0.0506 0.0760 0.1079 (  4066 PWs)   bands (ev):

   -43.5711 -43.5572 -19.9309 -19.9135 -19.8388 -19.7743 -19.7224 -19.6568
    -8.3087  -8.2360  -8.1877  -8.1548  -8.1547  -8.1512  -8.1169  -8.0834
    -8.0794  -7.9984   4.8594   6.8498   9.2128   9.8782  10.8265  11.8106
    13.1593  13.5066  14.4818  14.5910  14.6933  15.0471  15.1369  15.1413
    15.2272  16.6863  17.8200  18.3035  19.4733  20.6469  21.4146  22.7648
    24.1399  25.2880  25.7354  25.7632  27.1047  27.6711

          k = 0.0506 0.1013 0.0000 (  4096 PWs)   bands (ev):

   -43.5669 -43.5620 -19.9155 -19.9098 -19.8279 -19.8056 -19.6939 -19.6712
    -8.2679  -8.2164  -8.2084  -8.1788  -8.1701  -8.1567  -8.0983  -8.0845
    -8.0672  -8.0361   4.7277   5.5542   9.6341  10.3720  11.8967  12.0135
    12.9602  13.1911  14.1349  14.5260  14.5701  14.8033  15.6801  16.0255
    17.3027  18.0727  18.1082  18.3468  19.3880  19.5528  21.3692  22.2668
    22.4122  23.3884  23.5961  25.0343  26.4047  27.7292

          k = 0.0506 0.1013 0.0270 (  4093 PWs)   bands (ev):

   -43.5669 -43.5620 -19.9166 -19.9109 -19.8277 -19.8053 -19.6938 -19.6711
    -8.2675  -8.2159  -8.2084  -8.1791  -8.1714  -8.1580  -8.0986  -8.0850
    -8.0652  -8.0342   4.7968   5.6111   9.7000  10.4224  11.6056  11.7916
    13.0806  13.3018  14.1645  14.5069  14.5371  14.7764  15.7410  16.0247
    16.6028  17.0174  18.7175  19.0993  19.9128  20.0820  20.4979  21.3153
    22.8344  24.1493  24.7278  25.0572  26.3410  26.4897

          k = 0.0506 0.1013 0.0540 (  4079 PWs)   bands (ev):

   -43.5667 -43.5619 -19.9195 -19.9137 -19.8271 -19.8048 -19.6936 -19.6709
    -8.2666  -8.2146  -8.2084  -8.1796  -8.1747  -8.1617  -8.0995  -8.0860
    -8.0600  -8.0293   4.9858   5.7647   9.8802  10.5194  11.0357  11.3143
    13.2438  13.4502  14.1369  14.4039  14.6108  14.7917  15.7542  15.9622
    16.0151  16.2126  18.6165  19.3940  19.5278  20.1170  21.5674  21.6768
    23.1562  24.9226  24.9656  25.7258  26.3246  26.3798

          k = 0.0506 0.1013 0.0809 (  4076 PWs)   bands (ev):

   -43.5666 -43.5618 -19.9228 -19.9169 -19.8264 -19.8041 -19.6934 -19.6707
    -8.2655  -8.2133  -8.2081  -8.1800  -8.1789  -8.1661  -8.1004  -8.0871
    -8.0540  -8.0237   5.2321   5.9604  10.1163  10.2157  10.8156  10.8980
    13.2847  13.4118  14.2184  14.3608  14.7972  14.8559  15.2912  15.5494
    15.8704  16.1196  18.3435  19.1200  19.1674  19.6891  22.7430  23.5251
    23.6505  24.7256  24.9220  24.9999  27.1568  27.5852

          k = 0.0506 0.1013 0.1079 (  4062 PWs)   bands (ev):

   -43.5665 -43.5617 -19.9249 -19.9189 -19.8260 -19.8037 -19.6933 -19.6705
    -8.2649  -8.2125  -8.2077  -8.1818  -8.1800  -8.1692  -8.1009  -8.0878
    -8.0500  -8.0200   5.4184   6.1044   9.8276  10.3114  10.4743  11.0273
    13.2263  13.2917  14.5217  14.5320  14.8398  14.9243  14.9449  15.0105
    15.7302  16.2205  18.2494  18.7845  18.9486  19.7504  23.0238  23.5008
    24.3166  24.5570  25.8945  26.4629  27.3928  27.6482

          k = 0.0760 0.0760 0.0000 (  4074 PWs)   bands (ev):

   -43.5690 -43.5599 -19.9181 -19.9074 -19.8502 -19.8083 -19.6917 -19.6489
    -8.3028  -8.2203  -8.2078  -8.1821  -8.1642  -8.1569  -8.0973  -8.0714
    -8.0685  -8.0077   4.5386   6.4411   8.4345  10.2007  11.7570  11.9655
    12.8460  13.4556  13.8494  14.6210  14.7438  15.1210  15.6457  16.4025
    16.9947  18.5827  18.7390  19.1134  19.4967  20.0194  20.9241  21.1205
    22.1984  22.8482  23.0132  24.8501  27.7219  27.8388

          k = 0.0760 0.0760 0.0270 (  4085 PWs)   bands (ev):

   -43.5690 -43.5598 -19.9192 -19.9085 -19.8499 -19.8081 -19.6916 -19.6488
    -8.3024  -8.2205  -8.2071  -8.1836  -8.1645  -8.1587  -8.0976  -8.0718
    -8.0665  -8.0060   4.6094   6.4699   8.5319  10.2468  11.4854  11.8174
    12.9410  13.4658  14.0105  14.5619  14.7592  15.1016  15.6760  16.3384
    16.3585  17.5772  19.2184  19.4358  19.5500  20.5787  20.9897  21.2449
    21.5358  23.5816  23.8085  25.2463  26.6974  27.4095

          k = 0.0760 0.0760 0.0540 (  4073 PWs)   bands (ev):

   -43.5689 -43.5597 -19.9221 -19.9111 -19.8493 -19.8074 -19.6915 -19.6486
    -8.3014  -8.2206  -8.2055  -8.1873  -8.1653  -8.1631  -8.0983  -8.0730
    -8.0614  -8.0015   4.8026   6.5470   8.8021  10.3229  10.9547  11.4905
    13.0659  13.4413  14.3724  14.4519  14.7937  15.0592  15.3746  16.0129
    16.0831  16.5587  18.2981  19.3641  19.8917  21.1576  21.5681  21.8759
    22.3401  24.1260  25.2278  25.6945  26.3348  27.1569

          k = 0.0760 0.0760 0.0809 (  4092 PWs)   bands (ev):

   -43.5687 -43.5596 -19.9253 -19.9141 -19.8486 -19.8066 -19.6912 -19.6483
    -8.3005  -8.2204  -8.2037  -8.1919  -8.1683  -8.1662  -8.0992  -8.0744
    -8.0556  -7.9964   5.0539   6.6434   9.1671  10.0461  10.8084  11.1581
    13.0937  13.2554  14.4719  14.7545  14.8169  14.8697  15.0307  15.6096
    15.8765  16.1848  17.8263  19.0961  19.2600  21.3525  22.1469  23.4566
    23.7541  24.2200  25.4796  26.3541  26.9285  27.4079

          k = 0.0760 0.0760 0.1079 (  4071 PWs)   bands (ev):

   -43.5687 -43.5596 -19.9274 -19.9161 -19.8481 -19.8061 -19.6911 -19.6482
    -8.2998  -8.2198  -8.2026  -8.1952  -8.1715  -8.1667  -8.0998  -8.0752
    -8.0517  -7.9929   5.2437   6.7123   9.4584   9.6787  10.9355  10.9503
    13.0077  13.0410  14.6250  14.6880  14.8167  15.0168  15.0295  15.1229
    15.5218  16.3413  17.6735  18.6272  19.1769  21.4828  22.3217  23.8473
    23.9069  25.8742  26.3137  26.6715  26.6966  27.2801

          k = 0.0760 0.1013 0.0000 (  4085 PWs)   bands (ev):

   -43.5660 -43.5628 -19.9147 -19.9111 -19.8479 -19.8334 -19.6673 -19.6524
    -8.2825  -8.2499  -8.1996  -8.1801  -8.1790  -8.1703  -8.0823  -8.0732
    -8.0380  -8.0164   5.1938   5.9277   8.5677   9.2636  11.7097  11.7793
    13.0011  13.2087  14.2337  14.5384  14.8716  15.0543  16.0247  16.3393
    17.7419  18.5152  18.5976  18.6204  20.2680  20.3093  20.9093  21.1925
    22.0640  22.7349  23.6833  25.3330  25.4711  26.7743

          k = 0.0760 0.1013 0.0270 (  4087 PWs)   bands (ev):

   -43.5660 -43.5628 -19.9158 -19.9121 -19.8476 -19.8331 -19.6672 -19.6523
    -8.2820  -8.2493  -8.1999  -8.1808  -8.1805  -8.1722  -8.0828  -8.0738
    -8.0361  -8.0146   5.2520   5.9678   8.6574   9.3326  11.5490  11.6604
    13.0349  13.2202  14.3100  14.5728  14.8255  15.0226  15.9869  16.2542
    16.8331  17.3695  19.2455  19.4998  20.2409  20.4944  20.6052  20.9545
    22.8924  23.7900  23.9548  25.3017  25.5504  26.5037

          k = 0.0760 0.1013 0.0540 (  4095 PWs)   bands (ev):

   -43.5659 -43.5627 -19.9185 -19.9147 -19.8468 -19.8323 -19.6670 -19.6521
    -8.2808  -8.2480  -8.2008  -8.1854  -8.1817  -8.1769  -8.0840  -8.0752
    -8.0314  -8.0101   5.4081   6.0735   8.9121   9.5270  11.1519  11.3654
    13.0725  13.1977  14.4870  14.6542  14.7292  14.9402  15.6658  15.9245
    16.2191  16.5208  18.4483  19.0592  20.2334  20.9940  21.8784  22.1774
    23.4824  24.8169  25.2990  25.6026  25.8966  25.9976

          k = 0.0760 0.1013 0.0809 (  4083 PWs)   bands (ev):

   -43.5657 -43.5626 -19.9215 -19.9176 -19.8460 -19.8314 -19.6667 -19.6518
    -8.2796  -8.2465  -8.2014  -8.1909  -8.1840  -8.1813  -8.0854  -8.0767
    -8.0259  -8.0049   5.6042   6.2020   9.2728   9.8018  10.6908  11.0224
    13.0166  13.0334  14.5937  14.7081  14.7740  14.8694  15.1819  15.4205
    16.0661  16.1159  17.9689  18.4134  20.2006  21.0351  23.4669  23.8689
    24.2432  24.6320  25.3524  25.7718  27.0681  27.1368

          k = 0.0760 0.1013 0.1079 (  4064 PWs)   bands (ev):

   -43.5657 -43.5625 -19.9234 -19.9195 -19.8454 -19.8309 -19.6665 -19.6516
    -8.2787  -8.2455  -8.2013  -8.1950  -8.1870  -8.1826  -8.0863  -8.0777
    -8.0223  -8.0014   5.7461   6.2919   9.5849  10.0735  10.3283  10.7736
    12.8035  12.8957  14.6832  14.6912  14.8906  14.8989  14.9507  15.0406
    15.8328  16.0823  17.7959  18.0987  20.1713  21.0563  23.5824  24.4137
    24.7881  25.6082  25.9159  26.2546  27.5065  27.8137

          k = 0.1013 0.1013 0.0000 (  4088 PWs)   bands (ev):

   -43.5649 -43.5638 -19.9137 -19.9124 -19.8559 -19.8509 -19.6505 -19.6453
    -8.2851  -8.2740  -8.1907  -8.1840  -8.1820  -8.1790  -8.0719  -8.0687
    -8.0174  -8.0097   5.7594   6.1290   8.0036   8.3625  11.6142  11.6374
    13.0380  13.1123  14.4092  14.5180  15.0767  15.1469  16.3638  16.4983
    18.3775  18.4044  18.4231  19.2298  19.4075  20.2059  21.7314  21.9853
    22.1883  22.1961  24.5528  24.7661  25.5650  25.9304

          k = 0.1013 0.1013 0.0270 (  4086 PWs)   bands (ev):

   -43.5649 -43.5638 -19.9147 -19.9134 -19.8556 -19.8506 -19.6504 -19.6452
    -8.2846  -8.2735  -8.1912  -8.1843  -8.1842  -8.1814  -8.0725  -8.0694
    -8.0156  -8.0080   5.7986   6.1511   8.1154   8.4563  11.5252  11.5620
    13.0346  13.1018  14.4568  14.5513  15.0510  15.1302  16.2213  16.3280
    17.2389  17.5782  18.6597  18.9377  20.5035  20.5124  21.7225  22.1472
    22.9109  23.1637  24.6256  24.8569  25.5524  26.0604

          k = 0.1013 0.1013 0.0540 (  4086 PWs)   bands (ev):

   -43.5648 -43.5637 -19.9172 -19.9159 -19.8547 -19.8497 -19.6501 -19.6449
    -8.2833  -8.2721  -8.1929  -8.1892  -8.1872  -8.1853  -8.0741  -8.0710
    -8.0112  -8.0036   5.9007   6.2098   8.4303   8.7257  11.2861  11.3642
    12.9860  13.0276  14.5785  14.6386  14.9790  15.0882  15.6820  15.8093
    16.5228  16.7211  18.0229  18.3111  21.4514  22.0114  22.1331  22.4255
    24.3305  24.6549  25.0764  25.3342  25.5380  25.8798

          k = 0.1013 0.1013 0.0809 (  4079 PWs)   bands (ev):

   -43.5647 -43.5636 -19.9200 -19.9187 -19.8537 -19.8487 -19.6497 -19.6446
    -8.2820  -8.2707  -8.1972  -8.1938  -8.1925  -8.1865  -8.0759  -8.0729
    -8.0060  -7.9986   6.0229   6.2822   8.8711   9.1169  10.9805  11.1279
    12.7894  12.8081  14.7209  14.7443  14.8665  15.0392  15.0588  15.2620
    16.1682  16.1732  17.7558  17.9149  21.3688  21.8392  23.9895  24.2724
    24.4727  24.9303  25.5597  25.7246  26.7796  27.0958

          k = 0.1013 0.1013 0.1079 (  4066 PWs)   bands (ev):

   -43.5646 -43.5635 -19.9219 -19.9205 -19.8531 -19.8480 -19.6495 -19.6443
    -8.2811  -8.2697  -8.2011  -8.1982  -8.1936  -8.1872  -8.0771  -8.0741
    -8.0026  -7.9952   6.1070   6.3334   9.2443   9.4696  10.7365  10.9673
    12.4704  12.5666  14.7531  14.7549  14.8175  14.8203  15.0036  15.0367
    15.9141  15.9906  17.6716  17.7658  21.2742  21.7184  24.3767  24.6207
    25.5779  25.7534  26.0603  26.1536  27.4382  27.6881

     the Fermi energy is    13.7724 ev

!    total energy              =    -561.32002465 Ry
     Harris-Foulkes estimate   =    -561.31997116 Ry
     estimated scf accuracy    <       0.00000043 Ry

     The total energy is the sum of the following terms:

     one-electron contribution =    -168.12520437 Ry
     hartree contribution      =     116.59111577 Ry
     xc contribution           =    -126.87329224 Ry
     ewald contribution        =    -382.90490520 Ry
     smearing contrib. (-TS)   =      -0.00773861 Ry

     convergence has been achieved in  11 iterations

     Forces acting on atoms (Ry/au):


     negative rho (up, down):  1.198E-03 0.000E+00
     atom    1 type  1   force =     0.00000000    0.00000000    0.00000000
     atom    2 type  1   force =     0.00000000    0.00000000    0.00000000
     atom    3 type  2   force =     0.00000000    0.00000000    0.00000000
     atom    4 type  2   force =     0.00000000    0.00000000    0.00000000

     Total force =     0.000000     Total SCF correction =     0.000000
 
     init_run     :      1.36s CPU      1.42s WALL (       1 calls)
     electrons    :     39.14s CPU     40.15s WALL (       1 calls)
     forces       :      0.40s CPU      0.41s WALL (       1 calls)

     Called by init_run:
     wfcinit      :      0.93s CPU      0.97s WALL (       1 calls)
     potinit      :      0.11s CPU      0.13s WALL (       1 calls)

     Called by electrons:
     c_bands      :     32.79s CPU     33.57s WALL (      11 calls)
     sum_band     :      4.86s CPU      4.98s WALL (      11 calls)
     v_of_rho     :      0.93s CPU      1.04s WALL (      12 calls)
     newd         :      0.67s CPU      0.67s WALL (      12 calls)
     mix_rho      :      0.02s CPU      0.02s WALL (      11 calls)
     vdW_energy   :      0.21s CPU      0.26s WALL (      13 calls)
     vdW_ffts     :      0.28s CPU      0.29s WALL (      26 calls)
     vdW_v        :      0.13s CPU      0.13s WALL (      13 calls)

     Called by c_bands:
     init_us_2    :      0.18s CPU      0.18s WALL (    1800 calls)
     cegterg      :     31.56s CPU     32.32s WALL (     825 calls)

     Called by *egterg:
     h_psi        :     17.58s CPU     18.08s WALL (    2655 calls)
     s_psi        :      0.65s CPU      0.65s WALL (    2655 calls)
     g_psi        :      0.07s CPU      0.07s WALL (    1755 calls)
     cdiaghg      :      9.43s CPU      9.62s WALL (    2580 calls)

     Called by h_psi:
     add_vuspsi   :      0.69s CPU      0.70s WALL (    2655 calls)

     General routines
     calbec       :      1.36s CPU      1.39s WALL (    3555 calls)
     fft          :      0.45s CPU      0.49s WALL (     849 calls)
     ffts         :      0.00s CPU      0.01s WALL (      23 calls)
     fftw         :     16.81s CPU     17.29s WALL (  216102 calls)
     interpolate  :      0.02s CPU      0.02s WALL (      23 calls)
 
     Parallel routines
     fft_scatter  :      6.69s CPU      6.94s WALL (  216974 calls)
 
     PWSCF        :    41.12s CPU        42.25s WALL

 
   This run was terminated on:   6:43:38  15Nov2017            

=------------------------------------------------------------------------------=
   JOB DONE.
=------------------------------------------------------------------------------=
