  python dir          : /home/users/vossj/suncat/lib/python2.7/site-packages/espresso
  espresso dir        : /home/users/vossj/suncat/s2/qe5/bin
  pseudo dir          : /home/users/vossj/suncat/psp/gbrv1.5pbe
  ase-espresso py git : ffa2778-git



     Program PWSCF v.5.1rc2 starts on 15Nov2017 at  3:24:10 

     This program is part of the open-source Quantum ESPRESSO suite
     for quantum simulation of materials; please cite
         "P. Giannozzi et al., J. Phys.:Condens. Matter 21 395502 (2009);
          URL http://www.quantum-espresso.org", 
     in publications or presentations arising from this work. More details at
     http://www.quantum-espresso.org/quote

     Parallel version (MPI), running on    16 processors
     R & G space division:  proc/nbgrp/npool/nimage =      16
     Reading input from pw.inp
     Message from routine read_cards :
     DEPRECATED: no units specified in CELL_PARAMETERS card

     Current dimensions of program PWSCF are:
     Max number of different atomic species (ntypx) = 10
     Max number of k-points (npk) =  40000
     Max angular momentum in pseudopotentials (lmaxx) =  3

     **************************************************************************
     Initializing libbeef V0.1.2 with the BEEF-vdW functional.
     Citation: Wellendorff et al., PRB 85, 235149 (2012).
     **************************************************************************


     IMPORTANT: XC functional enforced from input :
     Exchange-correlation      = BEEF-VDW ( 1  4 27 13 2)
     Any further DFT definition will be discarded
     Please, verify this is what you really want


     Subspace diagonalization in iterative solution of the eigenvalue problem:
     scalapack distributed-memory algorithm (size of sub-group:  2*  2 procs)

     Found symmetry operation: I + ( -0.5000 -0.5000  0.0000)
     This is a supercell, fractional translations are disabled
 
     Parallelization info
     --------------------
     sticks:   dense  smooth     PW     G-vecs:    dense   smooth      PW
     Min         143      57     17                 5291     1325     217
     Max         144      58     18                 5295     1344     220
     Sum        2289     917    277                84687    21383    3479
 
     Generating pointlists ...
     new r_m :   0.4125 (alat units)  0.7795 (a.u.) for type    1
     new r_m :   0.4125 (alat units)  0.7795 (a.u.) for type    2


     bravais-lattice index     =            0
     lattice parameter (alat)  =       1.8897  a.u.
     unit-cell volume          =     351.6491 (a.u.)^3
     number of atoms/cell      =            4
     number of atomic types    =            2
     number of electrons       =        66.00
     number of Kohn-Sham states=           53
     kinetic-energy cutoff     =      58.7989  Ry
     charge density cutoff     =     587.9892  Ry
     convergence threshold     =      1.0E-06
     mixing beta               =       0.1000
     number of iterations used =           10  plain     mixing
     Exchange-correlation      = BEEF-VDW ( 1  4 27 13 2)

     celldm(1)=   1.889726  celldm(2)=   0.000000  celldm(3)=   0.000000
     celldm(4)=   0.000000  celldm(5)=   0.000000  celldm(6)=   0.000000

     crystal axes: (cart. coord. in units of alat)
               a(1) = (   3.702222   0.000000   0.000000 )  
               a(2) = (   0.000000   3.702222   0.000000 )  
               a(3) = (   0.000000   0.000000   3.801789 )  

     reciprocal axes: (cart. coord. in units 2 pi/alat)
               b(1) = (  0.270108  0.000000  0.000000 )  
               b(2) = (  0.000000  0.270108  0.000000 )  
               b(3) = (  0.000000  0.000000  0.263034 )  


     PseudoPot. # 1 for Ni read from file:
     /home/users/vossj/suncat/psp/gbrv1.5pbe/Ni.UPF
     MD5 check sum: 1ee80287db30b12d2bc1f57a5b5d6409
     Pseudo is Ultrasoft + core correction, Zval = 18.0
     Generated by new atomic code, or converted to UPF format
     Using radial grid of  865 points,  6 beta functions with: 
                l(1) =   0
                l(2) =   0
                l(3) =   1
                l(4) =   1
                l(5) =   2
                l(6) =   2
     Q(r) pseudized with 10 coefficients,  rinner =    0.980   0.980   0.980
                                                       0.980   0.980

     PseudoPot. # 2 for Re read from file:
     /home/users/vossj/suncat/psp/gbrv1.5pbe/Re.UPF
     MD5 check sum: 85f993410f3e006da9d71c142b4ad953
     Pseudo is Ultrasoft + core correction, Zval = 15.0
     Generated by new atomic code, or converted to UPF format
     Using radial grid of  981 points,  8 beta functions with: 
                l(1) =   0
                l(2) =   0
                l(3) =   1
                l(4) =   1
                l(5) =   2
                l(6) =   2
                l(7) =   3
                l(8) =   3
     Q(r) pseudized with  8 coefficients,  rinner =    1.150   1.150   1.150
                                                       1.150   1.150   1.150
                                                       1.150

     vdW kernel table read from file vdW_kernel_table
     MD5 check sum: 095c7af220d748ca6e76c0b4c6cfb241

     atomic species   valence    mass     pseudopotential
        Ni1           18.00    58.69340     Ni( 1.00)
        Re1           15.00   186.20700     Re( 1.00)

     Starting magnetic structure 
     atomic species   magnetization
        Ni1          0.111
        Re1          0.133

     16 Sym. Ops., with inversion, found



   Cartesian axes

     site n.     atom                  positions (alat units)
         1           Ni1 tau(   1) = (   0.0000000   0.0000000   0.0000000  )
         2           Ni1 tau(   2) = (   1.8511110   1.8511110   0.0000000  )
         3           Re1 tau(   3) = (   1.8511110   0.0000000   1.9008946  )
         4           Re1 tau(   4) = (   0.0000000   1.8511110   1.9008946  )

     number of k points=   150  Fermi-Dirac smearing, width (Ry)=  0.0073

     Number of k-points >= 100: set verbosity='high' to print them.

     Dense  grid:    84687 G-vectors     FFT dimensions: (  60,  60,  60)

     Smooth grid:    21383 G-vectors     FFT dimensions: (  36,  36,  36)

     Largest allocated arrays     est. size (Mb)     dimensions
        Kohn-Sham Wavefunctions         0.15 Mb     (     181,   53)
        NL pseudopotentials             0.28 Mb     (     181,  100)
        Each V/rho on FFT grid          0.44 Mb     (   14400,   2)
        Each G-vector array             0.04 Mb     (    5295)
        G-vector shells                 0.02 Mb     (    2103)
     Largest temporary arrays     est. size (Mb)     dimensions
        Auxiliary wavefunctions         0.59 Mb     (     181,  212)
        Each subspace H/S matrix        0.17 Mb     (     106,  106)
        Each <psi_i|beta_j> matrix      0.08 Mb     (     100,   53)
        Arrays for rho mixing           2.20 Mb     (   14400,   10)

     Check: negative/imaginary core charge=   -0.000004    0.000000

     Initial potential from superposition of free atoms
     Check: negative starting charge=(component1):   -0.147013
     Check: negative starting charge=(component2):   -0.112421

     starting charge   60.99991, renormalised to   66.00000

     negative rho (up, down):  1.591E-01 1.216E-01


     ************************************************************************
     *
     * You are using vdW-DF for exchange-correlation in this calculation.
     * Please cite the following three references that made this development
     * possible:
     *
     *   M. Dion, H. Rydberg, E. Schroder, D. C. Langreth, and
     *   B. I. Lundqvist, Phys. Rev. Lett. 92, 246401 (2004).
     *
     *   T. Thonhauser, V. R. Cooper, S. Li, A. Puzder, P. Hyldgaard, and
     *   D. C. Langreth, Phys. Rev. B 76, 125112 (2007).
     *
     *   G. Roman-Perez and J. M. Soler, Phys. Rev. Lett. 103, 096102 (2009).
     *
     *
     * If you are using vdW-DF2, please also cite:
     *
     *   K. Lee, E. D. Murray, L. Kong, B. I. Lundqvist, and
     *   D. C. Langreth, Phys. Rev. B 82, 081101(R) (2010).
     *
     *
     * If you are calculating the stress with vdW-DF, please also cite:
     *
     *   R. Sabatini, E. Kucukbenli, B. Kolb, T. Thonhauser, and
     *   S. de Gironcoli, J. Phys.: Condens. Matter 24, 424209 (2012).
     *
     ************************************************************************

     Carrying out vdW-DF run using the following parameters:

     Nqs =      20    Nr_points =    1024   r_max =   100.000
     q_mesh =
               0.00001000     0.04494208     0.09755937     0.15916263
               0.23128650     0.31572767     0.41458969     0.53033537
               0.66584808     0.82450364     1.01025438     1.22772762
               1.48234092     1.78043706     2.12944203     2.53805004
               3.01644009     3.57652955     4.23227104     5.00000000

     Gradients computed in reciprocal space

     ************************************************************************


     Starting wfc are   52 randomized atomic wfcs +    1 random wfc

     total cpu time spent up to now is        2.6 secs

     per-process dynamical memory:    38.9 Mb

     Self-consistent Calculation

     iteration #  1     ecut=    58.80 Ry     beta=0.10
     Davidson diagonalization with overlap
     ethr =  1.00E-02,  avg # of iterations =  4.2

     negative rho (up, down):  1.534E-01 1.205E-01
 
     Magnetic moment per site:
     atom:    1    charge:    9.6791    magn:    1.0339    constr:    0.0000
     atom:    2    charge:    9.6791    magn:    1.0339    constr:    0.0000
     atom:    3    charge:    2.0109    magn:    0.2445    constr:    0.0000
     atom:    4    charge:    2.0109    magn:    0.2445    constr:    0.0000

     total cpu time spent up to now is       14.3 secs

     total energy              =   -1070.60861110 Ry
     Harris-Foulkes estimate   =   -1083.97400632 Ry
     estimated scf accuracy    <      76.07073320 Ry

     total magnetization       =     2.10 Bohr mag/cell
     absolute magnetization    =     2.10 Bohr mag/cell

     iteration #  2     ecut=    58.80 Ry     beta=0.10
     Davidson diagonalization with overlap
     ethr =  1.00E-02,  avg # of iterations =  2.4

     negative rho (up, down):  1.535E-01 1.241E-01
 
     Magnetic moment per site:
     atom:    1    charge:    9.5665    magn:    0.9663    constr:    0.0000
     atom:    2    charge:    9.5665    magn:    0.9663    constr:    0.0000
     atom:    3    charge:    1.9762    magn:    0.2199    constr:    0.0000
     atom:    4    charge:    1.9762    magn:    0.2199    constr:    0.0000

     total cpu time spent up to now is       21.0 secs

     total energy              =   -1074.25260151 Ry
     Harris-Foulkes estimate   =   -1075.27614054 Ry
     estimated scf accuracy    <       6.68302752 Ry

     total magnetization       =     1.65 Bohr mag/cell
     absolute magnetization    =     1.83 Bohr mag/cell

     iteration #  3     ecut=    58.80 Ry     beta=0.10
     Davidson diagonalization with overlap
     ethr =  1.00E-02,  avg # of iterations =  1.0

     negative rho (up, down):  1.533E-01 1.356E-01
 
     Magnetic moment per site:
     atom:    1    charge:    9.3361    magn:    0.7311    constr:    0.0000
     atom:    2    charge:    9.3361    magn:    0.7311    constr:    0.0000
     atom:    3    charge:    1.8742    magn:    0.1401    constr:    0.0000
     atom:    4    charge:    1.8742    magn:    0.1401    constr:    0.0000

     total cpu time spent up to now is       26.0 secs

     total energy              =   -1072.60845684 Ry
     Harris-Foulkes estimate   =   -1074.35266684 Ry
     estimated scf accuracy    <       3.69326269 Ry

     total magnetization       =     1.42 Bohr mag/cell
     absolute magnetization    =     1.65 Bohr mag/cell

     iteration #  4     ecut=    58.80 Ry     beta=0.10
     Davidson diagonalization with overlap
     ethr =  5.60E-03,  avg # of iterations =  2.0

     negative rho (up, down):  1.495E-01 1.369E-01
 
     Magnetic moment per site:
     atom:    1    charge:    9.2965    magn:    0.6767    constr:    0.0000
     atom:    2    charge:    9.2965    magn:    0.6767    constr:    0.0000
     atom:    3    charge:    1.8673    magn:    0.1158    constr:    0.0000
     atom:    4    charge:    1.8673    magn:    0.1158    constr:    0.0000

     total cpu time spent up to now is       32.1 secs

     total energy              =   -1073.23719899 Ry
     Harris-Foulkes estimate   =   -1073.28283529 Ry
     estimated scf accuracy    <       0.23144767 Ry

     total magnetization       =     2.11 Bohr mag/cell
     absolute magnetization    =     2.29 Bohr mag/cell

     iteration #  5     ecut=    58.80 Ry     beta=0.10
     Davidson diagonalization with overlap
     ethr =  3.51E-04,  avg # of iterations =  2.2

     negative rho (up, down):  1.442E-01 1.385E-01
 
     Magnetic moment per site:
     atom:    1    charge:    9.3328    magn:    0.5860    constr:    0.0000
     atom:    2    charge:    9.3328    magn:    0.5860    constr:    0.0000
     atom:    3    charge:    1.8652    magn:    0.0845    constr:    0.0000
     atom:    4    charge:    1.8652    magn:    0.0845    constr:    0.0000

     total cpu time spent up to now is       37.9 secs

     total energy              =   -1073.28032255 Ry
     Harris-Foulkes estimate   =   -1073.30729364 Ry
     estimated scf accuracy    <       0.42863000 Ry

     total magnetization       =     1.43 Bohr mag/cell
     absolute magnetization    =     1.59 Bohr mag/cell

     iteration #  6     ecut=    58.80 Ry     beta=0.10
     Davidson diagonalization with overlap
     ethr =  3.51E-04,  avg # of iterations =  1.0

     negative rho (up, down):  1.357E-01 1.424E-01
 
     Magnetic moment per site:
     atom:    1    charge:    9.3263    magn:    0.4009    constr:    0.0000
     atom:    2    charge:    9.3263    magn:    0.4009    constr:    0.0000
     atom:    3    charge:    1.8499    magn:    0.0227    constr:    0.0000
     atom:    4    charge:    1.8499    magn:    0.0227    constr:    0.0000

     total cpu time spent up to now is       42.8 secs

     total energy              =   -1073.30528470 Ry
     Harris-Foulkes estimate   =   -1073.29228975 Ry
     estimated scf accuracy    <       0.09585273 Ry

     total magnetization       =     1.43 Bohr mag/cell
     absolute magnetization    =     1.59 Bohr mag/cell

     iteration #  7     ecut=    58.80 Ry     beta=0.10
     Davidson diagonalization with overlap
     ethr =  1.45E-04,  avg # of iterations =  1.5

     negative rho (up, down):  1.346E-01 1.422E-01
 
     Magnetic moment per site:
     atom:    1    charge:    9.3314    magn:    0.3521    constr:    0.0000
     atom:    2    charge:    9.3314    magn:    0.3521    constr:    0.0000
     atom:    3    charge:    1.8571    magn:    0.0152    constr:    0.0000
     atom:    4    charge:    1.8571    magn:    0.0152    constr:    0.0000

     total cpu time spent up to now is       48.1 secs

     total energy              =   -1073.31198233 Ry
     Harris-Foulkes estimate   =   -1073.31446730 Ry
     estimated scf accuracy    <       0.09192341 Ry

     total magnetization       =     1.02 Bohr mag/cell
     absolute magnetization    =     1.18 Bohr mag/cell

     iteration #  8     ecut=    58.80 Ry     beta=0.10
     Davidson diagonalization with overlap
     ethr =  1.39E-04,  avg # of iterations =  1.1

     negative rho (up, down):  1.346E-01 1.417E-01
 
     Magnetic moment per site:
     atom:    1    charge:    9.3478    magn:    0.2889    constr:    0.0000
     atom:    2    charge:    9.3478    magn:    0.2889    constr:    0.0000
     atom:    3    charge:    1.8658    magn:    0.0102    constr:    0.0000
     atom:    4    charge:    1.8658    magn:    0.0102    constr:    0.0000

     total cpu time spent up to now is       53.0 secs

     total energy              =   -1073.29897122 Ry
     Harris-Foulkes estimate   =   -1073.31372577 Ry
     estimated scf accuracy    <       0.11562782 Ry

     total magnetization       =     0.85 Bohr mag/cell
     absolute magnetization    =     1.00 Bohr mag/cell

     iteration #  9     ecut=    58.80 Ry     beta=0.10
     Davidson diagonalization with overlap
     ethr =  1.39E-04,  avg # of iterations =  1.0

     negative rho (up, down):  1.345E-01 1.418E-01
 
     Magnetic moment per site:
     atom:    1    charge:    9.3429    magn:    0.2652    constr:    0.0000
     atom:    2    charge:    9.3429    magn:    0.2652    constr:    0.0000
     atom:    3    charge:    1.8652    magn:    0.0069    constr:    0.0000
     atom:    4    charge:    1.8652    magn:    0.0069    constr:    0.0000

     total cpu time spent up to now is       58.0 secs

     total energy              =   -1073.30751812 Ry
     Harris-Foulkes estimate   =   -1073.30694788 Ry
     estimated scf accuracy    <       0.00313158 Ry

     total magnetization       =     0.85 Bohr mag/cell
     absolute magnetization    =     0.97 Bohr mag/cell

     iteration # 10     ecut=    58.80 Ry     beta=0.10
     Davidson diagonalization with overlap
     ethr =  4.74E-06,  avg # of iterations =  2.5

     negative rho (up, down):  1.359E-01 1.411E-01
 
     Magnetic moment per site:
     atom:    1    charge:    9.3445    magn:    0.1896    constr:    0.0000
     atom:    2    charge:    9.3444    magn:    0.1897    constr:    0.0000
     atom:    3    charge:    1.8641    magn:    0.0039    constr:    0.0000
     atom:    4    charge:    1.8641    magn:    0.0039    constr:    0.0000

     total cpu time spent up to now is       64.1 secs

     total energy              =   -1073.30788451 Ry
     Harris-Foulkes estimate   =   -1073.30808356 Ry
     estimated scf accuracy    <       0.01073920 Ry

     total magnetization       =     0.74 Bohr mag/cell
     absolute magnetization    =     0.86 Bohr mag/cell

     iteration # 11     ecut=    58.80 Ry     beta=0.10
     Davidson diagonalization with overlap
     ethr =  4.74E-06,  avg # of iterations =  1.6

     negative rho (up, down):  1.367E-01 1.406E-01
 
     Magnetic moment per site:
     atom:    1    charge:    9.3428    magn:    0.1433    constr:    0.0000
     atom:    2    charge:    9.3429    magn:    0.1433    constr:    0.0000
     atom:    3    charge:    1.8643    magn:    0.0019    constr:    0.0000
     atom:    4    charge:    1.8643    magn:    0.0019    constr:    0.0000

     total cpu time spent up to now is       69.5 secs

     total energy              =   -1073.30945777 Ry
     Harris-Foulkes estimate   =   -1073.30912955 Ry
     estimated scf accuracy    <       0.00132384 Ry

     total magnetization       =     0.57 Bohr mag/cell
     absolute magnetization    =     0.65 Bohr mag/cell

     iteration # 12     ecut=    58.80 Ry     beta=0.10
     Davidson diagonalization with overlap
     ethr =  2.01E-06,  avg # of iterations =  1.3

     negative rho (up, down):  1.370E-01 1.403E-01
 
     Magnetic moment per site:
     atom:    1    charge:    9.3446    magn:    0.1114    constr:    0.0000
     atom:    2    charge:    9.3445    magn:    0.1114    constr:    0.0000
     atom:    3    charge:    1.8635    magn:   -0.0000    constr:    0.0000
     atom:    4    charge:    1.8635    magn:   -0.0000    constr:    0.0000

     total cpu time spent up to now is       74.6 secs

     total energy              =   -1073.30990691 Ry
     Harris-Foulkes estimate   =   -1073.30985826 Ry
     estimated scf accuracy    <       0.00191972 Ry

     total magnetization       =     0.41 Bohr mag/cell
     absolute magnetization    =     0.48 Bohr mag/cell

     iteration # 13     ecut=    58.80 Ry     beta=0.10
     Davidson diagonalization with overlap
     ethr =  2.01E-06,  avg # of iterations =  1.0

     negative rho (up, down):  1.382E-01 1.390E-01
 
     Magnetic moment per site:
     atom:    1    charge:    9.3476    magn:    0.0491    constr:    0.0000
     atom:    2    charge:    9.3475    magn:    0.0491    constr:    0.0000
     atom:    3    charge:    1.8629    magn:    0.0000    constr:    0.0000
     atom:    4    charge:    1.8629    magn:    0.0000    constr:    0.0000

     total cpu time spent up to now is       79.5 secs

     total energy              =   -1073.31006371 Ry
     Harris-Foulkes estimate   =   -1073.31013704 Ry
     estimated scf accuracy    <       0.00055112 Ry

     total magnetization       =     0.32 Bohr mag/cell
     absolute magnetization    =     0.38 Bohr mag/cell

     iteration # 14     ecut=    58.80 Ry     beta=0.10
     Davidson diagonalization with overlap
     ethr =  8.35E-07,  avg # of iterations =  1.6

     negative rho (up, down):  1.385E-01 1.385E-01
 
     Magnetic moment per site:
     atom:    1    charge:    9.3479    magn:    0.0262    constr:    0.0000
     atom:    2    charge:    9.3479    magn:    0.0263    constr:    0.0000
     atom:    3    charge:    1.8631    magn:   -0.0004    constr:    0.0000
     atom:    4    charge:    1.8631    magn:   -0.0004    constr:    0.0000

     total cpu time spent up to now is       85.3 secs

     total energy              =   -1073.31049678 Ry
     Harris-Foulkes estimate   =   -1073.31061259 Ry
     estimated scf accuracy    <       0.00139844 Ry

     total magnetization       =     0.13 Bohr mag/cell
     absolute magnetization    =     0.16 Bohr mag/cell

     iteration # 15     ecut=    58.80 Ry     beta=0.10
     Davidson diagonalization with overlap
     ethr =  8.35E-07,  avg # of iterations =  1.1

     negative rho (up, down):  1.383E-01 1.386E-01
 
     Magnetic moment per site:
     atom:    1    charge:    9.3476    magn:    0.0285    constr:    0.0000
     atom:    2    charge:    9.3476    magn:    0.0286    constr:    0.0000
     atom:    3    charge:    1.8636    magn:    0.0002    constr:    0.0000
     atom:    4    charge:    1.8636    magn:    0.0002    constr:    0.0000

     total cpu time spent up to now is       90.2 secs

     total energy              =   -1073.31058177 Ry
     Harris-Foulkes estimate   =   -1073.31060133 Ry
     estimated scf accuracy    <       0.00018833 Ry

     total magnetization       =     0.06 Bohr mag/cell
     absolute magnetization    =     0.08 Bohr mag/cell

     iteration # 16     ecut=    58.80 Ry     beta=0.10
     Davidson diagonalization with overlap
     ethr =  2.85E-07,  avg # of iterations =  1.0

     negative rho (up, down):  1.386E-01 1.383E-01
 
     Magnetic moment per site:
     atom:    1    charge:    9.3475    magn:    0.0072    constr:    0.0000
     atom:    2    charge:    9.3475    magn:    0.0073    constr:    0.0000
     atom:    3    charge:    1.8637    magn:   -0.0002    constr:    0.0000
     atom:    4    charge:    1.8637    magn:   -0.0002    constr:    0.0000

     total cpu time spent up to now is       95.1 secs

     total energy              =   -1073.31056911 Ry
     Harris-Foulkes estimate   =   -1073.31059341 Ry
     estimated scf accuracy    <       0.00002159 Ry

     total magnetization       =     0.07 Bohr mag/cell
     absolute magnetization    =     0.09 Bohr mag/cell

     iteration # 17     ecut=    58.80 Ry     beta=0.10
     Davidson diagonalization with overlap
     ethr =  3.27E-08,  avg # of iterations =  2.0

     negative rho (up, down):  1.386E-01 1.382E-01
 
     Magnetic moment per site:
     atom:    1    charge:    9.3475    magn:    0.0008    constr:    0.0000
     atom:    2    charge:    9.3475    magn:    0.0008    constr:    0.0000
     atom:    3    charge:    1.8638    magn:   -0.0004    constr:    0.0000
     atom:    4    charge:    1.8638    magn:   -0.0004    constr:    0.0000

     total cpu time spent up to now is      101.4 secs

     total energy              =   -1073.31062040 Ry
     Harris-Foulkes estimate   =   -1073.31062366 Ry
     estimated scf accuracy    <       0.00000825 Ry

     total magnetization       =     0.01 Bohr mag/cell
     absolute magnetization    =     0.02 Bohr mag/cell

     iteration # 18     ecut=    58.80 Ry     beta=0.10
     Davidson diagonalization with overlap
     ethr =  1.25E-08,  avg # of iterations =  1.6

     negative rho (up, down):  1.384E-01 1.384E-01
 
     Magnetic moment per site:
     atom:    1    charge:    9.3475    magn:    0.0086    constr:    0.0000
     atom:    2    charge:    9.3475    magn:    0.0086    constr:    0.0000
     atom:    3    charge:    1.8637    magn:   -0.0001    constr:    0.0000
     atom:    4    charge:    1.8637    magn:   -0.0001    constr:    0.0000

     total cpu time spent up to now is      106.9 secs

     total energy              =   -1073.31061608 Ry
     Harris-Foulkes estimate   =   -1073.31062552 Ry
     estimated scf accuracy    <       0.00000169 Ry

     total magnetization       =    -0.01 Bohr mag/cell
     absolute magnetization    =     0.01 Bohr mag/cell

     iteration # 19     ecut=    58.80 Ry     beta=0.10
     Davidson diagonalization with overlap
     ethr =  2.56E-09,  avg # of iterations =  2.0

     negative rho (up, down):  1.385E-01 1.384E-01
 
     Magnetic moment per site:
     atom:    1    charge:    9.3474    magn:    0.0003    constr:    0.0000
     atom:    2    charge:    9.3474    magn:    0.0004    constr:    0.0000
     atom:    3    charge:    1.8637    magn:   -0.0002    constr:    0.0000
     atom:    4    charge:    1.8637    magn:   -0.0002    constr:    0.0000

     total cpu time spent up to now is      113.8 secs

     total energy              =   -1073.31062029 Ry
     Harris-Foulkes estimate   =   -1073.31062478 Ry
     estimated scf accuracy    <       0.00000334 Ry

     total magnetization       =     0.02 Bohr mag/cell
     absolute magnetization    =     0.02 Bohr mag/cell

     iteration # 20     ecut=    58.80 Ry     beta=0.10
     Davidson diagonalization with overlap
     ethr =  2.56E-09,  avg # of iterations =  2.0

     negative rho (up, down):  1.385E-01 1.384E-01
 
     Magnetic moment per site:
     atom:    1    charge:    9.3473    magn:    0.0001    constr:    0.0000
     atom:    2    charge:    9.3472    magn:    0.0001    constr:    0.0000
     atom:    3    charge:    1.8637    magn:   -0.0001    constr:    0.0000
     atom:    4    charge:    1.8637    magn:   -0.0001    constr:    0.0000

     total cpu time spent up to now is      120.5 secs

     End of self-consistent calculation

     Number of k-points >= 100: set verbosity='high' to print the bands.

     the Fermi energy is    21.1618 ev

!    total energy              =   -1073.31062928 Ry
     Harris-Foulkes estimate   =   -1073.31062770 Ry
     estimated scf accuracy    <       0.00000030 Ry

     The total energy is the sum of the following terms:

     one-electron contribution =    -453.67564500 Ry
     hartree contribution      =     272.49774095 Ry
     xc contribution           =    -181.94441310 Ry
     ewald contribution        =    -710.17667708 Ry
     smearing contrib. (-TS)   =      -0.01163505 Ry

     total magnetization       =    -0.00 Bohr mag/cell
     absolute magnetization    =     0.00 Bohr mag/cell

     convergence has been achieved in  20 iterations

     Forces acting on atoms (Ry/au):


     negative rho (up, down):  1.385E-01 1.384E-01
     atom    1 type  1   force =     0.00000000    0.00000000    0.00000000
     atom    2 type  1   force =     0.00000000    0.00000000    0.00000000
     atom    3 type  2   force =     0.00000000    0.00000000    0.00000000
     atom    4 type  2   force =     0.00000000    0.00000000    0.00000000

     Total force =     0.000000     Total SCF correction =     0.000000
 
     init_run     :      2.04s CPU      2.16s WALL (       1 calls)
     electrons    :    113.92s CPU    117.92s WALL (       1 calls)
     forces       :      0.78s CPU      0.79s WALL (       1 calls)

     Called by init_run:
     wfcinit      :      1.57s CPU      1.65s WALL (       1 calls)
     potinit      :      0.12s CPU      0.14s WALL (       1 calls)

     Called by electrons:
     c_bands      :     96.78s CPU     99.91s WALL (      20 calls)
     sum_band     :     14.31s CPU     14.99s WALL (      20 calls)
     v_of_rho     :      1.18s CPU      1.36s WALL (      21 calls)
     newd         :      1.75s CPU      1.77s WALL (      21 calls)
     mix_rho      :      0.05s CPU      0.05s WALL (      20 calls)
     vdW_energy   :      0.20s CPU      0.27s WALL (      22 calls)
     vdW_ffts     :      0.28s CPU      0.32s WALL (      44 calls)
     vdW_v        :      0.16s CPU      0.17s WALL (      22 calls)

     Called by c_bands:
     init_us_2    :      0.49s CPU      0.52s WALL (    6300 calls)
     cegterg      :     91.07s CPU     94.12s WALL (    3000 calls)

     Called by *egterg:
     h_psi        :     45.33s CPU     47.54s WALL (    8283 calls)
     s_psi        :      2.82s CPU      2.86s WALL (    8283 calls)
     g_psi        :      0.19s CPU      0.19s WALL (    5133 calls)
     cdiaghg      :     31.03s CPU     31.61s WALL (    8133 calls)

     Called by h_psi:
     add_vuspsi   :      2.68s CPU      2.91s WALL (    8283 calls)

     General routines
     calbec       :      5.38s CPU      6.03s WALL (   11433 calls)
     fft          :      0.59s CPU      0.67s WALL (    1760 calls)
     ffts         :      0.01s CPU      0.02s WALL (      82 calls)
     fftw         :     41.21s CPU     42.84s WALL (  864588 calls)
     interpolate  :      0.04s CPU      0.05s WALL (      82 calls)
 
     Parallel routines
     fft_scatter  :     18.50s CPU     19.38s WALL (  866430 calls)
 
     PWSCF        :  1m57.15s CPU     2m 1.35s WALL

 
   This run was terminated on:   3:26:12  15Nov2017            

=------------------------------------------------------------------------------=
   JOB DONE.
=------------------------------------------------------------------------------=
