
     Program PWSCF v.6.6 starts on 23Jun2022 at 15:42:42 

     This program is part of the open-source Quantum ESPRESSO suite
     for quantum simulation of materials; please cite
         "P. Giannozzi et al., J. Phys.:Condens. Matter 21 395502 (2009);
         "P. Giannozzi et al., J. Phys.:Condens. Matter 29 465901 (2017);
          URL http://www.quantum-espresso.org", 
     in publications or presentations arising from this work. More details at
     http://www.quantum-espresso.org/quote

     Parallel version (MPI), running on    37 processors

     MPI processes distributed on     4 nodes
     R & G space division:  proc/nbgrp/npool/nimage =      37
     Fft bands division:     nmany     =       1
     Reading input from Ag2Hf2.in
Warning: card &CELL ignored
Warning: card / ignored

     Current dimensions of program PWSCF are:
     Max number of different atomic species (ntypx) = 10
     Max number of k-points (npk) =  40000
     Max angular momentum in pseudopotentials (lmaxx) =  3
     Presently stress not available with electric field and gates

     Message from routine cell_base_init:
     DEPRECATED: use true lattice parameter, not A to a.u. conversion factor

     **************************************************************************
     Initializing libbeef V0.1.2 with the BEEF-vdW functional.
     Citation: Wellendorff et al., PRB 85, 235149 (2012).
     **************************************************************************


     IMPORTANT: XC functional enforced from input :
     Exchange-correlation= BEEF-VDW
                           (   1   4  43  14   2   0   0)
     Any further DFT definition will be discarded
     Please, verify this is what you really want


     Subspace diagonalization in iterative solution of the eigenvalue problem:
     a serial algorithm will be used

     Found symmetry operation: I + ( -0.5000  0.0000  0.0000)
     This is a supercell, fractional translations are disabled

     Parallelization info
     --------------------
     sticks:   dense  smooth     PW     G-vecs:    dense   smooth      PW
     Min         135      54     15                31841     8052    1237
     Max         136      55     16                31862     8067    1258
     Sum        5013    2005    583              1178425   298099   46129



     bravais-lattice index     =            0
     lattice parameter (alat)  =       1.8897  a.u.
     unit-cell volume          =    5391.6659 (a.u.)^3
     number of atoms/cell      =           12
     number of atomic types    =            2
     number of electrons       =       138.00
     number of Kohn-Sham states=           83
     kinetic-energy cutoff     =      55.1240  Ry
     charge density cutoff     =     551.2396  Ry
     convergence threshold     =      1.0E-05
     mixing beta               =       0.1000
     number of iterations used =           10  plain     mixing
     Exchange-correlation= BEEF-VDW
                           (   1   4  43  14   2   0   0)

     celldm(1)=   1.889726  celldm(2)=   0.000000  celldm(3)=   0.000000
     celldm(4)=   0.000000  celldm(5)=   0.000000  celldm(6)=   0.000000

     crystal axes: (cart. coord. in units of alat)
               a(1) = (   6.016366   0.000000   0.000000 )  
               a(2) = (  -3.008183   5.319974   0.000000 )  
               a(3) = (   0.000000   0.000000  24.962191 )  

     reciprocal axes: (cart. coord. in units 2 pi/alat)
               b(1) = (  0.166213  0.093985 -0.000000 )  
               b(2) = (  0.000000  0.187971  0.000000 )  
               b(3) = (  0.000000 -0.000000  0.040061 )  


     PseudoPot. # 1 for Ag read from file:
     ../pseudo/Ag.pbe-n-rrkjus_psl.1.0.0.UPF
     MD5 check sum: d841cbfac2b0861aec33b46768a516bf
     Pseudo is Ultrasoft + core correction, Zval = 11.0
     Generated using "atomic" code by A. Dal Corso v.6.2.2
     Using radial grid of 1237 points,  6 beta functions with: 
                l(1) =   0
                l(2) =   0
                l(3) =   1
                l(4) =   1
                l(5) =   2
                l(6) =   2
     Q(r) pseudized with 0 coefficients 


     PseudoPot. # 2 for Hf read from file:
     ../pseudo/Hf.pbe-spn-rrkjus_psl.1.0.0.UPF
     MD5 check sum: 9605440c6f839e558204c6a924125fd0
     Pseudo is Ultrasoft + core correction, Zval = 12.0
     Generated using "atomic" code by A. Dal Corso v.6.2.2
     Using radial grid of 1271 points,  6 beta functions with: 
                l(1) =   0
                l(2) =   0
                l(3) =   1
                l(4) =   1
                l(5) =   2
                l(6) =   2
     Q(r) pseudized with 0 coefficients 


     atomic species   valence    mass     pseudopotential
        Ag            11.00   107.86820     Ag( 1.00)
        Hf            12.00   178.49000     Hf( 1.00)

     No symmetry found



   Cartesian axes

     site n.     atom                  positions (alat units)
         1           Ag  tau(   1) = (   0.0000000   0.0000000  10.0000000  )
         2           Ag  tau(   2) = (   3.0081830   0.0000000  10.0000000  )
         3           Hf  tau(   3) = (   1.5040915   2.6599868  10.0000000  )
         4           Hf  tau(   4) = (  -1.5040915   2.6599868  10.0000000  )
         5           Ag  tau(   5) = (   3.0081830   1.7009793  12.4810954  )
         6           Ag  tau(   6) = (   0.0000000   1.7009793  12.4810954  )
         7           Hf  tau(   7) = (  -1.5040915   4.3609661  12.4810954  )
         8           Hf  tau(   8) = (   1.5040915   4.3609661  12.4810954  )
         9           Ag  tau(   9) = (   0.0000035   3.4886659  15.0061479  )
        10           Ag  tau(  10) = (   3.0081772   3.4886631  15.0061464  )
        11           Hf  tau(  11) = (   4.5122717   0.8295712  14.8509347  )
        12           Hf  tau(  12) = (   1.5040918   0.8295604  14.8509198  )

     number of k points=    74  Fermi-Dirac smearing, width (Ry)=  0.0100
                       cart. coord. in units 2pi/alat
        k(    1) = (   0.0000000   0.0000000   0.0000000), wk =   0.0138889
        k(    2) = (   0.0000000   0.0156642   0.0000000), wk =   0.0277778
        k(    3) = (   0.0000000   0.0313285   0.0000000), wk =   0.0277778
        k(    4) = (   0.0000000   0.0469927   0.0000000), wk =   0.0277778
        k(    5) = (   0.0000000   0.0626569   0.0000000), wk =   0.0277778
        k(    6) = (   0.0000000   0.0783212   0.0000000), wk =   0.0277778
        k(    7) = (   0.0000000  -0.0939854   0.0000000), wk =   0.0138889
        k(    8) = (   0.0138511   0.0078321   0.0000000), wk =   0.0277778
        k(    9) = (   0.0138511   0.0234964   0.0000000), wk =   0.0277778
        k(   10) = (   0.0138511   0.0391606   0.0000000), wk =   0.0277778
        k(   11) = (   0.0138511   0.0548248   0.0000000), wk =   0.0277778
        k(   12) = (   0.0138511   0.0704891   0.0000000), wk =   0.0277778
        k(   13) = (   0.0138511   0.0861533   0.0000000), wk =   0.0277778
        k(   14) = (   0.0138511  -0.0861533   0.0000000), wk =   0.0277778
        k(   15) = (   0.0138511  -0.0704891   0.0000000), wk =   0.0277778
        k(   16) = (   0.0138511  -0.0548248   0.0000000), wk =   0.0277778
        k(   17) = (   0.0138511  -0.0391606   0.0000000), wk =   0.0277778
        k(   18) = (   0.0138511  -0.0234964   0.0000000), wk =   0.0277778
        k(   19) = (   0.0138511  -0.0078321   0.0000000), wk =   0.0277778
        k(   20) = (   0.0277022   0.0156642   0.0000000), wk =   0.0277778
        k(   21) = (   0.0277022   0.0313285   0.0000000), wk =   0.0277778
        k(   22) = (   0.0277022   0.0469927   0.0000000), wk =   0.0277778
        k(   23) = (   0.0277022   0.0626569   0.0000000), wk =   0.0277778
        k(   24) = (   0.0277022   0.0783212   0.0000000), wk =   0.0277778
        k(   25) = (   0.0277022   0.0939854   0.0000000), wk =   0.0277778
        k(   26) = (   0.0277022  -0.0783212   0.0000000), wk =   0.0277778
        k(   27) = (   0.0277022  -0.0626569   0.0000000), wk =   0.0277778
        k(   28) = (   0.0277022  -0.0469927   0.0000000), wk =   0.0277778
        k(   29) = (   0.0277022  -0.0313285   0.0000000), wk =   0.0277778
        k(   30) = (   0.0277022  -0.0156642   0.0000000), wk =   0.0277778
        k(   31) = (   0.0277022  -0.0000000   0.0000000), wk =   0.0277778
        k(   32) = (   0.0415533   0.0234964   0.0000000), wk =   0.0277778
        k(   33) = (   0.0415533   0.0391606   0.0000000), wk =   0.0277778
        k(   34) = (   0.0415533   0.0548248   0.0000000), wk =   0.0277778
        k(   35) = (   0.0415533   0.0704891   0.0000000), wk =   0.0277778
        k(   36) = (   0.0415533   0.0861533   0.0000000), wk =   0.0277778
        k(   37) = (   0.0415533   0.1018175   0.0000000), wk =   0.0277778
        k(   38) = (   0.0415533  -0.0704891   0.0000000), wk =   0.0277778
        k(   39) = (   0.0415533  -0.0548248   0.0000000), wk =   0.0277778
        k(   40) = (   0.0415533  -0.0391606   0.0000000), wk =   0.0277778
        k(   41) = (   0.0415533  -0.0234964   0.0000000), wk =   0.0277778
        k(   42) = (   0.0415533  -0.0078321   0.0000000), wk =   0.0277778
        k(   43) = (   0.0415533   0.0078321   0.0000000), wk =   0.0277778
        k(   44) = (   0.0554044   0.0313285   0.0000000), wk =   0.0277778
        k(   45) = (   0.0554044   0.0469927   0.0000000), wk =   0.0277778
        k(   46) = (   0.0554044   0.0626569   0.0000000), wk =   0.0277778
        k(   47) = (   0.0554044   0.0783212   0.0000000), wk =   0.0277778
        k(   48) = (   0.0554044   0.0939854   0.0000000), wk =   0.0277778
        k(   49) = (   0.0554044   0.1096497   0.0000000), wk =   0.0277778
        k(   50) = (   0.0554044  -0.0626569   0.0000000), wk =   0.0277778
        k(   51) = (   0.0554044  -0.0469927   0.0000000), wk =   0.0277778
        k(   52) = (   0.0554044  -0.0313285   0.0000000), wk =   0.0277778
        k(   53) = (   0.0554044  -0.0156642   0.0000000), wk =   0.0277778
        k(   54) = (   0.0554044   0.0000000   0.0000000), wk =   0.0277778
        k(   55) = (   0.0554044   0.0156642   0.0000000), wk =   0.0277778
        k(   56) = (   0.0692555   0.0391606   0.0000000), wk =   0.0277778
        k(   57) = (   0.0692555   0.0548248   0.0000000), wk =   0.0277778
        k(   58) = (   0.0692555   0.0704891   0.0000000), wk =   0.0277778
        k(   59) = (   0.0692555   0.0861533   0.0000000), wk =   0.0277778
        k(   60) = (   0.0692555   0.1018175   0.0000000), wk =   0.0277778
        k(   61) = (   0.0692555   0.1174818   0.0000000), wk =   0.0277778
        k(   62) = (   0.0692555  -0.0548248   0.0000000), wk =   0.0277778
        k(   63) = (   0.0692555  -0.0391606   0.0000000), wk =   0.0277778
        k(   64) = (   0.0692555  -0.0234964   0.0000000), wk =   0.0277778
        k(   65) = (   0.0692555  -0.0078321   0.0000000), wk =   0.0277778
        k(   66) = (   0.0692555   0.0078321   0.0000000), wk =   0.0277778
        k(   67) = (   0.0692555   0.0234964   0.0000000), wk =   0.0277778
        k(   68) = (  -0.0831066  -0.0469927   0.0000000), wk =   0.0138889
        k(   69) = (  -0.0831066  -0.0313285   0.0000000), wk =   0.0277778
        k(   70) = (  -0.0831066  -0.0156642   0.0000000), wk =   0.0277778
        k(   71) = (  -0.0831066   0.0000000   0.0000000), wk =   0.0277778
        k(   72) = (  -0.0831066   0.0156642   0.0000000), wk =   0.0277778
        k(   73) = (  -0.0831066   0.0313285   0.0000000), wk =   0.0277778
        k(   74) = (  -0.0831066  -0.1409781   0.0000000), wk =   0.0138889

     Dense  grid:  1178425 G-vectors     FFT dimensions: (  90,  90, 360)

     Smooth grid:   298099 G-vectors     FFT dimensions: (  54,  60, 225)

     Estimated max dynamical RAM per process >     222.69 MB

     Estimated total dynamical RAM >       8.05 GB

     Initial potential from superposition of free atoms

     starting charge  137.98598, renormalised to  138.00000

     negative rho (up, down):  3.732E-04 0.000E+00


     %%%%%%%%%%%%%%%%%%%%%%%%%%%%%%%%%%%%%%%%%%%%%%%%%%%%%%%%%%%%%%%%%%%%%%%%
     %                                                                      %
     % You are using vdW-DF, which was implemented by the Thonhauser group. %
     % Please cite the following two papers that made this development      %
     % possible and the two reviews that describe the various versions:     %
     %                                                                      %
     %   T. Thonhauser et al., PRL 115, 136402 (2015).                      %
     %   T. Thonhauser et al., PRB 76, 125112 (2007).                       %
     %   K. Berland et al., Rep. Prog. Phys. 78, 066501 (2015).             %
     %   D.C. Langreth et al., J. Phys.: Condens. Matter 21, 084203 (2009). %
     %                                                                      %
     %                                                                      %
     % If you are calculating the stress with vdW-DF, please also cite:     %
     %                                                                      %
     %   R. Sabatini et al., J. Phys.: Condens. Matter 24, 424209 (2012).   %
     %                                                                      %
     %%%%%%%%%%%%%%%%%%%%%%%%%%%%%%%%%%%%%%%%%%%%%%%%%%%%%%%%%%%%%%%%%%%%%%%%



     Adding external electric field

     Computed dipole along edir(3) : 
        Dipole               -0.0004 Ry au,         -0.0011 Debye
        Dipole field         -0.0000 Ry au, 

        Potential amp.        0.0001 Ry
        Total length         45.9924 bohr

     Starting wfcs are  114 randomized atomic wfcs

     total cpu time spent up to now is      118.5 secs

     Self-consistent Calculation

     iteration #  1     ecut=    55.12 Ry     beta= 0.10
     Davidson diagonalization with overlap
     ethr =  1.00E-02,  avg # of iterations =  2.1

     negative rho (up, down):  2.812E-04 0.000E+00

     Adding external electric field

     Computed dipole along edir(3) : 
        Dipole               -0.1277 Ry au,         -0.3247 Debye
        Dipole field         -0.0003 Ry au, 

        Potential amp.        0.0274 Ry
        Total length         45.9924 bohr


     total cpu time spent up to now is      322.9 secs

     total energy              =   -1267.02690792 Ry
     estimated scf accuracy    <       1.92844463 Ry

     iteration #  2     ecut=    55.12 Ry     beta= 0.10
     Davidson diagonalization with overlap
     ethr =  1.40E-03,  avg # of iterations =  2.4

     negative rho (up, down):  2.483E-04 0.000E+00

     Adding external electric field

     Computed dipole along edir(3) : 
        Dipole                0.3445 Ry au,          0.8755 Debye
        Dipole field          0.0008 Ry au, 

        Potential amp.       -0.0738 Ry
        Total length         45.9924 bohr


     total cpu time spent up to now is      515.5 secs

     total energy              =   -1267.18803515 Ry
     estimated scf accuracy    <       0.65481275 Ry

     iteration #  3     ecut=    55.12 Ry     beta= 0.10
     Davidson diagonalization with overlap
     ethr =  4.75E-04,  avg # of iterations =  3.3

     negative rho (up, down):  2.274E-04 0.000E+00

     Adding external electric field

     Computed dipole along edir(3) : 
        Dipole               -0.0349 Ry au,         -0.0887 Debye
        Dipole field         -0.0001 Ry au, 

        Potential amp.        0.0075 Ry
        Total length         45.9924 bohr


     total cpu time spent up to now is      730.3 secs

     total energy              =   -1267.17924102 Ry
     estimated scf accuracy    <       3.58517613 Ry

     iteration #  4     ecut=    55.12 Ry     beta= 0.10
     Davidson diagonalization with overlap
     ethr =  4.75E-04,  avg # of iterations =  1.6

     negative rho (up, down):  2.053E-04 0.000E+00

     Adding external electric field

     Computed dipole along edir(3) : 
        Dipole               -0.0184 Ry au,         -0.0469 Debye
        Dipole field         -0.0000 Ry au, 

        Potential amp.        0.0040 Ry
        Total length         45.9924 bohr


     total cpu time spent up to now is      910.9 secs

     total energy              =   -1267.20090832 Ry
     estimated scf accuracy    <       0.18416090 Ry

     iteration #  5     ecut=    55.12 Ry     beta= 0.10
     Davidson diagonalization with overlap
     ethr =  1.33E-04,  avg # of iterations =  3.0

     negative rho (up, down):  1.913E-04 0.000E+00

     Adding external electric field

     Computed dipole along edir(3) : 
        Dipole               -0.0139 Ry au,         -0.0354 Debye
        Dipole field         -0.0000 Ry au, 

        Potential amp.        0.0030 Ry
        Total length         45.9924 bohr


     total cpu time spent up to now is     1127.6 secs

     total energy              =   -1267.21315428 Ry
     estimated scf accuracy    <       0.06194821 Ry

     iteration #  6     ecut=    55.12 Ry     beta= 0.10
     Davidson diagonalization with overlap
     ethr =  4.49E-05,  avg # of iterations =  7.8

     negative rho (up, down):  1.793E-04 0.000E+00

     Adding external electric field

     Computed dipole along edir(3) : 
        Dipole               -0.0187 Ry au,         -0.0476 Debye
        Dipole field         -0.0000 Ry au, 

        Potential amp.        0.0040 Ry
        Total length         45.9924 bohr


     total cpu time spent up to now is     1371.8 secs

     total energy              =   -1267.21025810 Ry
     estimated scf accuracy    <       0.04812459 Ry

     iteration #  7     ecut=    55.12 Ry     beta= 0.10
     Davidson diagonalization with overlap
     ethr =  3.49E-05,  avg # of iterations =  2.8

     negative rho (up, down):  1.879E-04 0.000E+00

     Adding external electric field

     Computed dipole along edir(3) : 
        Dipole               -0.0202 Ry au,         -0.0514 Debye
        Dipole field         -0.0000 Ry au, 

        Potential amp.        0.0043 Ry
        Total length         45.9924 bohr


     total cpu time spent up to now is     1595.9 secs

     total energy              =   -1267.21329523 Ry
     estimated scf accuracy    <       0.06479200 Ry

     iteration #  8     ecut=    55.12 Ry     beta= 0.10
     Davidson diagonalization with overlap
     ethr =  3.49E-05,  avg # of iterations =  2.0

     negative rho (up, down):  1.831E-04 0.000E+00

     Adding external electric field

     Computed dipole along edir(3) : 
        Dipole               -0.0184 Ry au,         -0.0468 Debye
        Dipole field         -0.0000 Ry au, 

        Potential amp.        0.0039 Ry
        Total length         45.9924 bohr


     total cpu time spent up to now is     1796.7 secs

     total energy              =   -1267.21997125 Ry
     estimated scf accuracy    <       0.00281957 Ry

     iteration #  9     ecut=    55.12 Ry     beta= 0.10
     Davidson diagonalization with overlap
     c_bands:  1 eigenvalues not converged
     c_bands:  1 eigenvalues not converged
     ethr =  2.04E-06,  avg # of iterations =  8.3

     negative rho (up, down):  1.748E-04 0.000E+00

     Adding external electric field

     Computed dipole along edir(3) : 
        Dipole               -0.0154 Ry au,         -0.0392 Debye
        Dipole field         -0.0000 Ry au, 

        Potential amp.        0.0033 Ry
        Total length         45.9924 bohr


     total cpu time spent up to now is     2107.7 secs

     total energy              =   -1267.22029499 Ry
     estimated scf accuracy    <       0.00179690 Ry

     iteration # 10     ecut=    55.12 Ry     beta= 0.10
     Davidson diagonalization with overlap
     ethr =  1.30E-06,  avg # of iterations =  2.5

     negative rho (up, down):  1.780E-04 0.000E+00

     Adding external electric field

     Computed dipole along edir(3) : 
        Dipole               -0.0172 Ry au,         -0.0438 Debye
        Dipole field         -0.0000 Ry au, 

        Potential amp.        0.0037 Ry
        Total length         45.9924 bohr


     total cpu time spent up to now is     2325.3 secs

     total energy              =   -1267.22063781 Ry
     estimated scf accuracy    <       0.00106542 Ry

     iteration # 11     ecut=    55.12 Ry     beta= 0.10
     Davidson diagonalization with overlap
     ethr =  7.72E-07,  avg # of iterations =  4.6

     negative rho (up, down):  1.668E-04 0.000E+00

     Adding external electric field

     Computed dipole along edir(3) : 
        Dipole               -0.0175 Ry au,         -0.0446 Debye
        Dipole field         -0.0000 Ry au, 

        Potential amp.        0.0038 Ry
        Total length         45.9924 bohr


     total cpu time spent up to now is     2567.1 secs

     total energy              =   -1267.22087832 Ry
     estimated scf accuracy    <       0.00297167 Ry

     iteration # 12     ecut=    55.12 Ry     beta= 0.10
     Davidson diagonalization with overlap
     ethr =  7.72E-07,  avg # of iterations =  1.2

     negative rho (up, down):  1.584E-04 0.000E+00

     Adding external electric field

     Computed dipole along edir(3) : 
        Dipole               -0.0169 Ry au,         -0.0428 Debye
        Dipole field         -0.0000 Ry au, 

        Potential amp.        0.0036 Ry
        Total length         45.9924 bohr


     total cpu time spent up to now is     2756.0 secs

     total energy              =   -1267.22073553 Ry
     estimated scf accuracy    <       0.00116374 Ry

     iteration # 13     ecut=    55.12 Ry     beta= 0.10
     Davidson diagonalization with overlap
     ethr =  7.72E-07,  avg # of iterations =  2.0

     negative rho (up, down):  1.504E-04 0.000E+00

     Adding external electric field

     Computed dipole along edir(3) : 
        Dipole               -0.0174 Ry au,         -0.0444 Debye
        Dipole field         -0.0000 Ry au, 

        Potential amp.        0.0037 Ry
        Total length         45.9924 bohr


     total cpu time spent up to now is     2968.4 secs

     total energy              =   -1267.22083948 Ry
     estimated scf accuracy    <       0.00002992 Ry

     iteration # 14     ecut=    55.12 Ry     beta= 0.10
     Davidson diagonalization with overlap
     ethr =  2.17E-08,  avg # of iterations =  6.4

     negative rho (up, down):  1.428E-04 0.000E+00

     Adding external electric field

     Computed dipole along edir(3) : 
        Dipole               -0.0173 Ry au,         -0.0439 Debye
        Dipole field         -0.0000 Ry au, 

        Potential amp.        0.0037 Ry
        Total length         45.9924 bohr


     total cpu time spent up to now is     3234.9 secs

     total energy              =   -1267.22085258 Ry
     estimated scf accuracy    <       0.00001706 Ry

     iteration # 15     ecut=    55.12 Ry     beta= 0.10
     Davidson diagonalization with overlap
     ethr =  1.24E-08,  avg # of iterations =  2.0

     negative rho (up, down):  8.736E-05 0.000E+00

     Adding external electric field

     Computed dipole along edir(3) : 
        Dipole               -0.0253 Ry au,         -0.0644 Debye
        Dipole field         -0.0001 Ry au, 

        Potential amp.        0.0054 Ry
        Total length         45.9924 bohr


     total cpu time spent up to now is     3445.6 secs

     End of self-consistent calculation

          k = 0.0000 0.0000 0.0000 ( 37325 PWs)   bands (ev):

   -61.8781 -61.8415 -61.8191 -61.7823 -61.4276 -61.3901 -30.4918 -30.4883
   -30.4559 -30.4384 -30.4170 -30.3954 -30.3662 -30.3244 -30.3224 -30.2519
   -30.1905 -30.0507 -29.9764 -29.8586 -29.8188 -29.7465 -29.6805 -29.5453
    -5.8514  -4.7913  -4.7627  -4.7420  -4.7360  -4.6765  -4.4943  -4.4389
    -4.4281  -4.3895  -4.3601  -4.3576  -4.2062  -4.0838  -3.9471  -3.8919
    -3.7493  -3.6995  -3.6367  -3.6290  -3.5498  -3.5126  -3.4863  -3.4631
    -3.3693  -3.2733  -3.2447  -3.2097  -3.1069  -3.0422  -2.9561  -2.5835
    -1.4751  -0.5535  -0.3928  -0.3379  -0.2561  -0.0549   0.2752   0.4037
     0.4621   0.6257   0.7036   0.9544   1.3418   1.3939   1.4770   1.7481
     1.8080   2.1377   2.2091   2.2506   2.3634   2.4367   2.8835   3.1943
     3.4900   3.4974   3.8520

          k = 0.0000 0.0157 0.0000 ( 37309 PWs)   bands (ev):

   -61.8781 -61.8415 -61.8191 -61.7823 -61.4276 -61.3901 -30.4919 -30.4884
   -30.4560 -30.4384 -30.4171 -30.3957 -30.3662 -30.3244 -30.3225 -30.2519
   -30.1906 -30.0507 -29.9766 -29.8587 -29.8188 -29.7465 -29.6805 -29.5453
    -5.8023  -4.7739  -4.7412  -4.7245  -4.6974  -4.6676  -4.4866  -4.4230
    -4.4188  -4.3782  -4.3477  -4.3436  -4.1954  -4.0689  -3.9506  -3.8720
    -3.7451  -3.6969  -3.6393  -3.6246  -3.5323  -3.5168  -3.4840  -3.4579
    -3.3749  -3.2685  -3.2401  -3.2032  -3.1106  -3.0439  -2.9555  -2.5839
    -1.4789  -0.7246  -0.5475  -0.3072  -0.2058  -0.0556   0.0904   0.2673
     0.4450   0.6400   0.8271   0.9759   1.2398   1.4006   1.4251   1.7156
     1.8104   1.9893   2.0036   2.2116   2.3534   2.3912   2.8541   3.2276
     3.5176   3.6035   3.9401

          k = 0.0000 0.0313 0.0000 ( 37328 PWs)   bands (ev):

   -61.8781 -61.8415 -61.8191 -61.7823 -61.4276 -61.3901 -30.4922 -30.4888
   -30.4562 -30.4384 -30.4171 -30.3965 -30.3662 -30.3243 -30.3230 -30.2521
   -30.1908 -30.0507 -29.9770 -29.8587 -29.8188 -29.7467 -29.6806 -29.5454
    -5.6579  -4.7278  -4.6865  -4.6725  -4.6470  -4.5843  -4.4644  -4.4073
    -4.3635  -4.3435  -4.3129  -4.2991  -4.1674  -4.0233  -3.9613  -3.8180
    -3.7325  -3.6896  -3.6485  -3.6055  -3.5281  -3.4911  -3.4781  -3.4431
    -3.3890  -3.2555  -3.2269  -3.1826  -3.1202  -3.0486  -2.9537  -2.5848
    -1.5474  -1.1242  -0.5267  -0.4385  -0.3550  -0.3474  -0.0634   0.2797
     0.3959   0.5149   0.9102   0.9701   1.0823   1.2042   1.3777   1.6134
     1.6194   1.7135   1.8091   2.1455   2.2301   2.3226   2.8198   3.2700
     3.4362   3.7099   3.8083

          k = 0.0000 0.0470 0.0000 ( 37304 PWs)   bands (ev):

   -61.8780 -61.8415 -61.8191 -61.7823 -61.4276 -61.3901 -30.4925 -30.4893
   -30.4565 -30.4384 -30.4172 -30.3976 -30.3661 -30.3243 -30.3237 -30.2523
   -30.1910 -30.0507 -29.9775 -29.8588 -29.8189 -29.7468 -29.6808 -29.5455
    -5.4286  -4.6695  -4.6445  -4.5900  -4.5774  -4.4661  -4.4268  -4.3804
    -4.3017  -4.2724  -4.2386  -4.2231  -4.1324  -3.9785  -3.9478  -3.7465
    -3.7121  -3.6793  -3.6647  -3.5699  -3.5403  -3.4702  -3.4549  -3.4223
    -3.3931  -3.2379  -3.2078  -3.1447  -3.1316  -3.0554  -2.9514  -2.5858
    -1.9320  -1.2466  -0.7706  -0.7287  -0.6171  -0.4731  -0.0769   0.2512
     0.3196   0.4027   0.7423   0.8597   0.9096   0.9302   1.2648   1.2901
     1.4152   1.5455   1.8323   2.0112   2.0277   2.3698   2.8126   3.1592
     3.3045   3.7257   3.8903

          k = 0.0000 0.0627 0.0000 ( 37264 PWs)   bands (ev):

   -61.8780 -61.8415 -61.8190 -61.7823 -61.4276 -61.3901 -30.4929 -30.4898
   -30.4568 -30.4385 -30.4173 -30.3987 -30.3661 -30.3244 -30.3243 -30.2524
   -30.1913 -30.0508 -29.9780 -29.8589 -29.8189 -29.7470 -29.6809 -29.5456
    -5.1393  -4.6164  -4.6156  -4.5021  -4.4917  -4.4073  -4.3724  -4.3443
    -4.2480  -4.1800  -4.1793  -4.0986  -4.0571  -3.9999  -3.8512  -3.7085
    -3.6854  -3.6682  -3.6570  -3.5412  -3.5352  -3.4627  -3.4551  -3.4012
    -3.3525  -3.2204  -3.1874  -3.1412  -3.0832  -3.0628  -2.9490  -2.5859
    -2.4685  -1.3172  -1.1268  -1.0462  -0.7887  -0.3816  -0.0834   0.0778
     0.2248   0.3496   0.4724   0.6151   0.6732   0.8536   0.8681   1.1407
     1.3517   1.4501   1.7923   1.7988   2.0548   2.4132   2.8230   2.9077
     3.3327   3.7011   3.9953

          k = 0.0000 0.0783 0.0000 ( 37222 PWs)   bands (ev):

   -61.8780 -61.8415 -61.8190 -61.7823 -61.4276 -61.3901 -30.4931 -30.4902
   -30.4571 -30.4384 -30.4174 -30.3995 -30.3660 -30.3248 -30.3243 -30.2526
   -30.1914 -30.0508 -29.9784 -29.8589 -29.8190 -29.7471 -29.6810 -29.5456
    -4.8566  -4.5866  -4.5780  -4.4754  -4.4051  -4.3579  -4.3303  -4.3073
    -4.2127  -4.1393  -4.1001  -4.0700  -4.0217  -3.9295  -3.7545  -3.7328
    -3.6595  -3.6580  -3.5815  -3.5397  -3.5155  -3.4573  -3.4450  -3.3853
    -3.2942  -3.2074  -3.1715  -3.1541  -3.0689  -3.0379  -2.9473  -2.9077
    -2.5849  -1.6970  -1.3691  -0.9432  -0.9158  -0.2422  -0.1860  -0.0645
     0.1325   0.2572   0.3083   0.4216   0.4798   0.5695   0.8093   1.0494
     1.3179   1.3868   1.6566   1.7366   2.1702   2.3849   2.7613   2.8352
     3.3526   3.6710   4.0459

          k = 0.0000-0.0940 0.0000 ( 37222 PWs)   bands (ev):

   -61.8780 -61.8415 -61.8190 -61.7823 -61.4276 -61.3901 -30.4932 -30.4903
   -30.4572 -30.4384 -30.4174 -30.3999 -30.3660 -30.3250 -30.3243 -30.2526
   -30.1915 -30.0508 -29.9786 -29.8589 -29.8190 -29.7472 -29.6811 -29.5457
    -4.7331  -4.5646  -4.5500  -4.4900  -4.3676  -4.3411  -4.2978  -4.2903
    -4.2040  -4.1263  -4.0572  -4.0552  -4.0425  -3.9054  -3.7444  -3.7027
    -3.6560  -3.6551  -3.5603  -3.4986  -3.4732  -3.4553  -3.4343  -3.3795
    -3.2594  -3.2575  -3.2027  -3.1674  -3.1655  -3.0713  -2.9468  -2.8880
    -2.5842  -1.8953  -1.4559  -0.9628  -0.8306  -0.3520  -0.1512  -0.0108
     0.0916   0.1781   0.2563   0.2892   0.3538   0.5424   0.7962   1.0157
     1.3058   1.3647   1.6078   1.7169   2.2792   2.3013   2.7200   2.8401
     3.3601   3.6582   4.0238

          k = 0.0139 0.0078 0.0000 ( 37334 PWs)   bands (ev):

   -61.8774 -61.8421 -61.8185 -61.7830 -61.4270 -61.3907 -30.4871 -30.4815
   -30.4456 -30.4371 -30.4183 -30.3942 -30.3674 -30.3257 -30.3212 -30.2532
   -30.1801 -30.0495 -29.9777 -29.8700 -29.8302 -29.7454 -29.6817 -29.5569
    -5.8006  -4.7729  -4.7391  -4.7246  -4.6947  -4.6516  -4.4778  -4.4238
    -4.4076  -4.3738  -4.3489  -4.3340  -4.2031  -4.0757  -3.9365  -3.8819
    -3.7483  -3.6888  -3.6341  -3.6266  -3.5472  -3.5148  -3.5053  -3.4798
    -3.3732  -3.2888  -3.2603  -3.1928  -3.1209  -3.0594  -2.9677  -2.6084
    -1.4635  -0.7659  -0.4934  -0.3258  -0.2821  -0.2072   0.3170   0.4129
     0.5012   0.6937   0.8094   0.9854   1.3241   1.4163   1.4796   1.7588
     1.7920   2.0010   2.1760   2.2261   2.3855   2.4088   2.8713   3.1672
     3.3426   3.5023   3.8146

          k = 0.0139 0.0235 0.0000 ( 37317 PWs)   bands (ev):

   -61.8774 -61.8421 -61.8184 -61.7830 -61.4270 -61.3907 -30.4874 -30.4817
   -30.4457 -30.4372 -30.4183 -30.3948 -30.3674 -30.3256 -30.3216 -30.2533
   -30.1802 -30.0495 -29.9780 -29.8700 -29.8302 -29.7454 -29.6817 -29.5569
    -5.7038  -4.7402  -4.6979  -4.6907  -4.6430  -4.6133  -4.4617  -4.3985
    -4.3859  -4.3521  -4.3173  -4.3143  -4.1835  -4.0465  -3.9434  -3.8444
    -3.7400  -3.6837  -3.6418  -3.6175  -3.5274  -3.5151  -3.4969  -3.4691
    -3.3835  -3.2817  -3.2513  -3.1765  -3.1276  -3.0614  -2.9672  -2.6094
    -1.4806  -0.9010  -0.8143  -0.4038  -0.3678  -0.2022   0.2120   0.3165
     0.4237   0.5983   0.9595   1.0000   1.1872   1.2681   1.4202   1.7334
     1.7653   1.7953   1.8751   2.1781   2.3394   2.3425   2.8017   3.1978
     3.4781   3.5543   3.7942

          k = 0.0139 0.0392 0.0000 ( 37290 PWs)   bands (ev):

   -61.8774 -61.8421 -61.8184 -61.7830 -61.4270 -61.3907 -30.4878 -30.4820
   -30.4460 -30.4372 -30.4184 -30.3958 -30.3674 -30.3256 -30.3222 -30.2534
   -30.1804 -30.0495 -29.9785 -29.8701 -29.8303 -29.7456 -29.6818 -29.5570
    -5.5163  -4.6862  -4.6397  -4.6239  -4.6023  -4.4915  -4.4308  -4.3797
    -4.3217  -4.3059  -4.2631  -4.2622  -4.1522  -3.9879  -3.9569  -3.7806
    -3.7236  -3.6745  -3.6578  -3.5917  -3.5423  -3.4885  -3.4715  -3.4514
    -3.3965  -3.2694  -3.2356  -3.1425  -3.1381  -3.0644  -2.9664  -2.6111
    -1.6803  -1.1923  -0.9735  -0.5431  -0.4952  -0.4652   0.0669   0.3263
     0.3484   0.4799   0.9092   0.9543   0.9612   1.0255   1.3415   1.4364
     1.5681   1.6996   1.8217   2.0684   2.1645   2.3403   2.7862   3.2283
     3.2672   3.6801   3.8182

          k = 0.0139 0.0548 0.0000 ( 37273 PWs)   bands (ev):

   -61.8774 -61.8421 -61.8184 -61.7830 -61.4270 -61.3907 -30.4883 -30.4824
   -30.4463 -30.4372 -30.4185 -30.3969 -30.3673 -30.3256 -30.3228 -30.2536
   -30.1806 -30.0495 -29.9790 -29.8702 -29.8303 -29.7458 -29.6820 -29.5571
    -5.2541  -4.6287  -4.6068  -4.5317  -4.5245  -4.4063  -4.3791  -4.3484
    -4.2641  -4.2265  -4.1988  -4.1367  -4.1191  -3.9761  -3.9035  -3.7134
    -3.7067  -3.6718  -3.6631  -3.5558  -3.5525  -3.4813  -3.4549  -3.4316
    -3.3793  -3.2545  -3.2173  -3.1480  -3.0952  -3.0586  -2.9652  -2.6128
    -2.1746  -1.2384  -1.2047  -0.9156  -0.7149  -0.4704  -0.0006   0.2230
     0.2579   0.4079   0.5965   0.7003   0.7857   0.9309   1.1745   1.2266
     1.3432   1.6189   1.8378   1.9545   2.0071   2.3943   2.8027   3.0110
     3.2657   3.6945   3.9154

          k = 0.0139 0.0705 0.0000 ( 37237 PWs)   bands (ev):

   -61.8774 -61.8421 -61.8184 -61.7830 -61.4269 -61.3907 -30.4888 -30.4827
   -30.4466 -30.4372 -30.4186 -30.3979 -30.3673 -30.3255 -30.3234 -30.2537
   -30.1809 -30.0495 -29.9795 -29.8702 -29.8304 -29.7459 -29.6821 -29.5572
    -4.9568  -4.5817  -4.5799  -4.4682  -4.4346  -4.3570  -4.3320  -4.3125
    -4.2179  -4.1639  -4.1264  -4.0882  -3.9963  -3.9786  -3.8087  -3.7263
    -3.6710  -3.6516  -3.6314  -3.5443  -3.5388  -3.4775  -3.4559  -3.4142
    -3.3273  -3.2407  -3.2018  -3.1578  -3.0837  -2.9974  -2.9592  -2.6867
    -2.6135  -1.4887  -1.4724  -0.9887  -0.8667  -0.4101  -0.0316  -0.0170
     0.1656   0.3326   0.3669   0.4745   0.6451   0.8147   0.8774   1.1237
     1.2814   1.5572   1.7784   1.7844   2.1024   2.4025   2.8222   2.8251
     3.2997   3.6656   3.9963

          k = 0.0139 0.0862 0.0000 ( 37233 PWs)   bands (ev):

   -61.8774 -61.8421 -61.8184 -61.7830 -61.4269 -61.3907 -30.4890 -30.4829
   -30.4468 -30.4372 -30.4186 -30.3985 -30.3673 -30.3255 -30.3237 -30.2538
   -30.1810 -30.0496 -29.9798 -29.8702 -29.8304 -29.7460 -29.6822 -29.5572
    -4.7325  -4.5554  -4.5418  -4.4692  -4.3654  -4.3183  -4.2928  -4.2842
    -4.1986  -4.1371  -4.0808  -4.0498  -4.0165  -3.9108  -3.7478  -3.7311
    -3.6599  -3.6448  -3.5586  -3.5436  -3.5123  -3.4828  -3.4434  -3.3878
    -3.2751  -3.2454  -3.1945  -3.1741  -3.1415  -3.0813  -2.9645  -2.8237
    -2.6134  -1.8146  -1.6364  -0.9560  -0.8296  -0.3356  -0.2741  -0.0636
     0.1107   0.2069   0.3340   0.3859   0.5259   0.5902   0.8538   1.0632
     1.2531   1.5257   1.6904   1.7414   2.2233   2.3403   2.7408   2.8336
     3.3206   3.6403   4.0073

          k = 0.0139-0.0862 0.0000 ( 37233 PWs)   bands (ev):

   -61.8774 -61.8421 -61.8184 -61.7830 -61.4269 -61.3907 -30.4890 -30.4829
   -30.4468 -30.4372 -30.4186 -30.3985 -30.3673 -30.3255 -30.3237 -30.2538
   -30.1810 -30.0496 -29.9798 -29.8702 -29.8304 -29.7460 -29.6822 -29.5572
    -4.7325  -4.5554  -4.5418  -4.4692  -4.3654  -4.3183  -4.2928  -4.2842
    -4.1986  -4.1371  -4.0808  -4.0498  -4.0165  -3.9108  -3.7478  -3.7311
    -3.6599  -3.6448  -3.5586  -3.5436  -3.5123  -3.4828  -3.4434  -3.3878
    -3.2751  -3.2454  -3.1945  -3.1741  -3.1415  -3.0813  -2.9645  -2.8237
    -2.6134  -1.8146  -1.6364  -0.9560  -0.8296  -0.3356  -0.2741  -0.0636
     0.1107   0.2069   0.3340   0.3859   0.5259   0.5902   0.8538   1.0632
     1.2531   1.5257   1.6904   1.7414   2.2233   2.3403   2.7408   2.8336
     3.3206   3.6403   4.0077

          k = 0.0139-0.0705 0.0000 ( 37237 PWs)   bands (ev):

   -61.8774 -61.8421 -61.8184 -61.7830 -61.4269 -61.3907 -30.4888 -30.4827
   -30.4466 -30.4372 -30.4186 -30.3979 -30.3673 -30.3255 -30.3234 -30.2537
   -30.1809 -30.0495 -29.9795 -29.8702 -29.8304 -29.7459 -29.6821 -29.5572
    -4.9568  -4.5817  -4.5799  -4.4682  -4.4346  -4.3570  -4.3320  -4.3125
    -4.2179  -4.1639  -4.1264  -4.0882  -3.9963  -3.9786  -3.8087  -3.7263
    -3.6710  -3.6516  -3.6314  -3.5443  -3.5388  -3.4775  -3.4559  -3.4142
    -3.3273  -3.2407  -3.2018  -3.1578  -3.0837  -2.9974  -2.9592  -2.6867
    -2.6135  -1.4887  -1.4724  -0.9887  -0.8667  -0.4101  -0.0316  -0.0170
     0.1656   0.3326   0.3669   0.4745   0.6451   0.8147   0.8774   1.1237
     1.2814   1.5572   1.7784   1.7844   2.1024   2.4025   2.8222   2.8251
     3.2997   3.6657   3.9964

          k = 0.0139-0.0548 0.0000 ( 37273 PWs)   bands (ev):

   -61.8774 -61.8421 -61.8184 -61.7830 -61.4270 -61.3907 -30.4883 -30.4824
   -30.4463 -30.4372 -30.4185 -30.3969 -30.3673 -30.3256 -30.3228 -30.2536
   -30.1806 -30.0495 -29.9790 -29.8702 -29.8303 -29.7458 -29.6820 -29.5571
    -5.2541  -4.6287  -4.6068  -4.5317  -4.5245  -4.4063  -4.3791  -4.3484
    -4.2641  -4.2265  -4.1988  -4.1367  -4.1191  -3.9761  -3.9035  -3.7134
    -3.7067  -3.6718  -3.6631  -3.5558  -3.5525  -3.4813  -3.4549  -3.4316
    -3.3793  -3.2545  -3.2173  -3.1480  -3.0952  -3.0586  -2.9652  -2.6128
    -2.1746  -1.2384  -1.2047  -0.9156  -0.7149  -0.4704  -0.0006   0.2230
     0.2579   0.4079   0.5965   0.7003   0.7857   0.9309   1.1745   1.2266
     1.3432   1.6189   1.8378   1.9545   2.0071   2.3943   2.8027   3.0110
     3.2657   3.6944   3.9154

          k = 0.0139-0.0392 0.0000 ( 37290 PWs)   bands (ev):

   -61.8774 -61.8421 -61.8184 -61.7830 -61.4270 -61.3907 -30.4878 -30.4820
   -30.4460 -30.4372 -30.4184 -30.3958 -30.3674 -30.3256 -30.3222 -30.2534
   -30.1804 -30.0495 -29.9785 -29.8701 -29.8303 -29.7456 -29.6818 -29.5570
    -5.5163  -4.6862  -4.6397  -4.6239  -4.6023  -4.4915  -4.4308  -4.3797
    -4.3217  -4.3059  -4.2631  -4.2622  -4.1522  -3.9879  -3.9569  -3.7806
    -3.7236  -3.6745  -3.6578  -3.5917  -3.5423  -3.4885  -3.4715  -3.4514
    -3.3965  -3.2694  -3.2356  -3.1425  -3.1381  -3.0644  -2.9664  -2.6111
    -1.6803  -1.1923  -0.9735  -0.5431  -0.4952  -0.4652   0.0669   0.3263
     0.3484   0.4799   0.9092   0.9543   0.9612   1.0255   1.3415   1.4364
     1.5681   1.6996   1.8217   2.0684   2.1645   2.3403   2.7862   3.2283
     3.2672   3.6802   3.8181

          k = 0.0139-0.0235 0.0000 ( 37317 PWs)   bands (ev):

   -61.8774 -61.8421 -61.8184 -61.7830 -61.4270 -61.3907 -30.4874 -30.4817
   -30.4457 -30.4372 -30.4183 -30.3948 -30.3674 -30.3256 -30.3216 -30.2533
   -30.1802 -30.0495 -29.9780 -29.8700 -29.8302 -29.7454 -29.6817 -29.5569
    -5.7038  -4.7402  -4.6979  -4.6907  -4.6430  -4.6133  -4.4617  -4.3985
    -4.3859  -4.3521  -4.3173  -4.3143  -4.1835  -4.0465  -3.9434  -3.8444
    -3.7400  -3.6837  -3.6418  -3.6175  -3.5274  -3.5151  -3.4969  -3.4691
    -3.3835  -3.2817  -3.2513  -3.1765  -3.1276  -3.0614  -2.9672  -2.6094
    -1.4806  -0.9010  -0.8143  -0.4038  -0.3678  -0.2022   0.2120   0.3165
     0.4237   0.5983   0.9595   1.0000   1.1872   1.2681   1.4202   1.7334
     1.7653   1.7953   1.8751   2.1781   2.3394   2.3425   2.8017   3.1979
     3.4781   3.5543   3.7942

          k = 0.0139-0.0078 0.0000 ( 37334 PWs)   bands (ev):

   -61.8774 -61.8421 -61.8185 -61.7830 -61.4270 -61.3907 -30.4871 -30.4815
   -30.4456 -30.4371 -30.4183 -30.3942 -30.3674 -30.3257 -30.3212 -30.2532
   -30.1801 -30.0495 -29.9777 -29.8700 -29.8302 -29.7454 -29.6817 -29.5569
    -5.8006  -4.7729  -4.7391  -4.7246  -4.6947  -4.6516  -4.4778  -4.4238
    -4.4076  -4.3738  -4.3489  -4.3340  -4.2031  -4.0757  -3.9365  -3.8819
    -3.7483  -3.6888  -3.6341  -3.6266  -3.5472  -3.5148  -3.5053  -3.4798
    -3.3732  -3.2888  -3.2603  -3.1928  -3.1209  -3.0594  -2.9677  -2.6084
    -1.4635  -0.7659  -0.4934  -0.3258  -0.2821  -0.2072   0.3170   0.4129
     0.5011   0.6937   0.8094   0.9854   1.3241   1.4163   1.4796   1.7588
     1.7920   2.0010   2.1760   2.2261   2.3855   2.4088   2.8713   3.1672
     3.3426   3.5023   3.8146

          k = 0.0277 0.0157 0.0000 ( 37300 PWs)   bands (ev):

   -61.8756 -61.8440 -61.8166 -61.7848 -61.4251 -61.3926 -30.4837 -30.4513
   -30.4336 -30.4221 -30.4151 -30.3909 -30.3710 -30.3294 -30.3179 -30.2569
   -30.1492 -30.0459 -29.9816 -29.9032 -29.8636 -29.7421 -29.6850 -29.5907
    -5.6512  -4.7198  -4.6745  -4.6739  -4.5866  -4.5694  -4.4419  -4.3856
    -4.3341  -4.3301  -4.3117  -4.2657  -4.1945  -4.0533  -3.9056  -3.8540
    -3.7485  -3.6586  -3.6323  -3.6213  -3.5679  -3.5386  -3.5256  -3.5033
    -3.3844  -3.3343  -3.3020  -3.1623  -3.1552  -3.1024  -2.9986  -2.6846
    -1.4306  -1.2331  -0.7395  -0.5888  -0.4437  -0.0369   0.2960   0.4424
     0.6645   0.6884   0.9053   1.0544   1.2695   1.4807   1.4851   1.7553
     1.8226   1.8609   1.9583   2.1800   2.3488   2.4444   2.7604   3.0421
     3.2762   3.4247   3.7672

          k = 0.0277 0.0313 0.0000 ( 37279 PWs)   bands (ev):

   -61.8756 -61.8440 -61.8166 -61.7848 -61.4251 -61.3926 -30.4840 -30.4516
   -30.4336 -30.4221 -30.4153 -30.3917 -30.3710 -30.3293 -30.3184 -30.2570
   -30.1494 -30.0459 -29.9819 -29.9032 -29.8636 -29.7422 -29.6851 -29.5908
    -5.5113  -4.6763  -4.6284  -4.6188  -4.5650  -4.4729  -4.4170  -4.3394
    -4.3227  -4.2984  -4.2686  -4.2392  -4.1710  -4.0138  -3.9152  -3.8049
    -3.7370  -3.6543  -3.6503  -3.6103  -3.5755  -3.5096  -3.5002  -3.4980
    -3.3963  -3.3288  -3.2902  -3.1701  -3.1378  -3.0840  -3.0005  -2.6876
    -1.4951  -1.3826  -0.9880  -0.7603  -0.5402  -0.2188   0.2168   0.4624
     0.4989   0.6056   0.8328   1.0369   1.1622   1.2189   1.4336   1.5236
     1.7652   1.7954   1.9094   2.0943   2.3004   2.3299   2.7203   3.0772
     3.2631   3.5422   3.7432

          k = 0.0277 0.0470 0.0000 ( 37256 PWs)   bands (ev):

   -61.8756 -61.8440 -61.8166 -61.7848 -61.4251 -61.3926 -30.4845 -30.4519
   -30.4336 -30.4221 -30.4157 -30.3927 -30.3710 -30.3293 -30.3189 -30.2571
   -30.1496 -30.0459 -29.9824 -29.9032 -29.8636 -29.7424 -29.6852 -29.5908
    -5.2890  -4.6198  -4.5568  -4.5520  -4.5272  -4.3832  -4.3504  -4.2993
    -4.2793  -4.2446  -4.2091  -4.1753  -4.1417  -3.9519  -3.9290  -3.7427
    -3.7217  -3.6786  -3.6390  -3.5870  -3.5857  -3.4981  -3.4905  -3.4642
    -3.3987  -3.3213  -3.2750  -3.1788  -3.1290  -3.0292  -3.0021  -2.6920
    -1.8505  -1.6048  -1.1110  -0.8078  -0.6408  -0.6310   0.1606   0.3091
     0.4246   0.5314   0.6164   0.9281   0.9305   1.0773   1.3208   1.3493
     1.5246   1.8693   1.8702   1.9815   2.1436   2.3640   2.7481   3.0636
     3.1200   3.6430   3.8100

          k = 0.0277 0.0627 0.0000 ( 37270 PWs)   bands (ev):

   -61.8756 -61.8440 -61.8166 -61.7848 -61.4251 -61.3926 -30.4850 -30.4523
   -30.4336 -30.4222 -30.4160 -30.3938 -30.3709 -30.3292 -30.3196 -30.2573
   -30.1499 -30.0459 -29.9829 -29.9033 -29.8637 -29.7425 -29.6854 -29.5909
    -5.0084  -4.5665  -4.5279  -4.4586  -4.4550  -4.3353  -4.3012  -4.2562
    -4.2243  -4.1885  -4.1435  -4.1074  -4.0436  -3.9508  -3.8705  -3.7349
    -3.6924  -3.6678  -3.6273  -3.5946  -3.5623  -3.4947  -3.4756  -3.4637
    -3.3632  -3.3145  -3.2603  -3.1863  -3.1269  -3.0093  -2.9297  -2.6967
    -2.3571  -1.8378  -1.1649  -0.9656  -0.9337  -0.6493   0.0748   0.1584
     0.2216   0.4260   0.4989   0.6769   0.7899   1.0354   1.1361   1.2613
     1.3098   1.8175   1.8523   2.0007   2.0250   2.3875   2.7906   2.8974
     3.1681   3.6359   3.8770

          k = 0.0277 0.0783 0.0000 ( 37246 PWs)   bands (ev):

   -61.8756 -61.8440 -61.8166 -61.7848 -61.4251 -61.3926 -30.4853 -30.4525
   -30.4336 -30.4222 -30.4162 -30.3945 -30.3709 -30.3291 -30.3200 -30.2573
   -30.1500 -30.0459 -29.9833 -29.9033 -29.8637 -29.7426 -29.6854 -29.5909
    -4.7322  -4.5285  -4.5030  -4.4232  -4.3622  -4.2905  -4.2641  -4.2295
    -4.1912  -4.1592  -4.1060  -4.0478  -3.9691  -3.9348  -3.7959  -3.7660
    -3.6709  -3.6246  -3.6187  -3.5884  -3.5645  -3.4946  -3.4626  -3.4478
    -3.3151  -3.3123  -3.2453  -3.1988  -3.1277  -3.0158  -2.9291  -2.7002
    -2.6688  -2.0139  -1.5847  -1.0531  -0.8093  -0.6122  -0.1249  -0.0645
     0.1771   0.3343   0.4617   0.5393   0.7220   0.8512   1.0165   1.1934
     1.2483   1.7818   1.8086   1.8938   2.1415   2.3644   2.7970   2.8184
     3.2120   3.5986   3.9321

          k = 0.0277 0.0940 0.0000 ( 37234 PWs)   bands (ev):

   -61.8756 -61.8440 -61.8166 -61.7848 -61.4251 -61.3926 -30.4854 -30.4526
   -30.4336 -30.4222 -30.4163 -30.3948 -30.3709 -30.3291 -30.3202 -30.2574
   -30.1501 -30.0459 -29.9834 -29.9033 -29.8637 -29.7427 -29.6855 -29.5909
    -4.6092  -4.5147  -4.4550  -4.4511  -4.3174  -4.2728  -4.2302  -4.2209
    -4.1881  -4.1516  -4.0940  -3.9974  -3.9953  -3.9124  -3.7801  -3.7586
    -3.6701  -3.6158  -3.5992  -3.5771  -3.5753  -3.4993  -3.4586  -3.3777
    -3.3459  -3.2810  -3.2126  -3.2050  -3.1799  -3.1052  -3.0097  -2.7015
    -2.6038  -2.0796  -1.7989  -1.0994  -0.6729  -0.5876  -0.2481  -0.2102
     0.1909   0.3080   0.4449   0.5535   0.6727   0.7050   1.0135   1.1661
     1.2326   1.7727   1.7944   1.8511   2.2134   2.3246   2.7654   2.8273
     3.2312   3.5792   3.9548

          k = 0.0277-0.0783 0.0000 ( 37246 PWs)   bands (ev):

   -61.8756 -61.8440 -61.8166 -61.7848 -61.4251 -61.3926 -30.4853 -30.4525
   -30.4336 -30.4222 -30.4162 -30.3945 -30.3709 -30.3291 -30.3200 -30.2573
   -30.1500 -30.0459 -29.9833 -29.9033 -29.8637 -29.7426 -29.6854 -29.5909
    -4.7322  -4.5285  -4.5030  -4.4232  -4.3622  -4.2905  -4.2641  -4.2295
    -4.1912  -4.1592  -4.1060  -4.0478  -3.9691  -3.9348  -3.7959  -3.7660
    -3.6709  -3.6246  -3.6187  -3.5884  -3.5645  -3.4946  -3.4626  -3.4478
    -3.3151  -3.3123  -3.2453  -3.1988  -3.1277  -3.0158  -2.9291  -2.7002
    -2.6688  -2.0139  -1.5847  -1.0531  -0.8093  -0.6122  -0.1249  -0.0645
     0.1771   0.3343   0.4617   0.5393   0.7220   0.8512   1.0165   1.1934
     1.2483   1.7818   1.8086   1.8938   2.1415   2.3644   2.7970   2.8184
     3.2120   3.5986   3.9326

          k = 0.0277-0.0627 0.0000 ( 37270 PWs)   bands (ev):

   -61.8756 -61.8440 -61.8166 -61.7848 -61.4251 -61.3926 -30.4850 -30.4523
   -30.4336 -30.4222 -30.4160 -30.3938 -30.3709 -30.3292 -30.3196 -30.2573
   -30.1499 -30.0459 -29.9829 -29.9033 -29.8637 -29.7425 -29.6854 -29.5909
    -5.0084  -4.5665  -4.5279  -4.4586  -4.4550  -4.3353  -4.3012  -4.2562
    -4.2243  -4.1885  -4.1435  -4.1074  -4.0436  -3.9508  -3.8705  -3.7349
    -3.6924  -3.6678  -3.6273  -3.5946  -3.5623  -3.4947  -3.4756  -3.4637
    -3.3632  -3.3145  -3.2603  -3.1863  -3.1269  -3.0093  -2.9297  -2.6967
    -2.3571  -1.8378  -1.1649  -0.9656  -0.9337  -0.6493   0.0748   0.1584
     0.2216   0.4260   0.4989   0.6769   0.7899   1.0354   1.1361   1.2613
     1.3098   1.8175   1.8523   2.0007   2.0250   2.3875   2.7906   2.8974
     3.1681   3.6359   3.8769

          k = 0.0277-0.0470 0.0000 ( 37256 PWs)   bands (ev):

   -61.8756 -61.8440 -61.8166 -61.7848 -61.4251 -61.3926 -30.4845 -30.4519
   -30.4336 -30.4221 -30.4157 -30.3927 -30.3710 -30.3293 -30.3189 -30.2571
   -30.1496 -30.0459 -29.9824 -29.9032 -29.8636 -29.7424 -29.6852 -29.5908
    -5.2890  -4.6198  -4.5568  -4.5520  -4.5272  -4.3832  -4.3504  -4.2993
    -4.2793  -4.2446  -4.2091  -4.1753  -4.1417  -3.9519  -3.9290  -3.7427
    -3.7217  -3.6786  -3.6390  -3.5870  -3.5857  -3.4981  -3.4905  -3.4642
    -3.3987  -3.3213  -3.2750  -3.1788  -3.1290  -3.0292  -3.0021  -2.6920
    -1.8505  -1.6048  -1.1110  -0.8078  -0.6408  -0.6310   0.1606   0.3091
     0.4246   0.5314   0.6164   0.9281   0.9305   1.0773   1.3208   1.3493
     1.5246   1.8693   1.8702   1.9815   2.1436   2.3640   2.7481   3.0636
     3.1200   3.6428   3.8100

          k = 0.0277-0.0313 0.0000 ( 37279 PWs)   bands (ev):

   -61.8756 -61.8440 -61.8166 -61.7848 -61.4251 -61.3926 -30.4840 -30.4516
   -30.4336 -30.4221 -30.4153 -30.3917 -30.3710 -30.3293 -30.3184 -30.2570
   -30.1494 -30.0459 -29.9819 -29.9032 -29.8636 -29.7422 -29.6851 -29.5908
    -5.5113  -4.6763  -4.6284  -4.6188  -4.5650  -4.4729  -4.4170  -4.3394
    -4.3227  -4.2984  -4.2686  -4.2392  -4.1710  -4.0138  -3.9152  -3.8049
    -3.7370  -3.6543  -3.6503  -3.6103  -3.5755  -3.5096  -3.5002  -3.4980
    -3.3963  -3.3288  -3.2902  -3.1701  -3.1378  -3.0840  -3.0005  -2.6876
    -1.4951  -1.3826  -0.9880  -0.7603  -0.5402  -0.2188   0.2168   0.4624
     0.4989   0.6056   0.8328   1.0369   1.1622   1.2189   1.4336   1.5236
     1.7652   1.7954   1.9094   2.0943   2.3004   2.3299   2.7203   3.0772
     3.2631   3.5422   3.7432

          k = 0.0277-0.0157 0.0000 ( 37300 PWs)   bands (ev):

   -61.8756 -61.8440 -61.8166 -61.7848 -61.4251 -61.3926 -30.4837 -30.4513
   -30.4336 -30.4221 -30.4151 -30.3909 -30.3710 -30.3294 -30.3179 -30.2569
   -30.1492 -30.0459 -29.9816 -29.9032 -29.8636 -29.7421 -29.6850 -29.5907
    -5.6512  -4.7198  -4.6745  -4.6739  -4.5866  -4.5694  -4.4419  -4.3856
    -4.3341  -4.3301  -4.3117  -4.2657  -4.1945  -4.0533  -3.9056  -3.8540
    -3.7485  -3.6586  -3.6323  -3.6213  -3.5679  -3.5386  -3.5256  -3.5033
    -3.3844  -3.3343  -3.3020  -3.1623  -3.1552  -3.1024  -2.9986  -2.6846
    -1.4306  -1.2331  -0.7395  -0.5888  -0.4437  -0.0369   0.2960   0.4424
     0.6645   0.6884   0.9053   1.0544   1.2695   1.4807   1.4851   1.7553
     1.8226   1.8609   1.9583   2.1800   2.3488   2.4444   2.7604   3.0421
     3.2762   3.4246   3.7686

          k = 0.0277-0.0000 0.0000 ( 37349 PWs)   bands (ev):

   -61.8756 -61.8440 -61.8166 -61.7848 -61.4251 -61.3926 -30.4836 -30.4512
   -30.4336 -30.4220 -30.4150 -30.3907 -30.3710 -30.3295 -30.3178 -30.2569
   -30.1492 -30.0459 -29.9814 -29.9032 -29.8636 -29.7421 -29.6850 -29.5907
    -5.6988  -4.7359  -4.6941  -4.6899  -4.6139  -4.5850  -4.4502  -4.4024
    -4.3400  -4.3378  -4.3281  -4.2739  -4.2037  -4.0665  -3.9024  -3.8724
    -3.7525  -3.6615  -3.6230  -3.6221  -3.5663  -3.5571  -3.5323  -3.5045
    -3.3795  -3.3365  -3.3065  -3.1634  -3.1592  -3.1056  -2.9980  -2.6836
    -1.4280  -1.1832  -0.7291  -0.4087  -0.2549  -0.1659   0.3368   0.4553
     0.7262   0.7727   0.8650   1.0524   1.3158   1.4895   1.6485   1.7428
     1.7964   1.8968   2.1261   2.2082   2.3738   2.5029   2.8836   2.9929
     3.0313   3.4738   3.6670

          k = 0.0416 0.0235 0.0000 ( 37266 PWs)   bands (ev):

   -61.8727 -61.8469 -61.8137 -61.7877 -61.4221 -61.3956 -30.4782 -30.4279
   -30.4279 -30.4030 -30.3856 -30.3769 -30.3664 -30.3354 -30.3126 -30.2628
   -30.1000 -30.0402 -29.9876 -29.9555 -29.9163 -29.7370 -29.6904 -29.6441
    -5.4140  -4.6384  -4.5987  -4.5837  -4.4668  -4.4116  -4.3911  -4.3472
    -4.2635  -4.2444  -4.2034  -4.1793  -4.1571  -4.0223  -3.8581  -3.8140
    -3.7652  -3.6605  -3.6339  -3.6288  -3.6039  -3.5645  -3.5221  -3.4976
    -3.4055  -3.4015  -3.3638  -3.2302  -3.1869  -3.1047  -3.0068  -2.8154
    -1.7985  -1.3847  -1.1690  -0.6493  -0.6453   0.0909   0.0951   0.6359
     0.6899   0.7346   0.8242   1.1232   1.1904   1.4795   1.5771   1.6068
     1.7630   1.8763   2.0662   2.0806   2.3377   2.3414   2.6369   2.9034
     3.1509   3.3505   3.6618

          k = 0.0416 0.0392 0.0000 ( 37262 PWs)   bands (ev):

   -61.8727 -61.8469 -61.8137 -61.7877 -61.4221 -61.3956 -30.4786 -30.4279
   -30.4279 -30.4032 -30.3864 -30.3769 -30.3666 -30.3352 -30.3130 -30.2629
   -30.1002 -30.0401 -29.9881 -29.9555 -29.9163 -29.7371 -29.6905 -29.6441
    -5.2406  -4.5893  -4.5484  -4.5256  -4.4501  -4.3703  -4.3069  -4.2918
    -4.2168  -4.2042  -4.1922  -4.1548  -4.1321  -3.9805  -3.8698  -3.7633
    -3.7595  -3.6885  -3.6427  -3.6142  -3.5976  -3.5465  -3.4960  -3.4856
    -3.4090  -3.4050  -3.3502  -3.2361  -3.1900  -3.0792  -2.9604  -2.8225
    -2.0045  -1.5536  -1.1756  -0.9377  -0.7199  -0.2749   0.1075   0.4057
     0.6517   0.6848   0.7136   1.0355   1.1932   1.2050   1.4117   1.5227
     1.7345   1.8605   1.9882   2.0643   2.2303   2.3453   2.6496   2.9642
     3.0158   3.5485   3.7274

          k = 0.0416 0.0548 0.0000 ( 37279 PWs)   bands (ev):

   -61.8727 -61.8469 -61.8137 -61.7877 -61.4221 -61.3956 -30.4790 -30.4279
   -30.4279 -30.4036 -30.3874 -30.3769 -30.3669 -30.3350 -30.3136 -30.2629
   -30.1004 -30.0401 -29.9886 -29.9555 -29.9163 -29.7372 -29.6906 -29.6442
    -4.9989  -4.5339  -4.4690  -4.4595  -4.4288  -4.3277  -4.2615  -4.1974
    -4.1680  -4.1586  -4.1546  -4.1140  -4.0861  -3.9281  -3.8830  -3.7739
    -3.7156  -3.6932  -3.6502  -3.5982  -3.5853  -3.5376  -3.4949  -3.4719
    -3.4052  -3.3940  -3.3352  -3.2408  -3.1891  -3.0732  -2.8586  -2.8323
    -2.2280  -1.9857  -1.2652  -0.9161  -0.7576  -0.7321   0.0492   0.2010
     0.5135   0.5456   0.6960   0.9322   0.9359   1.2239   1.3010   1.4438
     1.4780   1.9174   1.9780   2.0525   2.1533   2.3493   2.7132   2.9112
     3.0205   3.5951   3.7786

          k = 0.0416 0.0705 0.0000 ( 37265 PWs)   bands (ev):

   -61.8727 -61.8469 -61.8137 -61.7877 -61.4221 -61.3956 -30.4794 -30.4279
   -30.4279 -30.4038 -30.3883 -30.3769 -30.3672 -30.3349 -30.3141 -30.2629
   -30.1006 -30.0400 -29.9889 -29.9556 -29.9163 -29.7373 -29.6906 -29.6442
    -4.7253  -4.4866  -4.4254  -4.3876  -4.3702  -4.2818  -4.2242  -4.1742
    -4.1516  -4.1233  -4.1134  -4.0433  -3.9902  -3.9128  -3.8588  -3.8091
    -3.6907  -3.6860  -3.6456  -3.5959  -3.5687  -3.5296  -3.4932  -3.4779
    -3.4095  -3.3555  -3.3129  -3.2473  -3.1832  -3.0764  -2.8426  -2.7672
    -2.4177  -2.3884  -1.3919  -1.2426  -0.7475  -0.6789  -0.2107   0.2386
     0.2602   0.4558   0.6557   0.7598   0.8989   1.1277   1.2430   1.3012
     1.3816   1.8880   2.0214   2.0813   2.0828   2.3464   2.7819   2.8499
     3.0753   3.5568   3.8134

          k = 0.0416 0.0862 0.0000 ( 37248 PWs)   bands (ev):

   -61.8727 -61.8469 -61.8137 -61.7877 -61.4221 -61.3956 -30.4796 -30.4279
   -30.4279 -30.4040 -30.3888 -30.3769 -30.3673 -30.3348 -30.3144 -30.2630
   -30.1007 -30.0400 -29.9892 -29.9556 -29.9163 -29.7374 -29.6907 -29.6442
    -4.5103  -4.4590  -4.4140  -4.3618  -4.2785  -4.2511  -4.2101  -4.1658
    -4.1461  -4.1058  -4.1041  -3.9749  -3.9314  -3.9254  -3.8478  -3.8196
    -3.6925  -3.6856  -3.6413  -3.5963  -3.5624  -3.5166  -3.4828  -3.4698
    -3.4239  -3.3158  -3.2664  -3.2626  -3.1571  -3.0807  -2.9795  -2.8499
    -2.5267  -2.3648  -1.6173  -1.4765  -0.5907  -0.5332  -0.4151  -0.0525
     0.3189   0.4413   0.6290   0.7174   0.8836   0.8914   1.2614   1.2657
     1.3355   1.8760   2.0016   2.0365   2.1520   2.3373   2.8181   2.8254
     3.1212   3.5076   3.8421

          k = 0.0416 0.1018 0.0000 ( 37248 PWs)   bands (ev):

   -61.8727 -61.8469 -61.8137 -61.7877 -61.4221 -61.3956 -30.4796 -30.4279
   -30.4279 -30.4040 -30.3888 -30.3769 -30.3673 -30.3348 -30.3144 -30.2630
   -30.1007 -30.0400 -29.9892 -29.9556 -29.9163 -29.7374 -29.6907 -29.6442
    -4.5103  -4.4590  -4.4140  -4.3618  -4.2785  -4.2511  -4.2101  -4.1658
    -4.1461  -4.1058  -4.1041  -3.9749  -3.9314  -3.9254  -3.8478  -3.8196
    -3.6925  -3.6856  -3.6413  -3.5963  -3.5624  -3.5166  -3.4828  -3.4698
    -3.4239  -3.3158  -3.2664  -3.2626  -3.1571  -3.0807  -2.9795  -2.8499
    -2.5267  -2.3648  -1.6173  -1.4765  -0.5907  -0.5332  -0.4151  -0.0525
     0.3189   0.4413   0.6290   0.7174   0.8836   0.8914   1.2614   1.2657
     1.3355   1.8760   2.0016   2.0365   2.1520   2.3373   2.8181   2.8255
     3.1212   3.5076   3.8419

          k = 0.0416-0.0705 0.0000 ( 37265 PWs)   bands (ev):

   -61.8727 -61.8469 -61.8137 -61.7877 -61.4221 -61.3956 -30.4794 -30.4279
   -30.4279 -30.4038 -30.3883 -30.3769 -30.3672 -30.3349 -30.3141 -30.2629
   -30.1006 -30.0400 -29.9889 -29.9556 -29.9163 -29.7373 -29.6906 -29.6442
    -4.7253  -4.4866  -4.4254  -4.3876  -4.3702  -4.2818  -4.2242  -4.1742
    -4.1516  -4.1233  -4.1134  -4.0433  -3.9902  -3.9128  -3.8588  -3.8091
    -3.6907  -3.6860  -3.6456  -3.5959  -3.5687  -3.5296  -3.4932  -3.4779
    -3.4095  -3.3555  -3.3129  -3.2473  -3.1832  -3.0764  -2.8426  -2.7672
    -2.4177  -2.3884  -1.3919  -1.2426  -0.7475  -0.6789  -0.2107   0.2386
     0.2602   0.4558   0.6557   0.7598   0.8989   1.1277   1.2430   1.3012
     1.3816   1.8880   2.0214   2.0813   2.0828   2.3464   2.7819   2.8499
     3.0753   3.5568   3.8134

          k = 0.0416-0.0548 0.0000 ( 37279 PWs)   bands (ev):

   -61.8727 -61.8469 -61.8137 -61.7877 -61.4221 -61.3956 -30.4790 -30.4279
   -30.4279 -30.4036 -30.3874 -30.3769 -30.3669 -30.3350 -30.3136 -30.2629
   -30.1004 -30.0401 -29.9886 -29.9555 -29.9163 -29.7372 -29.6906 -29.6442
    -4.9989  -4.5339  -4.4690  -4.4595  -4.4288  -4.3277  -4.2615  -4.1974
    -4.1680  -4.1586  -4.1546  -4.1140  -4.0861  -3.9281  -3.8830  -3.7739
    -3.7156  -3.6932  -3.6502  -3.5982  -3.5853  -3.5376  -3.4949  -3.4719
    -3.4052  -3.3940  -3.3352  -3.2408  -3.1891  -3.0732  -2.8586  -2.8323
    -2.2280  -1.9857  -1.2652  -0.9161  -0.7576  -0.7321   0.0492   0.2010
     0.5135   0.5456   0.6960   0.9322   0.9359   1.2239   1.3010   1.4438
     1.4780   1.9174   1.9780   2.0525   2.1533   2.3493   2.7132   2.9112
     3.0205   3.5951   3.7786

          k = 0.0416-0.0392 0.0000 ( 37262 PWs)   bands (ev):

   -61.8727 -61.8469 -61.8137 -61.7877 -61.4221 -61.3956 -30.4786 -30.4279
   -30.4279 -30.4032 -30.3864 -30.3769 -30.3666 -30.3352 -30.3130 -30.2629
   -30.1002 -30.0401 -29.9881 -29.9555 -29.9163 -29.7371 -29.6905 -29.6441
    -5.2406  -4.5893  -4.5484  -4.5256  -4.4501  -4.3703  -4.3069  -4.2918
    -4.2168  -4.2042  -4.1922  -4.1548  -4.1321  -3.9805  -3.8698  -3.7633
    -3.7595  -3.6885  -3.6427  -3.6142  -3.5976  -3.5465  -3.4960  -3.4856
    -3.4090  -3.4050  -3.3502  -3.2361  -3.1900  -3.0792  -2.9604  -2.8225
    -2.0045  -1.5536  -1.1756  -0.9377  -0.7199  -0.2749   0.1075   0.4058
     0.6517   0.6848   0.7136   1.0355   1.1932   1.2050   1.4117   1.5227
     1.7345   1.8605   1.9882   2.0643   2.2303   2.3453   2.6496   2.9642
     3.0158   3.5484   3.7274

          k = 0.0416-0.0235 0.0000 ( 37266 PWs)   bands (ev):

   -61.8727 -61.8469 -61.8137 -61.7877 -61.4221 -61.3956 -30.4782 -30.4279
   -30.4279 -30.4030 -30.3856 -30.3769 -30.3664 -30.3354 -30.3126 -30.2628
   -30.1000 -30.0402 -29.9876 -29.9555 -29.9163 -29.7370 -29.6904 -29.6441
    -5.4140  -4.6384  -4.5987  -4.5837  -4.4668  -4.4116  -4.3911  -4.3472
    -4.2635  -4.2444  -4.2034  -4.1793  -4.1571  -4.0223  -3.8581  -3.8140
    -3.7652  -3.6605  -3.6339  -3.6288  -3.6039  -3.5645  -3.5221  -3.4976
    -3.4055  -3.4015  -3.3638  -3.2302  -3.1869  -3.1047  -3.0068  -2.8154
    -1.7985  -1.3847  -1.1690  -0.6493  -0.6453   0.0909   0.0951   0.6359
     0.6899   0.7346   0.8242   1.1232   1.1904   1.4795   1.5771   1.6068
     1.7630   1.8763   2.0662   2.0806   2.3377   2.3414   2.6369   2.9034
     3.1509   3.3504   3.6618

          k = 0.0416-0.0078 0.0000 ( 37311 PWs)   bands (ev):

   -61.8727 -61.8469 -61.8137 -61.7877 -61.4221 -61.3956 -30.4780 -30.4279
   -30.4279 -30.4028 -30.3851 -30.3769 -30.3663 -30.3355 -30.3123 -30.2628
   -30.0999 -30.0402 -29.9874 -29.9555 -29.9163 -29.7369 -29.6903 -29.6441
    -5.5036  -4.6657  -4.6232  -4.6165  -4.4790  -4.4658  -4.4126  -4.3707
    -4.2899  -4.2664  -4.2081  -4.1937  -4.1711  -4.0442  -3.8533  -3.8449
    -3.7708  -3.6374  -3.6323  -3.6196  -3.6072  -3.5895  -3.5519  -3.4991
    -3.4053  -3.3942  -3.3732  -3.2259  -3.1811  -3.1319  -3.0178  -2.8117
    -1.6656  -1.3716  -1.1978  -0.5832  -0.2353   0.0871   0.1150   0.6512
     0.7563   0.8674   0.9243   1.1503   1.1883   1.6239   1.6566   1.7021
     1.7240   1.9537   2.0721   2.1514   2.3413   2.5209   2.6604   2.8433
     3.0563   3.2687   3.5738

          k = 0.0416 0.0078 0.0000 ( 37311 PWs)   bands (ev):

   -61.8727 -61.8469 -61.8137 -61.7877 -61.4221 -61.3956 -30.4780 -30.4279
   -30.4279 -30.4028 -30.3851 -30.3769 -30.3663 -30.3355 -30.3123 -30.2628
   -30.0999 -30.0402 -29.9874 -29.9555 -29.9163 -29.7369 -29.6903 -29.6441
    -5.5036  -4.6657  -4.6232  -4.6165  -4.4790  -4.4658  -4.4126  -4.3707
    -4.2899  -4.2664  -4.2081  -4.1937  -4.1711  -4.0442  -3.8533  -3.8449
    -3.7708  -3.6374  -3.6323  -3.6196  -3.6072  -3.5895  -3.5519  -3.4991
    -3.4053  -3.3942  -3.3732  -3.2259  -3.1811  -3.1319  -3.0178  -2.8117
    -1.6656  -1.3716  -1.1978  -0.5832  -0.2353   0.0871   0.1150   0.6512
     0.7563   0.8674   0.9243   1.1503   1.1883   1.6239   1.6566   1.7021
     1.7240   1.9537   2.0721   2.1514   2.3413   2.5209   2.6604   2.8433
     3.0563   3.2686   3.5738

          k = 0.0554 0.0313 0.0000 ( 37246 PWs)   bands (ev):

   -61.8689 -61.8507 -61.8099 -61.7915 -61.4182 -61.3995 -30.4710 -30.4354
   -30.4204 -30.3844 -30.3785 -30.3432 -30.3393 -30.3055 -30.3026 -30.2703
   -30.0353 -30.0327 -30.0231 -29.9955 -29.9843 -29.7302 -29.7130 -29.6973
    -5.1127  -4.5447  -4.5097  -4.4900  -4.3565  -4.3250  -4.3095  -4.2422
    -4.2050  -4.1594  -4.1334  -4.0454  -4.0011  -3.9902  -3.8179  -3.8031
    -3.7696  -3.7273  -3.6900  -3.6326  -3.5615  -3.5608  -3.5058  -3.4920
    -3.4830  -3.4315  -3.4201  -3.3231  -3.2581  -3.1583  -2.9999  -2.8843
    -2.3753  -1.5657  -1.3453  -0.8975  -0.6420  -0.1142   0.1098   0.4777
     0.7645   0.7731   0.9164   1.1456   1.2476   1.3430   1.5246   1.7673
     1.8523   1.8551   2.0103   2.1397   2.2584   2.3614   2.4818   2.8241
     2.8999   3.4338   3.6309

          k = 0.0554 0.0470 0.0000 ( 37268 PWs)   bands (ev):

   -61.8689 -61.8507 -61.8099 -61.7915 -61.4182 -61.3995 -30.4714 -30.4353
   -30.4205 -30.3844 -30.3794 -30.3430 -30.3395 -30.3060 -30.3028 -30.2703
   -30.0354 -30.0326 -30.0231 -29.9959 -29.9843 -29.7303 -29.7130 -29.6974
    -4.9269  -4.4941  -4.4708  -4.4415  -4.3376  -4.2962  -4.2803  -4.1787
    -4.1577  -4.1174  -4.1019  -4.0424  -3.9811  -3.9538  -3.8281  -3.8150
    -3.7345  -3.7302  -3.7017  -3.6262  -3.5560  -3.5445  -3.5013  -3.4877
    -3.4792  -3.4161  -3.4150  -3.3241  -3.2554  -3.1527  -3.0145  -2.7716
    -2.5883  -1.6271  -1.6201  -0.8883  -0.7618  -0.3506   0.0011   0.1859
     0.6474   0.7797   0.9557   1.0153   1.1603   1.3283   1.4230   1.6515
     1.7190   1.9221   2.0261   2.1365   2.2169   2.3164   2.5350   2.8440
     2.8879   3.5450   3.6993

          k = 0.0554 0.0627 0.0000 ( 37263 PWs)   bands (ev):

   -61.8689 -61.8507 -61.8099 -61.7915 -61.4182 -61.3995 -30.4717 -30.4353
   -30.4205 -30.3843 -30.3802 -30.3428 -30.3397 -30.3064 -30.3030 -30.2703
   -30.0356 -30.0325 -30.0230 -29.9963 -29.9842 -29.7304 -29.7130 -29.6974
    -4.6988  -4.4362  -4.4079  -4.3885  -4.3183  -4.2686  -4.2429  -4.1656
    -4.0948  -4.0774  -4.0381  -4.0370  -3.9649  -3.9128  -3.8480  -3.8281
    -3.7445  -3.7095  -3.6898  -3.6211  -3.5677  -3.5266  -3.5202  -3.4844
    -3.4764  -3.3948  -3.3898  -3.3231  -3.2387  -3.1542  -3.0351  -2.7748
    -2.6428  -2.0088  -1.7629  -0.8602  -0.8097  -0.6112  -0.1539   0.2314
     0.5613   0.5924   0.8919   0.9834   1.0349   1.3372   1.4080   1.4211
     1.6456   1.9661   2.0963   2.1223   2.1807   2.2984   2.6451   2.8355
     2.9602   3.5294   3.7059

          k = 0.0554 0.0783 0.0000 ( 37251 PWs)   bands (ev):

   -61.8689 -61.8507 -61.8099 -61.7915 -61.4182 -61.3995 -30.4720 -30.4353
   -30.4205 -30.3843 -30.3809 -30.3426 -30.3398 -30.3068 -30.3032 -30.2702
   -30.0358 -30.0324 -30.0230 -29.9966 -29.9842 -29.7305 -29.7130 -29.6975
    -4.4869  -4.3944  -4.3431  -4.3257  -4.2993  -4.2449  -4.2096  -4.1632
    -4.1120  -4.0605  -4.0037  -3.9599  -3.9497  -3.8787  -3.8676  -3.8373
    -3.7548  -3.7218  -3.6732  -3.6127  -3.5878  -3.5404  -3.5133  -3.4975
    -3.4699  -3.3708  -3.3508  -3.3266  -3.1818  -3.1566  -3.0594  -2.8948
    -2.7234  -2.1155  -1.8816  -1.2880  -0.7349  -0.3998  -0.3366   0.2845
     0.4041   0.5362   0.8611   0.8656   1.0981   1.1007   1.3396   1.4668
     1.6107   1.9398   2.1052   2.1451   2.1855   2.3125   2.7408   2.8719
     3.0301   3.4548   3.6572

          k = 0.0554 0.0940 0.0000 ( 37240 PWs)   bands (ev):

   -61.8689 -61.8507 -61.8099 -61.7915 -61.4182 -61.3995 -30.4721 -30.4352
   -30.4205 -30.3843 -30.3811 -30.3425 -30.3399 -30.3069 -30.3033 -30.2702
   -30.0358 -30.0324 -30.0230 -29.9967 -29.9842 -29.7305 -29.7130 -29.6975
    -4.4042  -4.3778  -4.3063  -4.2925  -4.2848  -4.2171  -4.2002  -4.1747
    -4.1377  -4.0623  -3.9911  -3.9350  -3.9118  -3.8815  -3.8733  -3.8387
    -3.7593  -3.7394  -3.6723  -3.6051  -3.5921  -3.5509  -3.5141  -3.5009
    -3.4681  -3.3553  -3.3344  -3.3318  -3.1628  -3.0726  -3.0534  -2.9443
    -2.9326  -1.9905  -1.9272  -1.5337  -0.7046  -0.4052  -0.2119   0.0629
     0.4981   0.5508   0.8530   0.8764   0.9028   1.1244   1.3279   1.4736
     1.6082   1.9197   2.0999   2.1288   2.2245   2.3214   2.7762   2.9010
     3.0686   3.4084   3.6411

          k = 0.0554 0.1096 0.0000 ( 37251 PWs)   bands (ev):

   -61.8689 -61.8507 -61.8099 -61.7915 -61.4182 -61.3995 -30.4720 -30.4353
   -30.4205 -30.3843 -30.3809 -30.3426 -30.3398 -30.3068 -30.3032 -30.2702
   -30.0358 -30.0324 -30.0230 -29.9966 -29.9842 -29.7305 -29.7130 -29.6975
    -4.4869  -4.3944  -4.3431  -4.3257  -4.2993  -4.2449  -4.2096  -4.1632
    -4.1120  -4.0605  -4.0037  -3.9599  -3.9497  -3.8787  -3.8676  -3.8373
    -3.7548  -3.7218  -3.6732  -3.6127  -3.5878  -3.5404  -3.5133  -3.4975
    -3.4699  -3.3708  -3.3508  -3.3266  -3.1818  -3.1566  -3.0594  -2.8948
    -2.7234  -2.1155  -1.8816  -1.2880  -0.7349  -0.3998  -0.3366   0.2845
     0.4041   0.5362   0.8611   0.8656   1.0981   1.1007   1.3396   1.4668
     1.6107   1.9398   2.1052   2.1451   2.1855   2.3125   2.7408   2.8719
     3.0301   3.4548   3.6572

          k = 0.0554-0.0627 0.0000 ( 37263 PWs)   bands (ev):

   -61.8689 -61.8507 -61.8099 -61.7915 -61.4182 -61.3995 -30.4717 -30.4353
   -30.4205 -30.3843 -30.3802 -30.3428 -30.3397 -30.3064 -30.3030 -30.2703
   -30.0356 -30.0325 -30.0230 -29.9963 -29.9842 -29.7304 -29.7130 -29.6974
    -4.6988  -4.4362  -4.4079  -4.3885  -4.3183  -4.2686  -4.2429  -4.1656
    -4.0948  -4.0774  -4.0381  -4.0370  -3.9649  -3.9128  -3.8480  -3.8281
    -3.7445  -3.7095  -3.6898  -3.6211  -3.5678  -3.5266  -3.5202  -3.4844
    -3.4764  -3.3948  -3.3898  -3.3231  -3.2387  -3.1542  -3.0351  -2.7748
    -2.6428  -2.0088  -1.7629  -0.8602  -0.8097  -0.6112  -0.1539   0.2314
     0.5613   0.5924   0.8919   0.9834   1.0349   1.3372   1.4080   1.4211
     1.6456   1.9661   2.0963   2.1223   2.1807   2.2984   2.6451   2.8355
     2.9602   3.5294   3.7058

          k = 0.0554-0.0470 0.0000 ( 37268 PWs)   bands (ev):

   -61.8689 -61.8507 -61.8099 -61.7915 -61.4182 -61.3995 -30.4714 -30.4353
   -30.4205 -30.3844 -30.3794 -30.3430 -30.3395 -30.3060 -30.3028 -30.2703
   -30.0354 -30.0326 -30.0231 -29.9959 -29.9843 -29.7303 -29.7130 -29.6974
    -4.9269  -4.4941  -4.4708  -4.4415  -4.3376  -4.2962  -4.2803  -4.1787
    -4.1577  -4.1174  -4.1019  -4.0424  -3.9811  -3.9538  -3.8281  -3.8150
    -3.7345  -3.7302  -3.7017  -3.6262  -3.5560  -3.5445  -3.5013  -3.4877
    -3.4792  -3.4161  -3.4150  -3.3241  -3.2554  -3.1527  -3.0145  -2.7716
    -2.5883  -1.6271  -1.6201  -0.8883  -0.7618  -0.3506   0.0011   0.1859
     0.6474   0.7797   0.9557   1.0153   1.1603   1.3283   1.4230   1.6515
     1.7190   1.9221   2.0261   2.1365   2.2169   2.3164   2.5350   2.8440
     2.8879   3.5450   3.6993

          k = 0.0554-0.0313 0.0000 ( 37246 PWs)   bands (ev):

   -61.8689 -61.8507 -61.8099 -61.7915 -61.4182 -61.3995 -30.4710 -30.4354
   -30.4204 -30.3844 -30.3785 -30.3432 -30.3393 -30.3055 -30.3026 -30.2703
   -30.0353 -30.0327 -30.0231 -29.9955 -29.9843 -29.7302 -29.7130 -29.6973
    -5.1127  -4.5447  -4.5097  -4.4900  -4.3565  -4.3250  -4.3095  -4.2422
    -4.2050  -4.1594  -4.1334  -4.0454  -4.0011  -3.9902  -3.8179  -3.8031
    -3.7696  -3.7273  -3.6900  -3.6326  -3.5615  -3.5608  -3.5058  -3.4920
    -3.4830  -3.4315  -3.4201  -3.3231  -3.2581  -3.1583  -2.9999  -2.8843
    -2.3753  -1.5657  -1.3453  -0.8975  -0.6420  -0.1142   0.1098   0.4777
     0.7645   0.7731   0.9164   1.1456   1.2476   1.3430   1.5246   1.7673
     1.8523   1.8551   2.0103   2.1397   2.2584   2.3614   2.4818   2.8241
     2.8999   3.4337   3.6309

          k = 0.0554-0.0157 0.0000 ( 37238 PWs)   bands (ev):

   -61.8690 -61.8507 -61.8099 -61.7915 -61.4182 -61.3995 -30.4707 -30.4354
   -30.4204 -30.3844 -30.3780 -30.3434 -30.3391 -30.3052 -30.3024 -30.2704
   -30.0351 -30.0328 -30.0231 -29.9952 -29.9843 -29.7302 -29.7130 -29.6973
    -5.2312  -4.5733  -4.5322  -4.5230  -4.3722  -4.3468  -4.3264  -4.3022
    -4.2353  -4.1803  -4.1538  -4.0452  -4.0198  -4.0144  -3.8175  -3.8112
    -3.7915  -3.7235  -3.6623  -3.6335  -3.5800  -3.5749  -3.5196  -3.5095
    -3.4708  -3.4456  -3.4156  -3.3202  -3.2548  -3.1705  -2.9912  -2.9468
    -2.1817  -1.6143  -1.2944  -0.8207  -0.2686  -0.2312   0.4030   0.6907
     0.7743   0.8986   0.9225   1.0762   1.2625   1.4469   1.5713   1.7010
     1.9007   1.9653   2.0420   2.2577   2.2655   2.3879   2.5275   2.7877
     2.9834   3.2057   3.5501

          k = 0.0554 0.0000 0.0000 ( 37263 PWs)   bands (ev):

   -61.8690 -61.8507 -61.8099 -61.7915 -61.4182 -61.3995 -30.4707 -30.4355
   -30.4204 -30.3844 -30.3778 -30.3434 -30.3391 -30.3051 -30.3023 -30.2704
   -30.0351 -30.0328 -30.0231 -29.9951 -29.9844 -29.7301 -29.7130 -29.6973
    -5.2717  -4.5821  -4.5394  -4.5345  -4.3786  -4.3548  -4.3317  -4.3236
    -4.2481  -4.1863  -4.1612  -4.0423  -4.0297  -4.0227  -3.8252  -3.8185
    -3.7903  -3.7226  -3.6443  -3.6305  -3.5913  -3.5859  -3.5253  -3.5159
    -3.4601  -3.4579  -3.4130  -3.3188  -3.2521  -3.1779  -2.9883  -2.9654
    -2.0886  -1.6658  -1.2954  -0.7679  -0.2857   0.0400   0.2697   0.7828
     0.8921   0.9581   0.9899   1.0309   1.2101   1.4566   1.5265   1.6804
     1.9136   2.0758   2.1112   2.1954   2.3457   2.3894   2.6057   2.7760
     3.0311   3.0463   3.4502

          k = 0.0554 0.0157 0.0000 ( 37238 PWs)   bands (ev):

   -61.8690 -61.8507 -61.8099 -61.7915 -61.4182 -61.3995 -30.4707 -30.4354
   -30.4204 -30.3844 -30.3780 -30.3434 -30.3391 -30.3052 -30.3024 -30.2704
   -30.0351 -30.0328 -30.0231 -29.9952 -29.9843 -29.7302 -29.7130 -29.6973
    -5.2312  -4.5733  -4.5322  -4.5230  -4.3722  -4.3468  -4.3264  -4.3022
    -4.2353  -4.1803  -4.1538  -4.0452  -4.0198  -4.0144  -3.8175  -3.8112
    -3.7915  -3.7235  -3.6623  -3.6335  -3.5800  -3.5749  -3.5196  -3.5095
    -3.4708  -3.4456  -3.4156  -3.3202  -3.2548  -3.1705  -2.9912  -2.9468
    -2.1817  -1.6143  -1.2944  -0.8207  -0.2686  -0.2312   0.4030   0.6907
     0.7743   0.8986   0.9225   1.0762   1.2625   1.4469   1.5713   1.7010
     1.9007   1.9653   2.0420   2.2577   2.2654   2.3879   2.5275   2.7877
     2.9834   3.2058   3.5501

          k = 0.0693 0.0392 0.0000 ( 37228 PWs)   bands (ev):

   -61.8645 -61.8551 -61.8055 -61.7960 -61.4137 -61.4040 -30.4625 -30.4441
   -30.4118 -30.3931 -30.3702 -30.3519 -30.2972 -30.2791 -30.2645 -30.2272
   -30.1009 -30.0626 -30.0238 -30.0046 -29.9590 -29.7923 -29.7224 -29.7053
    -4.7998  -4.4933  -4.4205  -4.4147  -4.3084  -4.3014  -4.1945  -4.1805
    -4.1377  -4.0818  -4.0404  -3.9621  -3.9583  -3.8562  -3.8010  -3.7879
    -3.7638  -3.7292  -3.6986  -3.6385  -3.5837  -3.5447  -3.5406  -3.4972
    -3.4756  -3.4628  -3.4339  -3.4115  -3.2988  -3.2388  -3.2247  -2.8799
    -2.6537  -1.9506  -1.3221  -1.1345  -0.5299  -0.2357   0.0328   0.1861
     0.7463   0.7954   1.0480   1.2208   1.3345   1.3888   1.5683   1.6945
     1.7950   2.0882   2.1160   2.1540   2.2757   2.3017   2.3573   2.6893
     2.7737   3.3569   3.5231

          k = 0.0693 0.0548 0.0000 ( 37241 PWs)   bands (ev):

   -61.8645 -61.8551 -61.8055 -61.7960 -61.4137 -61.4040 -30.4628 -30.4440
   -30.4118 -30.3931 -30.3710 -30.3514 -30.2976 -30.2789 -30.2648 -30.2275
   -30.1008 -30.0625 -30.0236 -30.0050 -29.9592 -29.7922 -29.7224 -29.7054
    -4.6461  -4.4833  -4.3915  -4.3849  -4.2881  -4.2801  -4.1923  -4.1570
    -4.1162  -4.0537  -4.0104  -3.9765  -3.9266  -3.8618  -3.8062  -3.7819
    -3.7701  -3.7125  -3.6952  -3.6392  -3.5913  -3.5469  -3.5284  -3.4762
    -3.4743  -3.4677  -3.4313  -3.3952  -3.2695  -3.2505  -3.2322  -3.0451
    -2.5077  -2.0818  -1.6143  -1.0114  -0.5810  -0.3106  -0.1532   0.1432
     0.6461   0.9120   0.9352   1.1556   1.2532   1.4557   1.5177   1.5262
     1.9476   2.0220   2.0743   2.1967   2.2031   2.2954   2.4330   2.7646
     2.7788   3.3896   3.5259

          k = 0.0693 0.0705 0.0000 ( 37249 PWs)   bands (ev):

   -61.8645 -61.8551 -61.8055 -61.7960 -61.4137 -61.4040 -30.4631 -30.4439
   -30.4118 -30.3930 -30.3716 -30.3511 -30.2979 -30.2788 -30.2650 -30.2276
   -30.1007 -30.0624 -30.0235 -30.0053 -29.9593 -29.7922 -29.7225 -29.7054
    -4.4906  -4.4620  -4.3509  -4.3491  -4.2737  -4.2578  -4.1998  -4.1490
    -4.0920  -4.0558  -3.9858  -3.9503  -3.8915  -3.8703  -3.8061  -3.7772
    -3.7761  -3.7296  -3.6865  -3.6315  -3.6127  -3.5729  -3.5259  -3.4805
    -3.4707  -3.4409  -3.4272  -3.3863  -3.2884  -3.2525  -3.1601  -3.1447
    -2.4701  -2.2243  -1.8044  -0.9234  -0.9027  -0.2166  -0.2041   0.3435
     0.6275   0.6667   1.0291   1.0421   1.2513   1.2730   1.4314   1.6154
     1.8712   2.0448   2.0901   2.1509   2.2096   2.3837   2.5878   2.8414
     2.8579   3.3968   3.4609

          k = 0.0693 0.0862 0.0000 ( 37226 PWs)   bands (ev):

   -61.8645 -61.8551 -61.8055 -61.7960 -61.4137 -61.4040 -30.4633 -30.4438
   -30.4118 -30.3930 -30.3720 -30.3508 -30.2981 -30.2787 -30.2651 -30.2277
   -30.1006 -30.0623 -30.0234 -30.0054 -29.9594 -29.7921 -29.7225 -29.7054
    -4.4428  -4.3888  -4.3237  -4.3059  -4.2727  -4.2402  -4.2089  -4.1602
    -4.0768  -4.0758  -3.9780  -3.8820  -3.8811  -3.8587  -3.7955  -3.7954
    -3.7775  -3.7691  -3.6892  -3.6254  -3.6158  -3.5975  -3.5402  -3.4770
    -3.4679  -3.4253  -3.4189  -3.3958  -3.3144  -3.2541  -3.1819  -3.0033
    -2.6668  -2.3096  -1.6699  -1.2643  -0.9075  -0.2101   0.0304   0.3781
     0.5527   0.6930   0.9189   1.0198   1.0940   1.3467   1.4252   1.5519
     1.9017   2.0039   2.0322   2.1266   2.3422   2.4443   2.6800   2.9341
     2.9419   3.3404   3.3909

          k = 0.0693 0.1018 0.0000 ( 37226 PWs)   bands (ev):

   -61.8645 -61.8551 -61.8055 -61.7960 -61.4137 -61.4040 -30.4633 -30.4438
   -30.4118 -30.3930 -30.3720 -30.3508 -30.2981 -30.2787 -30.2651 -30.2277
   -30.1006 -30.0623 -30.0234 -30.0054 -29.9594 -29.7921 -29.7225 -29.7054
    -4.4428  -4.3888  -4.3237  -4.3059  -4.2727  -4.2402  -4.2089  -4.1602
    -4.0768  -4.0758  -3.9780  -3.8820  -3.8811  -3.8587  -3.7955  -3.7954
    -3.7775  -3.7691  -3.6892  -3.6254  -3.6158  -3.5975  -3.5402  -3.4770
    -3.4679  -3.4253  -3.4189  -3.3958  -3.3144  -3.2541  -3.1819  -3.0033
    -2.6668  -2.3096  -1.6699  -1.2643  -0.9075  -0.2101   0.0304   0.3781
     0.5527   0.6930   0.9189   1.0198   1.0940   1.3467   1.4252   1.5519
     1.9017   2.0039   2.0322   2.1266   2.3422   2.4443   2.6800   2.9341
     2.9419   3.3403   3.3908

          k = 0.0693 0.1175 0.0000 ( 37249 PWs)   bands (ev):

   -61.8645 -61.8551 -61.8055 -61.7960 -61.4137 -61.4040 -30.4631 -30.4439
   -30.4118 -30.3930 -30.3716 -30.3511 -30.2979 -30.2788 -30.2650 -30.2276
   -30.1007 -30.0624 -30.0235 -30.0053 -29.9593 -29.7922 -29.7225 -29.7054
    -4.4906  -4.4620  -4.3509  -4.3491  -4.2737  -4.2578  -4.1998  -4.1490
    -4.0920  -4.0558  -3.9858  -3.9503  -3.8915  -3.8703  -3.8061  -3.7772
    -3.7761  -3.7296  -3.6865  -3.6315  -3.6127  -3.5729  -3.5259  -3.4805
    -3.4707  -3.4409  -3.4272  -3.3863  -3.2884  -3.2525  -3.1601  -3.1447
    -2.4701  -2.2243  -1.8044  -0.9234  -0.9027  -0.2166  -0.2041   0.3435
     0.6275   0.6667   1.0291   1.0421   1.2513   1.2730   1.4314   1.6154
     1.8712   2.0448   2.0901   2.1509   2.2096   2.3837   2.5878   2.8414
     2.8579   3.4038   3.5157

          k = 0.0693-0.0548 0.0000 ( 37241 PWs)   bands (ev):

   -61.8645 -61.8551 -61.8055 -61.7960 -61.4137 -61.4040 -30.4628 -30.4440
   -30.4118 -30.3931 -30.3710 -30.3514 -30.2976 -30.2789 -30.2648 -30.2275
   -30.1008 -30.0625 -30.0236 -30.0050 -29.9592 -29.7922 -29.7224 -29.7054
    -4.6461  -4.4833  -4.3915  -4.3849  -4.2881  -4.2801  -4.1923  -4.1570
    -4.1162  -4.0537  -4.0104  -3.9765  -3.9266  -3.8618  -3.8062  -3.7819
    -3.7701  -3.7125  -3.6952  -3.6392  -3.5913  -3.5469  -3.5284  -3.4762
    -3.4743  -3.4677  -3.4313  -3.3952  -3.2695  -3.2505  -3.2322  -3.0451
    -2.5077  -2.0818  -1.6143  -1.0114  -0.5810  -0.3106  -0.1532   0.1432
     0.6461   0.9120   0.9352   1.1556   1.2532   1.4557   1.5177   1.5262
     1.9476   2.0220   2.0743   2.1967   2.2031   2.2954   2.4330   2.7646
     2.7788   3.3896   3.5261

          k = 0.0693-0.0392 0.0000 ( 37228 PWs)   bands (ev):

   -61.8645 -61.8551 -61.8055 -61.7960 -61.4137 -61.4040 -30.4625 -30.4441
   -30.4118 -30.3931 -30.3702 -30.3519 -30.2972 -30.2791 -30.2645 -30.2272
   -30.1009 -30.0626 -30.0238 -30.0046 -29.9590 -29.7923 -29.7224 -29.7053
    -4.7998  -4.4933  -4.4205  -4.4147  -4.3084  -4.3014  -4.1945  -4.1805
    -4.1377  -4.0818  -4.0404  -3.9621  -3.9583  -3.8562  -3.8010  -3.7879
    -3.7638  -3.7292  -3.6986  -3.6385  -3.5837  -3.5447  -3.5406  -3.4972
    -3.4756  -3.4628  -3.4339  -3.4115  -3.2988  -3.2388  -3.2247  -2.8799
    -2.6537  -1.9506  -1.3221  -1.1345  -0.5299  -0.2357   0.0328   0.1861
     0.7463   0.7954   1.0480   1.2208   1.3345   1.3888   1.5683   1.6945
     1.7950   2.0882   2.1160   2.1540   2.2757   2.3017   2.3573   2.6893
     2.7737   3.3569   3.5231

          k = 0.0693-0.0235 0.0000 ( 37215 PWs)   bands (ev):

   -61.8646 -61.8551 -61.8055 -61.7960 -61.4137 -61.4040 -30.4623 -30.4442
   -30.4117 -30.3931 -30.3696 -30.3523 -30.2969 -30.2792 -30.2644 -30.2271
   -30.1010 -30.0627 -30.0240 -30.0043 -29.9589 -29.7923 -29.7223 -29.7053
    -4.9168  -4.4911  -4.4343  -4.4318  -4.3300  -4.3185  -4.2097  -4.2038
    -4.1523  -4.1006  -4.0596  -3.9809  -3.9534  -3.8511  -3.8084  -3.7862
    -3.7732  -3.7473  -3.6832  -3.6394  -3.5934  -3.5624  -3.5498  -3.5186
    -3.4735  -3.4529  -3.4359  -3.4247  -3.3059  -3.2446  -3.2098  -2.7711
    -2.6818  -1.9464  -1.2012  -1.1407  -0.4579  -0.3029   0.4335   0.4394
     0.6714   0.8666   1.0741   1.1340   1.2314   1.4997   1.6363   1.6576
     1.8113   2.0262   2.0675   2.2318   2.3396   2.3854   2.4629   2.7126
     2.7922   3.3137   3.3625

          k = 0.0693-0.0078 0.0000 ( 37252 PWs)   bands (ev):

   -61.8646 -61.8551 -61.8055 -61.7960 -61.4137 -61.4040 -30.4621 -30.4443
   -30.4117 -30.3931 -30.3693 -30.3525 -30.2967 -30.2792 -30.2643 -30.2270
   -30.1010 -30.0627 -30.0241 -30.0042 -29.9588 -29.7924 -29.7223 -29.7053
    -4.9791  -4.4851  -4.4434  -4.4310  -4.3459  -4.3281  -4.2271  -4.2173
    -4.1598  -4.1015  -4.0718  -3.9927  -3.9502  -3.8422  -3.8215  -3.7947
    -3.7869  -3.7488  -3.6576  -3.6417  -3.6087  -3.5736  -3.5537  -3.5386
    -3.4724  -3.4468  -3.4370  -3.4316  -3.3041  -3.2518  -3.2029  -2.8311
    -2.5052  -2.0584  -1.1950  -1.0102  -0.6705   0.0189   0.5210   0.6882
     0.7673   0.8707   0.9548   1.1039   1.3101   1.3319   1.4950   1.7745
     1.8968   1.9261   2.1322   2.2854   2.3175   2.5088   2.5965   2.8190
     2.8648   3.0975   3.2700

          k = 0.0693 0.0078 0.0000 ( 37252 PWs)   bands (ev):

   -61.8646 -61.8551 -61.8055 -61.7960 -61.4137 -61.4040 -30.4621 -30.4443
   -30.4117 -30.3931 -30.3693 -30.3525 -30.2967 -30.2792 -30.2643 -30.2270
   -30.1010 -30.0627 -30.0241 -30.0042 -29.9588 -29.7924 -29.7223 -29.7053
    -4.9791  -4.4851  -4.4434  -4.4310  -4.3459  -4.3281  -4.2271  -4.2173
    -4.1598  -4.1015  -4.0718  -3.9927  -3.9502  -3.8422  -3.8215  -3.7947
    -3.7869  -3.7488  -3.6576  -3.6417  -3.6087  -3.5736  -3.5537  -3.5386
    -3.4724  -3.4468  -3.4370  -3.4316  -3.3041  -3.2518  -3.2029  -2.8311
    -2.5052  -2.0584  -1.1950  -1.0102  -0.6705   0.0189   0.5210   0.6882
     0.7673   0.8707   0.9548   1.1039   1.3101   1.3319   1.4950   1.7745
     1.8968   1.9261   2.1322   2.2854   2.3175   2.5088   2.5965   2.8190
     2.8648   3.0974   3.2699

          k = 0.0693 0.0235 0.0000 ( 37215 PWs)   bands (ev):

   -61.8646 -61.8551 -61.8055 -61.7960 -61.4137 -61.4040 -30.4623 -30.4442
   -30.4117 -30.3931 -30.3696 -30.3523 -30.2969 -30.2792 -30.2644 -30.2271
   -30.1010 -30.0627 -30.0240 -30.0043 -29.9589 -29.7923 -29.7223 -29.7053
    -4.9168  -4.4911  -4.4343  -4.4318  -4.3300  -4.3185  -4.2097  -4.2038
    -4.1523  -4.1006  -4.0596  -3.9809  -3.9534  -3.8511  -3.8084  -3.7862
    -3.7732  -3.7473  -3.6832  -3.6394  -3.5934  -3.5624  -3.5498  -3.5186
    -3.4735  -3.4529  -3.4359  -3.4247  -3.3059  -3.2446  -3.2098  -2.7711
    -2.6818  -1.9464  -1.2012  -1.1407  -0.4579  -0.3029   0.4335   0.4394
     0.6714   0.8666   1.0741   1.1340   1.2314   1.4997   1.6363   1.6576
     1.8113   2.0262   2.0675   2.2318   2.3396   2.3854   2.4629   2.7126
     2.7922   3.3138   3.3622

          k =-0.0831-0.0470 0.0000 ( 37224 PWs)   bands (ev):

   -61.8598 -61.8598 -61.8007 -61.8007 -61.4089 -61.4089 -30.4534 -30.4534
   -30.4025 -30.4024 -30.3611 -30.3611 -30.2882 -30.2882 -30.1833 -30.1833
   -30.1455 -30.1454 -30.0143 -30.0143 -29.8762 -29.8762 -29.7139 -29.7139
    -4.5700  -4.5700  -4.3816  -4.3816  -4.2713  -4.2713  -4.2031  -4.2031
    -4.0367  -4.0367  -3.9675  -3.9675  -3.9323  -3.9323  -3.7658  -3.7658
    -3.6983  -3.6982  -3.6537  -3.6537  -3.5731  -3.5731  -3.5326  -3.5326
    -3.4643  -3.4643  -3.4458  -3.4458  -3.3259  -3.3259  -3.2061  -3.2061
    -2.3282  -2.3282  -1.2733  -1.2733  -0.3499  -0.3499   0.0018   0.0018
     0.7681   0.7681   1.1380   1.1380   1.4934   1.4934   1.5538   1.5538
     1.9693   1.9693   2.1578   2.1578   2.3271   2.3271   2.4736   2.4736
     2.9198   2.9198   3.5585

          k =-0.0831-0.0313 0.0000 ( 37248 PWs)   bands (ev):

   -61.8598 -61.8598 -61.8007 -61.8007 -61.4089 -61.4089 -30.4536 -30.4532
   -30.4025 -30.4024 -30.3617 -30.3606 -30.2885 -30.2880 -30.1834 -30.1831
   -30.1456 -30.1453 -30.0145 -30.0140 -29.8763 -29.8761 -29.7139 -29.7139
    -4.6347  -4.4950  -4.3761  -4.3746  -4.2784  -4.2713  -4.2096  -4.2009
    -4.0520  -4.0166  -3.9750  -3.9586  -3.9426  -3.9204  -3.7733  -3.7500
    -3.7199  -3.6972  -3.6591  -3.6493  -3.5797  -3.5730  -3.5463  -3.5255
    -3.4676  -3.4617  -3.4609  -3.4346  -3.3351  -3.3231  -3.2774  -3.0731
    -2.4797  -2.2252  -1.4533  -1.1057  -0.5454  -0.2784   0.0175   0.2642
     0.6734   0.8816   1.0604   1.1464   1.3101   1.5046   1.5508   1.7109
     1.8370   1.9806   2.1210   2.1943   2.3249   2.4335   2.5047   2.5893
     2.9049   2.9253   3.4979

          k =-0.0831-0.0157 0.0000 ( 37222 PWs)   bands (ev):

   -61.8598 -61.8598 -61.8007 -61.8007 -61.4089 -61.4089 -30.4537 -30.4530
   -30.4025 -30.4024 -30.3621 -30.3602 -30.2886 -30.2878 -30.1835 -30.1830
   -30.1457 -30.1452 -30.0147 -30.0138 -29.8764 -29.8760 -29.7139 -29.7138
    -4.6776  -4.4260  -4.3645  -4.3597  -4.2925  -4.2736  -4.2148  -4.2142
    -4.0482  -4.0016  -3.9784  -3.9639  -3.9499  -3.8932  -3.7764  -3.7472
    -3.7368  -3.7218  -3.6573  -3.6408  -3.5890  -3.5715  -3.5673  -3.5234
    -3.4802  -3.4703  -3.4590  -3.4260  -3.3441  -3.3317  -3.2957  -2.8938
    -2.5899  -2.3153  -1.4063  -1.0665  -0.8613  -0.1103   0.2422   0.4973
     0.7155   0.7565   1.0256   1.1266   1.1733   1.4807   1.4963   1.7653
     1.8456   1.9120   2.0437   2.2119   2.4659   2.5794   2.6903   2.6993
     2.8661   2.9454   3.2544

          k =-0.0831 0.0000 0.0000 ( 37201 PWs)   bands (ev):

   -61.8598 -61.8598 -61.8007 -61.8007 -61.4089 -61.4089 -30.4538 -30.4529
   -30.4025 -30.4024 -30.3623 -30.3600 -30.2887 -30.2877 -30.1836 -30.1829
   -30.1458 -30.1451 -30.0148 -30.0138 -29.8764 -29.8760 -29.7139 -29.7138
    -4.6926  -4.3902  -4.3584  -4.3550  -4.3011  -4.2744  -4.2268  -4.2173
    -4.0404  -3.9935  -3.9791  -3.9731  -3.9529  -3.8707  -3.7748  -3.7635
    -3.7587  -3.7137  -3.6628  -3.6242  -3.5926  -3.5837  -3.5698  -3.5234
    -3.4895  -3.4720  -3.4576  -3.4224  -3.3480  -3.3364  -3.2974  -2.7628
    -2.6290  -2.4462  -1.1801  -1.1553  -1.0696  -0.0161   0.4773   0.5412
     0.5855   0.8964   0.9166   0.9378   1.3009   1.4520   1.4716   1.6486
     1.8735   2.0085   2.0494   2.1137   2.6474   2.6610   2.7567   2.7675
     2.8268   2.9297   3.1214

          k =-0.0831 0.0157 0.0000 ( 37222 PWs)   bands (ev):

   -61.8598 -61.8598 -61.8007 -61.8007 -61.4089 -61.4089 -30.4537 -30.4530
   -30.4025 -30.4024 -30.3621 -30.3602 -30.2886 -30.2878 -30.1835 -30.1830
   -30.1457 -30.1452 -30.0147 -30.0138 -29.8764 -29.8760 -29.7139 -29.7138
    -4.6776  -4.4260  -4.3645  -4.3597  -4.2924  -4.2736  -4.2148  -4.2142
    -4.0482  -4.0016  -3.9784  -3.9639  -3.9499  -3.8932  -3.7764  -3.7472
    -3.7368  -3.7218  -3.6573  -3.6408  -3.5890  -3.5715  -3.5673  -3.5234
    -3.4802  -3.4703  -3.4590  -3.4260  -3.3441  -3.3317  -3.2957  -2.8938
    -2.5899  -2.3153  -1.4063  -1.0665  -0.8613  -0.1103   0.2422   0.4973
     0.7155   0.7565   1.0256   1.1266   1.1733   1.4807   1.4963   1.7653
     1.8456   1.9120   2.0437   2.2119   2.4659   2.5794   2.6903   2.6993
     2.8661   2.9454   3.2545

          k =-0.0831 0.0313 0.0000 ( 37248 PWs)   bands (ev):

   -61.8598 -61.8598 -61.8007 -61.8007 -61.4089 -61.4089 -30.4536 -30.4532
   -30.4025 -30.4024 -30.3617 -30.3606 -30.2885 -30.2880 -30.1834 -30.1831
   -30.1456 -30.1453 -30.0145 -30.0140 -29.8763 -29.8761 -29.7139 -29.7139
    -4.6347  -4.4950  -4.3761  -4.3746  -4.2784  -4.2713  -4.2096  -4.2009
    -4.0520  -4.0166  -3.9750  -3.9586  -3.9426  -3.9204  -3.7733  -3.7500
    -3.7199  -3.6972  -3.6591  -3.6493  -3.5797  -3.5730  -3.5463  -3.5255
    -3.4676  -3.4617  -3.4609  -3.4346  -3.3351  -3.3231  -3.2774  -3.0731
    -2.4797  -2.2252  -1.4533  -1.1057  -0.5454  -0.2784   0.0175   0.2642
     0.6734   0.8816   1.0604   1.1464   1.3101   1.5046   1.5508   1.7109
     1.8370   1.9806   2.1210   2.1943   2.3249   2.4335   2.5047   2.5893
     2.9049   2.9253   3.4978

          k =-0.0831-0.1410 0.0000 ( 37224 PWs)   bands (ev):

   -61.8598 -61.8598 -61.8007 -61.8007 -61.4089 -61.4089 -30.4534 -30.4534
   -30.4025 -30.4024 -30.3611 -30.3611 -30.2882 -30.2882 -30.1833 -30.1833
   -30.1455 -30.1454 -30.0143 -30.0143 -29.8762 -29.8762 -29.7139 -29.7139
    -4.5700  -4.5700  -4.3816  -4.3816  -4.2713  -4.2713  -4.2031  -4.2031
    -4.0367  -4.0367  -3.9675  -3.9675  -3.9323  -3.9323  -3.7658  -3.7658
    -3.6983  -3.6982  -3.6537  -3.6537  -3.5731  -3.5731  -3.5326  -3.5326
    -3.4643  -3.4643  -3.4458  -3.4458  -3.3259  -3.3259  -3.2061  -3.2061
    -2.3282  -2.3282  -1.2733  -1.2733  -0.3499  -0.3499   0.0018   0.0018
     0.7681   0.7681   1.1380   1.1380   1.4934   1.4934   1.5538   1.5538
     1.9693   1.9693   2.1578   2.1578   2.3271   2.3271   2.4736   2.4736
     2.9198   2.9199   3.5585

     the Fermi energy is     1.1529 ev

!    total energy              =   -1267.22085058 Ry
     estimated scf accuracy    <       0.00000700 Ry
     smearing contrib. (-TS)   =      -0.05907227 Ry
     internal energy E=F+TS    =   -1267.16177831 Ry

     The total energy is F=E-TS. E is the sum of the following terms:
     one-electron contribution =   -8562.01680042 Ry
     hartree contribution      =    4317.64280790 Ry
     xc contribution           =    -395.22128211 Ry
     ewald contribution        =    3372.43349482 Ry
     electric field correction =       0.00000150 Ry

     convergence has been achieved in  15 iterations

     negative rho (up, down):  8.736E-05 0.000E+00

     Forces acting on atoms (cartesian axes, Ry/au):

     atom    1 type  1   force =    -0.00000137   -0.00283256   -0.00522583
     atom    2 type  1   force =     0.00000041   -0.00283334   -0.00522495
     atom    3 type  2   force =     0.00000130    0.00000178    0.01853583
     atom    4 type  2   force =    -0.00000110    0.00000091    0.01853453
     atom    5 type  1   force =     0.00000087    0.00544630   -0.00885818
     atom    6 type  1   force =    -0.00000052    0.00544601   -0.00885744
     atom    7 type  2   force =     0.00000067   -0.00262541   -0.00221910
     atom    8 type  2   force =    -0.00000215   -0.00262292   -0.00221950
     atom    9 type  1   force =     0.00000048    0.00068573   -0.00067408
     atom   10 type  1   force =    -0.00000072    0.00068740   -0.00067575
     atom   11 type  2   force =     0.00000013   -0.00067726   -0.00155818
     atom   12 type  2   force =     0.00000200   -0.00067664   -0.00155734

     Total force =     0.031706     Total SCF correction =     0.013736
     SCF correction compared to forces is large: reduce conv_thr to get better values

     Writing output data file ./Ag2Hf2/Ag2Hf2_beef.save/

     init_run     :     89.61s CPU    114.96s WALL (       1 calls)
     electrons    :   2466.04s CPU   3327.40s WALL (       1 calls)
     forces       :     43.82s CPU     55.14s WALL (       1 calls)

     Called by init_run:
     wfcinit      :     77.36s CPU    101.19s WALL (       1 calls)
     potinit      :      8.76s CPU      9.73s WALL (       1 calls)
     hinit0       :      2.31s CPU      2.62s WALL (       1 calls)

     Called by electrons:
     c_bands      :   2145.34s CPU   2864.51s WALL (      15 calls)
     sum_band     :    290.60s CPU    416.93s WALL (      15 calls)
     v_of_rho     :     24.64s CPU     36.34s WALL (      16 calls)
     newd         :     12.80s CPU     16.95s WALL (      16 calls)
     mix_rho      :      0.58s CPU      1.14s WALL (      15 calls)
     vdW_kernel   :      6.13s CPU      6.51s WALL (       1 calls)

     Called by c_bands:
     init_us_2    :      7.12s CPU      7.52s WALL (    2368 calls)
     cegterg      :   2122.35s CPU   2830.24s WALL (    1110 calls)

     Called by *egterg:
     cdiaghg      :    112.70s CPU    143.89s WALL (    4960 calls)
     h_psi        :   1244.08s CPU   1709.89s WALL (    5034 calls)
     s_psi        :    306.70s CPU    314.82s WALL (    5034 calls)
     g_psi        :      1.18s CPU      1.29s WALL (    3850 calls)

     Called by h_psi:
     h_psi:calbec :    380.16s CPU    468.43s WALL (    5034 calls)
     vloc_psi     :    547.78s CPU    916.27s WALL (    5034 calls)
     add_vuspsi   :    313.89s CPU    322.56s WALL (    5034 calls)

     General routines
     calbec       :    568.06s CPU    702.89s WALL (    6440 calls)
     fft          :     12.19s CPU     27.49s WALL (    1067 calls)
     ffts         :      0.06s CPU      0.19s WALL (      31 calls)
     fftw         :    611.97s CPU   1052.64s WALL (  531262 calls)
     interpolate  :      0.22s CPU      0.43s WALL (      16 calls)

     Parallel routines
     fft_scatt_xy :     62.98s CPU     77.73s WALL (  532360 calls)
     fft_scatt_yz :    223.00s CPU    602.54s WALL (  532360 calls)

     PWSCF        :  43m37.84s CPU      1h 0m WALL


   This run was terminated on:  16:42:53  23Jun2022            

=------------------------------------------------------------------------------=
   JOB DONE.
=------------------------------------------------------------------------------=
