
     Program PWSCF v.6.6 starts on 23Jun2022 at 15:47:57 

     This program is part of the open-source Quantum ESPRESSO suite
     for quantum simulation of materials; please cite
         "P. Giannozzi et al., J. Phys.:Condens. Matter 21 395502 (2009);
         "P. Giannozzi et al., J. Phys.:Condens. Matter 29 465901 (2017);
          URL http://www.quantum-espresso.org", 
     in publications or presentations arising from this work. More details at
     http://www.quantum-espresso.org/quote

     Parallel version (MPI), running on    37 processors

     MPI processes distributed on     2 nodes
     R & G space division:  proc/nbgrp/npool/nimage =      37
     Fft bands division:     nmany     =       1
     Reading input from Ag2W2.in
Warning: card &CELL ignored
Warning: card / ignored

     Current dimensions of program PWSCF are:
     Max number of different atomic species (ntypx) = 10
     Max number of k-points (npk) =  40000
     Max angular momentum in pseudopotentials (lmaxx) =  3
     Presently stress not available with electric field and gates

     Message from routine cell_base_init:
     DEPRECATED: use true lattice parameter, not A to a.u. conversion factor
     Message from routine emend_upf/check:
     BEWARE !!! Possible out of bounds while fixing pseudo
     Message from routine emend_upf/check:
     BEWARE !!! Possible out of bounds while fixing pseudo
     Message from routine read_upf:
     Pseudo file W.pbe-spn-rrkjus_psl.0.2.3.UPF has been fixed on the fly.
     To avoid this message in the future, permanently fix 
     your pseudo files following these instructions: 
     https://gitlab.com/QEF/q-e/blob/master/upftools/how_to_fix_upf.md

     **************************************************************************
     Initializing libbeef V0.1.2 with the BEEF-vdW functional.
     Citation: Wellendorff et al., PRB 85, 235149 (2012).
     **************************************************************************


     IMPORTANT: XC functional enforced from input :
     Exchange-correlation= BEEF-VDW
                           (   1   4  43  14   2   0   0)
     Any further DFT definition will be discarded
     Please, verify this is what you really want


     Subspace diagonalization in iterative solution of the eigenvalue problem:
     a serial algorithm will be used


     Parallelization info
     --------------------
     sticks:   dense  smooth     PW     G-vecs:    dense   smooth      PW
     Min         122      48     14                28330     7160    1108
     Max         123      49     15                28347     7175    1121
     Sum        4525    1807    521              1048397   265319   41251



     bravais-lattice index     =            0
     lattice parameter (alat)  =       1.8897  a.u.
     unit-cell volume          =    4796.4092 (a.u.)^3
     number of atoms/cell      =           12
     number of atomic types    =            2
     number of electrons       =       150.00
     number of Kohn-Sham states=           90
     kinetic-energy cutoff     =      55.1240  Ry
     charge density cutoff     =     551.2396  Ry
     convergence threshold     =      1.0E-05
     mixing beta               =       0.1000
     number of iterations used =           10  plain     mixing
     Exchange-correlation= BEEF-VDW
                           (   1   4  43  14   2   0   0)

     celldm(1)=   1.889726  celldm(2)=   0.000000  celldm(3)=   0.000000
     celldm(4)=   0.000000  celldm(5)=   0.000000  celldm(6)=   0.000000

     crystal axes: (cart. coord. in units of alat)
               a(1) = (   5.399750   0.000000   0.000000 )  
               a(2) = (  -2.699875   5.338081   0.000000 )  
               a(3) = (   0.000000   0.000000  24.658173 )  

     reciprocal axes: (cart. coord. in units 2 pi/alat)
               b(1) = (  0.185194  0.093667 -0.000000 )  
               b(2) = (  0.000000  0.187333  0.000000 )  
               b(3) = (  0.000000 -0.000000  0.040555 )  


     PseudoPot. # 1 for Ag read from file:
     ../pseudo/Ag.pbe-n-rrkjus_psl.1.0.0.UPF
     MD5 check sum: d841cbfac2b0861aec33b46768a516bf
     Pseudo is Ultrasoft + core correction, Zval = 11.0
     Generated using "atomic" code by A. Dal Corso v.6.2.2
     Using radial grid of 1237 points,  6 beta functions with: 
                l(1) =   0
                l(2) =   0
                l(3) =   1
                l(4) =   1
                l(5) =   2
                l(6) =   2
     Q(r) pseudized with 0 coefficients 


     PseudoPot. # 2 for W  read from file:
     ../pseudo/W.pbe-spn-rrkjus_psl.0.2.3.UPF
     MD5 check sum: 25b665cf2bbae626ad8d9f1bc024df95
     Pseudo is Ultrasoft + core correction, Zval = 14.0
     Generated using "atomic" code by A. Dal Corso v.5.0.2 svn rev. 10551
     Using radial grid of 1273 points,  6 beta functions with: 
                l(1) =   0
                l(2) =   0
                l(3) =   1
                l(4) =   1
                l(5) =   2
                l(6) =   2
     Q(r) pseudized with 0 coefficients 


     atomic species   valence    mass     pseudopotential
        Ag            11.00   107.86820     Ag( 1.00)
        W             14.00   183.84000     W ( 1.00)

     No symmetry found



   Cartesian axes

     site n.     atom                  positions (alat units)
         1           Ag  tau(   1) = (   0.0000000   0.0000000  10.0000000  )
         2           Ag  tau(   2) = (   2.6998749   0.0000000  10.0000000  )
         3           W   tau(   3) = (   1.3499375   2.6690407  10.0000000  )
         4           W   tau(   4) = (  -1.3499375   2.6690407  10.0000000  )
         5           Ag  tau(   5) = (   2.6998749   1.3655327  12.3290867  )
         6           Ag  tau(   6) = (   0.0000000   1.3655327  12.3290867  )
         7           W   tau(   7) = (  -1.3499375   4.0345734  12.3290867  )
         8           W   tau(   8) = (   1.3499375   4.0345734  12.3290867  )
         9           Ag  tau(   9) = (   0.0005763   2.6668301  14.8532545  )
        10           Ag  tau(  10) = (   2.7001324   2.6668308  14.8532553  )
        11           W   tau(  11) = (   1.3493990   5.2695551  14.5329257  )
        12           W   tau(  12) = (  -1.3504785   5.2695956  14.5329567  )

     number of k points=    74  Fermi-Dirac smearing, width (Ry)=  0.0100
                       cart. coord. in units 2pi/alat
        k(    1) = (   0.0000000   0.0000000   0.0000000), wk =   0.0138889
        k(    2) = (   0.0000000   0.0156111   0.0000000), wk =   0.0277778
        k(    3) = (   0.0000000   0.0312222   0.0000000), wk =   0.0277778
        k(    4) = (   0.0000000   0.0468333   0.0000000), wk =   0.0277778
        k(    5) = (   0.0000000   0.0624444   0.0000000), wk =   0.0277778
        k(    6) = (   0.0000000   0.0780555   0.0000000), wk =   0.0277778
        k(    7) = (   0.0000000  -0.0936666   0.0000000), wk =   0.0138889
        k(    8) = (   0.0154328   0.0078056   0.0000000), wk =   0.0277778
        k(    9) = (   0.0154328   0.0234167   0.0000000), wk =   0.0277778
        k(   10) = (   0.0154328   0.0390278   0.0000000), wk =   0.0277778
        k(   11) = (   0.0154328   0.0546389   0.0000000), wk =   0.0277778
        k(   12) = (   0.0154328   0.0702500   0.0000000), wk =   0.0277778
        k(   13) = (   0.0154328   0.0858611   0.0000000), wk =   0.0277778
        k(   14) = (   0.0154328  -0.0858611   0.0000000), wk =   0.0277778
        k(   15) = (   0.0154328  -0.0702500   0.0000000), wk =   0.0277778
        k(   16) = (   0.0154328  -0.0546389   0.0000000), wk =   0.0277778
        k(   17) = (   0.0154328  -0.0390278   0.0000000), wk =   0.0277778
        k(   18) = (   0.0154328  -0.0234167   0.0000000), wk =   0.0277778
        k(   19) = (   0.0154328  -0.0078056   0.0000000), wk =   0.0277778
        k(   20) = (   0.0308656   0.0156111   0.0000000), wk =   0.0277778
        k(   21) = (   0.0308656   0.0312222   0.0000000), wk =   0.0277778
        k(   22) = (   0.0308656   0.0468333   0.0000000), wk =   0.0277778
        k(   23) = (   0.0308656   0.0624444   0.0000000), wk =   0.0277778
        k(   24) = (   0.0308656   0.0780555   0.0000000), wk =   0.0277778
        k(   25) = (   0.0308656   0.0936666   0.0000000), wk =   0.0277778
        k(   26) = (   0.0308656  -0.0780555   0.0000000), wk =   0.0277778
        k(   27) = (   0.0308656  -0.0624444   0.0000000), wk =   0.0277778
        k(   28) = (   0.0308656  -0.0468333   0.0000000), wk =   0.0277778
        k(   29) = (   0.0308656  -0.0312222   0.0000000), wk =   0.0277778
        k(   30) = (   0.0308656  -0.0156111   0.0000000), wk =   0.0277778
        k(   31) = (   0.0308656  -0.0000000   0.0000000), wk =   0.0277778
        k(   32) = (   0.0462984   0.0234167   0.0000000), wk =   0.0277778
        k(   33) = (   0.0462984   0.0390278   0.0000000), wk =   0.0277778
        k(   34) = (   0.0462984   0.0546389   0.0000000), wk =   0.0277778
        k(   35) = (   0.0462984   0.0702500   0.0000000), wk =   0.0277778
        k(   36) = (   0.0462984   0.0858611   0.0000000), wk =   0.0277778
        k(   37) = (   0.0462984   0.1014722   0.0000000), wk =   0.0277778
        k(   38) = (   0.0462984  -0.0702500   0.0000000), wk =   0.0277778
        k(   39) = (   0.0462984  -0.0546389   0.0000000), wk =   0.0277778
        k(   40) = (   0.0462984  -0.0390278   0.0000000), wk =   0.0277778
        k(   41) = (   0.0462984  -0.0234167   0.0000000), wk =   0.0277778
        k(   42) = (   0.0462984  -0.0078056   0.0000000), wk =   0.0277778
        k(   43) = (   0.0462984   0.0078056   0.0000000), wk =   0.0277778
        k(   44) = (   0.0617313   0.0312222   0.0000000), wk =   0.0277778
        k(   45) = (   0.0617313   0.0468333   0.0000000), wk =   0.0277778
        k(   46) = (   0.0617313   0.0624444   0.0000000), wk =   0.0277778
        k(   47) = (   0.0617313   0.0780555   0.0000000), wk =   0.0277778
        k(   48) = (   0.0617313   0.0936666   0.0000000), wk =   0.0277778
        k(   49) = (   0.0617313   0.1092777   0.0000000), wk =   0.0277778
        k(   50) = (   0.0617313  -0.0624444   0.0000000), wk =   0.0277778
        k(   51) = (   0.0617313  -0.0468333   0.0000000), wk =   0.0277778
        k(   52) = (   0.0617313  -0.0312222   0.0000000), wk =   0.0277778
        k(   53) = (   0.0617313  -0.0156111   0.0000000), wk =   0.0277778
        k(   54) = (   0.0617313   0.0000000   0.0000000), wk =   0.0277778
        k(   55) = (   0.0617313   0.0156111   0.0000000), wk =   0.0277778
        k(   56) = (   0.0771641   0.0390278   0.0000000), wk =   0.0277778
        k(   57) = (   0.0771641   0.0546389   0.0000000), wk =   0.0277778
        k(   58) = (   0.0771641   0.0702500   0.0000000), wk =   0.0277778
        k(   59) = (   0.0771641   0.0858611   0.0000000), wk =   0.0277778
        k(   60) = (   0.0771641   0.1014722   0.0000000), wk =   0.0277778
        k(   61) = (   0.0771641   0.1170833   0.0000000), wk =   0.0277778
        k(   62) = (   0.0771641  -0.0546389   0.0000000), wk =   0.0277778
        k(   63) = (   0.0771641  -0.0390278   0.0000000), wk =   0.0277778
        k(   64) = (   0.0771641  -0.0234167   0.0000000), wk =   0.0277778
        k(   65) = (   0.0771641  -0.0078056   0.0000000), wk =   0.0277778
        k(   66) = (   0.0771641   0.0078056   0.0000000), wk =   0.0277778
        k(   67) = (   0.0771641   0.0234167   0.0000000), wk =   0.0277778
        k(   68) = (  -0.0925969  -0.0468333   0.0000000), wk =   0.0138889
        k(   69) = (  -0.0925969  -0.0312222   0.0000000), wk =   0.0277778
        k(   70) = (  -0.0925969  -0.0156111   0.0000000), wk =   0.0277778
        k(   71) = (  -0.0925969   0.0000000   0.0000000), wk =   0.0277778
        k(   72) = (  -0.0925969   0.0156111   0.0000000), wk =   0.0277778
        k(   73) = (  -0.0925969   0.0312222   0.0000000), wk =   0.0277778
        k(   74) = (  -0.0925969  -0.1404999   0.0000000), wk =   0.0138889

     Dense  grid:  1048397 G-vectors     FFT dimensions: (  80,  90, 360)

     Smooth grid:   265319 G-vectors     FFT dimensions: (  50,  54, 225)

     Estimated max dynamical RAM per process >     205.66 MB

     Estimated total dynamical RAM >       7.43 GB

     Initial potential from superposition of free atoms

     starting charge  149.99427, renormalised to  150.00000

     negative rho (up, down):  7.823E-04 0.000E+00


     %%%%%%%%%%%%%%%%%%%%%%%%%%%%%%%%%%%%%%%%%%%%%%%%%%%%%%%%%%%%%%%%%%%%%%%%
     %                                                                      %
     % You are using vdW-DF, which was implemented by the Thonhauser group. %
     % Please cite the following two papers that made this development      %
     % possible and the two reviews that describe the various versions:     %
     %                                                                      %
     %   T. Thonhauser et al., PRL 115, 136402 (2015).                      %
     %   T. Thonhauser et al., PRB 76, 125112 (2007).                       %
     %   K. Berland et al., Rep. Prog. Phys. 78, 066501 (2015).             %
     %   D.C. Langreth et al., J. Phys.: Condens. Matter 21, 084203 (2009). %
     %                                                                      %
     %                                                                      %
     % If you are calculating the stress with vdW-DF, please also cite:     %
     %                                                                      %
     %   R. Sabatini et al., J. Phys.: Condens. Matter 24, 424209 (2012).   %
     %                                                                      %
     %%%%%%%%%%%%%%%%%%%%%%%%%%%%%%%%%%%%%%%%%%%%%%%%%%%%%%%%%%%%%%%%%%%%%%%%



     Adding external electric field

     Computed dipole along edir(3) : 
        Dipole               -0.0000 Ry au,         -0.0001 Debye
        Dipole field         -0.0000 Ry au, 

        Potential amp.        0.0000 Ry
        Total length         45.4323 bohr

     Starting wfcs are  132 randomized atomic wfcs

     total cpu time spent up to now is       78.0 secs

     Self-consistent Calculation

     iteration #  1     ecut=    55.12 Ry     beta= 0.10
     Davidson diagonalization with overlap
     ethr =  1.00E-02,  avg # of iterations =  2.0

     Threshold (ethr) on eigenvalues was too large:
     Diagonalizing with lowered threshold

     Davidson diagonalization with overlap
     ethr =  7.44E-04,  avg # of iterations =  2.9

     negative rho (up, down):  7.999E-04 0.000E+00

     Adding external electric field

     Computed dipole along edir(3) : 
        Dipole               -0.4027 Ry au,         -1.0237 Debye
        Dipole field         -0.0011 Ry au, 

        Potential amp.        0.0959 Ry
        Total length         45.4323 bohr


     total cpu time spent up to now is      319.6 secs

     total energy              =   -1464.63051382 Ry
     estimated scf accuracy    <       1.26469366 Ry

     iteration #  2     ecut=    55.12 Ry     beta= 0.10
     Davidson diagonalization with overlap
     ethr =  8.43E-04,  avg # of iterations =  2.0

     negative rho (up, down):  1.183E-03 0.000E+00

     Adding external electric field

     Computed dipole along edir(3) : 
        Dipole                0.1345 Ry au,          0.3419 Debye
        Dipole field          0.0004 Ry au, 

        Potential amp.       -0.0320 Ry
        Total length         45.4323 bohr


     total cpu time spent up to now is      434.5 secs

     total energy              =   -1464.56892746 Ry
     estimated scf accuracy    <       6.11678605 Ry

     iteration #  3     ecut=    55.12 Ry     beta= 0.10
     Davidson diagonalization with overlap
     ethr =  8.43E-04,  avg # of iterations =  1.1

     negative rho (up, down):  1.233E-03 0.000E+00

     Adding external electric field

     Computed dipole along edir(3) : 
        Dipole               -0.0169 Ry au,         -0.0430 Debye
        Dipole field         -0.0000 Ry au, 

        Potential amp.        0.0040 Ry
        Total length         45.4323 bohr


     total cpu time spent up to now is      536.0 secs

     total energy              =   -1464.69949374 Ry
     estimated scf accuracy    <       1.28169399 Ry

     iteration #  4     ecut=    55.12 Ry     beta= 0.10
     Davidson diagonalization with overlap
     ethr =  8.43E-04,  avg # of iterations =  1.0

     negative rho (up, down):  1.064E-03 0.000E+00

     Adding external electric field

     Computed dipole along edir(3) : 
        Dipole               -0.0108 Ry au,         -0.0274 Debye
        Dipole field         -0.0000 Ry au, 

        Potential amp.        0.0026 Ry
        Total length         45.4323 bohr


     total cpu time spent up to now is      637.5 secs

     total energy              =   -1464.68721340 Ry
     estimated scf accuracy    <       0.15925985 Ry

     iteration #  5     ecut=    55.12 Ry     beta= 0.10
     Davidson diagonalization with overlap
     ethr =  1.06E-04,  avg # of iterations =  4.8

     negative rho (up, down):  2.422E-03 0.000E+00

     Adding external electric field

     Computed dipole along edir(3) : 
        Dipole               -0.0113 Ry au,         -0.0287 Debye
        Dipole field         -0.0000 Ry au, 

        Potential amp.        0.0027 Ry
        Total length         45.4323 bohr


     total cpu time spent up to now is      764.9 secs

     total energy              =   -1464.69562772 Ry
     estimated scf accuracy    <       0.04930415 Ry

     iteration #  6     ecut=    55.12 Ry     beta= 0.10
     Davidson diagonalization with overlap
     c_bands:  1 eigenvalues not converged
     c_bands:  1 eigenvalues not converged
     ethr =  3.29E-05,  avg # of iterations =  6.0

     negative rho (up, down):  4.734E-03 0.000E+00

     Adding external electric field

     Computed dipole along edir(3) : 
        Dipole               -0.0354 Ry au,         -0.0899 Debye
        Dipole field         -0.0001 Ry au, 

        Potential amp.        0.0084 Ry
        Total length         45.4323 bohr


     total cpu time spent up to now is      896.0 secs

     total energy              =   -1464.69814841 Ry
     estimated scf accuracy    <       0.02294910 Ry

     iteration #  7     ecut=    55.12 Ry     beta= 0.10
     Davidson diagonalization with overlap
     ethr =  1.53E-05,  avg # of iterations =  3.6

     negative rho (up, down):  5.721E-03 0.000E+00

     Adding external electric field

     Computed dipole along edir(3) : 
        Dipole                0.0007 Ry au,          0.0018 Debye
        Dipole field          0.0000 Ry au, 

        Potential amp.       -0.0002 Ry
        Total length         45.4323 bohr


     total cpu time spent up to now is     1021.6 secs

     total energy              =   -1464.70005375 Ry
     estimated scf accuracy    <       0.00674867 Ry

     iteration #  8     ecut=    55.12 Ry     beta= 0.10
     Davidson diagonalization with overlap
     ethr =  4.50E-06,  avg # of iterations =  7.8

     negative rho (up, down):  5.087E-03 0.000E+00

     Adding external electric field

     Computed dipole along edir(3) : 
        Dipole               -0.0103 Ry au,         -0.0261 Debye
        Dipole field         -0.0000 Ry au, 

        Potential amp.        0.0024 Ry
        Total length         45.4323 bohr


     total cpu time spent up to now is     1177.1 secs

     total energy              =   -1464.70105442 Ry
     estimated scf accuracy    <       0.00358076 Ry

     iteration #  9     ecut=    55.12 Ry     beta= 0.10
     Davidson diagonalization with overlap
     ethr =  2.39E-06,  avg # of iterations =  2.2

     negative rho (up, down):  5.731E-03 0.000E+00

     Adding external electric field

     Computed dipole along edir(3) : 
        Dipole               -0.0203 Ry au,         -0.0517 Debye
        Dipole field         -0.0001 Ry au, 

        Potential amp.        0.0048 Ry
        Total length         45.4323 bohr


     total cpu time spent up to now is     1298.6 secs

     total energy              =   -1464.70116648 Ry
     estimated scf accuracy    <       0.00102734 Ry

     iteration # 10     ecut=    55.12 Ry     beta= 0.10
     Davidson diagonalization with overlap
     ethr =  6.85E-07,  avg # of iterations =  4.0

     negative rho (up, down):  5.413E-03 0.000E+00

     Adding external electric field

     Computed dipole along edir(3) : 
        Dipole               -0.0146 Ry au,         -0.0371 Debye
        Dipole field         -0.0000 Ry au, 

        Potential amp.        0.0035 Ry
        Total length         45.4323 bohr


     total cpu time spent up to now is     1428.4 secs

     total energy              =   -1464.70132346 Ry
     estimated scf accuracy    <       0.00062071 Ry

     iteration # 11     ecut=    55.12 Ry     beta= 0.10
     Davidson diagonalization with overlap
     ethr =  4.14E-07,  avg # of iterations =  1.7

     negative rho (up, down):  5.005E-03 0.000E+00

     Adding external electric field

     Computed dipole along edir(3) : 
        Dipole               -0.0087 Ry au,         -0.0222 Debye
        Dipole field         -0.0000 Ry au, 

        Potential amp.        0.0021 Ry
        Total length         45.4323 bohr


     total cpu time spent up to now is     1535.1 secs

     total energy              =   -1464.70134010 Ry
     estimated scf accuracy    <       0.00014003 Ry

     iteration # 12     ecut=    55.12 Ry     beta= 0.10
     Davidson diagonalization with overlap
     c_bands:  1 eigenvalues not converged
     c_bands:  1 eigenvalues not converged
     ethr =  9.34E-08,  avg # of iterations =  6.1

     negative rho (up, down):  4.630E-03 0.000E+00

     Adding external electric field

     Computed dipole along edir(3) : 
        Dipole               -0.0109 Ry au,         -0.0277 Debye
        Dipole field         -0.0000 Ry au, 

        Potential amp.        0.0026 Ry
        Total length         45.4323 bohr


     total cpu time spent up to now is     1678.6 secs

     total energy              =   -1464.70138232 Ry
     estimated scf accuracy    <       0.00007454 Ry

     iteration # 13     ecut=    55.12 Ry     beta= 0.10
     Davidson diagonalization with overlap
     ethr =  4.97E-08,  avg # of iterations =  2.4

     negative rho (up, down):  4.257E-03 0.000E+00

     Adding external electric field

     Computed dipole along edir(3) : 
        Dipole               -0.0125 Ry au,         -0.0317 Debye
        Dipole field         -0.0000 Ry au, 

        Potential amp.        0.0030 Ry
        Total length         45.4323 bohr


     total cpu time spent up to now is     1796.0 secs

     total energy              =   -1464.70140400 Ry
     estimated scf accuracy    <       0.00001015 Ry

     iteration # 14     ecut=    55.12 Ry     beta= 0.10
     Davidson diagonalization with overlap
     ethr =  6.77E-09,  avg # of iterations =  6.0

     negative rho (up, down):  3.897E-03 0.000E+00

     Adding external electric field

     Computed dipole along edir(3) : 
        Dipole               -0.0106 Ry au,         -0.0268 Debye
        Dipole field         -0.0000 Ry au, 

        Potential amp.        0.0025 Ry
        Total length         45.4323 bohr


     total cpu time spent up to now is     1947.4 secs

     total energy              =   -1464.70140704 Ry
     estimated scf accuracy    <       0.00002103 Ry

     iteration # 15     ecut=    55.12 Ry     beta= 0.10
     Davidson diagonalization with overlap
     ethr =  6.77E-09,  avg # of iterations =  3.9

     negative rho (up, down):  1.244E-03 0.000E+00

     Adding external electric field

     Computed dipole along edir(3) : 
        Dipole               -0.0175 Ry au,         -0.0446 Debye
        Dipole field         -0.0000 Ry au, 

        Potential amp.        0.0042 Ry
        Total length         45.4323 bohr


     total cpu time spent up to now is     2090.3 secs

     End of self-consistent calculation

          k = 0.0000 0.0000 0.0000 ( 33157 PWs)   bands (ev):

   -73.3659 -73.3330 -73.2983 -73.2662 -73.1923 -73.1256 -37.8935 -37.8804
   -37.7596 -37.7065 -37.6105 -37.5158 -37.4780 -37.4161 -37.4088 -37.3737
   -37.3121 -37.2955 -37.1912 -36.9319 -36.8875 -36.7975 -36.7681 -36.6699
    -6.5955  -5.2210  -5.2130  -5.1371  -5.0992  -4.9693  -4.7906  -4.6618
    -4.5916  -4.5501  -4.5056  -4.3580  -4.3561  -4.2884  -3.9466  -3.9208
    -3.7987  -3.6830  -3.4641  -3.4165  -3.1386  -3.0584  -3.0300  -3.0214
    -2.9834  -2.7578  -2.5931  -2.5772  -2.3846  -2.3132  -2.1054  -2.0255
    -1.7570  -1.6990  -1.6836  -1.3641  -1.2506  -1.0054  -0.9870  -0.9317
    -0.4353  -0.4143   0.0643   0.4235   0.4949   0.7705   0.7990   0.8620
     1.1725   1.5362   1.6974   1.7164   1.8619   2.0049   2.5950   2.6511
     2.6710   2.6863   2.7987   2.9252   3.1169   3.4835   3.8157   3.8767
     4.1330   4.2933

          k = 0.0000 0.0156 0.0000 ( 33106 PWs)   bands (ev):

   -73.3659 -73.3330 -73.2983 -73.2662 -73.1923 -73.1256 -37.8936 -37.8804
   -37.7596 -37.7065 -37.6105 -37.5160 -37.4779 -37.4162 -37.4088 -37.3737
   -37.3122 -37.2955 -37.1913 -36.9320 -36.8875 -36.7975 -36.7681 -36.6699
    -6.5493  -5.2084  -5.1961  -5.1074  -5.0873  -4.9397  -4.7781  -4.6539
    -4.5723  -4.5162  -4.4994  -4.3401  -4.3388  -4.2702  -3.9304  -3.9228
    -3.7869  -3.6504  -3.4549  -3.4162  -3.1272  -3.1088  -3.0170  -2.9972
    -2.9810  -2.7684  -2.5890  -2.5842  -2.3815  -2.3128  -2.1054  -2.0791
    -1.8038  -1.7036  -1.7021  -1.3733  -1.3687  -1.0444  -1.0312  -0.8586
    -0.4671  -0.3938  -0.0098   0.3049   0.3240   0.6877   0.7303   1.0230
     1.1715   1.3223   1.6916   1.6969   1.8301   1.8930   2.3348   2.6052
     2.6119   2.6609   2.7790   3.0185   3.1057   3.7848   3.8074   3.8911
     4.1209   4.2829

          k = 0.0000 0.0312 0.0000 ( 33182 PWs)   bands (ev):

   -73.3659 -73.3330 -73.2983 -73.2662 -73.1923 -73.1256 -37.8937 -37.8806
   -37.7597 -37.7066 -37.6106 -37.5164 -37.4778 -37.4164 -37.4087 -37.3737
   -37.3123 -37.2956 -37.1914 -36.9320 -36.8876 -36.7975 -36.7681 -36.6699
    -6.4134  -5.1965  -5.1258  -5.0539  -5.0291  -4.8651  -4.7339  -4.6286
    -4.5180  -4.4790  -4.4185  -4.2929  -4.2849  -4.2226  -3.9290  -3.8808
    -3.7485  -3.5600  -3.4291  -3.4154  -3.1887  -3.0957  -3.0059  -2.9738
    -2.9669  -2.7958  -2.6038  -2.5778  -2.3737  -2.3110  -2.2660  -2.1053
    -1.8830  -1.7703  -1.7367  -1.5868  -1.3996  -1.1655  -1.1269  -0.7859
    -0.5497  -0.3774  -0.1909   0.0540   0.0921   0.4658   0.5120   0.9215
     1.1873   1.2050   1.2862   1.5285   1.7507   1.9128   2.0737   2.4408
     2.5146   2.6335   2.6999   3.2108   3.2973   3.7204   3.9110   4.0884
     4.2565   4.2854

          k = 0.0000 0.0468 0.0000 ( 33116 PWs)   bands (ev):

   -73.3659 -73.3330 -73.2983 -73.2662 -73.1923 -73.1256 -37.8939 -37.8808
   -37.7598 -37.7067 -37.6106 -37.5170 -37.4777 -37.4166 -37.4087 -37.3738
   -37.3125 -37.2958 -37.1916 -36.9320 -36.8876 -36.7975 -36.7681 -36.6699
    -6.1970  -5.1828  -5.0336  -4.9948  -4.9321  -4.7974  -4.6537  -4.5753
    -4.4396  -4.4279  -4.2799  -4.2120  -4.2067  -4.1574  -3.9381  -3.7975
    -3.6838  -3.4307  -3.4135  -3.4020  -3.2679  -3.0532  -2.9928  -2.9614
    -2.9499  -2.8215  -2.6306  -2.5623  -2.5584  -2.3643  -2.3067  -2.1051
    -1.9882  -1.9306  -1.8603  -1.6748  -1.5129  -1.3652  -1.1965  -0.8413
    -0.6472  -0.4284  -0.3814  -0.1928  -0.0772   0.1999   0.2021   0.5036
     0.8379   1.0883   1.1901   1.2065   1.7218   1.9977   2.1114   2.3774
     2.4118   2.5598   2.5962   3.3758   3.5105   3.6438   3.9217   4.0480
     4.2216   4.3609

          k = 0.0000 0.0624 0.0000 ( 33064 PWs)   bands (ev):

   -73.3659 -73.3330 -73.2983 -73.2662 -73.1923 -73.1256 -37.8940 -37.8810
   -37.7598 -37.7068 -37.6107 -37.5176 -37.4776 -37.4169 -37.4086 -37.3738
   -37.3127 -37.2959 -37.1917 -36.9320 -36.8876 -36.7975 -36.7681 -36.6699
    -5.9195  -5.1782  -4.9772  -4.8846  -4.8589  -4.7566  -4.5978  -4.5172
    -4.3594  -4.2960  -4.1684  -4.1340  -4.1224  -4.0178  -3.9455  -3.6859
    -3.6158  -3.4499  -3.4109  -3.2997  -3.2533  -3.0139  -2.9826  -2.9687
    -2.9460  -2.8391  -2.8132  -2.6515  -2.5468  -2.3573  -2.2998  -2.1970
    -2.1718  -2.1049  -1.9205  -1.7189  -1.6895  -1.5993  -1.2073  -1.0188
    -0.8010  -0.5334  -0.4743  -0.3867  -0.2076  -0.0941  -0.0224   0.1122
     0.6181   0.6917   0.9861   1.2149   1.7080   2.1410   2.1855   2.3422
     2.3929   2.4297   2.5590   3.5341   3.5720   3.6033   3.9130   4.0205
     4.1882   4.3893

          k = 0.0000 0.0781 0.0000 ( 33042 PWs)   bands (ev):

   -73.3659 -73.3330 -73.2983 -73.2662 -73.1923 -73.1256 -37.8941 -37.8812
   -37.7599 -37.7068 -37.6108 -37.5180 -37.4775 -37.4171 -37.4086 -37.3738
   -37.3128 -37.2960 -37.1919 -36.9320 -36.8876 -36.7976 -36.7681 -36.6699
    -5.6202  -5.2081  -4.9429  -4.8479  -4.7827  -4.7289  -4.5637  -4.4948
    -4.3054  -4.1642  -4.1124  -4.0789  -4.0557  -3.9454  -3.8251  -3.5843
    -3.5589  -3.5058  -3.4085  -3.2321  -3.2029  -3.0705  -2.9764  -2.9651
    -2.9442  -2.9333  -2.7695  -2.6521  -2.5355  -2.4212  -2.3780  -2.3536
    -2.2930  -2.1048  -1.9845  -1.9049  -1.7888  -1.6929  -1.2098  -1.1920
    -0.9591  -0.6421  -0.5290  -0.5225  -0.2985  -0.2744  -0.1543  -0.1438
     0.4286   0.5378   0.8115   1.2164   1.7003   2.2276   2.2370   2.3081
     2.3419   2.4424   2.5319   3.5213   3.6352   3.6530   3.8921   4.0128
     4.1658   4.4233

          k = 0.0000-0.0937 0.0000 ( 33036 PWs)   bands (ev):

   -73.3659 -73.3330 -73.2983 -73.2662 -73.1923 -73.1256 -37.8942 -37.8812
   -37.7599 -37.7069 -37.6108 -37.5181 -37.4775 -37.4171 -37.4086 -37.3739
   -37.3129 -37.2961 -37.1919 -36.9320 -36.8877 -36.7976 -36.7681 -36.6699
    -5.4156  -5.2890  -4.9306  -4.8647  -4.7409  -4.7190  -4.5499  -4.4895
    -4.2890  -4.1284  -4.1008  -4.0482  -4.0300  -3.9427  -3.7210  -3.5884
    -3.5564  -3.4075  -3.4004  -3.2737  -3.2340  -3.0450  -2.9906  -2.9744
    -2.9284  -2.9232  -2.7387  -2.6604  -2.5314  -2.5087  -2.4752  -2.3525
    -2.2902  -2.1048  -2.0617  -1.9392  -1.8617  -1.6912  -1.2968  -1.1811
    -1.0257  -0.6929  -0.5740  -0.5616  -0.3216  -0.3186  -0.2390  -0.1953
     0.3363   0.5237   0.7430   1.2163   1.6979   2.2517   2.2531   2.2984
     2.3128   2.4681   2.5219   3.5030   3.6423   3.6999   3.8819   4.0120
     4.1579   4.4374

          k = 0.0154 0.0078 0.0000 ( 33154 PWs)   bands (ev):

   -73.3648 -73.3319 -73.2995 -73.2673 -73.1912 -73.1268 -37.8784 -37.8781
   -37.7617 -37.6914 -37.5953 -37.5140 -37.4762 -37.4144 -37.4107 -37.3755
   -37.3139 -37.2938 -37.1931 -36.9493 -36.8860 -36.7990 -36.7850 -36.6868
    -6.5340  -5.1966  -5.1704  -5.0932  -5.0753  -4.9251  -4.7557  -4.6377
    -4.5693  -4.5281  -4.4681  -4.3688  -4.3186  -4.2754  -3.9296  -3.9011
    -3.7894  -3.6640  -3.4616  -3.3994  -3.1412  -3.1240  -3.0583  -3.0259
    -2.9516  -2.7648  -2.6274  -2.5962  -2.4179  -2.3471  -2.1364  -1.9731
    -1.7337  -1.7145  -1.6217  -1.3489  -1.2991  -1.0979  -0.9856  -0.8300
    -0.5867  -0.3768  -0.0652   0.3765   0.4669   0.7556   0.8179   0.9311
     1.2047   1.4345   1.6524   1.6850   1.7841   1.7979   2.3722   2.5764
     2.6350   2.7299   2.8259   2.8978   3.0538   3.5509   3.8212   3.8680
     4.0104   4.2808

          k = 0.0154 0.0234 0.0000 ( 33160 PWs)   bands (ev):

   -73.3648 -73.3319 -73.2995 -73.2673 -73.1912 -73.1268 -37.8785 -37.8781
   -37.7618 -37.6914 -37.5953 -37.5143 -37.4761 -37.4145 -37.4106 -37.3755
   -37.3140 -37.2938 -37.1931 -36.9493 -36.8860 -36.7991 -36.7850 -36.6869
    -6.4426  -5.1616  -5.1485  -5.0524  -5.0382  -4.8687  -4.7294  -4.6220
    -4.5321  -4.4631  -4.4553  -4.3336  -4.2882  -4.2406  -3.9045  -3.8983
    -3.7644  -3.6029  -3.4435  -3.3989  -3.1760  -3.1198  -3.0552  -3.0127
    -2.9399  -2.7845  -2.6211  -2.6093  -2.4130  -2.3478  -2.1414  -2.0918
    -1.7936  -1.7425  -1.6660  -1.4895  -1.3430  -1.1610  -1.0606  -0.7760
    -0.6224  -0.3496  -0.1806   0.1873   0.2366   0.5628   0.6542   1.0730
     1.2029   1.2100   1.4314   1.6485   1.7622   1.7630   1.9999   2.3481
     2.6050   2.7116   2.8810   3.0921   3.1084   3.7961   3.8439   4.0006
     4.0156   4.2473

          k = 0.0154 0.0390 0.0000 ( 33130 PWs)   bands (ev):

   -73.3648 -73.3319 -73.2995 -73.2673 -73.1912 -73.1268 -37.8787 -37.8783
   -37.7618 -37.6915 -37.5954 -37.5148 -37.4760 -37.4148 -37.4106 -37.3755
   -37.3142 -37.2940 -37.1933 -36.9494 -36.8861 -36.7991 -36.7850 -36.6869
    -6.2655  -5.1477  -5.0614  -5.0097  -4.9491  -4.7885  -4.6679  -4.5829
    -4.4644  -4.4254  -4.3451  -4.2660  -4.2318  -4.1813  -3.9110  -3.8343
    -3.7112  -3.4941  -3.4113  -3.3972  -3.2561  -3.0826  -3.0451  -3.0027
    -2.9247  -2.8133  -2.6326  -2.6113  -2.4084  -2.3768  -2.3302  -2.1348
    -1.8695  -1.8094  -1.7579  -1.6888  -1.3962  -1.3250  -1.1408  -0.8098
    -0.6386  -0.3743  -0.3606  -0.0536   0.0382   0.2807   0.3838   0.7365
     1.0049   1.0695   1.2359   1.4021   1.7184   1.8884   1.9917   2.1535
     2.5056   2.6020   2.8054   3.2912   3.3933   3.6915   3.8607   4.0038
     4.2001   4.2800

          k = 0.0154 0.0546 0.0000 ( 33122 PWs)   bands (ev):

   -73.3647 -73.3319 -73.2995 -73.2673 -73.1912 -73.1268 -37.8789 -37.8785
   -37.7619 -37.6916 -37.5955 -37.5154 -37.4759 -37.4150 -37.4105 -37.3756
   -37.3144 -37.2941 -37.1935 -36.9494 -36.8861 -36.7991 -36.7850 -36.6869
    -6.0159  -5.1359  -4.9814  -4.9260  -4.8614  -4.7335  -4.6038  -4.5070
    -4.3826  -4.3455  -4.2222  -4.1812  -4.1471  -4.0920  -3.9177  -3.7387
    -3.6404  -3.4131  -3.3961  -3.3627  -3.2992  -3.0427  -3.0386  -2.9970
    -2.9154  -2.8253  -2.6793  -2.6574  -2.6014  -2.3965  -2.3447  -2.1370
    -2.0538  -2.0057  -1.8343  -1.7331  -1.5627  -1.5493  -1.1574  -0.9452
    -0.6979  -0.5502  -0.4405  -0.2476  -0.1009   0.0023   0.0830   0.3257
     0.7239   0.7342   1.0901   1.3023   1.7092   2.0223   2.0886   2.1274
     2.4167   2.4755   2.7548   3.4472   3.5478   3.5949   3.8735   3.9825
     4.1592   4.2918

          k = 0.0154 0.0702 0.0000 ( 33096 PWs)   bands (ev):

   -73.3647 -73.3319 -73.2995 -73.2673 -73.1912 -73.1268 -37.8791 -37.8786
   -37.7620 -37.6917 -37.5956 -37.5160 -37.4758 -37.4152 -37.4105 -37.3756
   -37.3145 -37.2942 -37.1936 -36.9494 -36.8861 -36.7991 -36.7850 -36.6869
    -5.7209  -5.1420  -4.9374  -4.8193  -4.8105  -4.6979  -4.5638  -4.4646
    -4.3143  -4.2056  -4.1459  -4.1223  -4.0623  -3.9432  -3.9012  -3.6142
    -3.5859  -3.4952  -3.3928  -3.2616  -3.2396  -3.0665  -3.0049  -3.0025
    -2.9381  -2.8741  -2.7968  -2.6676  -2.6017  -2.3921  -2.3533  -2.3062
    -2.2109  -2.1348  -1.8758  -1.8019  -1.7716  -1.7102  -1.1378  -1.1209
    -0.8666  -0.6153  -0.5478  -0.4144  -0.2090  -0.2001  -0.1284   0.0071
     0.4354   0.5957   0.9018   1.2756   1.7051   2.0217   2.1698   2.2669
     2.3493   2.3812   2.7473   3.4814   3.5615   3.6080   3.8544   3.9987
     4.1390   4.3248

          k = 0.0154 0.0859 0.0000 ( 33092 PWs)   bands (ev):

   -73.3647 -73.3319 -73.2995 -73.2673 -73.1912 -73.1268 -37.8792 -37.8787
   -37.7620 -37.6917 -37.5956 -37.5163 -37.4758 -37.4154 -37.4104 -37.3756
   -37.3146 -37.2943 -37.1937 -36.9494 -36.8861 -36.7991 -36.7850 -36.6869
    -5.4401  -5.2028  -4.9133  -4.8344  -4.7311  -4.6779  -4.5385  -4.4527
    -4.2821  -4.1336  -4.1223  -4.0686  -4.0142  -3.9226  -3.7656  -3.5728
    -3.5540  -3.4444  -3.3912  -3.2604  -3.2383  -3.0822  -3.0247  -2.9599
    -2.9534  -2.9021  -2.7539  -2.6685  -2.6136  -2.4723  -2.4275  -2.3786
    -2.3248  -2.1368  -1.9451  -1.9244  -1.8720  -1.7238  -1.2590  -1.1150
    -0.9840  -0.6529  -0.6304  -0.5411  -0.2880  -0.2550  -0.2143  -0.1695
     0.2711   0.5623   0.7790   1.2659   1.7034   2.0218   2.2179   2.2944
     2.3381   2.3474   2.7671   3.4505   3.5711   3.6269   3.8304   4.0194
     4.1438   4.3502

          k = 0.0154-0.0859 0.0000 ( 33092 PWs)   bands (ev):

   -73.3647 -73.3319 -73.2995 -73.2673 -73.1912 -73.1268 -37.8792 -37.8787
   -37.7620 -37.6917 -37.5956 -37.5163 -37.4758 -37.4154 -37.4104 -37.3756
   -37.3146 -37.2943 -37.1937 -36.9494 -36.8861 -36.7991 -36.7850 -36.6869
    -5.4401  -5.2028  -4.9133  -4.8344  -4.7311  -4.6779  -4.5385  -4.4527
    -4.2820  -4.1336  -4.1223  -4.0685  -4.0142  -3.9225  -3.7656  -3.5728
    -3.5540  -3.4444  -3.3912  -3.2603  -3.2383  -3.0822  -3.0248  -2.9599
    -2.9534  -2.9021  -2.7539  -2.6685  -2.6136  -2.4723  -2.4274  -2.3785
    -2.3248  -2.1368  -1.9451  -1.9245  -1.8721  -1.7238  -1.2590  -1.1150
    -0.9840  -0.6528  -0.6304  -0.5412  -0.2877  -0.2550  -0.2145  -0.1695
     0.2711   0.5623   0.7790   1.2659   1.7034   2.0218   2.2179   2.2944
     2.3381   2.3474   2.7671   3.4506   3.5710   3.6269   3.8305   4.0196
     4.1439   4.3503

          k = 0.0154-0.0702 0.0000 ( 33096 PWs)   bands (ev):

   -73.3647 -73.3319 -73.2995 -73.2673 -73.1912 -73.1268 -37.8791 -37.8786
   -37.7620 -37.6917 -37.5956 -37.5160 -37.4758 -37.4152 -37.4105 -37.3756
   -37.3145 -37.2942 -37.1936 -36.9494 -36.8861 -36.7991 -36.7850 -36.6869
    -5.7209  -5.1420  -4.9374  -4.8193  -4.8105  -4.6979  -4.5638  -4.4646
    -4.3143  -4.2056  -4.1461  -4.1223  -4.0622  -3.9431  -3.9012  -3.6141
    -3.5860  -3.4952  -3.3927  -3.2616  -3.2395  -3.0665  -3.0049  -3.0026
    -2.9381  -2.8742  -2.7968  -2.6676  -2.6017  -2.3922  -2.3532  -2.3061
    -2.2109  -2.1348  -1.8758  -1.8021  -1.7717  -1.7101  -1.1378  -1.1210
    -0.8666  -0.6150  -0.5478  -0.4146  -0.2090  -0.1997  -0.1287   0.0071
     0.4355   0.5957   0.9018   1.2755   1.7051   2.0216   2.1698   2.2671
     2.3492   2.3810   2.7472   3.4816   3.5612   3.6080   3.8544   3.9986
     4.1390   4.3248

          k = 0.0154-0.0546 0.0000 ( 33122 PWs)   bands (ev):

   -73.3647 -73.3319 -73.2995 -73.2673 -73.1912 -73.1268 -37.8789 -37.8785
   -37.7619 -37.6916 -37.5955 -37.5154 -37.4759 -37.4150 -37.4105 -37.3756
   -37.3144 -37.2941 -37.1935 -36.9494 -36.8861 -36.7991 -36.7850 -36.6869
    -6.0159  -5.1359  -4.9814  -4.9260  -4.8615  -4.7335  -4.6038  -4.5070
    -4.3826  -4.3454  -4.2223  -4.1812  -4.1471  -4.0919  -3.9177  -3.7386
    -3.6404  -3.4131  -3.3961  -3.3627  -3.2992  -3.0427  -3.0385  -2.9971
    -2.9154  -2.8253  -2.6794  -2.6574  -2.6014  -2.3965  -2.3446  -2.1370
    -2.0538  -2.0057  -1.8344  -1.7332  -1.5627  -1.5494  -1.1574  -0.9453
    -0.6978  -0.5500  -0.4405  -0.2478  -0.1009   0.0025   0.0829   0.3257
     0.7239   0.7346   1.0902   1.3020   1.7093   2.0221   2.0888   2.1278
     2.4164   2.4754   2.7546   3.4474   3.5478   3.5947   3.8735   3.9825
     4.1593   4.2918

          k = 0.0154-0.0390 0.0000 ( 33130 PWs)   bands (ev):

   -73.3648 -73.3319 -73.2995 -73.2673 -73.1912 -73.1268 -37.8787 -37.8783
   -37.7618 -37.6915 -37.5954 -37.5148 -37.4760 -37.4148 -37.4106 -37.3755
   -37.3142 -37.2940 -37.1933 -36.9494 -36.8861 -36.7991 -36.7850 -36.6869
    -6.2655  -5.1477  -5.0614  -5.0097  -4.9491  -4.7885  -4.6679  -4.5829
    -4.4644  -4.4254  -4.3451  -4.2661  -4.2318  -4.1811  -3.9111  -3.8343
    -3.7112  -3.4942  -3.4113  -3.3972  -3.2561  -3.0826  -3.0451  -3.0027
    -2.9248  -2.8133  -2.6326  -2.6113  -2.4085  -2.3768  -2.3301  -2.1348
    -1.8695  -1.8093  -1.7579  -1.6888  -1.3963  -1.3251  -1.1408  -0.8098
    -0.6384  -0.3742  -0.3606  -0.0538   0.0382   0.2809   0.3837   0.7365
     1.0049   1.0701   1.2359   1.4018   1.7184   1.8886   1.9919   2.1533
     2.5051   2.6019   2.8053   3.2915   3.3933   3.6913   3.8606   4.0038
     4.2002   4.2800

          k = 0.0154-0.0234 0.0000 ( 33160 PWs)   bands (ev):

   -73.3648 -73.3319 -73.2995 -73.2673 -73.1912 -73.1268 -37.8785 -37.8781
   -37.7618 -37.6914 -37.5953 -37.5143 -37.4761 -37.4145 -37.4106 -37.3755
   -37.3140 -37.2938 -37.1931 -36.9493 -36.8860 -36.7991 -36.7850 -36.6869
    -6.4426  -5.1616  -5.1485  -5.0524  -5.0382  -4.8687  -4.7294  -4.6220
    -4.5321  -4.4631  -4.4553  -4.3337  -4.2882  -4.2404  -3.9045  -3.8983
    -3.7644  -3.6029  -3.4435  -3.3989  -3.1760  -3.1198  -3.0552  -3.0127
    -2.9400  -2.7845  -2.6211  -2.6093  -2.4130  -2.3478  -2.1413  -2.0918
    -1.7936  -1.7425  -1.6660  -1.4895  -1.3431  -1.1611  -1.0606  -0.7760
    -0.6222  -0.3496  -0.1805   0.1871   0.2366   0.5629   0.6542   1.0730
     1.2030   1.2100   1.4314   1.6486   1.7621   1.7631   2.0002   2.3478
     2.6043   2.7116   2.8811   3.0923   3.1085   3.7960   3.8439   4.0006
     4.0157   4.2474

          k = 0.0154-0.0078 0.0000 ( 33154 PWs)   bands (ev):

   -73.3648 -73.3319 -73.2995 -73.2673 -73.1912 -73.1268 -37.8784 -37.8781
   -37.7617 -37.6914 -37.5953 -37.5140 -37.4762 -37.4144 -37.4107 -37.3755
   -37.3139 -37.2938 -37.1931 -36.9493 -36.8860 -36.7990 -36.7850 -36.6868
    -6.5340  -5.1966  -5.1704  -5.0932  -5.0753  -4.9251  -4.7557  -4.6377
    -4.5693  -4.5281  -4.4681  -4.3688  -4.3186  -4.2754  -3.9296  -3.9011
    -3.7894  -3.6640  -3.4616  -3.3994  -3.1412  -3.1240  -3.0583  -3.0259
    -2.9516  -2.7648  -2.6274  -2.5962  -2.4179  -2.3471  -2.1364  -1.9731
    -1.7337  -1.7145  -1.6217  -1.3490  -1.2991  -1.0979  -0.9856  -0.8300
    -0.5867  -0.3768  -0.0652   0.3764   0.4669   0.7555   0.8182   0.9311
     1.2046   1.4346   1.6524   1.6851   1.7841   1.7978   2.3728   2.5761
     2.6347   2.7294   2.8264   2.8978   3.0537   3.5509   3.8212   3.8678
     4.0105   4.2809

          k = 0.0309 0.0156 0.0000 ( 33182 PWs)   bands (ev):

   -73.3614 -73.3286 -73.3029 -73.2707 -73.1879 -73.1301 -37.8725 -37.8326
   -37.7679 -37.6468 -37.5507 -37.5088 -37.4711 -37.4161 -37.4094 -37.3807
   -37.3192 -37.2887 -37.1984 -37.0000 -36.8817 -36.8344 -36.8036 -36.7364
    -6.3538  -5.1263  -5.0462  -5.0047  -4.9772  -4.7916  -4.6760  -4.5475
    -4.5065  -4.4687  -4.3553  -4.3523  -4.2875  -4.2106  -3.8815  -3.8438
    -3.7592  -3.6118  -3.4601  -3.3501  -3.2543  -3.1560  -3.1491  -3.0304
    -2.9017  -2.7849  -2.7234  -2.6526  -2.5136  -2.4367  -2.2200  -1.8590
    -1.8375  -1.6252  -1.4424  -1.4071  -1.2613  -1.2581  -0.9708  -0.9590
    -0.6716  -0.3691  -0.2784   0.2518   0.4417   0.6920   0.7912   1.0185
     1.2104   1.2552   1.3326   1.5860   1.5937   1.7330   1.8754   2.2677
     2.5664   2.6067   2.8432   2.8439   3.2159   3.6270   3.6332   3.7644
     4.1467   4.1708

          k = 0.0309 0.0312 0.0000 ( 33165 PWs)   bands (ev):

   -73.3614 -73.3286 -73.3029 -73.2707 -73.1879 -73.1301 -37.8726 -37.8327
   -37.7680 -37.6469 -37.5508 -37.5092 -37.4710 -37.4161 -37.4095 -37.3807
   -37.3194 -37.2887 -37.1985 -37.0000 -36.8817 -36.8344 -36.8036 -36.7364
    -6.2205  -5.0595  -5.0339  -4.9731  -4.9097  -4.7145  -4.6401  -4.5195
    -4.4554  -4.3852  -4.3367  -4.3027  -4.2522  -4.1616  -3.8470  -3.8410
    -3.7188  -3.5338  -3.4333  -3.3488  -3.3017  -3.1617  -3.1221  -3.0304
    -2.8918  -2.8088  -2.7196  -2.6690  -2.5098  -2.4411  -2.2265  -2.0723
    -1.8720  -1.6928  -1.6160  -1.5230  -1.4132  -1.2221  -1.0467  -0.9781
    -0.6311  -0.4567  -0.2609   0.0094   0.2320   0.4100   0.5778   0.9443
     1.0274   1.0330   1.2539   1.5017   1.6020   1.7489   1.7579   2.0261
     2.5255   2.5625   2.9115   3.1707   3.2684   3.6375   3.7790   3.9512
     4.0691   4.1487

          k = 0.0309 0.0468 0.0000 ( 33138 PWs)   bands (ev):

   -73.3614 -73.3286 -73.3029 -73.2707 -73.1879 -73.1301 -37.8728 -37.8328
   -37.7680 -37.6470 -37.5509 -37.5098 -37.4709 -37.4160 -37.4097 -37.3808
   -37.3195 -37.2889 -37.1986 -37.0001 -36.8817 -36.8344 -36.8036 -36.7364
    -6.0078  -5.0188  -4.9630  -4.9220  -4.8261  -4.6413  -4.5833  -4.4454
    -4.3816  -4.3014  -4.2804  -4.2297  -4.1895  -4.0884  -3.8519  -3.7703
    -3.6541  -3.4264  -3.4002  -3.3720  -3.3452  -3.1671  -3.0873  -3.0290
    -2.8795  -2.8303  -2.7195  -2.6906  -2.5140  -2.4734  -2.3822  -2.2155
    -1.9275  -1.8415  -1.7512  -1.6405  -1.6259  -1.3390  -1.0407  -1.0271
    -0.6335  -0.5929  -0.2975  -0.2255   0.0788   0.0940   0.2905   0.5831
     0.6692   0.8407   1.1422   1.4098   1.7343   1.7448   1.8969   1.9079
     2.4548   2.4813   2.8685   3.3828   3.4188   3.5803   3.7679   3.8396
     4.0567   4.2215

          k = 0.0309 0.0624 0.0000 ( 33132 PWs)   bands (ev):

   -73.3614 -73.3286 -73.3029 -73.2707 -73.1879 -73.1301 -37.8730 -37.8330
   -37.7681 -37.6471 -37.5509 -37.5103 -37.4708 -37.4159 -37.4100 -37.3808
   -37.3197 -37.2890 -37.1988 -37.0001 -36.8818 -36.8344 -36.8036 -36.7364
    -5.7338  -5.0102  -4.8976  -4.8179  -4.7631  -4.5925  -4.5430  -4.3588
    -4.3091  -4.2197  -4.2024  -4.1714  -4.0815  -3.9872  -3.8513  -3.6687
    -3.5872  -3.4898  -3.3510  -3.3198  -3.3129  -3.1850  -3.0567  -3.0277
    -2.8688  -2.8240  -2.7617  -2.7063  -2.7026  -2.5051  -2.4379  -2.2221
    -2.1517  -1.9518  -1.9171  -1.7989  -1.6997  -1.5288  -1.1056  -0.9924
    -0.7716  -0.6678  -0.4049  -0.3845  -0.1960  -0.0280   0.0389   0.2558
     0.3770   0.7112   1.0027   1.3639   1.6732   1.7306   2.0205   2.0728
     2.3685   2.4143   2.8612   3.4079   3.4634   3.5343   3.7666   3.7895
     4.0686   4.2416

          k = 0.0309 0.0781 0.0000 ( 33104 PWs)   bands (ev):

   -73.3614 -73.3286 -73.3029 -73.2707 -73.1879 -73.1301 -37.8731 -37.8331
   -37.7681 -37.6471 -37.5510 -37.5107 -37.4707 -37.4158 -37.4101 -37.3809
   -37.3198 -37.2891 -37.1989 -37.0001 -36.8818 -36.8344 -36.8036 -36.7364
    -5.4366  -5.0303  -4.8625  -4.7565  -4.7063  -4.5594  -4.5157  -4.3312
    -4.2704  -4.1672  -4.1388  -4.1114  -4.0066  -3.8812  -3.8234  -3.5762
    -3.5471  -3.5248  -3.3457  -3.2911  -3.2632  -3.1834  -3.0458  -3.0218
    -2.9316  -2.8276  -2.7890  -2.7403  -2.7078  -2.5310  -2.4509  -2.3559
    -2.2253  -2.1220  -2.0963  -1.8463  -1.7237  -1.6818  -1.1961  -0.9450
    -0.9111  -0.7133  -0.5734  -0.4744  -0.3695  -0.0920  -0.0920   0.0391
     0.1874   0.6653   0.8747   1.3408   1.6300   1.7309   2.1110   2.1941
     2.2875   2.3773   2.9012   3.3646   3.3969   3.5781   3.7066   3.7864
     4.0901   4.2861

          k = 0.0309 0.0937 0.0000 ( 33114 PWs)   bands (ev):

   -73.3614 -73.3286 -73.3029 -73.2707 -73.1879 -73.1301 -37.8732 -37.8331
   -37.7682 -37.6471 -37.5510 -37.5109 -37.4707 -37.4158 -37.4102 -37.3809
   -37.3198 -37.2891 -37.1989 -37.0001 -36.8818 -36.8344 -36.8036 -36.7364
    -5.2357  -5.0996  -4.8499  -4.7768  -4.6571  -4.5473  -4.5039  -4.3272
    -4.2642  -4.1573  -4.1259  -4.0834  -3.9813  -3.8593  -3.7773  -3.5965
    -3.5368  -3.4148  -3.3458  -3.3370  -3.2587  -3.1362  -3.1024  -2.9957
    -2.9564  -2.7860  -2.7701  -2.7625  -2.7129  -2.5707  -2.4551  -2.4372
    -2.2295  -2.2091  -2.1599  -1.8537  -1.7552  -1.7165  -1.2419  -0.9595
    -0.9231  -0.7394  -0.6470  -0.5148  -0.4181  -0.1294  -0.0982  -0.0500
     0.1211   0.6631   0.8182   1.3337   1.6190   1.7314   2.1541   2.2314
     2.2458   2.3651   2.9311   3.3393   3.3734   3.5891   3.6789   3.7838
     4.1003   4.3076

          k = 0.0309-0.0781 0.0000 ( 33104 PWs)   bands (ev):

   -73.3614 -73.3286 -73.3029 -73.2707 -73.1879 -73.1301 -37.8731 -37.8331
   -37.7681 -37.6471 -37.5510 -37.5107 -37.4707 -37.4158 -37.4101 -37.3809
   -37.3198 -37.2891 -37.1989 -37.0001 -36.8818 -36.8344 -36.8036 -36.7364
    -5.4366  -5.0303  -4.8625  -4.7565  -4.7063  -4.5594  -4.5157  -4.3312
    -4.2704  -4.1673  -4.1388  -4.1114  -4.0066  -3.8811  -3.8234  -3.5762
    -3.5471  -3.5247  -3.3457  -3.2910  -3.2632  -3.1834  -3.0458  -3.0217
    -2.9317  -2.8277  -2.7891  -2.7404  -2.7078  -2.5309  -2.4509  -2.3558
    -2.2253  -2.1220  -2.0965  -1.8463  -1.7236  -1.6820  -1.1962  -0.9451
    -0.9111  -0.7132  -0.5732  -0.4744  -0.3695  -0.0920  -0.0919   0.0391
     0.1875   0.6654   0.8747   1.3407   1.6299   1.7309   2.1109   2.1942
     2.2876   2.3771   2.9012   3.3645   3.3968   3.5781   3.7066   3.7865
     4.0902   4.2860

          k = 0.0309-0.0624 0.0000 ( 33132 PWs)   bands (ev):

   -73.3614 -73.3286 -73.3029 -73.2707 -73.1879 -73.1301 -37.8730 -37.8330
   -37.7681 -37.6471 -37.5509 -37.5103 -37.4708 -37.4159 -37.4100 -37.3808
   -37.3197 -37.2890 -37.1988 -37.0001 -36.8818 -36.8344 -36.8036 -36.7364
    -5.7338  -5.0102  -4.8976  -4.8179  -4.7631  -4.5925  -4.5430  -4.3588
    -4.3091  -4.2197  -4.2025  -4.1715  -4.0815  -3.9871  -3.8512  -3.6686
    -3.5873  -3.4898  -3.3510  -3.3197  -3.3130  -3.1850  -3.0567  -3.0278
    -2.8688  -2.8240  -2.7617  -2.7063  -2.7027  -2.5050  -2.4378  -2.2221
    -2.1516  -1.9520  -1.9170  -1.7990  -1.6997  -1.5289  -1.1059  -0.9924
    -0.7715  -0.6677  -0.4047  -0.3845  -0.1962  -0.0280   0.0391   0.2558
     0.3772   0.7113   1.0027   1.3637   1.6732   1.7306   2.0205   2.0730
     2.3685   2.4140   2.8612   3.4080   3.4632   3.5343   3.7666   3.7895
     4.0687   4.2417

          k = 0.0309-0.0468 0.0000 ( 33138 PWs)   bands (ev):

   -73.3614 -73.3286 -73.3029 -73.2707 -73.1879 -73.1301 -37.8728 -37.8328
   -37.7680 -37.6470 -37.5509 -37.5098 -37.4709 -37.4160 -37.4097 -37.3808
   -37.3195 -37.2889 -37.1986 -37.0000 -36.8817 -36.8344 -36.8036 -36.7364
    -6.0078  -5.0188  -4.9630  -4.9220  -4.8261  -4.6413  -4.5833  -4.4454
    -4.3815  -4.3015  -4.2805  -4.2298  -4.1895  -4.0882  -3.8519  -3.7703
    -3.6541  -3.4264  -3.4002  -3.3719  -3.3452  -3.1671  -3.0873  -3.0290
    -2.8796  -2.8304  -2.7195  -2.6906  -2.5141  -2.4734  -2.3821  -2.2155
    -1.9275  -1.8415  -1.7512  -1.6405  -1.6261  -1.3391  -1.0407  -1.0273
    -0.6333  -0.5928  -0.2974  -0.2255   0.0788   0.0939   0.2907   0.5831
     0.6697   0.8408   1.1422   1.4096   1.7343   1.7449   1.8969   1.9078
     2.4545   2.4811   2.8684   3.3830   3.4187   3.5802   3.7680   3.8395
     4.0568   4.2217

          k = 0.0309-0.0312 0.0000 ( 33165 PWs)   bands (ev):

   -73.3614 -73.3286 -73.3029 -73.2707 -73.1879 -73.1301 -37.8726 -37.8327
   -37.7680 -37.6469 -37.5508 -37.5092 -37.4710 -37.4161 -37.4095 -37.3807
   -37.3194 -37.2887 -37.1985 -37.0000 -36.8817 -36.8344 -36.8036 -36.7364
    -6.2205  -5.0595  -5.0339  -4.9731  -4.9097  -4.7145  -4.6400  -4.5195
    -4.4555  -4.3852  -4.3367  -4.3028  -4.2523  -4.1614  -3.8470  -3.8409
    -3.7189  -3.5338  -3.4333  -3.3487  -3.3017  -3.1617  -3.1221  -3.0304
    -2.8918  -2.8088  -2.7196  -2.6690  -2.5098  -2.4411  -2.2265  -2.0723
    -1.8720  -1.6928  -1.6160  -1.5230  -1.4133  -1.2222  -1.0467  -0.9782
    -0.6310  -0.4566  -0.2608   0.0092   0.2320   0.4102   0.5777   0.9444
     1.0274   1.0337   1.2539   1.5015   1.6023   1.7488   1.7581   2.0258
     2.5249   2.5624   2.9113   3.1707   3.2689   3.6375   3.7789   3.9511
     4.0694   4.1482

          k = 0.0309-0.0156 0.0000 ( 33182 PWs)   bands (ev):

   -73.3614 -73.3286 -73.3029 -73.2707 -73.1879 -73.1301 -37.8725 -37.8326
   -37.7679 -37.6468 -37.5507 -37.5088 -37.4711 -37.4161 -37.4094 -37.3807
   -37.3192 -37.2887 -37.1984 -37.0000 -36.8817 -36.8344 -36.8036 -36.7364
    -6.3538  -5.1263  -5.0462  -5.0047  -4.9772  -4.7916  -4.6760  -4.5475
    -4.5065  -4.4687  -4.3553  -4.3524  -4.2876  -4.2105  -3.8815  -3.8438
    -3.7592  -3.6118  -3.4601  -3.3501  -3.2543  -3.1560  -3.1491  -3.0304
    -2.9018  -2.7849  -2.7234  -2.6526  -2.5136  -2.4367  -2.2200  -1.8590
    -1.8375  -1.6251  -1.4423  -1.4072  -1.2613  -1.2582  -0.9708  -0.9590
    -0.6715  -0.3691  -0.2784   0.2516   0.4417   0.6924   0.7912   1.0185
     1.2107   1.2553   1.3325   1.5863   1.5936   1.7330   1.8755   2.2675
     2.5656   2.6068   2.8433   2.8440   3.2161   3.6270   3.6331   3.7644
     4.1466   4.1707

          k = 0.0309-0.0000 0.0000 ( 33142 PWs)   bands (ev):

   -73.3614 -73.3286 -73.3029 -73.2707 -73.1879 -73.1301 -37.8724 -37.8325
   -37.7679 -37.6468 -37.5507 -37.5087 -37.4711 -37.4162 -37.4093 -37.3807
   -37.3192 -37.2886 -37.1983 -37.0000 -36.8817 -36.8344 -36.8036 -36.7364
    -6.3991  -5.1494  -5.0508  -5.0159  -5.0030  -4.8214  -4.6874  -4.5551
    -4.5245  -4.4989  -4.3694  -4.3616  -4.3001  -4.2282  -3.8945  -3.8432
    -3.7717  -3.6401  -3.4691  -3.3505  -3.2409  -3.1589  -3.1515  -3.0299
    -2.9058  -2.7753  -2.7252  -2.6466  -2.5153  -2.4357  -2.2188  -1.8554
    -1.7755  -1.5322  -1.4296  -1.3132  -1.3107  -1.2119  -0.9557  -0.9311
    -0.7017  -0.3375  -0.2959   0.3594   0.5969   0.8184   0.8944   0.9161
     1.1808   1.2452   1.4781   1.5768   1.6454   1.7456   2.1542   2.4686
     2.4884   2.6003   2.6687   2.7323   3.2658   3.3512   3.6133   3.7407
     4.2043   4.3359

          k = 0.0463 0.0234 0.0000 ( 33168 PWs)   bands (ev):

   -73.3561 -73.3233 -73.3083 -73.2760 -73.1826 -73.1354 -37.8631 -37.7779
   -37.7595 -37.5755 -37.5005 -37.4793 -37.4629 -37.4248 -37.4013 -37.3890
   -37.3277 -37.2805 -37.2068 -37.0800 -36.9127 -36.8745 -36.8144 -36.8108
    -6.0687  -5.0209  -4.8917  -4.8522  -4.8270  -4.6019  -4.5711  -4.4280
    -4.3911  -4.3625  -4.3087  -4.2647  -4.1726  -4.0969  -3.8133  -3.7579
    -3.7043  -3.5401  -3.4983  -3.3964  -3.2948  -3.2797  -3.1561  -3.0180
    -2.9097  -2.8167  -2.8154  -2.7446  -2.6595  -2.5488  -2.3414  -2.1103
    -1.7273  -1.6862  -1.4915  -1.4582  -1.2762  -1.1917  -1.0109  -0.8985
    -0.7288  -0.5338  -0.1471   0.0842   0.4734   0.5665   0.7105   0.7483
     1.0023   1.0879   1.2353   1.3856   1.4312   1.5109   1.8292   1.9368
     2.3115   2.4274   2.7043   2.8705   3.3704   3.4531   3.6556   3.7136
     3.7766   4.1695

          k = 0.0463 0.0390 0.0000 ( 33161 PWs)   bands (ev):

   -73.3561 -73.3233 -73.3083 -73.2760 -73.1826 -73.1354 -37.8632 -37.7779
   -37.7596 -37.5756 -37.5010 -37.4794 -37.4628 -37.4247 -37.4015 -37.3891
   -37.3278 -37.2806 -37.2069 -37.0800 -36.9127 -36.8746 -36.8144 -36.8108
    -5.9008  -4.9434  -4.8546  -4.8369  -4.7633  -4.5695  -4.4744  -4.3736
    -4.3269  -4.3202  -4.2584  -4.2123  -4.1511  -4.0395  -3.7764  -3.7606
    -3.6515  -3.5015  -3.4632  -3.4048  -3.3140  -3.2747  -3.1328  -3.0222
    -2.9173  -2.8378  -2.8023  -2.7577  -2.6581  -2.5518  -2.3489  -2.1491
    -2.0727  -1.8734  -1.6589  -1.5058  -1.2950  -1.2772  -1.0659  -0.8795
    -0.7622  -0.5606  -0.1590  -0.1470   0.2488   0.3126   0.5061   0.6517
     0.6819   0.8618   1.1658   1.3849   1.4795   1.6239   1.7739   1.8442
     2.2847   2.4145   2.7634   3.1954   3.3851   3.4225   3.6603   3.7365
     3.9279   4.1797

          k = 0.0463 0.0546 0.0000 ( 33135 PWs)   bands (ev):

   -73.3560 -73.3233 -73.3083 -73.2760 -73.1826 -73.1354 -37.8634 -37.7780
   -37.7597 -37.5757 -37.5015 -37.4795 -37.4627 -37.4246 -37.4017 -37.3891
   -37.3279 -37.2807 -37.2070 -37.0800 -36.9127 -36.8746 -36.8144 -36.8108
    -5.6632  -4.8422  -4.8219  -4.7993  -4.6984  -4.5306  -4.3951  -4.3123
    -4.2623  -4.2429  -4.2059  -4.1290  -4.1223  -3.9602  -3.7620  -3.7145
    -3.5860  -3.5564  -3.3867  -3.3815  -3.3240  -3.2660  -3.1108  -3.0301
    -2.9259  -2.8479  -2.7920  -2.7693  -2.6669  -2.5741  -2.4159  -2.3279
    -2.2468  -2.0255  -1.8986  -1.5467  -1.4420  -1.2837  -1.2377  -0.7991
    -0.7915  -0.6668  -0.3649  -0.1937  -0.1026   0.2012   0.2343   0.4174
     0.5137   0.7907   1.0235   1.3635   1.4423   1.7087   1.8247   1.8919
     2.2519   2.3702   2.7822   3.3365   3.3886   3.3988   3.6088   3.6623
     3.7592   4.3737

          k = 0.0463 0.0702 0.0000 ( 33152 PWs)   bands (ev):

   -73.3560 -73.3233 -73.3083 -73.2760 -73.1826 -73.1354 -37.8635 -37.7780
   -37.7599 -37.5758 -37.5020 -37.4795 -37.4626 -37.4245 -37.4018 -37.3892
   -37.3280 -37.2808 -37.2072 -37.0800 -36.9127 -36.8746 -36.8144 -36.8108
    -5.3805  -4.8168  -4.7832  -4.6863  -4.6662  -4.4919  -4.3623  -4.2844
    -4.2175  -4.1672  -4.1462  -4.1194  -4.0285  -3.8675  -3.7558  -3.6712
    -3.5965  -3.5314  -3.3837  -3.3333  -3.2862  -3.2508  -3.0952  -3.0557
    -2.9324  -2.8344  -2.8097  -2.7717  -2.7535  -2.6212  -2.5104  -2.3861
    -2.3437  -2.1548  -2.0602  -1.7474  -1.4986  -1.3645  -1.2949  -0.8675
    -0.7830  -0.7144  -0.5203  -0.3835  -0.2712   0.0732   0.1313   0.2398
     0.3369   0.7931   0.9429   1.3181   1.3500   1.7407   1.9448   1.9812
     2.2084   2.3196   2.7977   3.2429   3.3549   3.4898   3.5171   3.6568
     3.6708   4.4154

          k = 0.0463 0.0859 0.0000 ( 33137 PWs)   bands (ev):

   -73.3560 -73.3233 -73.3083 -73.2760 -73.1826 -73.1354 -37.8636 -37.7780
   -37.7599 -37.5758 -37.5022 -37.4796 -37.4625 -37.4244 -37.4019 -37.3892
   -37.3281 -37.2809 -37.2072 -37.0800 -36.9127 -36.8746 -36.8144 -36.8108
    -5.1125  -4.8517  -4.7574  -4.6850  -4.5770  -4.4646  -4.3492  -4.3015
    -4.2009  -4.1474  -4.1383  -4.0981  -3.9697  -3.7902  -3.7535  -3.7097
    -3.5297  -3.5013  -3.3841  -3.3268  -3.2409  -3.2168  -3.1215  -3.0792
    -2.9338  -2.8989  -2.8105  -2.7732  -2.7669  -2.6119  -2.5307  -2.4656
    -2.3390  -2.2952  -2.0946  -1.9468  -1.5103  -1.4277  -1.2974  -0.9889
    -0.7750  -0.6592  -0.6525  -0.5105  -0.3359   0.0035   0.0976   0.1400
     0.2403   0.7970   0.9169   1.2407   1.3426   1.7507   2.0096   2.0699
     2.1495   2.2909   2.8088   3.1724   3.3459   3.5066   3.5228   3.5643
     3.6784   4.3905

          k = 0.0463 0.1015 0.0000 ( 33137 PWs)   bands (ev):

   -73.3560 -73.3233 -73.3083 -73.2760 -73.1826 -73.1354 -37.8636 -37.7780
   -37.7599 -37.5758 -37.5022 -37.4796 -37.4625 -37.4244 -37.4019 -37.3892
   -37.3281 -37.2809 -37.2072 -37.0800 -36.9127 -36.8746 -36.8144 -36.8108
    -5.1125  -4.8517  -4.7574  -4.6850  -4.5769  -4.4646  -4.3492  -4.3015
    -4.2009  -4.1474  -4.1384  -4.0981  -3.9697  -3.7901  -3.7534  -3.7097
    -3.5296  -3.5013  -3.3842  -3.3268  -3.2409  -3.2168  -3.1216  -3.0792
    -2.9338  -2.8989  -2.8105  -2.7733  -2.7671  -2.6118  -2.5307  -2.4656
    -2.3391  -2.2952  -2.0946  -1.9468  -1.5103  -1.4278  -1.2976  -0.9888
    -0.7752  -0.6592  -0.6522  -0.5105  -0.3359   0.0035   0.0976   0.1400
     0.2403   0.7970   0.9169   1.2406   1.3426   1.7507   2.0097   2.0699
     2.1495   2.2909   2.8089   3.1724   3.3459   3.5065   3.5227   3.5643
     3.6784   4.3905

          k = 0.0463-0.0702 0.0000 ( 33152 PWs)   bands (ev):

   -73.3560 -73.3233 -73.3083 -73.2760 -73.1826 -73.1354 -37.8635 -37.7780
   -37.7599 -37.5758 -37.5020 -37.4795 -37.4626 -37.4245 -37.4018 -37.3892
   -37.3280 -37.2808 -37.2072 -37.0800 -36.9127 -36.8746 -36.8144 -36.8108
    -5.3805  -4.8168  -4.7832  -4.6862  -4.6662  -4.4919  -4.3623  -4.2844
    -4.2176  -4.1673  -4.1462  -4.1194  -4.0285  -3.8673  -3.7557  -3.6712
    -3.5965  -3.5315  -3.3837  -3.3332  -3.2862  -3.2508  -3.0952  -3.0557
    -2.9324  -2.8344  -2.8096  -2.7717  -2.7538  -2.6211  -2.5103  -2.3861
    -2.3438  -2.1548  -2.0604  -1.7474  -1.4986  -1.3647  -1.2952  -0.8674
    -0.7831  -0.7144  -0.5199  -0.3835  -0.2711   0.0733   0.1313   0.2398
     0.3369   0.7932   0.9430   1.3181   1.3499   1.7408   1.9449   1.9811
     2.2083   2.3196   2.7977   3.2429   3.3550   3.4897   3.5170   3.6567
     3.6708   4.4157

          k = 0.0463-0.0546 0.0000 ( 33135 PWs)   bands (ev):

   -73.3560 -73.3233 -73.3083 -73.2760 -73.1826 -73.1354 -37.8634 -37.7780
   -37.7597 -37.5757 -37.5015 -37.4795 -37.4627 -37.4246 -37.4017 -37.3891
   -37.3279 -37.2807 -37.2070 -37.0800 -36.9127 -36.8746 -36.8144 -36.8108
    -5.6632  -4.8421  -4.8219  -4.7993  -4.6984  -4.5306  -4.3951  -4.3123
    -4.2623  -4.2430  -4.2059  -4.1290  -4.1224  -3.9601  -3.7619  -3.7144
    -3.5861  -3.5564  -3.3866  -3.3815  -3.3241  -3.2659  -3.1108  -3.0301
    -2.9259  -2.8479  -2.7920  -2.7693  -2.6669  -2.5742  -2.4159  -2.3279
    -2.2469  -2.0253  -1.8988  -1.5466  -1.4420  -1.2839  -1.2379  -0.7989
    -0.7915  -0.6668  -0.3646  -0.1937  -0.1026   0.2012   0.2346   0.4174
     0.5137   0.7908   1.0235   1.3634   1.4423   1.7088   1.8248   1.8918
     2.2516   2.3703   2.7822   3.3364   3.3887   3.3988   3.6087   3.6623
     3.7591   4.4003

          k = 0.0463-0.0390 0.0000 ( 33161 PWs)   bands (ev):

   -73.3561 -73.3233 -73.3083 -73.2760 -73.1826 -73.1354 -37.8632 -37.7779
   -37.7596 -37.5756 -37.5010 -37.4794 -37.4628 -37.4247 -37.4015 -37.3891
   -37.3278 -37.2806 -37.2069 -37.0800 -36.9127 -36.8746 -36.8144 -36.8108
    -5.9008  -4.9434  -4.8546  -4.8369  -4.7633  -4.5695  -4.4744  -4.3736
    -4.3269  -4.3202  -4.2584  -4.2123  -4.1511  -4.0394  -3.7763  -3.7605
    -3.6516  -3.5015  -3.4632  -3.4048  -3.3140  -3.2747  -3.1328  -3.0222
    -2.9173  -2.8378  -2.8023  -2.7577  -2.6581  -2.5518  -2.3490  -2.1492
    -2.0728  -1.8733  -1.6590  -1.5058  -1.2950  -1.2775  -1.0660  -0.8795
    -0.7620  -0.5606  -0.1591  -0.1470   0.2488   0.3125   0.5064   0.6520
     0.6821   0.8618   1.1658   1.3847   1.4797   1.6240   1.7737   1.8441
     2.2842   2.4145   2.7633   3.1954   3.3852   3.4226   3.6604   3.7364
     3.9277   4.1795

          k = 0.0463-0.0234 0.0000 ( 33168 PWs)   bands (ev):

   -73.3561 -73.3233 -73.3083 -73.2760 -73.1826 -73.1354 -37.8631 -37.7779
   -37.7595 -37.5755 -37.5005 -37.4793 -37.4629 -37.4248 -37.4013 -37.3890
   -37.3277 -37.2805 -37.2068 -37.0800 -36.9127 -36.8745 -36.8144 -36.8108
    -6.0687  -5.0209  -4.8917  -4.8522  -4.8270  -4.6019  -4.5711  -4.4281
    -4.3911  -4.3625  -4.3087  -4.2648  -4.1727  -4.0967  -3.8133  -3.7579
    -3.7044  -3.5401  -3.4983  -3.3964  -3.2949  -3.2797  -3.1562  -3.0180
    -2.9097  -2.8168  -2.8155  -2.7446  -2.6595  -2.5488  -2.3415  -2.1103
    -1.7273  -1.6862  -1.4915  -1.4582  -1.2763  -1.1917  -1.0109  -0.8985
    -0.7287  -0.5338  -0.1471   0.0840   0.4733   0.5668   0.7107   0.7481
     1.0030   1.0879   1.2354   1.3856   1.4309   1.5111   1.8290   1.9367
     2.3109   2.4274   2.7043   2.8707   3.3706   3.4531   3.6554   3.7136
     3.7764   4.1694

          k = 0.0463-0.0078 0.0000 ( 33175 PWs)   bands (ev):

   -73.3561 -73.3233 -73.3083 -73.2760 -73.1826 -73.1354 -37.8630 -37.7779
   -37.7594 -37.5755 -37.5003 -37.4793 -37.4629 -37.4249 -37.4012 -37.3890
   -37.3276 -37.2805 -37.2067 -37.0800 -36.9127 -36.8745 -36.8144 -36.8108
    -6.1552  -5.0603  -4.9119  -4.8706  -4.8564  -4.6335  -4.6145  -4.4573
    -4.4397  -4.3772  -4.3362  -4.2894  -4.1852  -4.1275  -3.8296  -3.7610
    -3.7276  -3.5856  -3.5068  -3.3894  -3.2823  -3.2796  -3.1701  -3.0153
    -2.9047  -2.8273  -2.7991  -2.7370  -2.6617  -2.5484  -2.3382  -2.0960
    -1.5369  -1.5135  -1.4154  -1.3980  -1.2267  -1.1703  -1.1343  -0.8228
    -0.7142  -0.5428  -0.1663   0.2678   0.6553   0.7100   0.7907   0.8643
     1.0433   1.2582   1.2760   1.3726   1.4460   1.6497   1.7899   2.1467
     2.3350   2.4398   2.5742   2.5778   3.2372   3.3459   3.4720   3.6773
     3.7734   4.0796

          k = 0.0463 0.0078 0.0000 ( 33175 PWs)   bands (ev):

   -73.3561 -73.3233 -73.3083 -73.2760 -73.1826 -73.1354 -37.8630 -37.7779
   -37.7594 -37.5755 -37.5003 -37.4793 -37.4629 -37.4249 -37.4012 -37.3890
   -37.3276 -37.2805 -37.2067 -37.0800 -36.9127 -36.8745 -36.8144 -36.8108
    -6.1552  -5.0603  -4.9119  -4.8706  -4.8564  -4.6335  -4.6145  -4.4573
    -4.4397  -4.3772  -4.3361  -4.2894  -4.1852  -4.1276  -3.8296  -3.7610
    -3.7276  -3.5855  -3.5068  -3.3894  -3.2823  -3.2796  -3.1701  -3.0153
    -2.9047  -2.8273  -2.7991  -2.7370  -2.6617  -2.5484  -2.3382  -2.0959
    -1.5369  -1.5135  -1.4154  -1.3980  -1.2267  -1.1703  -1.1343  -0.8228
    -0.7142  -0.5428  -0.1663   0.2680   0.6554   0.7099   0.7903   0.8646
     1.0431   1.2580   1.2760   1.3725   1.4460   1.6497   1.7900   2.1469
     2.3356   2.4398   2.5741   2.5776   3.2372   3.3458   3.4720   3.6773
     3.7734   4.0795

          k = 0.0617 0.0312 0.0000 ( 33155 PWs)   bands (ev):

   -73.3491 -73.3164 -73.3153 -73.2830 -73.1757 -73.1424 -37.8507 -37.7904
   -37.6636 -37.4897 -37.4817 -37.4522 -37.4361 -37.3998 -37.3908 -37.3853
   -37.3386 -37.2699 -37.2177 -37.1830 -37.0131 -36.9161 -36.8646 -36.8201
    -5.7064  -4.9087  -4.7447  -4.6824  -4.6136  -4.5065  -4.3927  -4.3357
    -4.3330  -4.2531  -4.1868  -4.1166  -3.9604  -3.9445  -3.7485  -3.6670
    -3.6242  -3.6236  -3.5280  -3.4679  -3.3503  -3.2438  -3.1116  -3.0831
    -2.9930  -2.8921  -2.8594  -2.8330  -2.8088  -2.5961  -2.4871  -2.4813
    -2.1744  -1.7392  -1.6408  -1.4759  -1.2539  -1.0257  -1.0078  -0.6949
    -0.6100  -0.4933  -0.0283  -0.0158   0.3319   0.4666   0.5905   0.6171
     0.7283   0.9167   1.0933   1.2864   1.3453   1.4319   1.6672   1.7789
     1.9707   2.2647   2.5247   2.9023   3.0585   3.2156   3.4690   3.4861
     3.7962   3.9113

          k = 0.0617 0.0468 0.0000 ( 33173 PWs)   bands (ev):

   -73.3491 -73.3164 -73.3153 -73.2830 -73.1757 -73.1424 -37.8509 -37.7905
   -37.6638 -37.4901 -37.4818 -37.4521 -37.4359 -37.3999 -37.3909 -37.3854
   -37.3387 -37.2699 -37.2178 -37.1829 -37.0131 -36.9160 -36.8646 -36.8201
    -5.5202  -4.8391  -4.7063  -4.6340  -4.6006  -4.4737  -4.3542  -4.2986
    -4.2429  -4.2165  -4.1121  -4.1069  -3.9172  -3.9019  -3.7451  -3.6620
    -3.6576  -3.5756  -3.5072  -3.4114  -3.3509  -3.2267  -3.1084  -3.1074
    -2.9893  -2.9093  -2.8730  -2.8363  -2.7921  -2.5749  -2.5639  -2.4921
    -2.2991  -2.0805  -1.7240  -1.5754  -1.2712  -1.0625  -0.9985  -0.9024
    -0.6175  -0.5132  -0.1962  -0.0343  -0.0107   0.4109   0.4578   0.5766
     0.5871   0.8095   1.0176   1.2959   1.3883   1.4805   1.5843   1.7764
     1.9769   2.2893   2.5706   3.1105   3.1562   3.1878   3.4167   3.5313
     3.6996   3.9274

          k = 0.0617 0.0624 0.0000 ( 33182 PWs)   bands (ev):

   -73.3491 -73.3164 -73.3153 -73.2830 -73.1757 -73.1424 -37.8510 -37.7905
   -37.6639 -37.4906 -37.4819 -37.4520 -37.4358 -37.3999 -37.3911 -37.3855
   -37.3387 -37.2700 -37.2179 -37.1829 -37.0131 -36.9160 -36.8646 -36.8201
    -5.2809  -4.7430  -4.6580  -4.5947  -4.5873  -4.4373  -4.3249  -4.2694
    -4.2112  -4.1583  -4.1016  -4.0157  -3.8998  -3.8286  -3.7507  -3.6930
    -3.6545  -3.5274  -3.4865  -3.3703  -3.3222  -3.2084  -3.1547  -3.1101
    -2.9791  -2.9175  -2.9034  -2.8352  -2.7825  -2.6913  -2.5647  -2.4949
    -2.3762  -2.3279  -1.9319  -1.5631  -1.3449  -1.1718  -1.0321  -1.0041
    -0.7491  -0.4181  -0.3421  -0.2856  -0.0725   0.2563   0.3806   0.4148
     0.6188   0.7813   0.9499   1.3036   1.3063   1.5648   1.6386   1.7671
     2.0070   2.2647   2.5745   3.0816   3.1516   3.2796   3.3549   3.5346
     3.5645   3.7168

          k = 0.0617 0.0781 0.0000 ( 33154 PWs)   bands (ev):

   -73.3491 -73.3164 -73.3153 -73.2830 -73.1757 -73.1424 -37.8511 -37.7905
   -37.6640 -37.4909 -37.4819 -37.4519 -37.4356 -37.3999 -37.3912 -37.3855
   -37.3388 -37.2701 -37.2180 -37.1829 -37.0131 -36.9160 -36.8646 -36.8201
    -5.0245  -4.6626  -4.5960  -4.5814  -4.5773  -4.4071  -4.3362  -4.2577
    -4.2248  -4.1422  -4.0960  -3.9263  -3.9003  -3.7946  -3.7613  -3.6807
    -3.6381  -3.5014  -3.4478  -3.3581  -3.2825  -3.1999  -3.1941  -3.1183
    -2.9790  -2.9464  -2.9174  -2.8520  -2.7971  -2.7560  -2.6553  -2.4993
    -2.4191  -2.3325  -2.0867  -1.5714  -1.5526  -1.2262  -1.0420  -1.0338
    -0.7854  -0.5403  -0.3921  -0.3409  -0.1249   0.1700   0.2949   0.3286
     0.5970   0.7766   0.9782   1.2012   1.3070   1.6358   1.6991   1.7568
     2.0475   2.2224   2.5510   2.9954   3.1365   3.1757   3.4265   3.4855
     3.5822   3.6044

          k = 0.0617 0.0937 0.0000 ( 33108 PWs)   bands (ev):

   -73.3491 -73.3164 -73.3153 -73.2830 -73.1757 -73.1424 -37.8512 -37.7905
   -37.6640 -37.4910 -37.4819 -37.4519 -37.4356 -37.4000 -37.3912 -37.3855
   -37.3388 -37.2701 -37.2180 -37.1829 -37.0130 -36.9160 -36.8647 -36.8201
    -4.8695  -4.6412  -4.6387  -4.5739  -4.5022  -4.3949  -4.3868  -4.2625
    -4.2200  -4.1621  -4.0984  -3.9006  -3.8869  -3.8089  -3.7332  -3.6725
    -3.6276  -3.4972  -3.4083  -3.3580  -3.3021  -3.1912  -3.1852  -3.1215
    -3.0092  -2.9559  -2.9156  -2.8741  -2.8174  -2.7603  -2.6834  -2.5040
    -2.4337  -2.2883  -2.1444  -1.6673  -1.5808  -1.2357  -1.0548  -1.0393
    -0.7257  -0.6762  -0.4215  -0.3056  -0.1546   0.1430   0.2506   0.3110
     0.5874   0.7594   1.0422   1.1322   1.3061   1.6634   1.7217   1.7511
     2.0712   2.1982   2.5368   2.9445   3.0937   3.1836   3.4448   3.4976
     3.5499   3.5869

          k = 0.0617 0.1093 0.0000 ( 33154 PWs)   bands (ev):

   -73.3491 -73.3164 -73.3153 -73.2830 -73.1757 -73.1424 -37.8511 -37.7905
   -37.6640 -37.4909 -37.4819 -37.4519 -37.4356 -37.3999 -37.3912 -37.3855
   -37.3388 -37.2701 -37.2180 -37.1829 -37.0131 -36.9160 -36.8646 -36.8201
    -5.0245  -4.6626  -4.5960  -4.5814  -4.5773  -4.4071  -4.3362  -4.2578
    -4.2248  -4.1422  -4.0960  -3.9263  -3.9004  -3.7945  -3.7613  -3.6806
    -3.6380  -3.5015  -3.4478  -3.3580  -3.2824  -3.1999  -3.1941  -3.1182
    -2.9791  -2.9464  -2.9173  -2.8521  -2.7971  -2.7559  -2.6553  -2.4993
    -2.4191  -2.3324  -2.0867  -1.5714  -1.5526  -1.2261  -1.0421  -1.0340
    -0.7855  -0.5400  -0.3920  -0.3409  -0.1248   0.1699   0.2949   0.3286
     0.5970   0.7766   0.9783   1.2012   1.3069   1.6358   1.6991   1.7568
     2.0473   2.2225   2.5510   2.9955   3.1365   3.1756   3.4265   3.4855
     3.5821   3.6044

          k = 0.0617-0.0624 0.0000 ( 33182 PWs)   bands (ev):

   -73.3491 -73.3164 -73.3153 -73.2830 -73.1757 -73.1424 -37.8510 -37.7905
   -37.6639 -37.4906 -37.4819 -37.4520 -37.4358 -37.3999 -37.3911 -37.3855
   -37.3387 -37.2700 -37.2179 -37.1829 -37.0131 -36.9160 -36.8646 -36.8201
    -5.2809  -4.7430  -4.6580  -4.5948  -4.5873  -4.4374  -4.3250  -4.2694
    -4.2112  -4.1584  -4.1015  -4.0157  -3.8998  -3.8285  -3.7507  -3.6929
    -3.6544  -3.5275  -3.4866  -3.3703  -3.3221  -3.2084  -3.1547  -3.1101
    -2.9792  -2.9175  -2.9034  -2.8353  -2.7825  -2.6913  -2.5647  -2.4950
    -2.3762  -2.3279  -1.9320  -1.5632  -1.3449  -1.1718  -1.0323  -1.0043
    -0.7492  -0.4180  -0.3417  -0.2854  -0.0726   0.2562   0.3805   0.4149
     0.6189   0.7814   0.9499   1.3036   1.3062   1.5648   1.6386   1.7670
     2.0067   2.2648   2.5744   3.0817   3.1516   3.2796   3.3549   3.5345
     3.5645   3.7166

          k = 0.0617-0.0468 0.0000 ( 33173 PWs)   bands (ev):

   -73.3491 -73.3164 -73.3153 -73.2830 -73.1757 -73.1424 -37.8509 -37.7905
   -37.6638 -37.4901 -37.4818 -37.4521 -37.4359 -37.3999 -37.3909 -37.3854
   -37.3387 -37.2699 -37.2178 -37.1829 -37.0131 -36.9160 -36.8646 -36.8201
    -5.5202  -4.8390  -4.7062  -4.6341  -4.6006  -4.4737  -4.3544  -4.2986
    -4.2429  -4.2166  -4.1121  -4.1068  -3.9172  -3.9017  -3.7449  -3.6620
    -3.6576  -3.5757  -3.5072  -3.4114  -3.3509  -3.2267  -3.1083  -3.1074
    -2.9893  -2.9093  -2.8730  -2.8363  -2.7921  -2.5749  -2.5640  -2.4921
    -2.2990  -2.0805  -1.7241  -1.5755  -1.2712  -1.0625  -0.9984  -0.9026
    -0.6176  -0.5131  -0.1959  -0.0343  -0.0104   0.4110   0.4577   0.5766
     0.5874   0.8094   1.0176   1.2957   1.3884   1.4806   1.5842   1.7763
     1.9765   2.2893   2.5706   3.1104   3.1563   3.1877   3.4167   3.5313
     3.6994   3.9273

          k = 0.0617-0.0312 0.0000 ( 33155 PWs)   bands (ev):

   -73.3491 -73.3164 -73.3153 -73.2830 -73.1757 -73.1424 -37.8507 -37.7904
   -37.6636 -37.4897 -37.4817 -37.4522 -37.4361 -37.3998 -37.3908 -37.3853
   -37.3386 -37.2699 -37.2177 -37.1830 -37.0131 -36.9161 -36.8646 -36.8201
    -5.7064  -4.9086  -4.7447  -4.6824  -4.6136  -4.5065  -4.3928  -4.3357
    -4.3329  -4.2532  -4.1868  -4.1166  -3.9602  -3.9445  -3.7484  -3.6669
    -3.6243  -3.6236  -3.5281  -3.4679  -3.3503  -3.2438  -3.1117  -3.0831
    -2.9931  -2.8921  -2.8593  -2.8331  -2.8088  -2.5962  -2.4871  -2.4813
    -2.1744  -1.7392  -1.6410  -1.4760  -1.2539  -1.0258  -1.0076  -0.6950
    -0.6099  -0.4933  -0.0283  -0.0158   0.3321   0.4669   0.5904   0.6174
     0.7283   0.9166   1.0933   1.2862   1.3455   1.4320   1.6670   1.7787
     1.9703   2.2647   2.5247   2.9024   3.0584   3.2156   3.4690   3.4862
     3.7960   3.9110

          k = 0.0617-0.0156 0.0000 ( 33183 PWs)   bands (ev):

   -73.3491 -73.3164 -73.3153 -73.2830 -73.1757 -73.1424 -37.8506 -37.7904
   -37.6636 -37.4893 -37.4817 -37.4523 -37.4362 -37.3998 -37.3907 -37.3853
   -37.3385 -37.2698 -37.2177 -37.1830 -37.0131 -36.9161 -36.8646 -36.8201
    -5.8231  -4.9473  -4.7699  -4.7196  -4.6230  -4.5290  -4.4208  -4.4015
    -4.3728  -4.2810  -4.2329  -4.1265  -3.9969  -3.9654  -3.7451  -3.6897
    -3.6396  -3.6068  -3.5498  -3.5148  -3.3384  -3.2567  -3.1165  -3.0772
    -2.9869  -2.8752  -2.8573  -2.8282  -2.8236  -2.6156  -2.4741  -2.4458
    -2.0346  -1.6997  -1.4282  -1.2816  -1.2278  -1.0403  -1.0088  -0.7836
    -0.5077  -0.4240  -0.0086   0.1415   0.3911   0.6308   0.7162   0.7726
     0.8360   0.9969   1.1043   1.2897   1.3571   1.4411   1.7409   1.8194
     1.9883   2.2339   2.4457   2.6001   3.0160   3.2308   3.2511   3.4688
     3.4716   3.9806

          k = 0.0617 0.0000 0.0000 ( 33156 PWs)   bands (ev):

   -73.3491 -73.3164 -73.3153 -73.2830 -73.1757 -73.1424 -37.8506 -37.7904
   -37.6635 -37.4892 -37.4816 -37.4523 -37.4363 -37.3997 -37.3906 -37.3852
   -37.3385 -37.2698 -37.2177 -37.1830 -37.0131 -36.9161 -36.8646 -36.8201
    -5.8628  -4.9593  -4.7785  -4.7334  -4.6265  -4.5370  -4.4304  -4.4248
    -4.3920  -4.2872  -4.2506  -4.1306  -4.0094  -3.9728  -3.7427  -3.7026
    -3.6402  -3.6004  -3.5605  -3.5328  -3.3324  -3.2615  -3.1182  -3.0774
    -2.9823  -2.8683  -2.8585  -2.8292  -2.8260  -2.6217  -2.4715  -2.4342
    -1.9604  -1.7430  -1.3138  -1.1677  -1.1307  -1.0913  -1.0426  -0.8810
    -0.4549  -0.4038  -0.0065   0.2211   0.3592   0.7436   0.7849   0.8172
     0.9132   0.9484   1.1229   1.2807   1.4287   1.5124   1.6416   1.9054
     2.0067   2.2872   2.3922   2.4631   2.9105   3.0113   3.2625   3.4514
     3.4658   3.9706

          k = 0.0617 0.0156 0.0000 ( 33183 PWs)   bands (ev):

   -73.3491 -73.3164 -73.3153 -73.2830 -73.1757 -73.1424 -37.8506 -37.7904
   -37.6636 -37.4893 -37.4817 -37.4523 -37.4362 -37.3998 -37.3907 -37.3853
   -37.3385 -37.2698 -37.2177 -37.1830 -37.0131 -36.9161 -36.8646 -36.8201
    -5.8231  -4.9474  -4.7699  -4.7196  -4.6230  -4.5290  -4.4207  -4.4015
    -4.3728  -4.2810  -4.2329  -4.1265  -3.9970  -3.9654  -3.7452  -3.6897
    -3.6396  -3.6068  -3.5497  -3.5148  -3.3384  -3.2567  -3.1165  -3.0772
    -2.9869  -2.8752  -2.8573  -2.8281  -2.8236  -2.6156  -2.4740  -2.4458
    -2.0346  -1.6996  -1.4282  -1.2814  -1.2277  -1.0405  -1.0086  -0.7838
    -0.5077  -0.4240  -0.0086   0.1416   0.3909   0.6306   0.7163   0.7727
     0.8357   0.9969   1.1042   1.2896   1.3570   1.4411   1.7411   1.8195
     1.9889   2.2337   2.4457   2.5999   3.0160   3.2309   3.2511   3.4689
     3.4716   3.9806

          k = 0.0772 0.0390 0.0000 ( 33193 PWs)   bands (ev):

   -73.3410 -73.3235 -73.3084 -73.2911 -73.1677 -73.1504 -37.8363 -37.8051
   -37.5507 -37.4769 -37.4491 -37.4398 -37.4122 -37.3786 -37.3712 -37.3511
   -37.3009 -37.2745 -37.2574 -37.2304 -37.1286 -37.0316 -36.8541 -36.8310
    -5.3193  -4.8641  -4.5845  -4.5622  -4.4740  -4.3963  -4.3279  -4.3014
    -4.2195  -4.1967  -4.0550  -3.9309  -3.8494  -3.8452  -3.7106  -3.5995
    -3.5638  -3.5437  -3.5430  -3.4108  -3.3419  -3.2589  -3.2495  -3.0777
    -3.0357  -3.0043  -2.9902  -2.8989  -2.8799  -2.8418  -2.6547  -2.6168
    -2.4537  -1.9114  -1.7762  -1.6601  -1.0879  -1.0635  -0.9161  -0.6069
    -0.5095  -0.2376  -0.1348   0.0431   0.2033   0.5598   0.5862   0.7252
     0.7991   0.8192   0.9655   1.1377   1.3087   1.3454   1.4200   1.4789
     1.6602   2.1195   2.3531   2.3632   2.9289   3.0924   3.2530   3.4588
     3.8692   3.9270

          k = 0.0772 0.0546 0.0000 ( 33176 PWs)   bands (ev):

   -73.3409 -73.3235 -73.3084 -73.2911 -73.1677 -73.1504 -37.8364 -37.8051
   -37.5508 -37.4773 -37.4489 -37.4398 -37.4123 -37.3787 -37.3712 -37.3511
   -37.3009 -37.2746 -37.2574 -37.2305 -37.1286 -37.0315 -36.8542 -36.8310
    -5.1504  -4.8520  -4.5498  -4.5402  -4.4562  -4.3735  -4.3188  -4.2846
    -4.1931  -4.1799  -3.9836  -3.9615  -3.8442  -3.8098  -3.7225  -3.5792
    -3.5634  -3.5238  -3.5162  -3.3804  -3.3279  -3.2729  -3.2478  -3.0965
    -3.0459  -3.0196  -2.9806  -2.9456  -2.8709  -2.8530  -2.6939  -2.6515
    -2.4103  -2.0257  -1.9666  -1.6798  -1.1050  -1.0959  -0.8654  -0.7328
    -0.6634  -0.2585  -0.1631  -0.1101   0.1851   0.4504   0.6142   0.6242
     0.7880   0.8422   0.9987   1.1800   1.2746   1.3548   1.4148   1.4174
     1.6850   2.1113   2.3550   2.4589   2.9516   3.1556   3.2656   3.3533
     3.7134   3.8767

          k = 0.0772 0.0702 0.0000 ( 33176 PWs)   bands (ev):

   -73.3409 -73.3235 -73.3084 -73.2910 -73.1677 -73.1504 -37.8365 -37.8051
   -37.5509 -37.4777 -37.4487 -37.4397 -37.4124 -37.3788 -37.3713 -37.3512
   -37.3008 -37.2746 -37.2575 -37.2305 -37.1285 -37.0315 -36.8542 -36.8310
    -4.9572  -4.8266  -4.5298  -4.5093  -4.4377  -4.3532  -4.3192  -4.2703
    -4.1946  -4.1831  -4.0047  -3.8987  -3.8350  -3.7714  -3.7451  -3.5618
    -3.5575  -3.4982  -3.4975  -3.3664  -3.3329  -3.2769  -3.2494  -3.1164
    -3.0723  -3.0500  -2.9814  -2.9742  -2.8538  -2.8494  -2.7438  -2.6523
    -2.4752  -2.0917  -2.0761  -1.6616  -1.2098  -1.1186  -0.8667  -0.7933
    -0.6823  -0.3732  -0.2086  -0.0451   0.1367   0.3675   0.4979   0.5018
     0.8154   0.9238   1.0717   1.2042   1.2686   1.3478   1.4209   1.4415
     1.7473   2.0780   2.2951   2.5282   2.8184   3.0986   3.2231   3.3129
     3.5810   3.6533

          k = 0.0772 0.0859 0.0000 ( 33159 PWs)   bands (ev):

   -73.3409 -73.3235 -73.3084 -73.2910 -73.1677 -73.1504 -37.8366 -37.8050
   -37.5509 -37.4778 -37.4485 -37.4396 -37.4124 -37.3789 -37.3713 -37.3512
   -37.3008 -37.2747 -37.2575 -37.2306 -37.1285 -37.0315 -36.8542 -36.8310
    -4.8043  -4.7934  -4.5478  -4.4775  -4.4233  -4.3407  -4.3259  -4.2627
    -4.2191  -4.1945  -4.0438  -3.8384  -3.8269  -3.7609  -3.7320  -3.5621
    -3.5591  -3.4803  -3.4669  -3.3772  -3.3610  -3.2656  -3.2393  -3.1336
    -3.1056  -3.0685  -2.9973  -2.9726  -2.8443  -2.8317  -2.7680  -2.6504
    -2.5901  -2.1411  -2.0290  -1.6705  -1.3353  -1.1077  -0.8996  -0.7991
    -0.6066  -0.4623  -0.2509   0.0357   0.1131   0.3270   0.3988   0.4294
     0.7650   0.9943   1.1905   1.2086   1.2648   1.3214   1.4484   1.4682
     1.7976   2.0492   2.2416   2.5618   2.7485   2.8525   3.2124   3.3597
     3.5419   3.5762

          k = 0.0772 0.1015 0.0000 ( 33159 PWs)   bands (ev):

   -73.3409 -73.3235 -73.3084 -73.2910 -73.1677 -73.1504 -37.8366 -37.8050
   -37.5509 -37.4778 -37.4485 -37.4396 -37.4124 -37.3789 -37.3713 -37.3512
   -37.3008 -37.2747 -37.2575 -37.2306 -37.1285 -37.0315 -36.8542 -36.8310
    -4.8043  -4.7934  -4.5478  -4.4775  -4.4233  -4.3407  -4.3259  -4.2627
    -4.2191  -4.1945  -4.0438  -3.8384  -3.8269  -3.7608  -3.7320  -3.5621
    -3.5591  -3.4803  -3.4669  -3.3772  -3.3610  -3.2656  -3.2393  -3.1336
    -3.1057  -3.0685  -2.9973  -2.9726  -2.8442  -2.8317  -2.7680  -2.6504
    -2.5902  -2.1411  -2.0290  -1.6705  -1.3353  -1.1078  -0.8996  -0.7992
    -0.6067  -0.4621  -0.2509   0.0358   0.1130   0.3269   0.3988   0.4295
     0.7650   0.9943   1.1905   1.2086   1.2648   1.3214   1.4484   1.4683
     1.7975   2.0492   2.2415   2.5618   2.7486   2.8524   3.2124   3.3597
     3.5420   3.5760

          k = 0.0772 0.1171 0.0000 ( 33176 PWs)   bands (ev):

   -73.3409 -73.3235 -73.3084 -73.2910 -73.1677 -73.1504 -37.8365 -37.8051
   -37.5509 -37.4777 -37.4487 -37.4397 -37.4124 -37.3788 -37.3713 -37.3512
   -37.3008 -37.2746 -37.2575 -37.2305 -37.1285 -37.0315 -36.8542 -36.8310
    -4.9572  -4.8266  -4.5298  -4.5093  -4.4377  -4.3533  -4.3192  -4.2704
    -4.1946  -4.1831  -4.0047  -3.8987  -3.8349  -3.7714  -3.7451  -3.5618
    -3.5574  -3.4982  -3.4976  -3.3664  -3.3329  -3.2769  -3.2494  -3.1163
    -3.0724  -3.0501  -2.9814  -2.9743  -2.8538  -2.8493  -2.7439  -2.6522
    -2.4753  -2.0916  -2.0761  -1.6615  -1.2097  -1.1189  -0.8667  -0.7934
    -0.6825  -0.3728  -0.2085  -0.0449   0.1365   0.3673   0.4980   0.5018
     0.8154   0.9238   1.0718   1.2041   1.2685   1.3479   1.4209   1.4416
     1.7472   2.0781   2.2950   2.5281   2.8185   3.0985   3.2231   3.3129
     3.5810   3.6530

          k = 0.0772-0.0546 0.0000 ( 33176 PWs)   bands (ev):

   -73.3409 -73.3235 -73.3084 -73.2911 -73.1677 -73.1504 -37.8364 -37.8051
   -37.5508 -37.4773 -37.4489 -37.4398 -37.4123 -37.3787 -37.3712 -37.3511
   -37.3009 -37.2746 -37.2574 -37.2305 -37.1286 -37.0315 -36.8542 -36.8310
    -5.1504  -4.8520  -4.5498  -4.5402  -4.4562  -4.3736  -4.3188  -4.2847
    -4.1932  -4.1799  -3.9836  -3.9615  -3.8441  -3.8097  -3.7225  -3.5791
    -3.5634  -3.5238  -3.5162  -3.3803  -3.3278  -3.2728  -3.2478  -3.0965
    -3.0459  -3.0197  -2.9806  -2.9457  -2.8709  -2.8529  -2.6939  -2.6514
    -2.4103  -2.0258  -1.9668  -1.6799  -1.1050  -1.0959  -0.8655  -0.7329
    -0.6636  -0.2581  -0.1628  -0.1100   0.1849   0.4503   0.6143   0.6242
     0.7883   0.8421   0.9988   1.1797   1.2747   1.3548   1.4147   1.4175
     1.6849   2.1114   2.3549   2.4587   2.9517   3.1556   3.2655   3.3532
     3.7134   3.8765

          k = 0.0772-0.0390 0.0000 ( 33193 PWs)   bands (ev):

   -73.3410 -73.3235 -73.3084 -73.2911 -73.1677 -73.1504 -37.8363 -37.8051
   -37.5507 -37.4769 -37.4491 -37.4398 -37.4122 -37.3786 -37.3712 -37.3511
   -37.3009 -37.2745 -37.2574 -37.2304 -37.1286 -37.0316 -36.8541 -36.8310
    -5.3193  -4.8641  -4.5845  -4.5622  -4.4740  -4.3964  -4.3279  -4.3014
    -4.2196  -4.1968  -4.0550  -3.9309  -3.8493  -3.8451  -3.7106  -3.5995
    -3.5638  -3.5437  -3.5430  -3.4108  -3.3419  -3.2588  -3.2495  -3.0777
    -3.0358  -3.0044  -2.9902  -2.8989  -2.8799  -2.8418  -2.6547  -2.6168
    -2.4537  -1.9116  -1.7763  -1.6602  -1.0878  -1.0635  -0.9162  -0.6070
    -0.5096  -0.2374  -0.1344   0.0431   0.2032   0.5597   0.5865   0.7253
     0.7989   0.8191   0.9655   1.1376   1.3088   1.3456   1.4199   1.4788
     1.6601   2.1196   2.3531   2.3631   2.9288   3.0924   3.2530   3.4587
     3.8693   3.9266

          k = 0.0772-0.0234 0.0000 ( 33181 PWs)   bands (ev):

   -73.3410 -73.3235 -73.3084 -73.2911 -73.1677 -73.1504 -37.8362 -37.8051
   -37.5506 -37.4766 -37.4494 -37.4399 -37.4122 -37.3786 -37.3711 -37.3511
   -37.3010 -37.2745 -37.2574 -37.2304 -37.1286 -37.0316 -36.8541 -36.8310
    -5.4409  -4.8600  -4.6076  -4.5817  -4.4884  -4.4173  -4.3447  -4.3156
    -4.2466  -4.2321  -4.0995  -3.9109  -3.8708  -3.8468  -3.7151  -3.6314
    -3.5744  -3.5545  -3.5463  -3.4459  -3.3436  -3.2734  -3.2429  -3.0626
    -3.0363  -2.9998  -2.9996  -2.8855  -2.8788  -2.8113  -2.6639  -2.5164
    -2.4942  -1.9794  -1.5405  -1.4992  -1.0956  -1.0857  -0.9308  -0.4697
    -0.4655  -0.1705   0.0073   0.1731   0.2165   0.4822   0.6397   0.7338
     0.7715   0.8778   0.9869   1.2019   1.3241   1.3551   1.4416   1.5733
     1.7436   2.0257   2.2672   2.3279   2.6536   3.1862   3.1902   3.3991
     3.4876   3.8893

          k = 0.0772-0.0078 0.0000 ( 33171 PWs)   bands (ev):

   -73.3410 -73.3235 -73.3084 -73.2911 -73.1677 -73.1504 -37.8362 -37.8052
   -37.5505 -37.4764 -37.4495 -37.4400 -37.4122 -37.3785 -37.3711 -37.3511
   -37.3010 -37.2744 -37.2574 -37.2304 -37.1286 -37.0316 -36.8541 -36.8310
    -5.5041  -4.8504  -4.6187  -4.5926  -4.4965  -4.4303  -4.3626  -4.3238
    -4.2628  -4.2541  -4.1209  -3.9020  -3.8833  -3.8379  -3.7269  -3.6575
    -3.5845  -3.5546  -3.5435  -3.4691  -3.3400  -3.2828  -3.2460  -3.0544
    -3.0381  -3.0063  -2.9985  -2.8894  -2.8729  -2.7913  -2.6726  -2.5110
    -2.4287  -2.0575  -1.4436  -1.2869  -1.1336  -1.1147  -0.9309  -0.4971
    -0.3877  -0.0612   0.1154   0.1298   0.3455   0.4338   0.6080   0.7204
     0.7525   0.8819   1.0450   1.3047   1.3131   1.4117   1.5259   1.6407
     1.7497   1.9699   2.2593   2.2906   2.4898   2.8108   3.2379   3.2587
     3.4869   3.8670

          k = 0.0772 0.0078 0.0000 ( 33171 PWs)   bands (ev):

   -73.3410 -73.3235 -73.3084 -73.2911 -73.1677 -73.1504 -37.8362 -37.8052
   -37.5505 -37.4764 -37.4495 -37.4400 -37.4122 -37.3785 -37.3711 -37.3511
   -37.3010 -37.2744 -37.2574 -37.2304 -37.1286 -37.0316 -36.8541 -36.8310
    -5.5041  -4.8504  -4.6187  -4.5926  -4.4965  -4.4302  -4.3626  -4.3238
    -4.2627  -4.2541  -4.1209  -3.9020  -3.8833  -3.8380  -3.7269  -3.6575
    -3.5845  -3.5546  -3.5435  -3.4691  -3.3400  -3.2828  -3.2460  -3.0544
    -3.0381  -3.0063  -2.9985  -2.8894  -2.8729  -2.7913  -2.6726  -2.5110
    -2.4287  -2.0574  -1.4436  -1.2870  -1.1335  -1.1148  -0.9309  -0.4972
    -0.3877  -0.0611   0.1152   0.1297   0.3456   0.4337   0.6080   0.7204
     0.7525   0.8820   1.0450   1.3046   1.3129   1.4117   1.5260   1.6407
     1.7499   1.9698   2.2591   2.2906   2.4898   2.8109   3.2379   3.2588
     3.4869   3.8670

          k = 0.0772 0.0234 0.0000 ( 33181 PWs)   bands (ev):

   -73.3410 -73.3235 -73.3084 -73.2911 -73.1677 -73.1504 -37.8362 -37.8051
   -37.5506 -37.4766 -37.4494 -37.4399 -37.4122 -37.3786 -37.3711 -37.3511
   -37.3010 -37.2745 -37.2574 -37.2304 -37.1286 -37.0316 -36.8541 -36.8310
    -5.4409  -4.8600  -4.6076  -4.5817  -4.4884  -4.4172  -4.3447  -4.3156
    -4.2466  -4.2321  -4.0995  -3.9109  -3.8708  -3.8469  -3.7151  -3.6314
    -3.5744  -3.5545  -3.5463  -3.4459  -3.3436  -3.2734  -3.2429  -3.0627
    -3.0363  -2.9998  -2.9996  -2.8855  -2.8788  -2.8113  -2.6639  -2.5164
    -2.4941  -1.9792  -1.5404  -1.4992  -1.0957  -1.0856  -0.9308  -0.4697
    -0.4656  -0.1704   0.0070   0.1730   0.2165   0.4820   0.6397   0.7338
     0.7716   0.8780   0.9869   1.2017   1.3239   1.3552   1.4419   1.5734
     1.7437   2.0257   2.2671   2.3280   2.6536   3.1862   3.1901   3.3993
     3.4877   3.8892

          k =-0.0926-0.0468 0.0000 ( 33206 PWs)   bands (ev):

   -73.3322 -73.3322 -73.2997 -73.2997 -73.1591 -73.1591 -37.8208 -37.8207
   -37.4632 -37.4632 -37.4335 -37.4335 -37.4198 -37.4198 -37.3643 -37.3643
   -37.2508 -37.2508 -37.2439 -37.2439 -37.1539 -37.1539 -36.8426 -36.8426
    -5.0015  -5.0014  -4.5031  -4.5031  -4.4019  -4.4019  -4.3200  -4.3199
    -4.1218  -4.1218  -3.9735  -3.9734  -3.8580  -3.8578  -3.5550  -3.5550
    -3.5418  -3.5416  -3.3844  -3.3842  -3.3030  -3.3027  -3.2549  -3.2547
    -3.0899  -3.0895  -2.9816  -2.9813  -2.8956  -2.8954  -2.7848  -2.7842
    -2.2150  -2.2148  -1.7662  -1.7661  -1.0492  -1.0492  -0.7724  -0.7724
    -0.3661  -0.3660  -0.0454  -0.0454   0.5409   0.5410   0.7294   0.7294
     0.8348   0.8350   1.0880   1.0880   1.1712   1.1714   1.3834   1.3835
     1.5794   1.5795   2.2538   2.2538   3.0004   3.0005   3.3485   3.3485
     3.9037   3.9050

          k =-0.0926-0.0312 0.0000 ( 33175 PWs)   bands (ev):

   -73.3322 -73.3322 -73.2997 -73.2997 -73.1591 -73.1591 -37.8208 -37.8207
   -37.4635 -37.4629 -37.4336 -37.4334 -37.4198 -37.4198 -37.3644 -37.3643
   -37.2508 -37.2507 -37.2439 -37.2439 -37.1540 -37.1539 -36.8426 -36.8426
    -5.0790  -4.9049  -4.5088  -4.4913  -4.4085  -4.3977  -4.3318  -4.3139
    -4.1638  -4.0922  -3.9817  -3.9710  -3.8634  -3.8299  -3.5931  -3.5619
    -3.5396  -3.5064  -3.4087  -3.3583  -3.3191  -3.2989  -3.2612  -3.2540
    -3.1208  -3.0667  -3.0239  -2.9446  -2.8973  -2.8865  -2.7893  -2.7692
    -2.2904  -2.2178  -1.8313  -1.6020  -1.1024  -1.0660  -0.8345  -0.6504
    -0.3549  -0.3447  -0.0913   0.0272   0.5087   0.5459   0.6370   0.6901
     0.7854   0.9779   1.0329   1.0744   1.2197   1.2557   1.3639   1.4722
     1.5553   1.6098   2.1533   2.2844   2.7731   3.1724   3.2507   3.3741
     3.6078   3.8242

          k =-0.0926-0.0156 0.0000 ( 33160 PWs)   bands (ev):

   -73.3322 -73.3322 -73.2997 -73.2997 -73.1591 -73.1591 -37.8209 -37.8206
   -37.4638 -37.4627 -37.4337 -37.4333 -37.4198 -37.4198 -37.3644 -37.3643
   -37.2508 -37.2507 -37.2439 -37.2439 -37.1540 -37.1539 -36.8426 -36.8426
    -5.1279  -4.8112  -4.5145  -4.4764  -4.4151  -4.3961  -4.3483  -4.3128
    -4.2043  -4.0764  -3.9866  -3.9773  -3.8600  -3.7790  -3.6296  -3.5905
    -3.5362  -3.4667  -3.4269  -3.3439  -3.3306  -3.3010  -3.2756  -3.2559
    -3.1535  -3.0553  -3.0531  -2.9287  -2.8973  -2.8714  -2.7917  -2.7325
    -2.3506  -2.3214  -1.7704  -1.4675  -1.1504  -1.1248  -0.8559  -0.5788
    -0.3062  -0.2424  -0.1476   0.1060   0.4705   0.4819   0.5802   0.6111
     0.7443   0.9809   1.0470   1.1393   1.3062   1.3122   1.5134   1.5280
     1.5569   1.6317   2.0063   2.2807   2.5977   2.9224   3.2607   3.3767
     3.4186   3.7153

          k =-0.0926 0.0000 0.0000 ( 33162 PWs)   bands (ev):

   -73.3322 -73.3322 -73.2997 -73.2997 -73.1591 -73.1591 -37.8209 -37.8206
   -37.4638 -37.4626 -37.4337 -37.4333 -37.4198 -37.4197 -37.3644 -37.3643
   -37.2509 -37.2506 -37.2439 -37.2439 -37.1540 -37.1538 -36.8426 -36.8426
    -5.1445  -4.7667  -4.5210  -4.4690  -4.4184  -4.3940  -4.3591  -4.3133
    -4.2210  -4.0715  -3.9875  -3.9815  -3.8576  -3.7443  -3.6449  -3.6155
    -3.5349  -3.4473  -3.4339  -3.3504  -3.3201  -3.3026  -3.2882  -3.2569
    -3.1695  -3.0664  -3.0486  -2.9256  -2.8974  -2.8655  -2.7925  -2.7040
    -2.3816  -2.3713  -1.7286  -1.4223  -1.1595  -1.1578  -0.8629  -0.5678
    -0.2424  -0.2237  -0.1446   0.1369   0.3907   0.4790   0.5632   0.5948
     0.7259   0.9652   1.0221   1.1883   1.3521   1.4214   1.5077   1.5739
     1.5743   1.6278   1.9542   2.2753   2.5982   2.6443   3.2873   3.3736
     3.3868   3.6880

          k =-0.0926 0.0156 0.0000 ( 33160 PWs)   bands (ev):

   -73.3322 -73.3322 -73.2997 -73.2997 -73.1591 -73.1591 -37.8209 -37.8206
   -37.4638 -37.4627 -37.4337 -37.4333 -37.4198 -37.4197 -37.3644 -37.3643
   -37.2508 -37.2507 -37.2439 -37.2439 -37.1540 -37.1539 -36.8426 -36.8426
    -5.1279  -4.8111  -4.5145  -4.4764  -4.4151  -4.3961  -4.3483  -4.3129
    -4.2043  -4.0764  -3.9866  -3.9773  -3.8600  -3.7790  -3.6296  -3.5905
    -3.5362  -3.4667  -3.4269  -3.3439  -3.3306  -3.3010  -3.2755  -3.2559
    -3.1537  -3.0553  -3.0531  -2.9287  -2.8974  -2.8715  -2.7917  -2.7325
    -2.3506  -2.3215  -1.7704  -1.4674  -1.1506  -1.1248  -0.8559  -0.5788
    -0.3060  -0.2424  -0.1475   0.1062   0.4704   0.4819   0.5802   0.6110
     0.7444   0.9809   1.0471   1.1393   1.3062   1.3121   1.5133   1.5280
     1.5571   1.6318   2.0061   2.2806   2.5978   2.9223   3.2607   3.3767
     3.4185   3.7153

          k =-0.0926 0.0312 0.0000 ( 33175 PWs)   bands (ev):

   -73.3322 -73.3322 -73.2997 -73.2997 -73.1591 -73.1591 -37.8208 -37.8207
   -37.4635 -37.4629 -37.4336 -37.4334 -37.4198 -37.4198 -37.3644 -37.3643
   -37.2508 -37.2507 -37.2439 -37.2439 -37.1540 -37.1539 -36.8426 -36.8426
    -5.0789  -4.9049  -4.5088  -4.4912  -4.4085  -4.3978  -4.3319  -4.3140
    -4.1638  -4.0922  -3.9817  -3.9710  -3.8633  -3.8299  -3.5931  -3.5618
    -3.5395  -3.5064  -3.4087  -3.3582  -3.3190  -3.2988  -3.2611  -3.2540
    -3.1209  -3.0668  -3.0239  -2.9446  -2.8973  -2.8865  -2.7893  -2.7692
    -2.2905  -2.2179  -1.8313  -1.6020  -1.1025  -1.0659  -0.8345  -0.6505
    -0.3548  -0.3444  -0.0912   0.0274   0.5086   0.5458   0.6372   0.6901
     0.7853   0.9781   1.0329   1.0745   1.2196   1.2556   1.3639   1.4721
     1.5555   1.6099   2.1532   2.2843   2.7731   3.1723   3.2506   3.3740
     3.6076   3.8241

          k =-0.0926-0.1405 0.0000 ( 33206 PWs)   bands (ev):

   -73.3322 -73.3322 -73.2997 -73.2997 -73.1591 -73.1591 -37.8208 -37.8207
   -37.4632 -37.4632 -37.4335 -37.4335 -37.4198 -37.4198 -37.3643 -37.3643
   -37.2508 -37.2508 -37.2439 -37.2439 -37.1539 -37.1539 -36.8426 -36.8426
    -5.0015  -5.0014  -4.5031  -4.5030  -4.4019  -4.4019  -4.3201  -4.3200
    -4.1218  -4.1218  -3.9735  -3.9734  -3.8580  -3.8578  -3.5550  -3.5549
    -3.5418  -3.5416  -3.3844  -3.3842  -3.3030  -3.3027  -3.2549  -3.2547
    -3.0901  -3.0896  -2.9816  -2.9813  -2.8956  -2.8955  -2.7848  -2.7842
    -2.2150  -2.2148  -1.7663  -1.7662  -1.0492  -1.0492  -0.7725  -0.7725
    -0.3659  -0.3658  -0.0453  -0.0453   0.5407   0.5408   0.7296   0.7296
     0.8348   0.8349   1.0880   1.0880   1.1713   1.1714   1.3833   1.3833
     1.5796   1.5796   2.2537   2.2537   3.0004   3.0005   3.3483   3.3484
     3.9032   3.9032

     the Fermi energy is     1.2015 ev

!    total energy              =   -1464.70137172 Ry
     estimated scf accuracy    <       0.00000352 Ry
     smearing contrib. (-TS)   =      -0.05576159 Ry
     internal energy E=F+TS    =   -1464.64561013 Ry

     The total energy is F=E-TS. E is the sum of the following terms:
     one-electron contribution =  -11388.78668153 Ry
     hartree contribution      =    5728.43969212 Ry
     xc contribution           =    -386.38630230 Ry
     ewald contribution        =    4582.08768077 Ry
     electric field correction =       0.00000081 Ry

     convergence has been achieved in  15 iterations

     negative rho (up, down):  1.244E-03 0.000E+00

     Forces acting on atoms (cartesian axes, Ry/au):

     atom    1 type  1   force =     0.00000261   -0.01236857   -0.03235156
     atom    2 type  1   force =     0.00000237   -0.01236592   -0.03235065
     atom    3 type  2   force =    -0.00001970    0.01673528    0.03518835
     atom    4 type  2   force =    -0.00001074    0.01672893    0.03518233
     atom    5 type  1   force =    -0.00001500    0.01347417    0.01057648
     atom    6 type  1   force =    -0.00001680    0.01347240    0.01057844
     atom    7 type  2   force =     0.00006235   -0.01767325   -0.01425651
     atom    8 type  2   force =     0.00005623   -0.01767783   -0.01426828
     atom    9 type  1   force =    -0.00016342   -0.00120752    0.00036481
     atom   10 type  1   force =     0.00006569   -0.00120708    0.00036449
     atom   11 type  2   force =     0.00001669    0.00105293    0.00049002
     atom   12 type  2   force =     0.00001974    0.00103647    0.00048210

     Total force =     0.084020     Total SCF correction =     0.011203
     SCF correction compared to forces is large: reduce conv_thr to get better values

     Writing output data file ./Ag2W2/Ag2W2_beef.save/

     init_run     :     54.89s CPU     72.20s WALL (       1 calls)
     electrons    :   1371.88s CPU   2012.49s WALL (       1 calls)
     forces       :     12.86s CPU     29.07s WALL (       1 calls)

     Called by init_run:
     wfcinit      :     43.58s CPU     58.02s WALL (       1 calls)
     potinit      :      7.37s CPU      7.72s WALL (       1 calls)
     hinit0       :      2.72s CPU      4.48s WALL (       1 calls)

     Called by electrons:
     c_bands      :   1214.03s CPU   1757.17s WALL (      16 calls)
     sum_band     :    141.79s CPU    228.99s WALL (      16 calls)
     v_of_rho     :     14.70s CPU     21.38s WALL (      16 calls)
     newd         :      7.71s CPU     11.13s WALL (      16 calls)
     mix_rho      :      0.32s CPU      0.64s WALL (      16 calls)
     vdW_kernel   :      5.71s CPU      5.73s WALL (       1 calls)

     Called by c_bands:
     init_us_2    :      4.39s CPU      4.57s WALL (    2516 calls)
     cegterg      :   1196.89s CPU   1729.46s WALL (    1184 calls)

     Called by *egterg:
     cdiaghg      :    123.32s CPU    142.35s WALL (    5365 calls)
     h_psi        :    613.80s CPU    900.92s WALL (    5513 calls)
     s_psi        :    127.40s CPU    127.59s WALL (    5513 calls)
     g_psi        :      0.87s CPU      0.92s WALL (    4255 calls)

     Called by h_psi:
     h_psi:calbec :    137.64s CPU    223.36s WALL (    5513 calls)
     vloc_psi     :    342.95s CPU    543.83s WALL (    5513 calls)
     add_vuspsi   :    131.88s CPU    132.20s WALL (    5513 calls)

     General routines
     calbec       :    202.93s CPU    341.79s WALL (    6993 calls)
     fft          :      6.46s CPU     17.76s WALL (    1068 calls)
     ffts         :      0.04s CPU      0.11s WALL (      32 calls)
     fftw         :    398.08s CPU    634.70s WALL (  613154 calls)
     interpolate  :      0.11s CPU      0.21s WALL (      16 calls)

     Parallel routines
     fft_scatt_xy :     21.70s CPU     31.79s WALL (  614254 calls)
     fft_scatt_yz :    147.93s CPU    311.27s WALL (  614254 calls)

     PWSCF        :  24m10.89s CPU  36m19.40s WALL


   This run was terminated on:  16:24:17  23Jun2022            

=------------------------------------------------------------------------------=
   JOB DONE.
=------------------------------------------------------------------------------=
