
     Program PWSCF v.6.6 starts on 10Jul2022 at 16:26:10 

     This program is part of the open-source Quantum ESPRESSO suite
     for quantum simulation of materials; please cite
         "P. Giannozzi et al., J. Phys.:Condens. Matter 21 395502 (2009);
         "P. Giannozzi et al., J. Phys.:Condens. Matter 29 465901 (2017);
          URL http://www.quantum-espresso.org", 
     in publications or presentations arising from this work. More details at
     http://www.quantum-espresso.org/quote

     Parallel version (MPI), running on    37 processors

     MPI processes distributed on     1 nodes
     R & G space division:  proc/nbgrp/npool/nimage =      37
     Fft bands division:     nmany     =       1
     Reading input from Ag2Y2.in
Warning: card &CELL ignored
Warning: card / ignored

     Current dimensions of program PWSCF are:
     Max number of different atomic species (ntypx) = 10
     Max number of k-points (npk) =  40000
     Max angular momentum in pseudopotentials (lmaxx) =  3
     Presently stress not available with electric field and gates

     Message from routine cell_base_init:
     DEPRECATED: use true lattice parameter, not A to a.u. conversion factor
     file Y.pbe-spn-rrkjus_psl.1.0.0.UPF: wavefunction(s)  4S renormalized

     **************************************************************************
     Initializing libbeef V0.1.2 with the BEEF-vdW functional.
     Citation: Wellendorff et al., PRB 85, 235149 (2012).
     **************************************************************************


     IMPORTANT: XC functional enforced from input :
     Exchange-correlation= BEEF-VDW
                           (   1   4  43  14   2   0   0)
     Any further DFT definition will be discarded
     Please, verify this is what you really want


     Subspace diagonalization in iterative solution of the eigenvalue problem:
     a serial algorithm will be used


     Parallelization info
     --------------------
     sticks:   dense  smooth     PW     G-vecs:    dense   smooth      PW
     Min         160      64     17                38112     9638    1407
     Max         161      65     18                38133     9655    1426
     Sum        5939    2383    657              1410581   356899   52507



     bravais-lattice index     =            0
     lattice parameter (alat)  =       1.8897  a.u.
     unit-cell volume          =    6453.8952 (a.u.)^3
     number of atoms/cell      =           12
     number of atomic types    =            2
     number of electrons       =       132.00
     number of Kohn-Sham states=           79
     kinetic-energy cutoff     =      55.1240  Ry
     charge density cutoff     =     551.2396  Ry
     convergence threshold     =      1.0E-05
     mixing beta               =       0.1000
     number of iterations used =           10  plain     mixing
     Exchange-correlation= BEEF-VDW
                           (   1   4  43  14   2   0   0)

     celldm(1)=   1.889726  celldm(2)=   0.000000  celldm(3)=   0.000000
     celldm(4)=   0.000000  celldm(5)=   0.000000  celldm(6)=   0.000000

     crystal axes: (cart. coord. in units of alat)
               a(1) = (   6.347128   0.000000   0.000000 )  
               a(2) = (   2.118165   5.983261   0.000000 )  
               a(3) = (   0.000000   0.000000  25.183158 )  

     reciprocal axes: (cart. coord. in units 2 pi/alat)
               b(1) = (  0.157552 -0.055776  0.000000 )  
               b(2) = (  0.000000  0.167133  0.000000 )  
               b(3) = (  0.000000  0.000000  0.039709 )  


     PseudoPot. # 1 for Ag read from file:
     ../pseudo/Ag.pbe-n-rrkjus_psl.1.0.0.UPF
     MD5 check sum: d841cbfac2b0861aec33b46768a516bf
     Pseudo is Ultrasoft + core correction, Zval = 11.0
     Generated using "atomic" code by A. Dal Corso v.6.2.2
     Using radial grid of 1237 points,  6 beta functions with: 
                l(1) =   0
                l(2) =   0
                l(3) =   1
                l(4) =   1
                l(5) =   2
                l(6) =   2
     Q(r) pseudized with 0 coefficients 


     PseudoPot. # 2 for Y  read from file:
     ../pseudo/Y.pbe-spn-rrkjus_psl.1.0.0.UPF
     MD5 check sum: 5fe32e6a006803c2ec2edff47948a3c8
     Pseudo is Ultrasoft + core correction, Zval = 11.0
     Generated using "atomic" code by A. Dal Corso v.6.2.2
     Using radial grid of 1223 points,  6 beta functions with: 
                l(1) =   0
                l(2) =   0
                l(3) =   1
                l(4) =   1
                l(5) =   2
                l(6) =   2
     Q(r) pseudized with 0 coefficients 


     atomic species   valence    mass     pseudopotential
        Ag            11.00   107.86820     Ag( 1.00)
        Y             11.00    88.90584     Y ( 1.00)

     No symmetry found



   Cartesian axes

     site n.     atom                  positions (alat units)
         1           Ag  tau(   1) = (   0.0000000   0.0000000  10.0000000  )
         2           Ag  tau(   2) = (   4.2326464   2.9916305  10.0000000  )
         3           Y   tau(   3) = (   3.1735640   0.0000000  10.0000000  )
         4           Y   tau(   4) = (   1.0590824   2.9916305  10.0000000  )
         5           Ag  tau(   5) = (   6.3471281   4.4861442  12.5915791  )
         6           Ag  tau(   6) = (   2.1144817   1.4945137  12.5915791  )
         7           Y   tau(   7) = (   3.1735640   4.4861442  12.5915791  )
         8           Y   tau(   8) = (   5.2880457   1.4945137  12.5915791  )
         9           Ag  tau(   9) = (   4.2288774   2.9889817  15.0545766  )
        10           Ag  tau(  10) = (   8.4620251   5.9809364  15.0547382  )
        11           Y   tau(  11) = (   7.4033009   2.9895956  15.1697335  )
        12           Y   tau(  12) = (   5.2888386   5.9812026  15.1697505  )

     number of k points=    74  Fermi-Dirac smearing, width (Ry)=  0.0100
                       cart. coord. in units 2pi/alat
        k(    1) = (   0.0000000   0.0000000   0.0000000), wk =   0.0138889
        k(    2) = (   0.0000000   0.0139277   0.0000000), wk =   0.0277778
        k(    3) = (   0.0000000   0.0278555   0.0000000), wk =   0.0277778
        k(    4) = (   0.0000000   0.0417832   0.0000000), wk =   0.0277778
        k(    5) = (   0.0000000   0.0557110   0.0000000), wk =   0.0277778
        k(    6) = (   0.0000000   0.0696387   0.0000000), wk =   0.0277778
        k(    7) = (   0.0000000  -0.0835665   0.0000000), wk =   0.0138889
        k(    8) = (   0.0131293  -0.0046480   0.0000000), wk =   0.0277778
        k(    9) = (   0.0131293   0.0092798   0.0000000), wk =   0.0277778
        k(   10) = (   0.0131293   0.0232075   0.0000000), wk =   0.0277778
        k(   11) = (   0.0131293   0.0371353   0.0000000), wk =   0.0277778
        k(   12) = (   0.0131293   0.0510630   0.0000000), wk =   0.0277778
        k(   13) = (   0.0131293   0.0649908   0.0000000), wk =   0.0277778
        k(   14) = (   0.0131293  -0.0882144   0.0000000), wk =   0.0277778
        k(   15) = (   0.0131293  -0.0742867   0.0000000), wk =   0.0277778
        k(   16) = (   0.0131293  -0.0603590   0.0000000), wk =   0.0277778
        k(   17) = (   0.0131293  -0.0464312   0.0000000), wk =   0.0277778
        k(   18) = (   0.0131293  -0.0325035   0.0000000), wk =   0.0277778
        k(   19) = (   0.0131293  -0.0185757   0.0000000), wk =   0.0277778
        k(   20) = (   0.0262586  -0.0092959   0.0000000), wk =   0.0277778
        k(   21) = (   0.0262586   0.0046318   0.0000000), wk =   0.0277778
        k(   22) = (   0.0262586   0.0185595   0.0000000), wk =   0.0277778
        k(   23) = (   0.0262586   0.0324873   0.0000000), wk =   0.0277778
        k(   24) = (   0.0262586   0.0464150   0.0000000), wk =   0.0277778
        k(   25) = (   0.0262586   0.0603428   0.0000000), wk =   0.0277778
        k(   26) = (   0.0262586  -0.0928624   0.0000000), wk =   0.0277778
        k(   27) = (   0.0262586  -0.0789347   0.0000000), wk =   0.0277778
        k(   28) = (   0.0262586  -0.0650069   0.0000000), wk =   0.0277778
        k(   29) = (   0.0262586  -0.0510792   0.0000000), wk =   0.0277778
        k(   30) = (   0.0262586  -0.0371514   0.0000000), wk =   0.0277778
        k(   31) = (   0.0262586  -0.0232237   0.0000000), wk =   0.0277778
        k(   32) = (   0.0393879  -0.0139439   0.0000000), wk =   0.0277778
        k(   33) = (   0.0393879  -0.0000162   0.0000000), wk =   0.0277778
        k(   34) = (   0.0393879   0.0139116   0.0000000), wk =   0.0277778
        k(   35) = (   0.0393879   0.0278393   0.0000000), wk =   0.0277778
        k(   36) = (   0.0393879   0.0417671   0.0000000), wk =   0.0277778
        k(   37) = (   0.0393879   0.0556948   0.0000000), wk =   0.0277778
        k(   38) = (   0.0393879  -0.0975104   0.0000000), wk =   0.0277778
        k(   39) = (   0.0393879  -0.0835826   0.0000000), wk =   0.0277778
        k(   40) = (   0.0393879  -0.0696549   0.0000000), wk =   0.0277778
        k(   41) = (   0.0393879  -0.0557271   0.0000000), wk =   0.0277778
        k(   42) = (   0.0393879  -0.0417994   0.0000000), wk =   0.0277778
        k(   43) = (   0.0393879  -0.0278717   0.0000000), wk =   0.0277778
        k(   44) = (   0.0525172  -0.0185919   0.0000000), wk =   0.0277778
        k(   45) = (   0.0525172  -0.0046641   0.0000000), wk =   0.0277778
        k(   46) = (   0.0525172   0.0092636   0.0000000), wk =   0.0277778
        k(   47) = (   0.0525172   0.0231914   0.0000000), wk =   0.0277778
        k(   48) = (   0.0525172   0.0371191   0.0000000), wk =   0.0277778
        k(   49) = (   0.0525172   0.0510468   0.0000000), wk =   0.0277778
        k(   50) = (   0.0525172  -0.1021584   0.0000000), wk =   0.0277778
        k(   51) = (   0.0525172  -0.0882306   0.0000000), wk =   0.0277778
        k(   52) = (   0.0525172  -0.0743029   0.0000000), wk =   0.0277778
        k(   53) = (   0.0525172  -0.0603751   0.0000000), wk =   0.0277778
        k(   54) = (   0.0525172  -0.0464474   0.0000000), wk =   0.0277778
        k(   55) = (   0.0525172  -0.0325196   0.0000000), wk =   0.0277778
        k(   56) = (   0.0656465  -0.0232399   0.0000000), wk =   0.0277778
        k(   57) = (   0.0656465  -0.0093121   0.0000000), wk =   0.0277778
        k(   58) = (   0.0656465   0.0046156   0.0000000), wk =   0.0277778
        k(   59) = (   0.0656465   0.0185434   0.0000000), wk =   0.0277778
        k(   60) = (   0.0656465   0.0324711   0.0000000), wk =   0.0277778
        k(   61) = (   0.0656465   0.0463989   0.0000000), wk =   0.0277778
        k(   62) = (   0.0656465  -0.1068063   0.0000000), wk =   0.0277778
        k(   63) = (   0.0656465  -0.0928786   0.0000000), wk =   0.0277778
        k(   64) = (   0.0656465  -0.0789508   0.0000000), wk =   0.0277778
        k(   65) = (   0.0656465  -0.0650231   0.0000000), wk =   0.0277778
        k(   66) = (   0.0656465  -0.0510953   0.0000000), wk =   0.0277778
        k(   67) = (   0.0656465  -0.0371676   0.0000000), wk =   0.0277778
        k(   68) = (  -0.0787758   0.0278878   0.0000000), wk =   0.0138889
        k(   69) = (  -0.0787758   0.0418156   0.0000000), wk =   0.0277778
        k(   70) = (  -0.0787758   0.0557433   0.0000000), wk =   0.0277778
        k(   71) = (  -0.0787758   0.0696711   0.0000000), wk =   0.0277778
        k(   72) = (  -0.0787758   0.0835988   0.0000000), wk =   0.0277778
        k(   73) = (  -0.0787758   0.0975265   0.0000000), wk =   0.0277778
        k(   74) = (  -0.0787758  -0.0556786   0.0000000), wk =   0.0138889

     Dense  grid:  1410581 G-vectors     FFT dimensions: (  90,  90, 360)

     Smooth grid:   356899 G-vectors     FFT dimensions: (  60,  60, 225)

     Estimated max dynamical RAM per process >     259.17 MB

     Estimated total dynamical RAM >       9.36 GB

     Initial potential from superposition of free atoms

     starting charge  131.97310, renormalised to  132.00000

     negative rho (up, down):  2.134E-04 0.000E+00


     %%%%%%%%%%%%%%%%%%%%%%%%%%%%%%%%%%%%%%%%%%%%%%%%%%%%%%%%%%%%%%%%%%%%%%%%
     %                                                                      %
     % You are using vdW-DF, which was implemented by the Thonhauser group. %
     % Please cite the following two papers that made this development      %
     % possible and the two reviews that describe the various versions:     %
     %                                                                      %
     %   T. Thonhauser et al., PRL 115, 136402 (2015).                      %
     %   T. Thonhauser et al., PRB 76, 125112 (2007).                       %
     %   K. Berland et al., Rep. Prog. Phys. 78, 066501 (2015).             %
     %   D.C. Langreth et al., J. Phys.: Condens. Matter 21, 084203 (2009). %
     %                                                                      %
     %                                                                      %
     % If you are calculating the stress with vdW-DF, please also cite:     %
     %                                                                      %
     %   R. Sabatini et al., J. Phys.: Condens. Matter 24, 424209 (2012).   %
     %                                                                      %
     %%%%%%%%%%%%%%%%%%%%%%%%%%%%%%%%%%%%%%%%%%%%%%%%%%%%%%%%%%%%%%%%%%%%%%%%



     Adding external electric field

     Computed dipole along edir(3) : 
        Dipole                0.0008 Ry au,          0.0020 Debye
        Dipole field          0.0000 Ry au, 

        Potential amp.       -0.0001 Ry
        Total length         46.3995 bohr

     Starting wfcs are  132 randomized atomic wfcs

     total cpu time spent up to now is      166.8 secs

     Self-consistent Calculation

     iteration #  1     ecut=    55.12 Ry     beta= 0.10
     Davidson diagonalization with overlap
     ethr =  1.00E-02,  avg # of iterations =  2.0

     negative rho (up, down):  1.252E-04 0.000E+00

     Adding external electric field

     Computed dipole along edir(3) : 
        Dipole               -0.0066 Ry au,         -0.0168 Debye
        Dipole field         -0.0000 Ry au, 

        Potential amp.        0.0012 Ry
        Total length         46.3995 bohr


     total cpu time spent up to now is      424.1 secs

     total energy              =   -1015.03367105 Ry
     estimated scf accuracy    <       1.79010803 Ry

     iteration #  2     ecut=    55.12 Ry     beta= 0.10
     Davidson diagonalization with overlap
     ethr =  1.36E-03,  avg # of iterations =  2.1

     negative rho (up, down):  1.102E-04 0.000E+00

     Adding external electric field

     Computed dipole along edir(3) : 
        Dipole                0.1146 Ry au,          0.2913 Debye
        Dipole field          0.0002 Ry au, 

        Potential amp.       -0.0207 Ry
        Total length         46.3995 bohr


     total cpu time spent up to now is      664.9 secs

     total energy              =   -1015.16492198 Ry
     estimated scf accuracy    <       0.32315782 Ry

     iteration #  3     ecut=    55.12 Ry     beta= 0.10
     Davidson diagonalization with overlap
     ethr =  2.45E-04,  avg # of iterations =  7.0

     negative rho (up, down):  1.013E-04 0.000E+00

     Adding external electric field

     Computed dipole along edir(3) : 
        Dipole               -0.1204 Ry au,         -0.3060 Debye
        Dipole field         -0.0002 Ry au, 

        Potential amp.        0.0218 Ry
        Total length         46.3995 bohr


     total cpu time spent up to now is      964.2 secs

     total energy              =   -1015.18288034 Ry
     estimated scf accuracy    <       0.30463868 Ry

     iteration #  4     ecut=    55.12 Ry     beta= 0.10
     Davidson diagonalization with overlap
     ethr =  2.31E-04,  avg # of iterations =  1.6

     negative rho (up, down):  9.217E-05 0.000E+00

     Adding external electric field

     Computed dipole along edir(3) : 
        Dipole                0.0256 Ry au,          0.0650 Debye
        Dipole field          0.0000 Ry au, 

        Potential amp.       -0.0046 Ry
        Total length         46.3995 bohr


     total cpu time spent up to now is     1180.3 secs

     total energy              =   -1015.16333566 Ry
     estimated scf accuracy    <       0.45597922 Ry

     iteration #  5     ecut=    55.12 Ry     beta= 0.10
     Davidson diagonalization with overlap
     ethr =  2.31E-04,  avg # of iterations =  1.9

     negative rho (up, down):  9.102E-05 0.000E+00

     Adding external electric field

     Computed dipole along edir(3) : 
        Dipole                0.0358 Ry au,          0.0910 Debye
        Dipole field          0.0001 Ry au, 

        Potential amp.       -0.0065 Ry
        Total length         46.3995 bohr


     total cpu time spent up to now is     1408.1 secs

     total energy              =   -1015.17552876 Ry
     estimated scf accuracy    <       0.10203272 Ry

     iteration #  6     ecut=    55.12 Ry     beta= 0.10
     Davidson diagonalization with overlap
     ethr =  7.73E-05,  avg # of iterations =  2.8

     negative rho (up, down):  9.962E-05 0.000E+00

     Adding external electric field

     Computed dipole along edir(3) : 
        Dipole                0.0420 Ry au,          0.1068 Debye
        Dipole field          0.0001 Ry au, 

        Potential amp.       -0.0076 Ry
        Total length         46.3995 bohr


     total cpu time spent up to now is     1591.6 secs

     total energy              =   -1015.17343028 Ry
     estimated scf accuracy    <       0.03433787 Ry

     iteration #  7     ecut=    55.12 Ry     beta= 0.10
     Davidson diagonalization with overlap
     ethr =  2.60E-05,  avg # of iterations =  9.8

     negative rho (up, down):  1.062E-04 0.000E+00

     Adding external electric field

     Computed dipole along edir(3) : 
        Dipole                0.0412 Ry au,          0.1047 Debye
        Dipole field          0.0001 Ry au, 

        Potential amp.       -0.0074 Ry
        Total length         46.3995 bohr


     total cpu time spent up to now is     1870.8 secs

     total energy              =   -1015.17954115 Ry
     estimated scf accuracy    <       0.06005683 Ry

     iteration #  8     ecut=    55.12 Ry     beta= 0.10
     Davidson diagonalization with overlap
     ethr =  2.60E-05,  avg # of iterations =  2.1

     negative rho (up, down):  1.038E-04 0.000E+00

     Adding external electric field

     Computed dipole along edir(3) : 
        Dipole                0.0298 Ry au,          0.0758 Debye
        Dipole field          0.0001 Ry au, 

        Potential amp.       -0.0054 Ry
        Total length         46.3995 bohr


     total cpu time spent up to now is     2066.6 secs

     total energy              =   -1015.18054696 Ry
     estimated scf accuracy    <       0.00958370 Ry

     iteration #  9     ecut=    55.12 Ry     beta= 0.10
     Davidson diagonalization with overlap
     c_bands:  1 eigenvalues not converged
     ethr =  7.26E-06,  avg # of iterations =  7.5

     negative rho (up, down):  1.002E-04 0.000E+00

     Adding external electric field

     Computed dipole along edir(3) : 
        Dipole                0.0302 Ry au,          0.0769 Debye
        Dipole field          0.0001 Ry au, 

        Potential amp.       -0.0055 Ry
        Total length         46.3995 bohr


     total cpu time spent up to now is     2353.5 secs

     total energy              =   -1015.18225783 Ry
     estimated scf accuracy    <       0.00359987 Ry

     iteration # 10     ecut=    55.12 Ry     beta= 0.10
     Davidson diagonalization with overlap
     ethr =  2.73E-06,  avg # of iterations =  4.1

     negative rho (up, down):  1.082E-04 0.000E+00

     Adding external electric field

     Computed dipole along edir(3) : 
        Dipole                0.0340 Ry au,          0.0864 Debye
        Dipole field          0.0001 Ry au, 

        Potential amp.       -0.0061 Ry
        Total length         46.3995 bohr


     total cpu time spent up to now is     2604.7 secs

     total energy              =   -1015.18247632 Ry
     estimated scf accuracy    <       0.00267413 Ry

     iteration # 11     ecut=    55.12 Ry     beta= 0.10
     Davidson diagonalization with overlap
     ethr =  2.03E-06,  avg # of iterations =  2.0

     negative rho (up, down):  1.043E-04 0.000E+00

     Adding external electric field

     Computed dipole along edir(3) : 
        Dipole                0.0332 Ry au,          0.0844 Debye
        Dipole field          0.0001 Ry au, 

        Potential amp.       -0.0060 Ry
        Total length         46.3995 bohr


     total cpu time spent up to now is     2849.9 secs

     total energy              =   -1015.18245165 Ry
     estimated scf accuracy    <       0.00067901 Ry

     iteration # 12     ecut=    55.12 Ry     beta= 0.10
     Davidson diagonalization with overlap
     ethr =  5.14E-07,  avg # of iterations =  6.4

     negative rho (up, down):  1.016E-04 0.000E+00

     Adding external electric field

     Computed dipole along edir(3) : 
        Dipole                0.0318 Ry au,          0.0807 Debye
        Dipole field          0.0001 Ry au, 

        Potential amp.       -0.0057 Ry
        Total length         46.3995 bohr


     total cpu time spent up to now is     3126.8 secs

     total energy              =   -1015.18257525 Ry
     estimated scf accuracy    <       0.00007084 Ry

     iteration # 13     ecut=    55.12 Ry     beta= 0.10
     Davidson diagonalization with overlap
     c_bands:  1 eigenvalues not converged
     ethr =  5.37E-08,  avg # of iterations =  6.5

     negative rho (up, down):  8.080E-05 0.000E+00

     Adding external electric field

     Computed dipole along edir(3) : 
        Dipole                0.0401 Ry au,          0.1020 Debye
        Dipole field          0.0001 Ry au, 

        Potential amp.       -0.0072 Ry
        Total length         46.3995 bohr


     total cpu time spent up to now is     3440.6 secs

     End of self-consistent calculation

          k = 0.0000 0.0000 0.0000 ( 44603 PWs)   bands (ev):

   -42.9538 -42.9428 -42.9384 -42.9274 -42.5268 -42.5112 -22.9391 -22.9225
   -22.9194 -22.8983 -22.8799 -22.8650 -22.8341 -22.8212 -22.8203 -22.8007
   -22.6563 -22.6418 -22.5667 -22.4566 -22.4212 -22.4055 -22.3826 -22.3320
    -4.6456  -4.3333  -4.3287  -4.3130  -4.2928  -4.2468  -4.1844  -4.1689
    -4.1196  -4.1168  -4.1162  -4.0825  -3.9686  -3.9538  -3.9410  -3.9373
    -3.9363  -3.8742  -3.8576  -3.8423  -3.8395  -3.8178  -3.7709  -3.7192
    -3.6598  -3.6508  -3.5574  -3.5261  -3.4199  -3.3589  -3.3363  -2.9274
    -1.4906  -1.2650  -1.1006  -1.0230   0.3260   0.5165   0.5629   1.0442
     1.1148   1.2748   1.3255   1.3353   1.3963   1.6425   1.7594   1.8430
     1.9518   1.9683   1.9864   2.3351   2.3689   2.5834   2.6507

          k = 0.0000 0.0139 0.0000 ( 44572 PWs)   bands (ev):

   -42.9535 -42.9425 -42.9386 -42.9277 -42.5266 -42.5115 -22.9387 -22.9222
   -22.9197 -22.8988 -22.8763 -22.8614 -22.8337 -22.8213 -22.8205 -22.8014
   -22.6603 -22.6458 -22.5628 -22.4559 -22.4218 -22.4052 -22.3831 -22.3361
    -4.6098  -4.3219  -4.3188  -4.3027  -4.2816  -4.2414  -4.1694  -4.1597
    -4.1147  -4.1083  -4.1031  -4.0716  -3.9674  -3.9562  -3.9511  -3.9309
    -3.9190  -3.8676  -3.8612  -3.8370  -3.8365  -3.8164  -3.7676  -3.7202
    -3.6633  -3.6531  -3.5617  -3.5369  -3.4252  -3.3677  -3.3454  -2.9067
    -1.4766  -1.3395  -1.1449  -1.0480   0.3144   0.5199   0.6333   1.0224
     1.0586   1.2587   1.3212   1.3558   1.4089   1.5552   1.7117   1.7417
     1.9621   1.9939   2.0744   2.1965   2.3117   2.6896   2.7439

          k = 0.0000 0.0279 0.0000 ( 44558 PWs)   bands (ev):

   -42.9527 -42.9417 -42.9394 -42.9285 -42.5258 -42.5123 -22.9376 -22.9214
   -22.9206 -22.9003 -22.8656 -22.8507 -22.8324 -22.8218 -22.8208 -22.8033
   -22.6720 -22.6574 -22.5516 -22.4540 -22.4235 -22.4045 -22.3847 -22.3483
    -4.5065  -4.2905  -4.2905  -4.2740  -4.2488  -4.2257  -4.1355  -4.1261
    -4.1061  -4.0900  -4.0582  -4.0440  -3.9681  -3.9638  -3.9423  -3.9167
    -3.8984  -3.8662  -3.8466  -3.8329  -3.8215  -3.8123  -3.7565  -3.7219
    -3.6772  -3.6562  -3.5736  -3.5682  -3.4403  -3.3957  -3.3725  -2.8414
    -1.5765  -1.4351  -1.2269  -1.1132   0.3782   0.4052   0.8298   0.8836
     0.9565   1.2145   1.3231   1.3493   1.3960   1.4418   1.5187   1.7383
     1.9887   2.0168   2.0230   2.0515   2.3746   2.6631   2.7458

          k = 0.0000 0.0418 0.0000 ( 44605 PWs)   bands (ev):

   -42.9515 -42.9406 -42.9405 -42.9297 -42.5245 -42.5135 -22.9358 -22.9221
   -22.9201 -22.9027 -22.8485 -22.8336 -22.8305 -22.8224 -22.8212 -22.8062
   -22.6904 -22.6758 -22.5335 -22.4511 -22.4262 -22.4032 -22.3870 -22.3676
    -4.3540  -4.2487  -4.2469  -4.2331  -4.2021  -4.1943  -4.1062  -4.0961
    -4.0631  -4.0593  -4.0188  -3.9948  -3.9740  -3.9575  -3.9278  -3.8988
    -3.8748  -3.8645  -3.8273  -3.8147  -3.8074  -3.8004  -3.7370  -3.7155
    -3.6986  -3.6609  -3.6159  -3.5877  -3.4636  -3.4439  -3.4171  -2.7232
    -1.9314  -1.3702  -1.2887  -1.2305   0.2536   0.5225   0.6367   0.8495
     0.9603   1.1543   1.1943   1.2468   1.3224   1.4521   1.4824   1.7723
     1.9170   1.9601   2.0067   2.0860   2.4326   2.4735   2.5427

          k = 0.0000 0.0557 0.0000 ( 44577 PWs)   bands (ev):

   -42.9499 -42.9422 -42.9389 -42.9312 -42.5229 -42.5151 -22.9336 -22.9239
   -22.9181 -22.9058 -22.8281 -22.8264 -22.8229 -22.8212 -22.8116 -22.8093
   -22.7142 -22.6996 -22.5099 -22.4473 -22.4298 -22.4015 -22.3924 -22.3899
    -4.2155  -4.2014  -4.1948  -4.1878  -4.1717  -4.1132  -4.0939  -4.0808
    -4.0324  -4.0176  -3.9791  -3.9724  -3.9501  -3.9197  -3.9112  -3.8789
    -3.8576  -3.8473  -3.8146  -3.8065  -3.7866  -3.7700  -3.7247  -3.7142
    -3.6767  -3.6703  -3.6690  -3.5810  -3.5102  -3.4927  -3.4758  -2.5424
    -2.3367  -1.4315  -1.3019  -1.2967   0.1175   0.4484   0.6701   0.7122
     0.7754   1.0933   1.1020   1.2536   1.3026   1.5016   1.5435   1.8029
     1.8348   1.8766   1.9605   2.1301   2.2426   2.4517   2.5608

          k = 0.0000 0.0696 0.0000 ( 44610 PWs)   bands (ev):

   -42.9480 -42.9440 -42.9370 -42.9331 -42.5210 -42.5170 -22.9311 -22.9261
   -22.9156 -22.9091 -22.8260 -22.8240 -22.8202 -22.8139 -22.7994 -22.7846
   -22.7416 -22.7269 -22.4821 -22.4430 -22.4339 -22.4214 -22.3989 -22.3931
    -4.1699  -4.1635  -4.1438  -4.1429  -4.1255  -4.0986  -4.0711  -4.0524
    -4.0164  -4.0078  -3.9624  -3.9532  -3.8969  -3.8962  -3.8635  -3.8573
    -3.8437  -3.8221  -3.8064  -3.7854  -3.7731  -3.7557  -3.7444  -3.7129
    -3.6876  -3.6769  -3.6623  -3.5903  -3.5303  -3.5235  -3.4318  -2.7473
    -2.2977  -1.7002  -1.2817  -1.2467   0.0666   0.3741   0.4068   0.5646
     0.9445   1.0461   1.0462   1.2477   1.3585   1.5238   1.6282   1.7539
     1.7945   1.8148   1.8440   1.9815   2.3345   2.4701   2.5797

          k = 0.0000-0.0836 0.0000 ( 44578 PWs)   bands (ev):

   -42.9461 -42.9459 -42.9351 -42.9350 -42.5191 -42.5189 -22.9286 -22.9285
   -22.9125 -22.9125 -22.8248 -22.8246 -22.8176 -22.8175 -22.7708 -22.7706
   -22.7560 -22.7559 -22.4520 -22.4518 -22.4385 -22.4383 -22.3963 -22.3960
    -4.1522  -4.1522  -4.1217  -4.1216  -4.1020  -4.1019  -4.0687  -4.0686
    -3.9992  -3.9991  -3.9521  -3.9519  -3.8859  -3.8858  -3.8397  -3.8397
    -3.8249  -3.8248  -3.7879  -3.7878  -3.7678  -3.7678  -3.7095  -3.7094
    -3.6867  -3.6866  -3.6614  -3.6614  -3.5449  -3.5449  -3.1274  -3.1274
    -2.0053  -2.0052  -1.2481  -1.2479   0.1595   0.1595   0.4411   0.4411
     1.0261   1.0262   1.1340   1.1340   1.4682   1.4684   1.7035   1.7035
     1.7370   1.7372   1.8825   1.8826   2.4690   2.4691   2.5464

          k = 0.0131-0.0046 0.0000 ( 44572 PWs)   bands (ev):

   -42.9535 -42.9425 -42.9386 -42.9277 -42.5266 -42.5115 -22.9387 -22.9222
   -22.9197 -22.8988 -22.8763 -22.8614 -22.8337 -22.8213 -22.8205 -22.8014
   -22.6603 -22.6458 -22.5628 -22.4559 -22.4218 -22.4052 -22.3831 -22.3361
    -4.6098  -4.3219  -4.3188  -4.3027  -4.2816  -4.2414  -4.1694  -4.1597
    -4.1147  -4.1083  -4.1031  -4.0716  -3.9674  -3.9562  -3.9511  -3.9309
    -3.9190  -3.8676  -3.8612  -3.8370  -3.8365  -3.8164  -3.7676  -3.7202
    -3.6633  -3.6531  -3.5617  -3.5369  -3.4252  -3.3677  -3.3454  -2.9067
    -1.4766  -1.3395  -1.1449  -1.0480   0.3144   0.5199   0.6333   1.0224
     1.0586   1.2587   1.3212   1.3558   1.4089   1.5552   1.7118   1.7417
     1.9621   1.9939   2.0744   2.1964   2.3117   2.6896   2.7439

          k = 0.0131 0.0093 0.0000 ( 44615 PWs)   bands (ev):

   -42.9537 -42.9428 -42.9384 -42.9274 -42.5268 -42.5112 -22.9391 -22.9230
   -22.9188 -22.8988 -22.8802 -22.8653 -22.8338 -22.8222 -22.8197 -22.8014
   -22.6564 -22.6418 -22.5668 -22.4557 -22.4219 -22.4059 -22.3827 -22.3321
    -4.5961  -4.3159  -4.3152  -4.2976  -4.2833  -4.2375  -4.1774  -4.1551
    -4.1137  -4.1076  -4.1005  -4.0613  -3.9739  -3.9597  -3.9573  -3.9290
    -3.9070  -3.8607  -3.8581  -3.8370  -3.8241  -3.8166  -3.7567  -3.7162
    -3.6643  -3.6505  -3.5575  -3.5379  -3.4412  -3.3569  -3.3361  -2.8917
    -1.4664  -1.2976  -1.0581  -0.9965   0.0779   0.3484   0.6087   0.8942
     1.0375   1.2710   1.3066   1.3885   1.4045   1.4865   1.6700   1.7948
     1.9038   1.9820   1.9826   2.3524   2.4310   2.5789   2.7407

          k = 0.0131 0.0232 0.0000 ( 44589 PWs)   bands (ev):

   -42.9534 -42.9425 -42.9387 -42.9277 -42.5266 -42.5115 -22.9388 -22.9232
   -22.9187 -22.8998 -22.8768 -22.8619 -22.8333 -22.8240 -22.8186 -22.8026
   -22.6604 -22.6459 -22.5631 -22.4543 -22.4231 -22.4061 -22.3834 -22.3364
    -4.5136  -4.2930  -4.2890  -4.2739  -4.2633  -4.2229  -4.1563  -4.1346
    -4.1057  -4.0838  -4.0822  -4.0311  -3.9862  -3.9594  -3.9454  -3.9196
    -3.8955  -3.8612  -3.8343  -3.8271  -3.8139  -3.8115  -3.7399  -3.7139
    -3.6714  -3.6538  -3.5618  -3.5587  -3.4654  -3.3668  -3.3439  -2.8340
    -1.4317  -1.4195  -1.0728  -0.9946  -0.0010   0.1548   0.6655   0.7512
     0.9388   1.1918   1.2559   1.2945   1.4081   1.5332   1.5584   1.7074
     1.8588   1.9752   1.9984   2.2481   2.5248   2.6269   2.7336

          k = 0.0131 0.0371 0.0000 ( 44577 PWs)   bands (ev):

   -42.9526 -42.9417 -42.9394 -42.9285 -42.5258 -42.5122 -22.9379 -22.9225
   -22.9192 -22.9016 -22.8663 -22.8514 -22.8323 -22.8254 -22.8180 -22.8049
   -22.6721 -22.6575 -22.5519 -22.4519 -22.4253 -22.4056 -22.3850 -22.3487
    -4.3747  -4.2565  -4.2467  -4.2372  -4.2246  -4.1989  -4.1089  -4.1068
    -4.0960  -4.0558  -4.0371  -4.0001  -3.9924  -3.9512  -3.9328  -3.9046
    -3.8800  -3.8569  -3.8104  -3.8083  -3.8016  -3.8008  -3.7172  -3.7062
    -3.6848  -3.6621  -3.5956  -3.5730  -3.4956  -3.3973  -3.3706  -2.7254
    -1.7293  -1.3814  -1.1620  -1.0303  -0.0309   0.1065   0.5923   0.7234
     0.7944   1.0014   1.2272   1.2979   1.3217   1.4312   1.6007   1.6530
     1.8214   1.9227   2.0457   2.1348   2.5604   2.6055   2.6432

          k = 0.0131 0.0511 0.0000 ( 44612 PWs)   bands (ev):

   -42.9514 -42.9406 -42.9404 -42.9297 -42.5245 -42.5134 -22.9365 -22.9208
   -22.9205 -22.9040 -22.8493 -22.8344 -22.8313 -22.8256 -22.8178 -22.8079
   -22.6904 -22.6758 -22.5339 -22.4485 -22.4285 -22.4044 -22.3872 -22.3679
    -4.2221  -4.2129  -4.1946  -4.1938  -4.1719  -4.1632  -4.0926  -4.0808
    -4.0403  -4.0259  -3.9921  -3.9915  -3.9733  -3.9384  -3.9216  -3.8863
    -3.8585  -3.8458  -3.8069  -3.7945  -3.7891  -3.7660  -3.7054  -3.6927
    -3.6735  -3.6653  -3.6418  -3.5825  -3.5298  -3.4451  -3.4172  -2.5557
    -2.1376  -1.3466  -1.3406  -1.0562  -0.1613   0.3148   0.4208   0.6466
     0.6723   0.8923   1.1977   1.2005   1.3175   1.4726   1.6035   1.6480
     1.7782   1.8582   2.0439   2.1195   2.3333   2.4494   2.6688

          k = 0.0131 0.0650 0.0000 ( 44609 PWs)   bands (ev):

   -42.9498 -42.9422 -42.9388 -42.9313 -42.5229 -42.5150 -22.9347 -22.9224
   -22.9183 -22.9066 -22.8311 -22.8269 -22.8238 -22.8181 -22.8129 -22.8102
   -22.7141 -22.6995 -22.5102 -22.4445 -22.4323 -22.4026 -22.3926 -22.3899
    -4.1728  -4.1637  -4.1518  -4.1377  -4.1262  -4.0958  -4.0720  -4.0676
    -4.0061  -4.0019  -3.9821  -3.9582  -3.9242  -3.9190  -3.8988  -3.8663
    -3.8360  -3.8342  -3.8127  -3.7936  -3.7690  -3.7462  -3.7291  -3.6908
    -3.6820  -3.6653  -3.6372  -3.5660  -3.5103  -3.4851  -3.4704  -2.5693
    -2.3217  -1.6169  -1.3504  -1.0666  -0.1693   0.2518   0.4263   0.5974
     0.6303   0.8403   1.1805   1.2361   1.3474   1.5368   1.5758   1.6723
     1.6855   1.8093   1.9757   2.1152   2.2604   2.3629   2.6850

          k = 0.0131-0.0882 0.0000 ( 44589 PWs)   bands (ev):

   -42.9479 -42.9441 -42.9370 -42.9331 -42.5211 -42.5169 -22.9327 -22.9248
   -22.9151 -22.9094 -22.8309 -22.8205 -22.8198 -22.8141 -22.8000 -22.7852
   -22.7413 -22.7267 -22.4823 -22.4402 -22.4366 -22.4215 -22.3997 -22.3928
    -4.1523  -4.1362  -4.1222  -4.1111  -4.0995  -4.0902  -4.0652  -4.0523
    -4.0032  -3.9940  -3.9666  -3.9256  -3.9108  -3.8780  -3.8592  -3.8490
    -3.8243  -3.8135  -3.8097  -3.7768  -3.7733  -3.7562  -3.7483  -3.6941
    -3.6881  -3.6735  -3.6575  -3.5962  -3.5960  -3.4946  -3.2184  -2.9806
    -2.0374  -1.9287  -1.4219  -1.0855  -0.0214   0.1174   0.2848   0.6933
     0.8203   0.8500   1.1871   1.3264   1.3661   1.4812   1.5892   1.6253
     1.7143   1.7781   1.9491   2.0281   2.3589   2.3873   2.5518

          k = 0.0131-0.0743 0.0000 ( 44602 PWs)   bands (ev):

   -42.9461 -42.9459 -42.9351 -42.9350 -42.5191 -42.5188 -22.9304 -22.9277
   -22.9122 -22.9115 -22.8303 -22.8225 -22.8166 -22.8155 -22.7711 -22.7703
   -22.7564 -22.7556 -22.4520 -22.4518 -22.4411 -22.4358 -22.3967 -22.3956
    -4.1597  -4.1384  -4.1355  -4.1137  -4.1031  -4.0907  -4.0604  -4.0547
    -4.0034  -3.9960  -3.9640  -3.9350  -3.9012  -3.8630  -3.8469  -3.8463
    -3.8284  -3.8164  -3.7899  -3.7863  -3.7697  -3.7676  -3.7212  -3.7204
    -3.7055  -3.6772  -3.6613  -3.6602  -3.5966  -3.4835  -3.3311  -2.8682
    -2.2316  -1.7381  -1.5106  -1.1441   0.0504   0.2612   0.2653   0.8168
     0.8741   1.0228   1.2218   1.2442   1.4211   1.4254   1.5854   1.6881
     1.7110   1.8451   1.9992   2.0011   2.4149   2.4246   2.4796

          k = 0.0131-0.0604 0.0000 ( 44582 PWs)   bands (ev):

   -42.9481 -42.9440 -42.9371 -42.9330 -42.5210 -42.5170 -22.9306 -22.9279
   -22.9147 -22.9078 -22.8291 -22.8256 -22.8163 -22.8125 -22.7989 -22.7842
   -22.7419 -22.7272 -22.4819 -22.4455 -22.4316 -22.4213 -22.3983 -22.3933
    -4.1902  -4.1686  -4.1683  -4.1597  -4.1588  -4.0860  -4.0665  -4.0475
    -4.0247  -4.0161  -3.9778  -3.9481  -3.9147  -3.8759  -3.8698  -3.8690
    -3.8581  -3.8380  -3.8089  -3.7958  -3.7882  -3.7603  -3.7497  -3.7342
    -3.7064  -3.6907  -3.6664  -3.5886  -3.5486  -3.5446  -3.4600  -2.4887
    -2.4812  -1.5684  -1.4755  -1.2381   0.1175   0.3610   0.6256   0.9203
     0.9839   1.0550   1.1237   1.2976   1.3870   1.4645   1.5959   1.6098
     1.7917   2.0051   2.0179   2.1368   2.2890   2.3766   2.5598

          k = 0.0131-0.0464 0.0000 ( 44596 PWs)   bands (ev):

   -42.9499 -42.9422 -42.9390 -42.9312 -42.5229 -42.5151 -22.9334 -22.9254
   -22.9170 -22.9044 -22.8286 -22.8275 -22.8253 -22.8170 -22.8107 -22.8084
   -22.7143 -22.6996 -22.5097 -22.4495 -22.4279 -22.4007 -22.3924 -22.3899
    -4.2808  -4.2287  -4.2201  -4.2074  -4.1933  -4.1362  -4.0912  -4.0848
    -4.0574  -4.0152  -3.9935  -3.9760  -3.9509  -3.9335  -3.8973  -3.8906
    -3.8706  -3.8666  -3.8464  -3.8136  -3.8021  -3.7860  -3.7524  -3.7347
    -3.7165  -3.6590  -3.6541  -3.5954  -3.5095  -3.4767  -3.4382  -2.6814
    -2.0897  -1.5682  -1.3352  -1.2914   0.3293   0.5167   0.8694   1.0192
     1.0446   1.0954   1.1673   1.2622   1.3949   1.4489   1.4850   1.6579
     1.8358   2.0075   2.1554   2.2092   2.3016   2.3027   2.4968

          k = 0.0131-0.0325 0.0000 ( 44578 PWs)   bands (ev):

   -42.9515 -42.9406 -42.9405 -42.9296 -42.5245 -42.5135 -22.9358 -22.9231
   -22.9191 -22.9017 -22.8480 -22.8332 -22.8310 -22.8253 -22.8178 -22.8051
   -22.6904 -22.6758 -22.5333 -22.4527 -22.4249 -22.4025 -22.3869 -22.3675
    -4.4326  -4.2721  -4.2678  -4.2529  -4.2178  -4.2101  -4.1178  -4.0979
    -4.0866  -4.0700  -4.0334  -4.0062  -3.9795  -3.9452  -3.9176  -3.9133
    -3.8959  -3.8734  -3.8517  -3.8429  -3.8079  -3.8061  -3.7695  -3.7334
    -3.6975  -3.6535  -3.5980  -3.5886  -3.4443  -3.4237  -3.4170  -2.8089
    -1.7263  -1.5045  -1.4116  -1.1772   0.6326   0.6361   0.7177   1.0481
     1.1193   1.1604   1.1949   1.3854   1.4144   1.4383   1.4994   1.7141
     1.7961   2.0537   2.0717   2.1524   2.2560   2.5366   2.7909

          k = 0.0131-0.0186 0.0000 ( 44609 PWs)   bands (ev):

   -42.9527 -42.9418 -42.9394 -42.9284 -42.5258 -42.5123 -22.9376 -22.9212
   -22.9208 -22.8998 -22.8653 -22.8504 -22.8327 -22.8232 -22.8190 -22.8027
   -22.6719 -22.6574 -22.5514 -22.4549 -22.4228 -22.4041 -22.3845 -22.3482
    -4.5526  -4.3059  -4.3023  -4.2870  -4.2573  -4.2345  -4.1458  -4.1325
    -4.1073  -4.1050  -4.0688  -4.0581  -3.9751  -3.9367  -3.9350  -3.9344
    -3.9182  -3.8667  -3.8621  -3.8468  -3.8251  -3.8133  -3.7727  -3.7266
    -3.6759  -3.6532  -3.5736  -3.5573  -3.4192  -3.3970  -3.3725  -2.8806
    -1.4644  -1.4589  -1.3508  -1.1024   0.5465   0.6343   0.7957   0.9222
     1.1280   1.2094   1.2513   1.3669   1.3743   1.5727   1.6897   1.7161
     1.8940   2.0111   2.0567   2.1571   2.1942   2.7139   2.7983

          k = 0.0263-0.0093 0.0000 ( 44558 PWs)   bands (ev):

   -42.9527 -42.9417 -42.9394 -42.9285 -42.5258 -42.5123 -22.9376 -22.9214
   -22.9206 -22.9003 -22.8656 -22.8507 -22.8324 -22.8218 -22.8208 -22.8033
   -22.6720 -22.6574 -22.5516 -22.4540 -22.4235 -22.4045 -22.3847 -22.3483
    -4.5065  -4.2905  -4.2905  -4.2740  -4.2488  -4.2257  -4.1355  -4.1261
    -4.1061  -4.0900  -4.0582  -4.0440  -3.9681  -3.9638  -3.9423  -3.9167
    -3.8984  -3.8662  -3.8466  -3.8329  -3.8215  -3.8123  -3.7565  -3.7219
    -3.6772  -3.6562  -3.5736  -3.5682  -3.4403  -3.3957  -3.3725  -2.8414
    -1.5765  -1.4351  -1.2269  -1.1132   0.3782   0.4052   0.8298   0.8836
     0.9565   1.2145   1.3231   1.3493   1.3960   1.4418   1.5187   1.7383
     1.9887   2.0168   2.0230   2.0515   2.3747   2.6631   2.7456

          k = 0.0263 0.0046 0.0000 ( 44589 PWs)   bands (ev):

   -42.9534 -42.9425 -42.9387 -42.9277 -42.5266 -42.5115 -22.9388 -22.9232
   -22.9187 -22.8998 -22.8768 -22.8619 -22.8333 -22.8240 -22.8186 -22.8026
   -22.6604 -22.6459 -22.5631 -22.4543 -22.4231 -22.4061 -22.3834 -22.3364
    -4.5136  -4.2930  -4.2890  -4.2739  -4.2633  -4.2229  -4.1563  -4.1346
    -4.1057  -4.0838  -4.0822  -4.0311  -3.9862  -3.9594  -3.9454  -3.9196
    -3.8955  -3.8612  -3.8343  -3.8271  -3.8139  -3.8114  -3.7399  -3.7139
    -3.6714  -3.6538  -3.5618  -3.5587  -3.4654  -3.3668  -3.3439  -2.8340
    -1.4317  -1.4195  -1.0728  -0.9946  -0.0010   0.1548   0.6655   0.7512
     0.9388   1.1918   1.2559   1.2945   1.4081   1.5332   1.5584   1.7074
     1.8588   1.9752   1.9984   2.2481   2.5249   2.6269   2.7333

          k = 0.0263 0.0186 0.0000 ( 44593 PWs)   bands (ev):

   -42.9537 -42.9427 -42.9384 -42.9275 -42.5268 -42.5112 -22.9395 -22.9240
   -22.9175 -22.9001 -22.8810 -22.8660 -22.8338 -22.8269 -22.8161 -22.8031
   -22.6566 -22.6420 -22.5672 -22.4535 -22.4237 -22.4071 -22.3831 -22.3325
    -4.4535  -4.2763  -4.2690  -4.2550  -4.2536  -4.2093  -4.1585  -4.1167
    -4.0984  -4.0825  -4.0639  -3.9988  -3.9967  -3.9667  -3.9257  -3.9163
    -3.8894  -3.8576  -3.8232  -3.8107  -3.8091  -3.7925  -3.7190  -3.7093
    -3.6788  -3.6497  -3.5679  -3.5570  -3.4969  -3.3601  -3.3312  -2.7859
    -1.4089  -1.3423  -1.0427  -0.8614  -0.3059  -0.0901   0.5424   0.5699
     0.8762   0.9910   1.2471   1.2618   1.4024   1.4564   1.6576   1.6625
     1.7592   1.8900   2.0016   2.3659   2.5108   2.6510   2.7040

          k = 0.0263 0.0325 0.0000 ( 44606 PWs)   bands (ev):

   -42.9534 -42.9424 -42.9387 -42.9277 -42.5266 -42.5114 -22.9396 -22.9238
   -22.9172 -22.9009 -22.8778 -22.8628 -22.8344 -22.8286 -22.8143 -22.8046
   -22.6606 -22.6461 -22.5636 -22.4517 -22.4253 -22.4074 -22.3838 -22.3368
    -4.3374  -4.2450  -4.2344  -4.2228  -4.2213  -4.1860  -4.1336  -4.0908
    -4.0883  -4.0559  -4.0379  -4.0051  -3.9649  -3.9591  -3.9062  -3.9060
    -3.8785  -3.8510  -3.8113  -3.7990  -3.7809  -3.7768  -3.7035  -3.6938
    -3.6904  -3.6531  -3.5932  -3.5606  -3.5326  -3.3740  -3.3378  -2.6886
    -1.5082  -1.3845  -1.0841  -0.8214  -0.3351  -0.2966   0.3306   0.5317
     0.7811   0.8030   1.2145   1.2487   1.3036   1.3952   1.5693   1.6635
     1.7410   1.8346   2.0345   2.2959   2.5329   2.5934   2.7180

          k = 0.0263 0.0464 0.0000 ( 44614 PWs)   bands (ev):

   -42.9526 -42.9416 -42.9395 -42.9285 -42.5258 -42.5122 -22.9393 -22.9225
   -22.9179 -22.9023 -22.8673 -22.8523 -22.8357 -22.8283 -22.8136 -22.8067
   -22.6722 -22.6576 -22.5524 -22.4490 -22.4279 -22.4070 -22.3854 -22.3491
    -4.2067  -4.2052  -4.1861  -4.1839  -4.1654  -4.1548  -4.0852  -4.0838
    -4.0651  -4.0097  -4.0079  -4.0041  -3.9558  -3.9466  -3.8898  -3.8886
    -3.8627  -3.8357  -3.7937  -3.7919  -3.7681  -3.7507  -3.7071  -3.6734
    -3.6681  -3.6550  -3.6282  -3.5764  -3.5643  -3.4038  -3.3677  -2.5309
    -1.8903  -1.3989  -1.2333  -0.8258  -0.4071  -0.1293   0.1194   0.4861
     0.6533   0.7424   1.1706   1.1943   1.2404   1.4023   1.5107   1.6139
     1.7607   1.7859   2.0947   2.1881   2.4541   2.4905   2.5921

          k = 0.0263 0.0603 0.0000 ( 44592 PWs)   bands (ev):

   -42.9513 -42.9407 -42.9404 -42.9297 -42.5246 -42.5134 -22.9384 -22.9202
   -22.9195 -22.9041 -22.8502 -22.8370 -22.8353 -22.8263 -22.8143 -22.8086
   -22.6905 -22.6759 -22.5343 -22.4456 -22.4311 -22.4057 -22.3875 -22.3683
    -4.1652  -4.1456  -4.1443  -4.1328  -4.1196  -4.0855  -4.0678  -4.0503
    -4.0153  -3.9987  -3.9835  -3.9606  -3.9444  -3.9426  -3.8816  -3.8703
    -3.8440  -3.8224  -3.8007  -3.7742  -3.7720  -3.7337  -3.7272  -3.6771
    -3.6687  -3.6407  -3.6153  -3.6021  -3.5072  -3.4441  -3.4185  -2.3354
    -2.3073  -1.4904  -1.4893  -0.8501  -0.3637  -0.0787   0.1539   0.3921
     0.6142   0.7461   1.1513   1.1808   1.2471   1.4386   1.5110   1.5816
     1.7389   1.7554   2.1126   2.1707   2.3071   2.3425   2.6545

          k = 0.0263-0.0929 0.0000 ( 44600 PWs)   bands (ev):

   -42.9497 -42.9423 -42.9388 -42.9313 -42.5230 -42.5150 -22.9368 -22.9218
   -22.9171 -22.9061 -22.8374 -22.8276 -22.8233 -22.8166 -22.8130 -22.8093
   -22.7140 -22.6994 -22.5105 -22.4418 -22.4350 -22.4036 -22.3929 -22.3900
    -4.1379  -4.1134  -4.1127  -4.0894  -4.0875  -4.0822  -4.0447  -4.0250
    -3.9959  -3.9827  -3.9639  -3.9364  -3.9285  -3.8896  -3.8729  -3.8536
    -3.8246  -3.8183  -3.8091  -3.7885  -3.7582  -3.7519  -3.7500  -3.6912
    -3.6727  -3.6483  -3.6459  -3.6271  -3.5122  -3.4515  -3.2594  -2.7725
    -2.0290  -1.8025  -1.6329  -0.9104  -0.2535  -0.1591   0.2874   0.4908
     0.6318   0.8348   1.1634   1.2168   1.2769   1.5075   1.5620   1.5627
     1.6785   1.7518   2.0903   2.1777   2.2824   2.3149   2.5798

          k = 0.0263-0.0789 0.0000 ( 44573 PWs)   bands (ev):

   -42.9479 -42.9441 -42.9369 -42.9332 -42.5211 -42.5169 -22.9347 -22.9246
   -22.9136 -22.9084 -22.8367 -22.8200 -22.8197 -22.8107 -22.8005 -22.7857
   -22.7411 -22.7265 -22.4824 -22.4391 -22.4378 -22.4216 -22.4004 -22.3926
    -4.1360  -4.1242  -4.0962  -4.0751  -4.0688  -4.0642  -4.0468  -4.0446
    -4.0026  -3.9832  -3.9497  -3.9149  -3.9012  -3.8742  -3.8509  -3.8399
    -3.8256  -3.8050  -3.7998  -3.7785  -3.7782  -3.7570  -3.7502  -3.7163
    -3.6894  -3.6643  -3.6636  -3.6579  -3.6038  -3.4492  -3.1635  -2.9311
    -2.1149  -1.7686  -1.7318  -1.0183  -0.3309   0.1286   0.3344   0.6769
     0.7576   0.9795   1.1406   1.3054   1.3374   1.5094   1.6004   1.6443
     1.6468   1.7743   2.1324   2.1453   2.3338   2.3859   2.4512

          k = 0.0263-0.0650 0.0000 ( 44558 PWs)   bands (ev):

   -42.9462 -42.9459 -42.9352 -42.9349 -42.5191 -42.5188 -22.9320 -22.9277
   -22.9109 -22.9100 -22.8350 -22.8233 -22.8157 -22.8118 -22.7715 -22.7700
   -22.7567 -22.7553 -22.4520 -22.4517 -22.4432 -22.4339 -22.3970 -22.3953
    -4.1593  -4.1493  -4.1171  -4.1126  -4.1035  -4.0703  -4.0520  -4.0278
    -4.0050  -3.9959  -3.9545  -3.9181  -3.9046  -3.8678  -3.8616  -3.8467
    -3.8280  -3.8014  -3.7900  -3.7873  -3.7750  -3.7723  -3.7505  -3.7349
    -3.7107  -3.7017  -3.6679  -3.6570  -3.6195  -3.4574  -3.4342  -2.5659
    -2.3852  -1.8574  -1.4794  -1.1490  -0.2778   0.4847   0.4856   0.7649
     0.9228   1.1228   1.1252   1.3795   1.4208   1.4400   1.6273   1.6391
     1.6957   1.9010   2.1431   2.2381   2.2888   2.3516   2.5058

          k = 0.0263-0.0511 0.0000 ( 44578 PWs)   bands (ev):

   -42.9481 -42.9440 -42.9371 -42.9330 -42.5210 -42.5170 -22.9307 -22.9291
   -22.9136 -22.9067 -22.8323 -22.8263 -22.8133 -22.8117 -22.7986 -22.7839
   -22.7420 -22.7273 -22.4818 -22.4470 -22.4303 -22.4212 -22.3979 -22.3934
    -4.1982  -4.1846  -4.1759  -4.1733  -4.1620  -4.0750  -4.0671  -4.0463
    -4.0288  -4.0041  -3.9909  -3.9243  -3.9239  -3.8910  -3.8775  -3.8680
    -3.8609  -3.8517  -3.8249  -3.7987  -3.7939  -3.7775  -3.7574  -3.7544
    -3.7278  -3.7044  -3.6640  -3.5878  -3.5782  -3.5481  -3.4213  -2.5913
    -2.1923  -1.8802  -1.3240  -1.2678  -0.0526   0.6938   0.8653   0.8787
     0.9596   1.0887   1.2415   1.3745   1.4208   1.5232   1.5379   1.5598
     1.7402   2.1218   2.1456   2.1834   2.2572   2.3660   2.5717

          k = 0.0263-0.0372 0.0000 ( 44589 PWs)   bands (ev):

   -42.9500 -42.9421 -42.9390 -42.9312 -42.5229 -42.5152 -22.9335 -22.9261
   -22.9164 -22.9038 -22.8290 -22.8289 -22.8252 -22.8153 -22.8104 -22.8080
   -22.7143 -22.6997 -22.5096 -22.4503 -22.4272 -22.4003 -22.3924 -22.3899
    -4.3085  -4.2380  -4.2268  -4.2130  -4.2005  -4.1439  -4.0902  -4.0847
    -4.0670  -4.0103  -3.9936  -3.9920  -3.9375  -3.9210  -3.9173  -3.8853
    -3.8810  -3.8721  -3.8663  -3.8241  -3.8013  -3.7822  -3.7778  -3.7466
    -3.7204  -3.6555  -3.6464  -3.5971  -3.5093  -3.4769  -3.4173  -2.7296
    -1.8362  -1.8298  -1.3567  -1.2400   0.2866   0.8014   0.9570   0.9888
     1.0069   1.1671   1.3215   1.3601   1.3854   1.4310   1.4541   1.6229
     1.7391   2.0924   2.1558   2.1861   2.3395   2.3527   2.7392

          k = 0.0263-0.0232 0.0000 ( 44578 PWs)   bands (ev):

   -42.9515 -42.9406 -42.9405 -42.9296 -42.5245 -42.5135 -22.9358 -22.9231
   -22.9191 -22.9017 -22.8480 -22.8332 -22.8310 -22.8253 -22.8178 -22.8051
   -22.6904 -22.6758 -22.5333 -22.4527 -22.4249 -22.4025 -22.3869 -22.3675
    -4.4326  -4.2721  -4.2678  -4.2529  -4.2178  -4.2101  -4.1178  -4.0979
    -4.0866  -4.0700  -4.0334  -4.0062  -3.9795  -3.9452  -3.9176  -3.9133
    -3.8959  -3.8734  -3.8517  -3.8429  -3.8079  -3.8061  -3.7694  -3.7334
    -3.6975  -3.6535  -3.5980  -3.5886  -3.4443  -3.4237  -3.4170  -2.8089
    -1.7263  -1.5045  -1.4116  -1.1772   0.6326   0.6361   0.7177   1.0481
     1.1193   1.1604   1.1949   1.3854   1.4144   1.4383   1.4994   1.7141
     1.7961   2.0537   2.0717   2.1524   2.2560   2.5372   2.7903

          k = 0.0394-0.0139 0.0000 ( 44605 PWs)   bands (ev):

   -42.9515 -42.9406 -42.9405 -42.9297 -42.5245 -42.5135 -22.9358 -22.9221
   -22.9201 -22.9027 -22.8485 -22.8336 -22.8305 -22.8224 -22.8212 -22.8062
   -22.6904 -22.6758 -22.5335 -22.4511 -22.4262 -22.4032 -22.3870 -22.3676
    -4.3540  -4.2487  -4.2469  -4.2331  -4.2021  -4.1943  -4.1062  -4.0961
    -4.0631  -4.0593  -4.0188  -3.9948  -3.9740  -3.9575  -3.9278  -3.8988
    -3.8748  -3.8645  -3.8273  -3.8147  -3.8074  -3.8004  -3.7370  -3.7155
    -3.6986  -3.6609  -3.6159  -3.5877  -3.4636  -3.4439  -3.4171  -2.7232
    -1.9314  -1.3702  -1.2887  -1.2305   0.2536   0.5225   0.6367   0.8495
     0.9603   1.1543   1.1943   1.2468   1.3224   1.4521   1.4824   1.7723
     1.9171   1.9601   2.0067   2.0860   2.4325   2.4734   2.5415

          k = 0.0394-0.0000 0.0000 ( 44577 PWs)   bands (ev):

   -42.9526 -42.9417 -42.9394 -42.9285 -42.5258 -42.5122 -22.9379 -22.9225
   -22.9192 -22.9016 -22.8663 -22.8514 -22.8323 -22.8254 -22.8180 -22.8049
   -22.6721 -22.6575 -22.5519 -22.4519 -22.4253 -22.4056 -22.3850 -22.3487
    -4.3747  -4.2565  -4.2467  -4.2372  -4.2246  -4.1989  -4.1089  -4.1068
    -4.0960  -4.0558  -4.0371  -4.0001  -3.9924  -3.9512  -3.9328  -3.9046
    -3.8800  -3.8569  -3.8104  -3.8083  -3.8016  -3.8008  -3.7172  -3.7062
    -3.6848  -3.6621  -3.5956  -3.5730  -3.4956  -3.3973  -3.3706  -2.7254
    -1.7293  -1.3815  -1.1620  -1.0303  -0.0309   0.1065   0.5923   0.7234
     0.7944   1.0014   1.2272   1.2979   1.3217   1.4312   1.6007   1.6530
     1.8214   1.9227   2.0457   2.1347   2.5604   2.6056   2.6429

          k = 0.0394 0.0139 0.0000 ( 44606 PWs)   bands (ev):

   -42.9534 -42.9424 -42.9387 -42.9277 -42.5266 -42.5114 -22.9396 -22.9238
   -22.9172 -22.9009 -22.8778 -22.8628 -22.8344 -22.8286 -22.8143 -22.8046
   -22.6606 -22.6461 -22.5636 -22.4517 -22.4253 -22.4074 -22.3838 -22.3368
    -4.3374  -4.2450  -4.2344  -4.2228  -4.2213  -4.1860  -4.1336  -4.0908
    -4.0883  -4.0559  -4.0379  -4.0051  -3.9649  -3.9591  -3.9062  -3.9060
    -3.8785  -3.8510  -3.8113  -3.7990  -3.7809  -3.7768  -3.7035  -3.6938
    -3.6904  -3.6531  -3.5932  -3.5606  -3.5326  -3.3740  -3.3378  -2.6886
    -1.5082  -1.3845  -1.0841  -0.8214  -0.3351  -0.2966   0.3306   0.5317
     0.7811   0.8030   1.2145   1.2487   1.3036   1.3952   1.5692   1.6635
     1.7410   1.8346   2.0345   2.2959   2.5329   2.5933   2.7179

          k = 0.0394 0.0278 0.0000 ( 44661 PWs)   bands (ev):

   -42.9536 -42.9426 -42.9384 -42.9275 -42.5269 -42.5111 -22.9410 -22.9240
   -22.9163 -22.9007 -22.8820 -22.8670 -22.8374 -22.8300 -22.8119 -22.8050
   -22.6568 -22.6422 -22.5677 -22.4506 -22.4262 -22.4087 -22.3837 -22.3330
    -4.2652  -4.2187  -4.2023  -4.1956  -4.1862  -4.1639  -4.1311  -4.0794
    -4.0644  -4.0500  -4.0183  -4.0055  -3.9689  -3.9094  -3.9004  -3.8826
    -3.8704  -3.8443  -3.8060  -3.7755  -3.7560  -3.7552  -3.7041  -3.7039
    -3.6672  -3.6484  -3.6061  -3.5730  -3.5541  -3.3719  -3.3234  -2.6049
    -1.4131  -1.3726  -1.0479  -0.6869  -0.6611  -0.4920   0.0725   0.4017
     0.5852   0.7315   1.1267   1.1912   1.2400   1.3627   1.4704   1.5555
     1.7543   1.8383   2.0525   2.3610   2.4417   2.5321   2.7724

          k = 0.0394 0.0418 0.0000 ( 44650 PWs)   bands (ev):

   -42.9533 -42.9423 -42.9387 -42.9278 -42.5266 -42.5113 -22.9417 -22.9231
   -22.9164 -22.9010 -22.8788 -22.8638 -22.8404 -22.8297 -22.8112 -22.8055
   -22.6608 -22.6463 -22.5641 -22.4487 -22.4279 -22.4090 -22.3844 -22.3373
    -4.2099  -4.1836  -4.1622  -4.1577  -4.1317  -4.1069  -4.0995  -4.0724
    -4.0414  -4.0198  -4.0156  -3.9801  -3.9632  -3.8903  -3.8869  -3.8584
    -3.8562  -3.8283  -3.7948  -3.7526  -3.7418  -3.7320  -3.7208  -3.6729
    -3.6473  -3.6441  -3.6252  -3.6143  -3.5557  -3.3865  -3.3324  -2.4618
    -1.6069  -1.5167  -1.1187  -0.6824  -0.5513  -0.5312  -0.1759   0.3233
     0.4406   0.6978   1.0419   1.0630   1.2340   1.3428   1.3775   1.4899
     1.6987   1.8984   2.0950   2.2430   2.4248   2.5232   2.6324

          k = 0.0394 0.0557 0.0000 ( 44647 PWs)   bands (ev):

   -42.9525 -42.9415 -42.9395 -42.9285 -42.5258 -42.5121 -22.9416 -22.9212
   -22.9175 -22.9017 -22.8682 -22.8532 -22.8426 -22.8282 -22.8125 -22.8055
   -22.6723 -22.6578 -22.5529 -22.4462 -22.4304 -22.4084 -22.3858 -22.3495
    -4.1580  -4.1460  -4.1281  -4.1217  -4.0909  -4.0721  -4.0592  -4.0319
    -4.0227  -4.0050  -3.9680  -3.9623  -3.9466  -3.9046  -3.8672  -3.8452
    -3.8440  -3.8107  -3.7799  -3.7666  -3.7460  -3.7353  -3.7226  -3.6646
    -3.6559  -3.6551  -3.6130  -3.5767  -3.5014  -3.4100  -3.3675  -2.2512
    -2.0474  -1.6943  -1.3275  -0.6390  -0.4694  -0.3932  -0.2738   0.2560
     0.4012   0.7361   0.9600   1.0249   1.2491   1.3390   1.3487   1.4726
     1.6665   1.9134   2.1555   2.1582   2.3199   2.4650   2.6030

          k = 0.0394-0.0975 0.0000 ( 44634 PWs)   bands (ev):

   -42.9513 -42.9407 -42.9403 -42.9298 -42.5246 -42.5133 -22.9406 -22.9194
   -22.9186 -22.9030 -22.8509 -22.8433 -22.8360 -22.8259 -22.8150 -22.8057
   -22.6905 -22.6759 -22.5347 -22.4432 -22.4335 -22.4068 -22.3877 -22.3686
    -4.1151  -4.1054  -4.0994  -4.0877  -4.0777  -4.0507  -4.0306  -4.0123
    -3.9926  -3.9690  -3.9502  -3.9335  -3.9330  -3.9073  -3.8523  -3.8503
    -3.8304  -3.8163  -3.7926  -3.7654  -3.7565  -3.7508  -3.7414  -3.6920
    -3.6793  -3.6584  -3.6116  -3.5970  -3.4381  -3.4188  -3.2499  -2.5013
    -1.9799  -1.8903  -1.6256  -0.7111  -0.6054  -0.2424   0.0653   0.2296
     0.4333   0.8598   0.8865   1.0943   1.2895   1.3741   1.3929   1.5024
     1.6656   1.8686   2.1361   2.2307   2.2933   2.3556   2.6411

          k = 0.0394-0.0836 0.0000 ( 44606 PWs)   bands (ev):

   -42.9497 -42.9423 -42.9387 -42.9314 -42.5230 -42.5149 -22.9387 -22.9220
   -22.9155 -22.9048 -22.8426 -22.8280 -22.8228 -22.8179 -22.8131 -22.8064
   -22.7139 -22.6993 -22.5107 -22.4399 -22.4369 -22.4042 -22.3931 -22.3900
    -4.1067  -4.1024  -4.0737  -4.0603  -4.0568  -4.0306  -4.0275  -3.9967
    -3.9927  -3.9622  -3.9418  -3.9226  -3.9171  -3.8700  -3.8494  -3.8485
    -3.8271  -3.8115  -3.8105  -3.7753  -3.7647  -3.7590  -3.7535  -3.7224
    -3.7020  -3.6617  -3.6384  -3.6292  -3.5168  -3.4251  -2.9340  -2.9189
    -2.0578  -1.9402  -1.6811  -0.8563  -0.7241   0.0383   0.2765   0.4220
     0.5062   0.8411   1.0230   1.2038   1.3551   1.4778   1.4849   1.5666
     1.7030   1.7729   2.1796   2.2797   2.3257   2.3771   2.4872

          k = 0.0394-0.0697 0.0000 ( 44550 PWs)   bands (ev):

   -42.9478 -42.9442 -42.9369 -42.9332 -42.5211 -42.5168 -22.9360 -22.9248
   -22.9124 -22.9073 -22.8403 -22.8210 -22.8191 -22.8080 -22.8009 -22.7861
   -22.7410 -22.7263 -22.4825 -22.4405 -22.4365 -22.4216 -22.4009 -22.3925
    -4.1275  -4.1224  -4.0662  -4.0565  -4.0453  -4.0441  -4.0393  -4.0281
    -4.0164  -3.9578  -3.9297  -3.9078  -3.8835  -3.8751  -3.8662  -3.8608
    -3.8108  -3.7952  -3.7903  -3.7786  -3.7774  -3.7520  -3.7489  -3.7421
    -3.7037  -3.6984  -3.6692  -3.6613  -3.6085  -3.4181  -3.2675  -2.5897
    -2.2207  -2.1666  -1.4436  -1.0202  -0.6883   0.3565   0.4344   0.5980
     0.7050   0.8550   1.1593   1.2952   1.4466   1.5859   1.6138   1.6160
     1.6643   1.7915   2.2104   2.2673   2.3706   2.3790   2.5207

          k = 0.0394-0.0557 0.0000 ( 44568 PWs)   bands (ev):

   -42.9462 -42.9459 -42.9352 -42.9349 -42.5191 -42.5188 -22.9327 -22.9278
   -22.9103 -22.9093 -22.8368 -22.8238 -22.8153 -22.8102 -22.7716 -22.7699
   -22.7568 -22.7552 -22.4520 -22.4517 -22.4439 -22.4332 -22.3972 -22.3951
    -4.1577  -4.1530  -4.1144  -4.1054  -4.1032  -4.0597  -4.0541  -4.0137
    -4.0116  -3.9854  -3.9430  -3.8952  -3.8920  -3.8918  -3.8915  -3.8480
    -3.8130  -3.7914  -3.7879  -3.7852  -3.7796  -3.7735  -3.7731  -3.7441
    -3.7233  -3.7114  -3.6717  -3.6592  -3.6241  -3.4952  -3.4148  -2.4402
    -2.2737  -2.1708  -1.3503  -1.1626  -0.4300   0.6279   0.6514   0.7295
     0.8527   0.9662   1.2432   1.3607   1.4802   1.5526   1.6118   1.6470
     1.6739   1.9521   2.1328   2.3039   2.3207   2.3486   2.5955

          k = 0.0394-0.0418 0.0000 ( 44578 PWs)   bands (ev):

   -42.9481 -42.9440 -42.9371 -42.9330 -42.5210 -42.5170 -22.9307 -22.9291
   -22.9136 -22.9067 -22.8323 -22.8263 -22.8133 -22.8116 -22.7986 -22.7839
   -22.7420 -22.7273 -22.4818 -22.4470 -22.4303 -22.4212 -22.3979 -22.3934
    -4.1982  -4.1846  -4.1759  -4.1733  -4.1620  -4.0750  -4.0671  -4.0463
    -4.0288  -4.0041  -3.9909  -3.9243  -3.9239  -3.8910  -3.8775  -3.8680
    -3.8609  -3.8517  -3.8249  -3.7987  -3.7939  -3.7775  -3.7574  -3.7544
    -3.7278  -3.7044  -3.6640  -3.5878  -3.5782  -3.5481  -3.4213  -2.5913
    -2.1923  -1.8802  -1.3240  -1.2678  -0.0526   0.6938   0.8653   0.8787
     0.9596   1.0887   1.2415   1.3745   1.4208   1.5232   1.5379   1.5598
     1.7402   2.1218   2.1455   2.1831   2.2572   2.3659   2.5717

          k = 0.0394-0.0279 0.0000 ( 44596 PWs)   bands (ev):

   -42.9499 -42.9422 -42.9390 -42.9312 -42.5229 -42.5151 -22.9334 -22.9254
   -22.9170 -22.9044 -22.8286 -22.8275 -22.8253 -22.8170 -22.8107 -22.8084
   -22.7143 -22.6996 -22.5097 -22.4495 -22.4279 -22.4007 -22.3924 -22.3899
    -4.2808  -4.2287  -4.2201  -4.2074  -4.1933  -4.1362  -4.0912  -4.0848
    -4.0574  -4.0152  -3.9935  -3.9760  -3.9509  -3.9335  -3.8973  -3.8906
    -3.8706  -3.8666  -3.8464  -3.8136  -3.8021  -3.7860  -3.7524  -3.7347
    -3.7165  -3.6590  -3.6541  -3.5954  -3.5095  -3.4767  -3.4382  -2.6814
    -2.0897  -1.5682  -1.3352  -1.2914   0.3293   0.5167   0.8694   1.0192
     1.0446   1.0954   1.1673   1.2622   1.3949   1.4489   1.4850   1.6579
     1.8358   2.0075   2.1554   2.2093   2.3016   2.3027   2.4967

          k = 0.0525-0.0186 0.0000 ( 44577 PWs)   bands (ev):

   -42.9499 -42.9422 -42.9389 -42.9312 -42.5229 -42.5151 -22.9336 -22.9239
   -22.9181 -22.9058 -22.8281 -22.8263 -22.8229 -22.8212 -22.8116 -22.8093
   -22.7142 -22.6996 -22.5099 -22.4473 -22.4298 -22.4015 -22.3924 -22.3899
    -4.2155  -4.2014  -4.1948  -4.1878  -4.1717  -4.1132  -4.0939  -4.0808
    -4.0324  -4.0176  -3.9791  -3.9724  -3.9501  -3.9197  -3.9112  -3.8789
    -3.8576  -3.8473  -3.8146  -3.8065  -3.7866  -3.7700  -3.7247  -3.7142
    -3.6767  -3.6703  -3.6690  -3.5810  -3.5102  -3.4927  -3.4758  -2.5424
    -2.3367  -1.4315  -1.3019  -1.2967   0.1175   0.4484   0.6701   0.7122
     0.7754   1.0933   1.1020   1.2536   1.3026   1.5016   1.5435   1.8029
     1.8348   1.8766   1.9605   2.1301   2.2426   2.4517   2.5599

          k = 0.0525-0.0047 0.0000 ( 44612 PWs)   bands (ev):

   -42.9514 -42.9406 -42.9404 -42.9297 -42.5245 -42.5134 -22.9365 -22.9208
   -22.9205 -22.9040 -22.8493 -22.8344 -22.8313 -22.8256 -22.8178 -22.8079
   -22.6904 -22.6758 -22.5339 -22.4485 -22.4285 -22.4044 -22.3872 -22.3679
    -4.2221  -4.2129  -4.1946  -4.1938  -4.1719  -4.1632  -4.0926  -4.0808
    -4.0403  -4.0259  -3.9921  -3.9915  -3.9733  -3.9384  -3.9216  -3.8863
    -3.8585  -3.8458  -3.8069  -3.7945  -3.7891  -3.7660  -3.7054  -3.6927
    -3.6735  -3.6653  -3.6418  -3.5825  -3.5297  -3.4451  -3.4172  -2.5557
    -2.1376  -1.3466  -1.3406  -1.0562  -0.1613   0.3148   0.4208   0.6466
     0.6723   0.8923   1.1977   1.2005   1.3175   1.4726   1.6035   1.6479
     1.7782   1.8582   2.0439   2.1195   2.3334   2.4494   2.6690

          k = 0.0525 0.0093 0.0000 ( 44614 PWs)   bands (ev):

   -42.9526 -42.9416 -42.9395 -42.9285 -42.5258 -42.5122 -22.9393 -22.9225
   -22.9179 -22.9023 -22.8673 -22.8523 -22.8357 -22.8283 -22.8136 -22.8067
   -22.6722 -22.6576 -22.5524 -22.4490 -22.4279 -22.4070 -22.3854 -22.3491
    -4.2067  -4.2053  -4.1861  -4.1839  -4.1654  -4.1548  -4.0852  -4.0838
    -4.0651  -4.0097  -4.0079  -4.0041  -3.9558  -3.9467  -3.8898  -3.8886
    -3.8627  -3.8357  -3.7937  -3.7919  -3.7681  -3.7507  -3.7071  -3.6734
    -3.6681  -3.6550  -3.6282  -3.5764  -3.5643  -3.4038  -3.3677  -2.5309
    -1.8903  -1.3989  -1.2333  -0.8259  -0.4071  -0.1293   0.1194   0.4861
     0.6534   0.7424   1.1706   1.1943   1.2404   1.4023   1.5107   1.6139
     1.7606   1.7859   2.0947   2.1882   2.4541   2.4905   2.5921

          k = 0.0525 0.0232 0.0000 ( 44650 PWs)   bands (ev):

   -42.9533 -42.9423 -42.9387 -42.9278 -42.5266 -42.5113 -22.9417 -22.9231
   -22.9164 -22.9010 -22.8788 -22.8638 -22.8404 -22.8297 -22.8112 -22.8055
   -22.6608 -22.6463 -22.5641 -22.4487 -22.4279 -22.4090 -22.3844 -22.3373
    -4.2099  -4.1836  -4.1622  -4.1577  -4.1317  -4.1069  -4.0995  -4.0724
    -4.0414  -4.0198  -4.0156  -3.9801  -3.9632  -3.8903  -3.8869  -3.8584
    -3.8562  -3.8283  -3.7948  -3.7527  -3.7418  -3.7320  -3.7208  -3.6729
    -3.6473  -3.6441  -3.6252  -3.6143  -3.5557  -3.3865  -3.3324  -2.4618
    -1.6069  -1.5167  -1.1187  -0.6824  -0.5513  -0.5312  -0.1759   0.3233
     0.4406   0.6979   1.0419   1.0630   1.2340   1.3428   1.3775   1.4899
     1.6988   1.8984   2.0950   2.2430   2.4248   2.5232   2.6325

          k = 0.0525 0.0371 0.0000 ( 44681 PWs)   bands (ev):

   -42.9535 -42.9425 -42.9385 -42.9275 -42.5269 -42.5110 -22.9433 -22.9227
   -22.9159 -22.9000 -22.8831 -22.8680 -22.8444 -22.8300 -22.8110 -22.8040
   -22.6570 -22.6425 -22.5683 -22.4478 -22.4288 -22.4102 -22.3842 -22.3335
    -4.1973  -4.1542  -4.1390  -4.1354  -4.0976  -4.0910  -4.0632  -4.0395
    -4.0214  -4.0201  -3.9989  -3.9632  -3.9461  -3.8752  -3.8490  -3.8474
    -3.8341  -3.8147  -3.7914  -3.7449  -3.7236  -3.7171  -3.7021  -3.6598
    -3.6467  -3.6442  -3.6202  -3.6062  -3.5488  -3.3876  -3.3185  -2.3366
    -1.7134  -1.3890  -1.0644  -1.0077  -0.5615  -0.4499  -0.4190   0.2084
     0.2547   0.6608   0.8887   0.9087   1.2150   1.2497   1.3019   1.4144
     1.6347   1.9994   2.1183   2.1848   2.3469   2.5455   2.6953

          k = 0.0525 0.0510 0.0000 ( 44685 PWs)   bands (ev):

   -42.9532 -42.9422 -42.9387 -42.9278 -42.5266 -42.5113 -22.9440 -22.9214
   -22.9165 -22.8998 -22.8797 -22.8647 -22.8471 -22.8295 -22.8122 -22.8029
   -22.6610 -22.6465 -22.5646 -22.4463 -22.4303 -22.4104 -22.3848 -22.3378
    -4.1672  -4.1233  -4.1199  -4.1079  -4.0679  -4.0600  -4.0489  -4.0243
    -4.0062  -4.0029  -3.9559  -3.9558  -3.9176  -3.8562  -3.8543  -3.8396
    -3.8152  -3.8043  -3.7835  -3.7524  -3.7276  -3.7193  -3.7103  -3.6975
    -3.6512  -3.6494  -3.5836  -3.5530  -3.4377  -3.3998  -3.3303  -2.1448
    -1.9501  -1.7104  -1.1652  -0.8155  -0.7219  -0.4328  -0.3381   0.1384
     0.1864   0.6895   0.7462   0.8254   1.1658   1.2169   1.2855   1.3887
     1.5967   2.0584   2.1140   2.1569   2.2619   2.6049   2.7364

          k = 0.0525-0.1022 0.0000 ( 44645 PWs)   bands (ev):

   -42.9524 -42.9415 -42.9395 -42.9286 -42.5259 -42.5120 -22.9435 -22.9196
   -22.9178 -22.9003 -22.8689 -22.8539 -22.8481 -22.8279 -22.8141 -22.8026
   -22.6725 -22.6579 -22.5532 -22.4443 -22.4323 -22.4094 -22.3861 -22.3498
    -4.1243  -4.0956  -4.0923  -4.0836  -4.0649  -4.0360  -4.0287  -4.0060
    -3.9954  -3.9677  -3.9443  -3.9141  -3.9038  -3.8797  -3.8404  -3.8340
    -3.8292  -3.8149  -3.7735  -3.7552  -3.7480  -3.7403  -3.7344  -3.7153
    -3.6645  -3.6469  -3.5775  -3.5686  -3.4119  -3.3694  -3.1786  -2.1783
    -2.1688  -1.8854  -1.4102  -0.9425  -0.5564  -0.2852  -0.2397   0.1134
     0.2376   0.6298   0.8184   0.8961   1.1500   1.2545   1.3002   1.4115
     1.5878   2.0489   2.0949   2.2063   2.2503   2.5170   2.6923

          k = 0.0525-0.0882 0.0000 ( 44640 PWs)   bands (ev):

   -42.9512 -42.9407 -42.9402 -42.9298 -42.5246 -42.5133 -22.9419 -22.9197
   -22.9173 -22.9018 -22.8514 -22.8472 -22.8364 -22.8256 -22.8163 -22.8034
   -22.6905 -22.6759 -22.5349 -22.4418 -22.4349 -22.4074 -22.3878 -22.3688
    -4.0848  -4.0806  -4.0707  -4.0661  -4.0639  -4.0368  -4.0057  -3.9817
    -3.9716  -3.9370  -3.9308  -3.9177  -3.9137  -3.8741  -3.8573  -3.8417
    -3.8371  -3.8125  -3.7885  -3.7639  -3.7637  -3.7596  -3.7552  -3.7215
    -3.6913  -3.6479  -3.5980  -3.5956  -3.4354  -3.4134  -2.8782  -2.5996
    -2.3594  -1.7094  -1.5841  -1.1028  -0.6608  -0.0018   0.0383   0.1738
     0.3366   0.5701   1.0007   1.0531   1.2355   1.3185   1.3577   1.4784
     1.6138   1.9546   2.1376   2.2706   2.3605   2.4795   2.6536

          k = 0.0525-0.0743 0.0000 ( 44624 PWs)   bands (ev):

   -42.9497 -42.9423 -42.9387 -42.9314 -42.5230 -42.5149 -22.9394 -22.9221
   -22.9148 -22.9042 -22.8445 -22.8282 -22.8225 -22.8186 -22.8133 -22.8052
   -22.7139 -22.6993 -22.5108 -22.4392 -22.4376 -22.4044 -22.3933 -22.3900
    -4.1040  -4.0879  -4.0587  -4.0472  -4.0468  -4.0339  -3.9996  -3.9860
    -3.9850  -3.9374  -3.9316  -3.9225  -3.9172  -3.8650  -3.8565  -3.8535
    -3.8263  -3.7987  -3.7974  -3.7757  -3.7718  -3.7692  -3.7539  -3.7321
    -3.7227  -3.6607  -3.6372  -3.6299  -3.5191  -3.4129  -2.9736  -2.6145
    -2.4190  -1.9914  -1.4053  -1.0445  -0.8510   0.2152   0.2974   0.3947
     0.4646   0.6306   1.1122   1.1992   1.3864   1.4473   1.4649   1.5714
     1.6828   1.8153   2.2171   2.2831   2.4497   2.5279   2.5382

          k = 0.0525-0.0604 0.0000 ( 44550 PWs)   bands (ev):

   -42.9478 -42.9442 -42.9369 -42.9332 -42.5211 -42.5168 -22.9360 -22.9248
   -22.9124 -22.9073 -22.8403 -22.8210 -22.8191 -22.8080 -22.8009 -22.7861
   -22.7410 -22.7263 -22.4825 -22.4405 -22.4365 -22.4216 -22.4009 -22.3925
    -4.1275  -4.1224  -4.0662  -4.0565  -4.0453  -4.0440  -4.0393  -4.0281
    -4.0164  -3.9578  -3.9297  -3.9078  -3.8835  -3.8751  -3.8662  -3.8608
    -3.8108  -3.7952  -3.7903  -3.7786  -3.7774  -3.7520  -3.7489  -3.7421
    -3.7037  -3.6984  -3.6692  -3.6613  -3.6085  -3.4181  -3.2675  -2.5897
    -2.2207  -2.1666  -1.4436  -1.0202  -0.6883   0.3565   0.4344   0.5980
     0.7050   0.8550   1.1593   1.2952   1.4466   1.5859   1.6138   1.6160
     1.6643   1.7915   2.2102   2.2674   2.3706   2.3788   2.5206

          k = 0.0525-0.0464 0.0000 ( 44558 PWs)   bands (ev):

   -42.9462 -42.9459 -42.9352 -42.9349 -42.5191 -42.5188 -22.9320 -22.9277
   -22.9109 -22.9100 -22.8350 -22.8233 -22.8157 -22.8118 -22.7715 -22.7700
   -22.7567 -22.7553 -22.4520 -22.4517 -22.4432 -22.4339 -22.3970 -22.3953
    -4.1593  -4.1493  -4.1171  -4.1126  -4.1035  -4.0703  -4.0520  -4.0278
    -4.0050  -3.9959  -3.9545  -3.9181  -3.9046  -3.8678  -3.8616  -3.8467
    -3.8280  -3.8014  -3.7900  -3.7873  -3.7750  -3.7723  -3.7505  -3.7349
    -3.7107  -3.7017  -3.6679  -3.6570  -3.6195  -3.4574  -3.4342  -2.5659
    -2.3852  -1.8574  -1.4794  -1.1490  -0.2778   0.4847   0.4856   0.7649
     0.9228   1.1228   1.1252   1.3795   1.4208   1.4400   1.6273   1.6391
     1.6957   1.9010   2.1431   2.2381   2.2888   2.3516   2.5058

          k = 0.0525-0.0325 0.0000 ( 44582 PWs)   bands (ev):

   -42.9481 -42.9440 -42.9371 -42.9330 -42.5210 -42.5170 -22.9306 -22.9279
   -22.9147 -22.9078 -22.8291 -22.8256 -22.8163 -22.8125 -22.7989 -22.7842
   -22.7419 -22.7272 -22.4819 -22.4455 -22.4316 -22.4213 -22.3983 -22.3933
    -4.1902  -4.1686  -4.1683  -4.1597  -4.1588  -4.0860  -4.0665  -4.0475
    -4.0247  -4.0161  -3.9778  -3.9481  -3.9147  -3.8759  -3.8698  -3.8690
    -3.8581  -3.8380  -3.8089  -3.7958  -3.7882  -3.7603  -3.7497  -3.7342
    -3.7064  -3.6907  -3.6664  -3.5886  -3.5486  -3.5446  -3.4600  -2.4887
    -2.4812  -1.5684  -1.4755  -1.2381   0.1175   0.3610   0.6256   0.9203
     0.9839   1.0550   1.1237   1.2976   1.3870   1.4645   1.5959   1.6098
     1.7917   2.0051   2.0179   2.1368   2.2889   2.3766   2.5597

          k = 0.0656-0.0232 0.0000 ( 44610 PWs)   bands (ev):

   -42.9480 -42.9440 -42.9370 -42.9331 -42.5210 -42.5170 -22.9311 -22.9261
   -22.9156 -22.9091 -22.8260 -22.8240 -22.8202 -22.8139 -22.7994 -22.7846
   -22.7416 -22.7269 -22.4821 -22.4430 -22.4339 -22.4214 -22.3989 -22.3931
    -4.1699  -4.1635  -4.1438  -4.1429  -4.1255  -4.0986  -4.0711  -4.0524
    -4.0164  -4.0078  -3.9624  -3.9532  -3.8969  -3.8962  -3.8635  -3.8573
    -3.8437  -3.8221  -3.8064  -3.7854  -3.7731  -3.7557  -3.7444  -3.7129
    -3.6876  -3.6769  -3.6623  -3.5903  -3.5303  -3.5235  -3.4318  -2.7473
    -2.2977  -1.7002  -1.2817  -1.2467   0.0666   0.3741   0.4068   0.5646
     0.9445   1.0461   1.0462   1.2477   1.3585   1.5238   1.6282   1.7540
     1.7945   1.8148   1.8441   1.9815   2.3345   2.4701   2.6078

          k = 0.0656-0.0093 0.0000 ( 44609 PWs)   bands (ev):

   -42.9498 -42.9422 -42.9388 -42.9313 -42.5229 -42.5150 -22.9347 -22.9224
   -22.9183 -22.9066 -22.8311 -22.8269 -22.8238 -22.8181 -22.8128 -22.8102
   -22.7141 -22.6995 -22.5102 -22.4445 -22.4323 -22.4026 -22.3926 -22.3899
    -4.1729  -4.1637  -4.1518  -4.1377  -4.1262  -4.0958  -4.0720  -4.0676
    -4.0061  -4.0019  -3.9821  -3.9582  -3.9242  -3.9190  -3.8988  -3.8663
    -3.8360  -3.8342  -3.8127  -3.7936  -3.7690  -3.7462  -3.7291  -3.6908
    -3.6820  -3.6653  -3.6372  -3.5660  -3.5103  -3.4851  -3.4704  -2.5693
    -2.3217  -1.6169  -1.3504  -1.0666  -0.1693   0.2518   0.4263   0.5974
     0.6303   0.8403   1.1805   1.2361   1.3474   1.5368   1.5758   1.6723
     1.6855   1.8093   1.9757   2.1152   2.2604   2.3629   2.6850

          k = 0.0656 0.0046 0.0000 ( 44592 PWs)   bands (ev):

   -42.9513 -42.9407 -42.9404 -42.9297 -42.5246 -42.5134 -22.9384 -22.9202
   -22.9195 -22.9041 -22.8502 -22.8370 -22.8352 -22.8263 -22.8143 -22.8086
   -22.6905 -22.6759 -22.5343 -22.4456 -22.4311 -22.4057 -22.3875 -22.3683
    -4.1652  -4.1456  -4.1443  -4.1328  -4.1196  -4.0855  -4.0678  -4.0503
    -4.0153  -3.9987  -3.9835  -3.9606  -3.9444  -3.9426  -3.8816  -3.8703
    -3.8440  -3.8224  -3.8007  -3.7742  -3.7720  -3.7337  -3.7272  -3.6771
    -3.6687  -3.6407  -3.6153  -3.6021  -3.5072  -3.4441  -3.4185  -2.3354
    -2.3073  -1.4904  -1.4893  -0.8501  -0.3637  -0.0787   0.1539   0.3922
     0.6142   0.7461   1.1513   1.1808   1.2471   1.4386   1.5110   1.5816
     1.7389   1.7554   2.1127   2.1706   2.3071   2.3425   2.6544

          k = 0.0656 0.0185 0.0000 ( 44647 PWs)   bands (ev):

   -42.9525 -42.9415 -42.9395 -42.9285 -42.5258 -42.5121 -22.9416 -22.9212
   -22.9175 -22.9017 -22.8682 -22.8532 -22.8426 -22.8282 -22.8125 -22.8055
   -22.6723 -22.6578 -22.5529 -22.4462 -22.4304 -22.4084 -22.3858 -22.3495
    -4.1580  -4.1461  -4.1281  -4.1217  -4.0909  -4.0721  -4.0592  -4.0320
    -4.0227  -4.0050  -3.9680  -3.9623  -3.9466  -3.9046  -3.8672  -3.8452
    -3.8440  -3.8107  -3.7799  -3.7667  -3.7460  -3.7353  -3.7226  -3.6646
    -3.6559  -3.6551  -3.6130  -3.5767  -3.5014  -3.4100  -3.3675  -2.2512
    -2.0474  -1.6943  -1.3275  -0.6390  -0.4694  -0.3932  -0.2738   0.2560
     0.4012   0.7361   0.9600   1.0249   1.2491   1.3390   1.3487   1.4726
     1.6665   1.9133   2.1555   2.1582   2.3199   2.4650   2.6030

          k = 0.0656 0.0325 0.0000 ( 44685 PWs)   bands (ev):

   -42.9532 -42.9422 -42.9387 -42.9278 -42.5266 -42.5113 -22.9440 -22.9214
   -22.9165 -22.8998 -22.8797 -22.8647 -22.8471 -22.8295 -22.8122 -22.8029
   -22.6610 -22.6465 -22.5646 -22.4463 -22.4303 -22.4104 -22.3848 -22.3378
    -4.1672  -4.1233  -4.1199  -4.1079  -4.0679  -4.0600  -4.0489  -4.0243
    -4.0062  -4.0029  -3.9559  -3.9558  -3.9176  -3.8562  -3.8543  -3.8396
    -3.8152  -3.8043  -3.7835  -3.7524  -3.7277  -3.7193  -3.7103  -3.6975
    -3.6512  -3.6494  -3.5836  -3.5530  -3.4377  -3.3998  -3.3303  -2.1448
    -1.9501  -1.7104  -1.1652  -0.8155  -0.7219  -0.4328  -0.3381   0.1384
     0.1864   0.6895   0.7462   0.8254   1.1658   1.2169   1.2855   1.3887
     1.5967   2.0584   2.1143   2.1569   2.2621   2.6049   2.7674

          k = 0.0656 0.0464 0.0000 ( 44631 PWs)   bands (ev):

   -42.9534 -42.9425 -42.9385 -42.9275 -42.5269 -42.5110 -22.9453 -22.9210
   -22.9163 -22.8987 -22.8839 -22.8687 -22.8501 -22.8298 -22.8127 -22.8012
   -22.6572 -22.6426 -22.5687 -22.4459 -22.4307 -22.4113 -22.3846 -22.3339
    -4.1603  -4.1232  -4.1049  -4.0849  -4.0545  -4.0527  -4.0234  -4.0099
    -4.0064  -3.9862  -3.9507  -3.9301  -3.8842  -3.8409  -3.8351  -3.8323
    -3.8291  -3.7837  -3.7786  -3.7558  -3.7325  -3.7296  -3.7144  -3.6947
    -3.6439  -3.6430  -3.5589  -3.5437  -3.4032  -3.3168  -3.2743  -2.2199
    -1.9768  -1.3963  -1.2242  -1.0843  -0.9998  -0.3322  -0.1606   0.0364
     0.0684   0.5576   0.6266   0.6862   1.0382   1.1922   1.2531   1.3462
     1.5556   2.0503   2.1337   2.1906   2.2075   2.6227   2.6668

          k = 0.0656-0.1068 0.0000 ( 44632 PWs)   bands (ev):

   -42.9532 -42.9422 -42.9388 -42.9278 -42.5266 -42.5112 -22.9454 -22.9201
   -22.9168 -22.8986 -22.8803 -22.8652 -22.8512 -22.8293 -22.8136 -22.8007
   -22.6611 -22.6466 -22.5648 -22.4449 -22.4316 -22.4111 -22.3851 -22.3380
    -4.1382  -4.1136  -4.0906  -4.0645  -4.0530  -4.0386  -4.0272  -4.0055
    -3.9827  -3.9540  -3.9434  -3.9042  -3.8667  -3.8663  -3.8364  -3.8301
    -3.8255  -3.7807  -3.7798  -3.7755  -3.7476  -3.7330  -3.7212  -3.6986
    -3.6488  -3.6385  -3.5498  -3.5488  -3.4097  -3.3302  -3.0399  -2.4602
    -1.7821  -1.7442  -1.2406  -1.2001  -0.8917  -0.1810  -0.1488   0.0318
     0.0532   0.4209   0.6371   0.7650   0.9763   1.2039   1.2512   1.3481
     1.5428   2.0292   2.1464   2.1773   2.2575   2.5288   2.6340

          k = 0.0656-0.0929 0.0000 ( 44664 PWs)   bands (ev):

   -42.9524 -42.9414 -42.9395 -42.9286 -42.5259 -42.5120 -22.9443 -22.9189
   -22.9180 -22.8997 -22.8692 -22.8541 -22.8502 -22.8278 -22.8148 -22.8014
   -22.6725 -22.6579 -22.5533 -22.4436 -22.4330 -22.4098 -22.3862 -22.3499
    -4.1075  -4.0897  -4.0779  -4.0667  -4.0474  -4.0424  -4.0211  -3.9948
    -3.9694  -3.9359  -3.9240  -3.8920  -3.8815  -3.8784  -3.8678  -3.8334
    -3.8167  -3.8065  -3.7870  -3.7728  -3.7578  -3.7450  -3.7369  -3.7058
    -3.6682  -3.6400  -3.5670  -3.5645  -3.4116  -3.3707  -2.8366  -2.5760
    -2.2155  -1.4627  -1.4434  -1.4229  -0.5535  -0.2575  -0.0496   0.0751
     0.1816   0.4037   0.8384   0.9589   0.9740   1.2597   1.2776   1.3945
     1.5607   2.0662   2.0879   2.2220   2.3090   2.5212   2.6033

          k = 0.0656-0.0790 0.0000 ( 44640 PWs)   bands (ev):

   -42.9512 -42.9407 -42.9402 -42.9298 -42.5246 -42.5133 -22.9419 -22.9197
   -22.9173 -22.9018 -22.8514 -22.8472 -22.8364 -22.8256 -22.8163 -22.8034
   -22.6905 -22.6759 -22.5349 -22.4418 -22.4349 -22.4074 -22.3878 -22.3688
    -4.0848  -4.0806  -4.0707  -4.0661  -4.0639  -4.0368  -4.0057  -3.9817
    -3.9716  -3.9370  -3.9308  -3.9177  -3.9137  -3.8741  -3.8573  -3.8417
    -3.8371  -3.8125  -3.7885  -3.7639  -3.7637  -3.7596  -3.7552  -3.7215
    -3.6913  -3.6479  -3.5980  -3.5956  -3.4354  -3.4134  -2.8782  -2.5996
    -2.3594  -1.7094  -1.5841  -1.1028  -0.6608  -0.0018   0.0383   0.1738
     0.3366   0.5701   1.0007   1.0531   1.2355   1.3185   1.3577   1.4784
     1.6138   1.9546   2.1378   2.2705   2.3607   2.4794   2.5987

          k = 0.0656-0.0650 0.0000 ( 44606 PWs)   bands (ev):

   -42.9497 -42.9423 -42.9387 -42.9314 -42.5230 -42.5149 -22.9387 -22.9220
   -22.9155 -22.9048 -22.8426 -22.8280 -22.8228 -22.8179 -22.8131 -22.8064
   -22.7139 -22.6993 -22.5107 -22.4399 -22.4369 -22.4042 -22.3931 -22.3900
    -4.1067  -4.1024  -4.0737  -4.0603  -4.0568  -4.0306  -4.0275  -3.9967
    -3.9927  -3.9622  -3.9418  -3.9226  -3.9171  -3.8700  -3.8494  -3.8485
    -3.8271  -3.8115  -3.8105  -3.7753  -3.7647  -3.7590  -3.7535  -3.7224
    -3.7020  -3.6617  -3.6384  -3.6292  -3.5168  -3.4251  -2.9340  -2.9189
    -2.0578  -1.9402  -1.6811  -0.8563  -0.7241   0.0383   0.2765   0.4220
     0.5062   0.8411   1.0230   1.2038   1.3551   1.4778   1.4849   1.5666
     1.7030   1.7729   2.1796   2.2798   2.3257   2.3773   2.4871

          k = 0.0656-0.0511 0.0000 ( 44573 PWs)   bands (ev):

   -42.9479 -42.9441 -42.9369 -42.9332 -42.5211 -42.5169 -22.9347 -22.9246
   -22.9136 -22.9084 -22.8367 -22.8200 -22.8197 -22.8107 -22.8005 -22.7857
   -22.7411 -22.7265 -22.4824 -22.4391 -22.4378 -22.4216 -22.4004 -22.3926
    -4.1360  -4.1242  -4.0962  -4.0751  -4.0688  -4.0642  -4.0468  -4.0446
    -4.0026  -3.9832  -3.9497  -3.9149  -3.9012  -3.8741  -3.8509  -3.8399
    -3.8256  -3.8050  -3.7998  -3.7785  -3.7782  -3.7570  -3.7502  -3.7163
    -3.6894  -3.6643  -3.6636  -3.6579  -3.6038  -3.4492  -3.1635  -2.9311
    -2.1149  -1.7686  -1.7318  -1.0183  -0.3309   0.1286   0.3344   0.6769
     0.7576   0.9795   1.1406   1.3054   1.3374   1.5093   1.6004   1.6443
     1.6468   1.7743   2.1324   2.1453   2.3343   2.3859   2.4511

          k = 0.0656-0.0372 0.0000 ( 44602 PWs)   bands (ev):

   -42.9461 -42.9459 -42.9351 -42.9350 -42.5191 -42.5188 -22.9304 -22.9277
   -22.9122 -22.9115 -22.8303 -22.8225 -22.8166 -22.8155 -22.7711 -22.7703
   -22.7564 -22.7556 -22.4520 -22.4518 -22.4411 -22.4358 -22.3967 -22.3956
    -4.1597  -4.1384  -4.1355  -4.1137  -4.1031  -4.0907  -4.0604  -4.0547
    -4.0034  -3.9960  -3.9640  -3.9350  -3.9012  -3.8630  -3.8469  -3.8463
    -3.8283  -3.8164  -3.7899  -3.7863  -3.7697  -3.7676  -3.7212  -3.7204
    -3.7055  -3.6772  -3.6613  -3.6602  -3.5966  -3.4835  -3.3311  -2.8682
    -2.2316  -1.7381  -1.5106  -1.1441   0.0504   0.2612   0.2653   0.8168
     0.8741   1.0228   1.2218   1.2442   1.4211   1.4254   1.5854   1.6880
     1.7110   1.8451   1.9993   2.0011   2.4149   2.4248   2.4797

          k =-0.0788 0.0279 0.0000 ( 44578 PWs)   bands (ev):

   -42.9461 -42.9459 -42.9351 -42.9350 -42.5191 -42.5189 -22.9286 -22.9285
   -22.9125 -22.9125 -22.8248 -22.8246 -22.8176 -22.8175 -22.7708 -22.7706
   -22.7560 -22.7559 -22.4520 -22.4518 -22.4385 -22.4383 -22.3963 -22.3960
    -4.1523  -4.1521  -4.1217  -4.1216  -4.1020  -4.1019  -4.0687  -4.0686
    -3.9992  -3.9991  -3.9521  -3.9519  -3.8859  -3.8858  -3.8397  -3.8397
    -3.8249  -3.8248  -3.7879  -3.7878  -3.7678  -3.7678  -3.7095  -3.7094
    -3.6867  -3.6866  -3.6614  -3.6614  -3.5449  -3.5449  -3.1274  -3.1273
    -2.0053  -2.0052  -1.2481  -1.2479   0.1595   0.1595   0.4411   0.4412
     1.0262   1.0262   1.1340   1.1341   1.4683   1.4684   1.7035   1.7035
     1.7370   1.7372   1.8825   1.8826   2.4692   2.4696   2.5465

          k =-0.0788 0.0418 0.0000 ( 44589 PWs)   bands (ev):

   -42.9479 -42.9441 -42.9370 -42.9331 -42.5211 -42.5169 -22.9327 -22.9248
   -22.9151 -22.9094 -22.8309 -22.8205 -22.8198 -22.8141 -22.8000 -22.7852
   -22.7413 -22.7267 -22.4823 -22.4402 -22.4366 -22.4215 -22.3997 -22.3928
    -4.1523  -4.1362  -4.1222  -4.1111  -4.0995  -4.0902  -4.0652  -4.0523
    -4.0032  -3.9940  -3.9666  -3.9256  -3.9108  -3.8780  -3.8592  -3.8490
    -3.8243  -3.8135  -3.8097  -3.7768  -3.7733  -3.7562  -3.7483  -3.6941
    -3.6881  -3.6735  -3.6575  -3.5962  -3.5960  -3.4946  -3.2184  -2.9806
    -2.0374  -1.9287  -1.4219  -1.0855  -0.0214   0.1174   0.2848   0.6933
     0.8203   0.8500   1.1871   1.3264   1.3661   1.4812   1.5892   1.6253
     1.7143   1.7781   1.9490   2.0281   2.3588   2.3873   2.5519

          k =-0.0788 0.0557 0.0000 ( 44600 PWs)   bands (ev):

   -42.9497 -42.9423 -42.9388 -42.9313 -42.5230 -42.5150 -22.9368 -22.9218
   -22.9171 -22.9061 -22.8374 -22.8276 -22.8233 -22.8166 -22.8130 -22.8093
   -22.7140 -22.6994 -22.5105 -22.4418 -22.4350 -22.4036 -22.3929 -22.3900
    -4.1379  -4.1134  -4.1127  -4.0894  -4.0875  -4.0822  -4.0447  -4.0250
    -3.9959  -3.9827  -3.9639  -3.9364  -3.9285  -3.8896  -3.8729  -3.8536
    -3.8246  -3.8183  -3.8091  -3.7885  -3.7582  -3.7519  -3.7500  -3.6912
    -3.6727  -3.6483  -3.6459  -3.6271  -3.5122  -3.4515  -3.2594  -2.7725
    -2.0290  -1.8025  -1.6329  -0.9104  -0.2535  -0.1591   0.2874   0.4908
     0.6318   0.8348   1.1634   1.2168   1.2769   1.5075   1.5620   1.5627
     1.6785   1.7518   2.0903   2.1778   2.2824   2.3150   2.5798

          k =-0.0788 0.0697 0.0000 ( 44634 PWs)   bands (ev):

   -42.9513 -42.9407 -42.9403 -42.9298 -42.5246 -42.5133 -22.9406 -22.9194
   -22.9186 -22.9030 -22.8509 -22.8433 -22.8360 -22.8259 -22.8150 -22.8057
   -22.6905 -22.6759 -22.5347 -22.4432 -22.4335 -22.4068 -22.3877 -22.3686
    -4.1151  -4.1054  -4.0994  -4.0877  -4.0777  -4.0507  -4.0306  -4.0123
    -3.9926  -3.9690  -3.9502  -3.9335  -3.9330  -3.9073  -3.8523  -3.8503
    -3.8304  -3.8163  -3.7926  -3.7654  -3.7565  -3.7508  -3.7414  -3.6920
    -3.6793  -3.6584  -3.6116  -3.5970  -3.4381  -3.4188  -3.2499  -2.5013
    -1.9799  -1.8903  -1.6256  -0.7111  -0.6054  -0.2424   0.0653   0.2296
     0.4333   0.8598   0.8865   1.0943   1.2895   1.3741   1.3929   1.5024
     1.6656   1.8686   2.1367   2.2309   2.2933   2.3556   2.6413

          k =-0.0788 0.0836 0.0000 ( 44645 PWs)   bands (ev):

   -42.9524 -42.9415 -42.9395 -42.9286 -42.5259 -42.5120 -22.9435 -22.9196
   -22.9178 -22.9003 -22.8689 -22.8539 -22.8481 -22.8279 -22.8141 -22.8026
   -22.6725 -22.6579 -22.5532 -22.4443 -22.4323 -22.4094 -22.3861 -22.3498
    -4.1243  -4.0956  -4.0923  -4.0836  -4.0649  -4.0360  -4.0287  -4.0060
    -3.9954  -3.9677  -3.9443  -3.9141  -3.9038  -3.8797  -3.8404  -3.8340
    -3.8292  -3.8149  -3.7735  -3.7552  -3.7480  -3.7403  -3.7344  -3.7153
    -3.6645  -3.6469  -3.5775  -3.5686  -3.4119  -3.3694  -3.1786  -2.1783
    -2.1688  -1.8854  -1.4102  -0.9425  -0.5564  -0.2852  -0.2397   0.1134
     0.2376   0.6298   0.8184   0.8961   1.1500   1.2545   1.3002   1.4115
     1.5878   2.0489   2.0953   2.2063   2.2503   2.5171   2.6918

          k =-0.0788 0.0975 0.0000 ( 44632 PWs)   bands (ev):

   -42.9532 -42.9422 -42.9388 -42.9278 -42.5266 -42.5112 -22.9454 -22.9201
   -22.9168 -22.8986 -22.8803 -22.8652 -22.8512 -22.8293 -22.8136 -22.8007
   -22.6611 -22.6466 -22.5648 -22.4449 -22.4316 -22.4111 -22.3851 -22.3380
    -4.1382  -4.1136  -4.0906  -4.0645  -4.0530  -4.0386  -4.0272  -4.0055
    -3.9827  -3.9540  -3.9434  -3.9042  -3.8667  -3.8663  -3.8364  -3.8301
    -3.8255  -3.7807  -3.7798  -3.7755  -3.7476  -3.7330  -3.7212  -3.6986
    -3.6488  -3.6385  -3.5498  -3.5488  -3.4097  -3.3302  -3.0399  -2.4602
    -1.7821  -1.7442  -1.2406  -1.2001  -0.8917  -0.1810  -0.1488   0.0318
     0.0532   0.4209   0.6371   0.7650   0.9763   1.2039   1.2512   1.3481
     1.5428   2.0291   2.1464   2.1772   2.2571   2.5284   2.6331

          k =-0.0788-0.0557 0.0000 ( 44588 PWs)   bands (ev):

   -42.9534 -42.9424 -42.9385 -42.9275 -42.5269 -42.5109 -22.9460 -22.9203
   -22.9165 -22.8980 -22.8841 -22.8690 -22.8523 -22.8298 -22.8134 -22.8001
   -22.6572 -22.6427 -22.5688 -22.4452 -22.4313 -22.4117 -22.3848 -22.3340
    -4.1421  -4.1241  -4.0899  -4.0553  -4.0491  -4.0403  -4.0238  -4.0132
    -3.9781  -3.9431  -3.9332  -3.8933  -3.8909  -3.8499  -3.8261  -3.8230
    -3.8225  -3.7911  -3.7823  -3.7637  -3.7535  -3.7303  -3.7135  -3.6924
    -3.6415  -3.6351  -3.5418  -3.5384  -3.4110  -3.3165  -2.9179  -2.6311
    -1.6132  -1.4258  -1.3983  -1.3012  -1.0934  -0.1371  -0.0382  -0.0026
     0.0163   0.3274   0.4668   0.7387   0.9167   1.1821   1.2356   1.3266
     1.5281   2.0007   2.1404   2.1624   2.3288   2.4509   2.6600

     the Fermi energy is     1.0040 ev

!    total energy              =   -1015.18259980 Ry
     estimated scf accuracy    <       0.00000919 Ry
     smearing contrib. (-TS)   =      -0.06134989 Ry
     internal energy E=F+TS    =   -1015.12124992 Ry

     The total energy is F=E-TS. E is the sum of the following terms:
     one-electron contribution =   -6577.78320846 Ry
     hartree contribution      =    3328.81269218 Ry
     xc contribution           =    -249.62717503 Ry
     ewald contribution        =    2483.47643826 Ry
     electric field correction =       0.00000313 Ry

     convergence has been achieved in  13 iterations

     negative rho (up, down):  8.080E-05 0.000E+00

     Forces acting on atoms (cartesian axes, Ry/au):

     atom    1 type  1   force =    -0.00000414    0.00000835    0.00993289
     atom    2 type  1   force =     0.00000459   -0.00000547    0.00993651
     atom    3 type  2   force =    -0.00006760   -0.00004802    0.00092592
     atom    4 type  2   force =    -0.00005580   -0.00003697    0.00092906
     atom    5 type  1   force =    -0.00000854    0.00001269   -0.00036393
     atom    6 type  1   force =     0.00002002   -0.00000480   -0.00038070
     atom    7 type  2   force =     0.00002243    0.00002327   -0.00820478
     atom    8 type  2   force =     0.00004180    0.00002151   -0.00820293
     atom    9 type  1   force =     0.00009698    0.00005100   -0.00035029
     atom   10 type  1   force =     0.00001016    0.00002203   -0.00036466
     atom   11 type  2   force =    -0.00001744   -0.00002164   -0.00193608
     atom   12 type  2   force =    -0.00004247   -0.00002196   -0.00192101

     Total force =     0.018486     Total SCF correction =     0.006111
     SCF correction compared to forces is large: reduce conv_thr to get better values

     Writing output data file ./Ag2Y2/Ag2Y2_beef.save/

     init_run     :    163.45s CPU    164.23s WALL (       1 calls)
     electrons    :   3254.33s CPU   3273.99s WALL (       1 calls)
     forces       :     81.54s CPU     81.94s WALL (       1 calls)

     Called by init_run:
     wfcinit      :    148.64s CPU    149.11s WALL (       1 calls)
     potinit      :      9.18s CPU      9.28s WALL (       1 calls)
     hinit0       :      2.79s CPU      2.82s WALL (       1 calls)

     Called by electrons:
     c_bands      :   2853.29s CPU   2864.82s WALL (      13 calls)
     sum_band     :    360.40s CPU    364.73s WALL (      13 calls)
     v_of_rho     :     30.07s CPU     31.69s WALL (      14 calls)
     newd         :     18.55s CPU     20.76s WALL (      14 calls)
     mix_rho      :      0.83s CPU      0.87s WALL (      13 calls)
     vdW_kernel   :      5.88s CPU      5.89s WALL (       1 calls)

     Called by c_bands:
     init_us_2    :     13.03s CPU     13.17s WALL (    2072 calls)
     cegterg      :   2819.86s CPU   2829.49s WALL (     962 calls)

     Called by *egterg:
     cdiaghg      :     84.87s CPU     85.01s WALL (    5081 calls)
     h_psi        :   1491.37s CPU   1498.64s WALL (    5155 calls)
     s_psi        :    482.87s CPU    483.58s WALL (    5155 calls)
     g_psi        :      1.20s CPU      1.22s WALL (    4119 calls)

     Called by h_psi:
     h_psi:calbec :    527.61s CPU    528.78s WALL (    5155 calls)
     vloc_psi     :    473.39s CPU    478.70s WALL (    5155 calls)
     add_vuspsi   :    484.64s CPU    485.35s WALL (    5155 calls)

     General routines
     calbec       :    812.22s CPU    813.99s WALL (    6413 calls)
     fft          :     19.53s CPU     20.42s WALL (     941 calls)
     ffts         :      0.07s CPU      0.07s WALL (      27 calls)
     fftw         :    533.92s CPU    539.83s WALL (  450480 calls)
     interpolate  :      0.32s CPU      0.32s WALL (      14 calls)

     Parallel routines
     fft_scatt_xy :     45.96s CPU     46.34s WALL (  451448 calls)
     fft_scatt_yz :    143.55s CPU    145.88s WALL (  451448 calls)

     PWSCF        :  58m35.69s CPU  59m22.06s WALL


   This run was terminated on:  17:25:32  10Jul2022            

=------------------------------------------------------------------------------=
   JOB DONE.
=------------------------------------------------------------------------------=
