
     Program PWSCF v.6.6 starts on 23Jun2022 at 18:40:34 

     This program is part of the open-source Quantum ESPRESSO suite
     for quantum simulation of materials; please cite
         "P. Giannozzi et al., J. Phys.:Condens. Matter 21 395502 (2009);
         "P. Giannozzi et al., J. Phys.:Condens. Matter 29 465901 (2017);
          URL http://www.quantum-espresso.org", 
     in publications or presentations arising from this work. More details at
     http://www.quantum-espresso.org/quote

     Parallel version (MPI), running on    37 processors

     MPI processes distributed on     4 nodes
     R & G space division:  proc/nbgrp/npool/nimage =      37
     Fft bands division:     nmany     =       1
     Reading input from Cd2Hf2.in
Warning: card &CELL ignored
Warning: card / ignored

     Current dimensions of program PWSCF are:
     Max number of different atomic species (ntypx) = 10
     Max number of k-points (npk) =  40000
     Max angular momentum in pseudopotentials (lmaxx) =  3
     Presently stress not available with electric field and gates

     Message from routine cell_base_init:
     DEPRECATED: use true lattice parameter, not A to a.u. conversion factor
     file Cd.pbe-n-rrkjus_psl.1.0.0.UPF: wavefunction(s)  4D renormalized

     **************************************************************************
     Initializing libbeef V0.1.2 with the BEEF-vdW functional.
     Citation: Wellendorff et al., PRB 85, 235149 (2012).
     **************************************************************************


     IMPORTANT: XC functional enforced from input :
     Exchange-correlation= BEEF-VDW
                           (   1   4  43  14   2   0   0)
     Any further DFT definition will be discarded
     Please, verify this is what you really want


     Subspace diagonalization in iterative solution of the eigenvalue problem:
     a serial algorithm will be used

     Found symmetry operation: I + (  0.5000 -0.0000  0.0000)
     This is a supercell, fractional translations are disabled

     Parallelization info
     --------------------
     sticks:   dense  smooth     PW     G-vecs:    dense   smooth      PW
     Min         142      56     16                33604     8492    1298
     Max         143      57     17                33615     8509    1315
     Sum        5267    2107    595              1243477   314595   48319



     bravais-lattice index     =            0
     lattice parameter (alat)  =       1.8897  a.u.
     unit-cell volume          =    5691.3483 (a.u.)^3
     number of atoms/cell      =           12
     number of atomic types    =            2
     number of electrons       =       144.00
     number of Kohn-Sham states=           86
     kinetic-energy cutoff     =      55.1240  Ry
     charge density cutoff     =     551.2396  Ry
     convergence threshold     =      1.0E-05
     mixing beta               =       0.1000
     number of iterations used =           10  plain     mixing
     Exchange-correlation= BEEF-VDW
                           (   1   4  43  14   2   0   0)

     celldm(1)=   1.889726  celldm(2)=   0.000000  celldm(3)=   0.000000
     celldm(4)=   0.000000  celldm(5)=   0.000000  celldm(6)=   0.000000

     crystal axes: (cart. coord. in units of alat)
               a(1) = (   6.219350   0.000000   0.000000 )  
               a(2) = (  -3.109675   5.405345   0.000000 )  
               a(3) = (   0.000000   0.000000  25.087087 )  

     reciprocal axes: (cart. coord. in units 2 pi/alat)
               b(1) = (  0.160789  0.092501 -0.000000 )  
               b(2) = (  0.000000  0.185002  0.000000 )  
               b(3) = (  0.000000 -0.000000  0.039861 )  


     PseudoPot. # 1 for Cd read from file:
     ../pseudo/Cd.pbe-n-rrkjus_psl.1.0.0.UPF
     MD5 check sum: a744746c89d2344a134ead0d8ab94e7a
     Pseudo is Ultrasoft + core correction, Zval = 12.0
     Generated using "atomic" code by A. Dal Corso v.6.3
     Using radial grid of 1239 points,  6 beta functions with: 
                l(1) =   0
                l(2) =   0
                l(3) =   1
                l(4) =   1
                l(5) =   2
                l(6) =   2
     Q(r) pseudized with 0 coefficients 


     PseudoPot. # 2 for Hf read from file:
     ../pseudo/Hf.pbe-spn-rrkjus_psl.1.0.0.UPF
     MD5 check sum: 9605440c6f839e558204c6a924125fd0
     Pseudo is Ultrasoft + core correction, Zval = 12.0
     Generated using "atomic" code by A. Dal Corso v.6.2.2
     Using radial grid of 1271 points,  6 beta functions with: 
                l(1) =   0
                l(2) =   0
                l(3) =   1
                l(4) =   1
                l(5) =   2
                l(6) =   2
     Q(r) pseudized with 0 coefficients 


     atomic species   valence    mass     pseudopotential
        Cd            12.00   112.41400     Cd( 1.00)
        Hf            12.00   178.49000     Hf( 1.00)

     No symmetry found



   Cartesian axes

     site n.     atom                  positions (alat units)
         1           Cd  tau(   1) = (   0.0000000   0.0000000  10.0000000  )
         2           Cd  tau(   2) = (   0.0000000   5.4053447  10.0000000  )
         3           Hf  tau(   3) = (   1.5548376   2.7026724  10.0000000  )
         4           Hf  tau(   4) = (  -1.5548376   2.7026724  10.0000000  )
         5           Cd  tau(   5) = (   3.1096752   1.7889849  12.5435434  )
         6           Cd  tau(   6) = (   0.0000000   1.7889849  12.5435434  )
         7           Hf  tau(   7) = (  -1.5548376   4.4916572  12.5435434  )
         8           Hf  tau(   8) = (   1.5548376   4.4916572  12.5435434  )
         9           Cd  tau(   9) = (   0.0000032   3.5581029  15.2370330  )
        10           Cd  tau(  10) = (   3.1096529   3.5580867  15.2370414  )
        11           Hf  tau(  11) = (   4.6645107   0.8550576  15.0021876  )
        12           Hf  tau(  12) = (   1.5548350   0.8550555  15.0021862  )

     number of k points=    74  Fermi-Dirac smearing, width (Ry)=  0.0100
                       cart. coord. in units 2pi/alat
        k(    1) = (   0.0000000   0.0000000   0.0000000), wk =   0.0138889
        k(    2) = (   0.0000000   0.0154168   0.0000000), wk =   0.0277778
        k(    3) = (   0.0000000   0.0308337   0.0000000), wk =   0.0277778
        k(    4) = (   0.0000000   0.0462505   0.0000000), wk =   0.0277778
        k(    5) = (   0.0000000   0.0616674   0.0000000), wk =   0.0277778
        k(    6) = (   0.0000000   0.0770842   0.0000000), wk =   0.0277778
        k(    7) = (   0.0000000  -0.0925010   0.0000000), wk =   0.0138889
        k(    8) = (   0.0133990   0.0077084   0.0000000), wk =   0.0277778
        k(    9) = (   0.0133990   0.0231253   0.0000000), wk =   0.0277778
        k(   10) = (   0.0133990   0.0385421   0.0000000), wk =   0.0277778
        k(   11) = (   0.0133990   0.0539589   0.0000000), wk =   0.0277778
        k(   12) = (   0.0133990   0.0693758   0.0000000), wk =   0.0277778
        k(   13) = (   0.0133990   0.0847926   0.0000000), wk =   0.0277778
        k(   14) = (   0.0133990  -0.0847926   0.0000000), wk =   0.0277778
        k(   15) = (   0.0133990  -0.0693758   0.0000000), wk =   0.0277778
        k(   16) = (   0.0133990  -0.0539589   0.0000000), wk =   0.0277778
        k(   17) = (   0.0133990  -0.0385421   0.0000000), wk =   0.0277778
        k(   18) = (   0.0133990  -0.0231253   0.0000000), wk =   0.0277778
        k(   19) = (   0.0133990  -0.0077084   0.0000000), wk =   0.0277778
        k(   20) = (   0.0267981   0.0154168   0.0000000), wk =   0.0277778
        k(   21) = (   0.0267981   0.0308337   0.0000000), wk =   0.0277778
        k(   22) = (   0.0267981   0.0462505   0.0000000), wk =   0.0277778
        k(   23) = (   0.0267981   0.0616674   0.0000000), wk =   0.0277778
        k(   24) = (   0.0267981   0.0770842   0.0000000), wk =   0.0277778
        k(   25) = (   0.0267981   0.0925010   0.0000000), wk =   0.0277778
        k(   26) = (   0.0267981  -0.0770842   0.0000000), wk =   0.0277778
        k(   27) = (   0.0267981  -0.0616674   0.0000000), wk =   0.0277778
        k(   28) = (   0.0267981  -0.0462505   0.0000000), wk =   0.0277778
        k(   29) = (   0.0267981  -0.0308337   0.0000000), wk =   0.0277778
        k(   30) = (   0.0267981  -0.0154168   0.0000000), wk =   0.0277778
        k(   31) = (   0.0267981  -0.0000000   0.0000000), wk =   0.0277778
        k(   32) = (   0.0401971   0.0231253   0.0000000), wk =   0.0277778
        k(   33) = (   0.0401971   0.0385421   0.0000000), wk =   0.0277778
        k(   34) = (   0.0401971   0.0539589   0.0000000), wk =   0.0277778
        k(   35) = (   0.0401971   0.0693758   0.0000000), wk =   0.0277778
        k(   36) = (   0.0401971   0.0847926   0.0000000), wk =   0.0277778
        k(   37) = (   0.0401971   0.1002095   0.0000000), wk =   0.0277778
        k(   38) = (   0.0401971  -0.0693758   0.0000000), wk =   0.0277778
        k(   39) = (   0.0401971  -0.0539589   0.0000000), wk =   0.0277778
        k(   40) = (   0.0401971  -0.0385421   0.0000000), wk =   0.0277778
        k(   41) = (   0.0401971  -0.0231253   0.0000000), wk =   0.0277778
        k(   42) = (   0.0401971  -0.0077084   0.0000000), wk =   0.0277778
        k(   43) = (   0.0401971   0.0077084   0.0000000), wk =   0.0277778
        k(   44) = (   0.0535962   0.0308337   0.0000000), wk =   0.0277778
        k(   45) = (   0.0535962   0.0462505   0.0000000), wk =   0.0277778
        k(   46) = (   0.0535962   0.0616674   0.0000000), wk =   0.0277778
        k(   47) = (   0.0535962   0.0770842   0.0000000), wk =   0.0277778
        k(   48) = (   0.0535962   0.0925010   0.0000000), wk =   0.0277778
        k(   49) = (   0.0535962   0.1079179   0.0000000), wk =   0.0277778
        k(   50) = (   0.0535962  -0.0616674   0.0000000), wk =   0.0277778
        k(   51) = (   0.0535962  -0.0462505   0.0000000), wk =   0.0277778
        k(   52) = (   0.0535962  -0.0308337   0.0000000), wk =   0.0277778
        k(   53) = (   0.0535962  -0.0154168   0.0000000), wk =   0.0277778
        k(   54) = (   0.0535962   0.0000000   0.0000000), wk =   0.0277778
        k(   55) = (   0.0535962   0.0154168   0.0000000), wk =   0.0277778
        k(   56) = (   0.0669952   0.0385421   0.0000000), wk =   0.0277778
        k(   57) = (   0.0669952   0.0539589   0.0000000), wk =   0.0277778
        k(   58) = (   0.0669952   0.0693758   0.0000000), wk =   0.0277778
        k(   59) = (   0.0669952   0.0847926   0.0000000), wk =   0.0277778
        k(   60) = (   0.0669952   0.1002095   0.0000000), wk =   0.0277778
        k(   61) = (   0.0669952   0.1156263   0.0000000), wk =   0.0277778
        k(   62) = (   0.0669952  -0.0539589   0.0000000), wk =   0.0277778
        k(   63) = (   0.0669952  -0.0385421   0.0000000), wk =   0.0277778
        k(   64) = (   0.0669952  -0.0231253   0.0000000), wk =   0.0277778
        k(   65) = (   0.0669952  -0.0077084   0.0000000), wk =   0.0277778
        k(   66) = (   0.0669952   0.0077084   0.0000000), wk =   0.0277778
        k(   67) = (   0.0669952   0.0231253   0.0000000), wk =   0.0277778
        k(   68) = (  -0.0803943  -0.0462505   0.0000000), wk =   0.0138889
        k(   69) = (  -0.0803943  -0.0308337   0.0000000), wk =   0.0277778
        k(   70) = (  -0.0803943  -0.0154168   0.0000000), wk =   0.0277778
        k(   71) = (  -0.0803943   0.0000000   0.0000000), wk =   0.0277778
        k(   72) = (  -0.0803943   0.0154168   0.0000000), wk =   0.0277778
        k(   73) = (  -0.0803943   0.0308337   0.0000000), wk =   0.0277778
        k(   74) = (  -0.0803943  -0.1387516   0.0000000), wk =   0.0138889

     Dense  grid:  1243477 G-vectors     FFT dimensions: (  90,  90, 360)

     Smooth grid:   314595 G-vectors     FFT dimensions: (  60,  60, 225)

     Estimated max dynamical RAM per process >     238.17 MB

     Estimated total dynamical RAM >       8.61 GB

     Initial potential from superposition of free atoms

     starting charge  143.95907, renormalised to  144.00000

     negative rho (up, down):  2.887E-03 0.000E+00


     %%%%%%%%%%%%%%%%%%%%%%%%%%%%%%%%%%%%%%%%%%%%%%%%%%%%%%%%%%%%%%%%%%%%%%%%
     %                                                                      %
     % You are using vdW-DF, which was implemented by the Thonhauser group. %
     % Please cite the following two papers that made this development      %
     % possible and the two reviews that describe the various versions:     %
     %                                                                      %
     %   T. Thonhauser et al., PRL 115, 136402 (2015).                      %
     %   T. Thonhauser et al., PRB 76, 125112 (2007).                       %
     %   K. Berland et al., Rep. Prog. Phys. 78, 066501 (2015).             %
     %   D.C. Langreth et al., J. Phys.: Condens. Matter 21, 084203 (2009). %
     %                                                                      %
     %                                                                      %
     % If you are calculating the stress with vdW-DF, please also cite:     %
     %                                                                      %
     %   R. Sabatini et al., J. Phys.: Condens. Matter 24, 424209 (2012).   %
     %                                                                      %
     %%%%%%%%%%%%%%%%%%%%%%%%%%%%%%%%%%%%%%%%%%%%%%%%%%%%%%%%%%%%%%%%%%%%%%%%



     Adding external electric field

     Computed dipole along edir(3) : 
        Dipole                0.0013 Ry au,          0.0033 Debye
        Dipole field          0.0000 Ry au, 

        Potential amp.       -0.0003 Ry
        Total length         46.2225 bohr

     Starting wfcs are  114 randomized atomic wfcs

     total cpu time spent up to now is      135.4 secs

     Self-consistent Calculation

     iteration #  1     ecut=    55.12 Ry     beta= 0.10
     Davidson diagonalization with overlap
     ethr =  1.00E-02,  avg # of iterations =  2.0

     negative rho (up, down):  2.779E-03 0.000E+00

     Adding external electric field

     Computed dipole along edir(3) : 
        Dipole               -0.1901 Ry au,         -0.4832 Debye
        Dipole field         -0.0004 Ry au, 

        Potential amp.        0.0388 Ry
        Total length         46.2225 bohr


     total cpu time spent up to now is      386.9 secs

     total energy              =   -1364.06954543 Ry
     estimated scf accuracy    <       2.13443229 Ry

     iteration #  2     ecut=    55.12 Ry     beta= 0.10
     Davidson diagonalization with overlap
     ethr =  1.48E-03,  avg # of iterations =  2.6

     negative rho (up, down):  2.771E-03 0.000E+00

     Adding external electric field

     Computed dipole along edir(3) : 
        Dipole                0.4186 Ry au,          1.0640 Debye
        Dipole field          0.0009 Ry au, 

        Potential amp.       -0.0854 Ry
        Total length         46.2225 bohr


     total cpu time spent up to now is      630.3 secs

     total energy              =   -1364.15807685 Ry
     estimated scf accuracy    <       1.21630555 Ry

     iteration #  3     ecut=    55.12 Ry     beta= 0.10
     Davidson diagonalization with overlap
     ethr =  8.45E-04,  avg # of iterations =  2.4

     negative rho (up, down):  2.775E-03 0.000E+00

     Adding external electric field

     Computed dipole along edir(3) : 
        Dipole               -0.0647 Ry au,         -0.1644 Debye
        Dipole field         -0.0001 Ry au, 

        Potential amp.        0.0132 Ry
        Total length         46.2225 bohr


     total cpu time spent up to now is      865.8 secs

     total energy              =   -1364.13942293 Ry
     estimated scf accuracy    <       6.33011967 Ry

     iteration #  4     ecut=    55.12 Ry     beta= 0.10
     Davidson diagonalization with overlap
     ethr =  8.45E-04,  avg # of iterations =  1.4

     negative rho (up, down):  2.794E-03 0.000E+00

     Adding external electric field

     Computed dipole along edir(3) : 
        Dipole               -0.0761 Ry au,         -0.1934 Debye
        Dipole field         -0.0002 Ry au, 

        Potential amp.        0.0155 Ry
        Total length         46.2225 bohr


     total cpu time spent up to now is     1086.9 secs

     total energy              =   -1364.17697632 Ry
     estimated scf accuracy    <       0.25666298 Ry

     iteration #  5     ecut=    55.12 Ry     beta= 0.10
     Davidson diagonalization with overlap
     ethr =  1.78E-04,  avg # of iterations =  5.7

     negative rho (up, down):  2.837E-03 0.000E+00

     Adding external electric field

     Computed dipole along edir(3) : 
        Dipole               -0.0303 Ry au,         -0.0770 Debye
        Dipole field         -0.0001 Ry au, 

        Potential amp.        0.0062 Ry
        Total length         46.2225 bohr


     total cpu time spent up to now is     1348.6 secs

     total energy              =   -1364.19624294 Ry
     estimated scf accuracy    <       0.07120703 Ry

     iteration #  6     ecut=    55.12 Ry     beta= 0.10
     Davidson diagonalization with overlap
     c_bands:  1 eigenvalues not converged
     ethr =  4.94E-05,  avg # of iterations =  8.1

     negative rho (up, down):  2.795E-03 0.000E+00

     Adding external electric field

     Computed dipole along edir(3) : 
        Dipole               -0.0377 Ry au,         -0.0958 Debye
        Dipole field         -0.0001 Ry au, 

        Potential amp.        0.0077 Ry
        Total length         46.2225 bohr


     total cpu time spent up to now is     1726.1 secs

     total energy              =   -1364.20716349 Ry
     estimated scf accuracy    <       0.08503825 Ry

     iteration #  7     ecut=    55.12 Ry     beta= 0.10
     Davidson diagonalization with overlap
     ethr =  4.94E-05,  avg # of iterations =  2.0

     negative rho (up, down):  2.811E-03 0.000E+00

     Adding external electric field

     Computed dipole along edir(3) : 
        Dipole               -0.0366 Ry au,         -0.0930 Debye
        Dipole field         -0.0001 Ry au, 

        Potential amp.        0.0075 Ry
        Total length         46.2225 bohr


     total cpu time spent up to now is     1964.9 secs

     total energy              =   -1364.21596726 Ry
     estimated scf accuracy    <       0.01379721 Ry

     iteration #  8     ecut=    55.12 Ry     beta= 0.10
     Davidson diagonalization with overlap
     c_bands:  1 eigenvalues not converged
     c_bands:  1 eigenvalues not converged
     c_bands:  1 eigenvalues not converged
     c_bands:  1 eigenvalues not converged
     c_bands:  1 eigenvalues not converged
     c_bands:  1 eigenvalues not converged
     c_bands:  1 eigenvalues not converged
     c_bands:  1 eigenvalues not converged
     c_bands:  1 eigenvalues not converged
     c_bands:  1 eigenvalues not converged
     c_bands:  1 eigenvalues not converged
     ethr =  9.58E-06,  avg # of iterations = 13.0

     negative rho (up, down):  2.837E-03 0.000E+00

     Adding external electric field

     Computed dipole along edir(3) : 
        Dipole               -0.0413 Ry au,         -0.1049 Debye
        Dipole field         -0.0001 Ry au, 

        Potential amp.        0.0084 Ry
        Total length         46.2225 bohr


     total cpu time spent up to now is     2299.9 secs

     total energy              =   -1364.21769499 Ry
     estimated scf accuracy    <       0.01088627 Ry

     iteration #  9     ecut=    55.12 Ry     beta= 0.10
     Davidson diagonalization with overlap
     c_bands:  1 eigenvalues not converged
     c_bands:  1 eigenvalues not converged
     ethr =  7.56E-06,  avg # of iterations =  3.1

     negative rho (up, down):  2.823E-03 0.000E+00

     Adding external electric field

     Computed dipole along edir(3) : 
        Dipole               -0.0360 Ry au,         -0.0914 Debye
        Dipole field         -0.0001 Ry au, 

        Potential amp.        0.0073 Ry
        Total length         46.2225 bohr


     total cpu time spent up to now is     2568.1 secs

     total energy              =   -1364.21836486 Ry
     estimated scf accuracy    <       0.00271986 Ry

     iteration # 10     ecut=    55.12 Ry     beta= 0.10
     Davidson diagonalization with overlap
     c_bands:  1 eigenvalues not converged
     c_bands:  1 eigenvalues not converged
     c_bands:  1 eigenvalues not converged
     c_bands:  1 eigenvalues not converged
     c_bands:  1 eigenvalues not converged
     c_bands:  1 eigenvalues not converged
     c_bands:  1 eigenvalues not converged
     c_bands:  1 eigenvalues not converged
     c_bands:  1 eigenvalues not converged
     c_bands:  1 eigenvalues not converged
     c_bands:  1 eigenvalues not converged
     c_bands:  1 eigenvalues not converged
     c_bands:  2 eigenvalues not converged
     c_bands:  2 eigenvalues not converged
     c_bands:  1 eigenvalues not converged
     ethr =  1.89E-06,  avg # of iterations = 12.6

     negative rho (up, down):  2.822E-03 0.000E+00

     Adding external electric field

     Computed dipole along edir(3) : 
        Dipole               -0.0361 Ry au,         -0.0919 Debye
        Dipole field         -0.0001 Ry au, 

        Potential amp.        0.0074 Ry
        Total length         46.2225 bohr


     total cpu time spent up to now is     2923.0 secs

     total energy              =   -1364.21901449 Ry
     estimated scf accuracy    <       0.00277397 Ry

     iteration # 11     ecut=    55.12 Ry     beta= 0.10
     Davidson diagonalization with overlap
     c_bands:  1 eigenvalues not converged
     c_bands:  1 eigenvalues not converged
     c_bands:  1 eigenvalues not converged
     ethr =  1.89E-06,  avg # of iterations =  3.9

     negative rho (up, down):  2.819E-03 0.000E+00

     Adding external electric field

     Computed dipole along edir(3) : 
        Dipole               -0.0417 Ry au,         -0.1060 Debye
        Dipole field         -0.0001 Ry au, 

        Potential amp.        0.0085 Ry
        Total length         46.2225 bohr


     total cpu time spent up to now is     3183.9 secs

     total energy              =   -1364.21912647 Ry
     estimated scf accuracy    <       0.00167404 Ry

     iteration # 12     ecut=    55.12 Ry     beta= 0.10
     Davidson diagonalization with overlap
     ethr =  1.16E-06,  avg # of iterations =  2.1

     negative rho (up, down):  2.804E-03 0.000E+00

     Adding external electric field

     Computed dipole along edir(3) : 
        Dipole               -0.0338 Ry au,         -0.0860 Debye
        Dipole field         -0.0001 Ry au, 

        Potential amp.        0.0069 Ry
        Total length         46.2225 bohr


     total cpu time spent up to now is     3433.7 secs

     total energy              =   -1364.21938967 Ry
     estimated scf accuracy    <       0.00029565 Ry

     iteration # 13     ecut=    55.12 Ry     beta= 0.10
     Davidson diagonalization with overlap
     c_bands:  1 eigenvalues not converged
     ethr =  2.05E-07,  avg # of iterations =  7.2

     negative rho (up, down):  2.793E-03 0.000E+00

     Adding external electric field

     Computed dipole along edir(3) : 
        Dipole               -0.0352 Ry au,         -0.0894 Debye
        Dipole field         -0.0001 Ry au, 

        Potential amp.        0.0072 Ry
        Total length         46.2225 bohr


     total cpu time spent up to now is     3725.7 secs

     total energy              =   -1364.21943042 Ry
     estimated scf accuracy    <       0.00025342 Ry

     iteration # 14     ecut=    55.12 Ry     beta= 0.10
     Davidson diagonalization with overlap
     ethr =  1.76E-07,  avg # of iterations =  1.9

     negative rho (up, down):  2.781E-03 0.000E+00

     Adding external electric field

     Computed dipole along edir(3) : 
        Dipole               -0.0369 Ry au,         -0.0939 Debye
        Dipole field         -0.0001 Ry au, 

        Potential amp.        0.0075 Ry
        Total length         46.2225 bohr


     total cpu time spent up to now is     3956.5 secs

     total energy              =   -1364.21943836 Ry
     estimated scf accuracy    <       0.00003434 Ry

     iteration # 15     ecut=    55.12 Ry     beta= 0.10
     Davidson diagonalization with overlap
     ethr =  2.38E-08,  avg # of iterations =  7.5

     negative rho (up, down):  2.771E-03 0.000E+00

     Adding external electric field

     Computed dipole along edir(3) : 
        Dipole               -0.0374 Ry au,         -0.0951 Debye
        Dipole field         -0.0001 Ry au, 

        Potential amp.        0.0076 Ry
        Total length         46.2225 bohr


     total cpu time spent up to now is     4294.2 secs

     total energy              =   -1364.21944735 Ry
     estimated scf accuracy    <       0.00001348 Ry

     iteration # 16     ecut=    55.12 Ry     beta= 0.10
     Davidson diagonalization with overlap
     ethr =  9.36E-09,  avg # of iterations =  2.0

     negative rho (up, down):  2.763E-03 0.000E+00

     Adding external electric field

     Computed dipole along edir(3) : 
        Dipole               -0.0374 Ry au,         -0.0951 Debye
        Dipole field         -0.0001 Ry au, 

        Potential amp.        0.0076 Ry
        Total length         46.2225 bohr


     total cpu time spent up to now is     4538.8 secs

     total energy              =   -1364.21944927 Ry
     estimated scf accuracy    <       0.00001059 Ry

     iteration # 17     ecut=    55.12 Ry     beta= 0.10
     Davidson diagonalization with overlap
     ethr =  7.35E-09,  avg # of iterations =  4.8

     negative rho (up, down):  2.730E-03 0.000E+00

     Adding external electric field

     Computed dipole along edir(3) : 
        Dipole               -0.0476 Ry au,         -0.1209 Debye
        Dipole field         -0.0001 Ry au, 

        Potential amp.        0.0097 Ry
        Total length         46.2225 bohr


     total cpu time spent up to now is     4798.8 secs

     End of self-consistent calculation

          k = 0.0000 0.0000 0.0000 ( 39213 PWs)   bands (ev):

   -61.9503 -61.9265 -61.8592 -61.8353 -61.4425 -61.4181 -30.5498 -30.5001
   -30.4700 -30.4644 -30.4270 -30.4136 -30.4067 -30.3760 -30.3426 -30.2916
   -30.0899 -30.0807 -30.0274 -30.0059 -29.9400 -29.7803 -29.7325 -29.6151
    -8.0980  -8.0561  -7.9915  -7.9711  -7.9378  -7.9050  -7.8984  -7.8411
    -7.8397  -7.7802  -7.7467  -7.7098  -7.6460  -7.5924  -7.5563  -7.5390
    -7.4786  -7.4744  -7.4720  -7.4496  -7.4189  -7.4060  -7.3883  -7.3610
    -7.3472  -7.2891  -7.2646  -7.2246  -7.1566  -6.9743  -6.3722  -4.8103
    -3.0452  -2.2489  -1.4561  -1.3361  -0.9496  -0.8952  -0.5636  -0.2956
    -0.2779   0.1209   0.3974   0.4780   0.8169   0.8969   1.0809   1.1630
     1.2654   1.3554   1.4639   1.6441   1.7311   1.9016   2.3685   2.4567
     2.6106   2.8456   2.9720   3.0357   3.3208   3.7580

          k = 0.0000 0.0154 0.0000 ( 39200 PWs)   bands (ev):

   -61.9503 -61.9265 -61.8592 -61.8353 -61.4425 -61.4181 -30.5499 -30.5001
   -30.4700 -30.4644 -30.4272 -30.4135 -30.4067 -30.3760 -30.3427 -30.2916
   -30.0899 -30.0807 -30.0275 -30.0059 -29.9400 -29.7804 -29.7325 -29.6151
    -8.0968  -8.0500  -7.9911  -7.9634  -7.9374  -7.8968  -7.8920  -7.8371
    -7.8349  -7.7755  -7.7474  -7.7109  -7.6397  -7.5918  -7.5530  -7.5394
    -7.4814  -7.4718  -7.4706  -7.4423  -7.4130  -7.4046  -7.3869  -7.3629
    -7.3458  -7.2893  -7.2664  -7.2246  -7.1562  -6.9743  -6.3270  -4.7708
    -3.0272  -2.2276  -1.4572  -1.3893  -1.3097  -0.8775  -0.7596  -0.2707
    -0.0495   0.0861   0.4162   0.4765   0.6390   0.8548   1.0521   1.1150
     1.2876   1.2946   1.4003   1.6348   1.6669   1.8866   2.3430   2.5831
     2.6678   2.8347   3.0155   3.0865   3.2745   3.9845

          k = 0.0000 0.0308 0.0000 ( 39290 PWs)   bands (ev):

   -61.9503 -61.9265 -61.8592 -61.8353 -61.4425 -61.4181 -30.5501 -30.5001
   -30.4702 -30.4646 -30.4277 -30.4136 -30.4069 -30.3761 -30.3431 -30.2917
   -30.0900 -30.0809 -30.0277 -30.0060 -29.9400 -29.7805 -29.7326 -29.6152
    -8.0936  -8.0334  -7.9902  -7.9422  -7.9366  -7.8750  -7.8737  -7.8253
    -7.8219  -7.7626  -7.7491  -7.7139  -7.6232  -7.5901  -7.5444  -7.5403
    -7.4828  -7.4668  -7.4661  -7.4308  -7.4009  -7.3949  -7.3833  -7.3683
    -7.3423  -7.2900  -7.2713  -7.2245  -7.1553  -6.9742  -6.1902  -4.6527
    -3.0024  -2.1653  -1.9000  -1.4554  -1.2948  -1.2372  -1.0857  -0.1601
     0.0022   0.0356   0.3258   0.4370   0.4614   0.7170   1.0274   1.0337
     1.0661   1.2318   1.3324   1.5046   1.6113   1.9099   2.3305   2.6304
     2.8790   2.8879   2.9451   3.2760   3.3982   3.9274

          k = 0.0000 0.0463 0.0000 ( 39336 PWs)   bands (ev):

   -61.9503 -61.9265 -61.8592 -61.8353 -61.4425 -61.4181 -30.5503 -30.5001
   -30.4704 -30.4648 -30.4283 -30.4135 -30.4071 -30.3761 -30.3436 -30.2917
   -30.0902 -30.0810 -30.0280 -30.0061 -29.9401 -29.7806 -29.7327 -29.6153
    -8.0892  -8.0111  -7.9887  -7.9356  -7.9125  -7.8525  -7.8402  -7.8068
    -7.8038  -7.7528  -7.7429  -7.7185  -7.6031  -7.5877  -7.5410  -7.5336
    -7.4785  -7.4617  -7.4612  -7.4208  -7.3960  -7.3783  -7.3758  -7.3695
    -7.3373  -7.2910  -7.2779  -7.2244  -7.1543  -6.9740  -5.9605  -4.4598
    -3.1262  -2.2343  -2.0686  -1.6670  -1.5763  -1.4475  -1.1270  -0.2591
    -0.1926  -0.0881   0.0996   0.4035   0.4667   0.5698   0.7228   0.9626
     0.9962   1.0799   1.2842   1.3082   1.6753   1.9994   2.3626   2.6830
     2.7082   3.0221   3.1424   3.3608   3.7952   3.8547

          k = 0.0000 0.0617 0.0000 ( 39362 PWs)   bands (ev):

   -61.9502 -61.9265 -61.8592 -61.8353 -61.4425 -61.4181 -30.5506 -30.5001
   -30.4707 -30.4650 -30.4290 -30.4135 -30.4074 -30.3761 -30.3440 -30.2918
   -30.0904 -30.0811 -30.0284 -30.0061 -29.9402 -29.7807 -29.7328 -29.6153
    -8.0848  -7.9893  -7.9871  -7.9347  -7.8817  -7.8317  -7.8035  -7.7848
    -7.7848  -7.7547  -7.7243  -7.7240  -7.5885  -7.5851  -7.5406  -7.5241
    -7.4705  -7.4583  -7.4566  -7.4128  -7.3910  -7.3834  -7.3732  -7.3452
    -7.3322  -7.2919  -7.2838  -7.2242  -7.1539  -6.9737  -5.6406  -4.2245
    -3.5153  -2.3279  -1.9731  -1.9566  -1.9540  -1.4362  -0.9882  -0.5813
    -0.4598  -0.1461  -0.0896   0.2877   0.3514   0.4260   0.6001   0.7267
     0.8963   1.1323   1.1375   1.2121   1.7997   2.0821   2.4302   2.5778
     2.7500   3.1934   3.2120   3.4721   3.7876   4.0629

          k = 0.0000 0.0771 0.0000 ( 39380 PWs)   bands (ev):

   -61.9502 -61.9265 -61.8591 -61.8353 -61.4425 -61.4181 -30.5507 -30.5001
   -30.4709 -30.4652 -30.4294 -30.4135 -30.4075 -30.3762 -30.3444 -30.2919
   -30.0906 -30.0812 -30.0286 -30.0061 -29.9402 -29.7808 -29.7329 -29.6154
    -8.0815  -7.9857  -7.9738  -7.9341  -7.8577  -7.8182  -7.7736  -7.7700
    -7.7656  -7.7564  -7.7292  -7.7099  -7.5844  -7.5830  -7.5388  -7.5183
    -7.4627  -7.4565  -7.4530  -7.4076  -7.3889  -7.3874  -7.3695  -7.3291
    -7.3284  -7.2925  -7.2867  -7.2241  -7.1541  -6.9735  -5.2420  -4.2781
    -3.6457  -2.7503  -2.1401  -1.8539  -1.8187  -1.4263  -0.9970  -0.8438
    -0.6387  -0.2243  -0.1521   0.0388   0.1899   0.4109   0.4880   0.6494
     0.8381   1.0245   1.1551   1.1658   1.9124   2.1057   2.4938   2.5255
     2.8311   3.1400   3.3812   3.5791   3.7409   3.9874

          k = 0.0000-0.0925 0.0000 ( 39410 PWs)   bands (ev):

   -61.9502 -61.9265 -61.8591 -61.8353 -61.4425 -61.4181 -30.5508 -30.5001
   -30.4709 -30.4653 -30.4296 -30.4135 -30.4076 -30.3762 -30.3445 -30.2919
   -30.0907 -30.0813 -30.0287 -30.0062 -29.9402 -29.7808 -29.7329 -29.6154
    -8.0803  -7.9852  -7.9682  -7.9338  -7.8483  -7.8141  -7.7650  -7.7610
    -7.7573  -7.7570  -7.7319  -7.7045  -7.5849  -7.5822  -7.5380  -7.5165
    -7.4595  -7.4557  -7.4516  -7.4058  -7.3908  -7.3862  -7.3681  -7.3271
    -7.3240  -7.2928  -7.2869  -7.2240  -7.1543  -6.9733  -4.8734  -4.6450
    -3.3888  -3.1148  -2.2029  -1.8128  -1.5582  -1.4222  -1.3205  -0.7670
    -0.7006  -0.2726  -0.1375  -0.0996   0.1563   0.3821   0.4065   0.6728
     0.8102   0.9849   1.1504   1.1604   1.9626   2.0984   2.5170   2.5185
     2.8872   3.0853   3.4549   3.6303   3.7242   3.9607

          k = 0.0134 0.0077 0.0000 ( 39181 PWs)   bands (ev):

   -61.9499 -61.9269 -61.8588 -61.8357 -61.4421 -61.4185 -30.5490 -30.5009
   -30.4635 -30.4623 -30.4262 -30.4144 -30.3990 -30.3769 -30.3418 -30.2925
   -30.0821 -30.0798 -30.0283 -30.0142 -29.9483 -29.7796 -29.7333 -29.6235
    -8.0850  -8.0460  -7.9766  -7.9609  -7.9229  -7.8986  -7.8890  -7.8348
    -7.8326  -7.7783  -7.7493  -7.7034  -7.6417  -7.5864  -7.5554  -7.5387
    -7.4805  -7.4802  -7.4721  -7.4483  -7.4185  -7.4136  -7.3959  -7.3608
    -7.3536  -7.2979  -7.2739  -7.2314  -7.1689  -6.9884  -6.3263  -4.7703
    -3.0196  -2.3800  -1.6378  -1.3843  -1.1053  -0.7315  -0.5224  -0.2663
    -0.1096   0.1219   0.4156   0.4965   0.7500   0.8894   1.0569   1.1808
     1.2700   1.3730   1.4171   1.6390   1.6896   1.8926   2.2310   2.4647
     2.5528   2.9398   3.0141   3.0437   3.2502   3.7928

          k = 0.0134 0.0231 0.0000 ( 39303 PWs)   bands (ev):

   -61.9499 -61.9269 -61.8588 -61.8357 -61.4421 -61.4185 -30.5491 -30.5009
   -30.4637 -30.4625 -30.4265 -30.4144 -30.3991 -30.3769 -30.3420 -30.2925
   -30.0822 -30.0799 -30.0285 -30.0142 -29.9483 -29.7796 -29.7334 -29.6236
    -8.0829  -8.0345  -7.9761  -7.9462  -7.9222  -7.8833  -7.8771  -7.8257
    -7.8248  -7.7694  -7.7506  -7.7055  -7.6303  -7.5853  -7.5494  -7.5393
    -7.4839  -7.4781  -7.4677  -7.4373  -7.4115  -7.4067  -7.3936  -7.3643
    -7.3516  -7.2983  -7.2776  -7.2313  -7.1682  -6.9884  -6.2351  -4.6911
    -2.9904  -2.3780  -1.6662  -1.6145  -1.3403  -0.8467  -0.8413  -0.1681
     0.0123   0.1496   0.4350   0.4455   0.4904   0.8040   1.0398   1.1000
     1.1906   1.3112   1.3177   1.6179   1.6344   1.8920   2.2409   2.5329
     2.7620   2.9311   2.9824   3.2126   3.2437   3.9240

          k = 0.0134 0.0385 0.0000 ( 39314 PWs)   bands (ev):

   -61.9499 -61.9269 -61.8588 -61.8357 -61.4421 -61.4185 -30.5493 -30.5009
   -30.4639 -30.4627 -30.4271 -30.4144 -30.3993 -30.3770 -30.3425 -30.2926
   -30.0823 -30.0800 -30.0288 -30.0142 -29.9483 -29.7797 -29.7335 -29.6236
    -8.0791  -8.0146  -7.9750  -7.9213  -7.9204  -7.8568  -7.8552  -7.8098
    -7.8096  -7.7556  -7.7511  -7.7092  -7.6117  -7.5833  -7.5400  -7.5396
    -7.4825  -7.4748  -7.4618  -7.4265  -7.4080  -7.3897  -7.3843  -7.3706
    -7.3479  -7.2990  -7.2839  -7.2312  -7.1673  -6.9884  -6.0516  -4.5344
    -3.0087  -2.3989  -2.0723  -1.7023  -1.2928  -1.2889  -1.0553  -0.1358
    -0.0853   0.0467   0.1797   0.4508   0.4881   0.6459   0.9189   1.0009
     1.0191   1.1755   1.3228   1.4714   1.6317   1.9539   2.2757   2.5913
     2.7711   3.0264   3.0592   3.3065   3.5705   3.8662

          k = 0.0134 0.0540 0.0000 ( 39333 PWs)   bands (ev):

   -61.9498 -61.9269 -61.8587 -61.8357 -61.4421 -61.4185 -30.5496 -30.5009
   -30.4641 -30.4629 -30.4277 -30.4144 -30.3996 -30.3770 -30.3429 -30.2927
   -30.0826 -30.0802 -30.0291 -30.0143 -29.9484 -29.7798 -29.7336 -29.6237
    -8.0747  -7.9921  -7.9734  -7.9205  -7.8896  -7.8346  -7.8200  -7.7904
    -7.7894  -7.7560  -7.7351  -7.7139  -7.5939  -7.5807  -7.5403  -7.5295
    -7.4761  -7.4711  -7.4573  -7.4176  -7.4041  -7.3854  -7.3777  -7.3590
    -7.3434  -7.2997  -7.2909  -7.2310  -7.1666  -6.9883  -5.7765  -4.3121
    -3.2773  -2.4717  -2.2449  -1.7811  -1.7094  -1.3324  -1.0449  -0.3629
    -0.2436  -0.1970   0.0311   0.3714   0.4672   0.5865   0.6080   0.8841
     0.9502   1.1140   1.2622   1.2919   1.7398   2.0428   2.3585   2.6257
     2.6568   3.1535   3.2045   3.4042   3.7994   3.9399

          k = 0.0134 0.0694 0.0000 ( 39348 PWs)   bands (ev):

   -61.9498 -61.9269 -61.8587 -61.8357 -61.4421 -61.4185 -30.5498 -30.5009
   -30.4643 -30.4631 -30.4283 -30.4144 -30.3998 -30.3771 -30.3433 -30.2927
   -30.0827 -30.0803 -30.0294 -30.0143 -29.9484 -29.7800 -29.7337 -29.6238
    -8.0708  -7.9730  -7.9718  -7.9199  -7.8614  -7.8171  -7.7861  -7.7730
    -7.7690  -7.7572  -7.7232  -7.7149  -7.5848  -7.5783  -7.5394  -7.5221
    -7.4676  -7.4671  -7.4551  -7.4110  -7.4006  -7.3858  -7.3801  -7.3395
    -7.3389  -7.3003  -7.2955  -7.2309  -7.1666  -6.9882  -5.4166  -4.1433
    -3.6328  -2.5725  -2.4878  -1.9023  -1.6828  -1.3729  -0.9369  -0.7510
    -0.4334  -0.3103  -0.0824   0.2548   0.2576   0.4458   0.6651   0.6863
     0.8871   1.0959   1.1781   1.2095   1.8665   2.0941   2.4479   2.5442
     2.7355   3.1458   3.3621   3.5089   3.7400   3.9621

          k = 0.0134 0.0848 0.0000 ( 39350 PWs)   bands (ev):

   -61.9498 -61.9269 -61.8587 -61.8357 -61.4421 -61.4185 -30.5499 -30.5009
   -30.4644 -30.4633 -30.4286 -30.4144 -30.3999 -30.3771 -30.3436 -30.2928
   -30.0828 -30.0803 -30.0296 -30.0143 -29.9484 -29.7800 -29.7337 -29.6238
    -8.0686  -7.9709  -7.9621  -7.9195  -7.8438  -7.8084  -7.7643  -7.7624
    -7.7616  -7.7513  -7.7252  -7.7074  -7.5840  -7.5768  -7.5383  -7.5184
    -7.4634  -7.4616  -7.4551  -7.4075  -7.3983  -7.3893  -7.3782  -7.3371
    -7.3298  -7.3006  -7.2958  -7.2308  -7.1671  -6.9882  -4.9963  -4.4602
    -3.4602  -2.9526  -2.6412  -1.6633  -1.6273  -1.3725  -1.1649  -0.8558
    -0.4970  -0.3976  -0.1147   0.0263   0.1911   0.4379   0.5443   0.7089
     0.8389   1.0442   1.1599   1.1824   1.9588   2.0923   2.5006   2.5208
     2.8251   3.0655   3.4796   3.5930   3.6992   3.8951

          k = 0.0134-0.0848 0.0000 ( 39350 PWs)   bands (ev):

   -61.9498 -61.9269 -61.8587 -61.8357 -61.4421 -61.4185 -30.5499 -30.5009
   -30.4644 -30.4633 -30.4286 -30.4144 -30.3999 -30.3771 -30.3436 -30.2928
   -30.0828 -30.0803 -30.0296 -30.0143 -29.9484 -29.7800 -29.7337 -29.6238
    -8.0686  -7.9709  -7.9621  -7.9195  -7.8438  -7.8084  -7.7643  -7.7624
    -7.7616  -7.7513  -7.7252  -7.7074  -7.5840  -7.5768  -7.5383  -7.5184
    -7.4634  -7.4616  -7.4551  -7.4075  -7.3983  -7.3893  -7.3782  -7.3371
    -7.3298  -7.3006  -7.2958  -7.2308  -7.1671  -6.9882  -4.9963  -4.4602
    -3.4602  -2.9526  -2.6412  -1.6633  -1.6273  -1.3725  -1.1649  -0.8558
    -0.4970  -0.3976  -0.1147   0.0263   0.1911   0.4379   0.5443   0.7089
     0.8389   1.0442   1.1599   1.1824   1.9588   2.0923   2.5006   2.5208
     2.8251   3.0654   3.4796   3.5931   3.6994   3.8955

          k = 0.0134-0.0694 0.0000 ( 39348 PWs)   bands (ev):

   -61.9498 -61.9269 -61.8587 -61.8357 -61.4421 -61.4185 -30.5498 -30.5009
   -30.4643 -30.4631 -30.4283 -30.4144 -30.3998 -30.3771 -30.3433 -30.2927
   -30.0827 -30.0803 -30.0294 -30.0143 -29.9484 -29.7800 -29.7337 -29.6238
    -8.0708  -7.9730  -7.9718  -7.9199  -7.8614  -7.8171  -7.7861  -7.7730
    -7.7690  -7.7572  -7.7232  -7.7149  -7.5848  -7.5783  -7.5394  -7.5221
    -7.4676  -7.4671  -7.4551  -7.4110  -7.4006  -7.3858  -7.3801  -7.3395
    -7.3389  -7.3003  -7.2955  -7.2309  -7.1666  -6.9882  -5.4166  -4.1433
    -3.6328  -2.5725  -2.4878  -1.9023  -1.6828  -1.3729  -0.9369  -0.7510
    -0.4334  -0.3103  -0.0824   0.2548   0.2576   0.4458   0.6651   0.6863
     0.8871   1.0959   1.1781   1.2095   1.8665   2.0942   2.4479   2.5442
     2.7355   3.1458   3.3621   3.5089   3.7400   3.9621

          k = 0.0134-0.0540 0.0000 ( 39333 PWs)   bands (ev):

   -61.9498 -61.9269 -61.8587 -61.8357 -61.4421 -61.4185 -30.5496 -30.5009
   -30.4641 -30.4629 -30.4277 -30.4144 -30.3996 -30.3770 -30.3429 -30.2927
   -30.0826 -30.0802 -30.0291 -30.0143 -29.9484 -29.7798 -29.7336 -29.6237
    -8.0747  -7.9921  -7.9734  -7.9205  -7.8896  -7.8346  -7.8200  -7.7904
    -7.7894  -7.7560  -7.7351  -7.7139  -7.5939  -7.5807  -7.5403  -7.5295
    -7.4761  -7.4711  -7.4573  -7.4176  -7.4041  -7.3854  -7.3777  -7.3590
    -7.3434  -7.2997  -7.2909  -7.2310  -7.1666  -6.9883  -5.7765  -4.3121
    -3.2773  -2.4717  -2.2449  -1.7811  -1.7094  -1.3324  -1.0449  -0.3629
    -0.2436  -0.1970   0.0311   0.3714   0.4672   0.5865   0.6080   0.8841
     0.9502   1.1140   1.2622   1.2919   1.7398   2.0428   2.3585   2.6257
     2.6568   3.1535   3.2045   3.4042   3.7994   3.9400

          k = 0.0134-0.0385 0.0000 ( 39314 PWs)   bands (ev):

   -61.9499 -61.9269 -61.8588 -61.8357 -61.4421 -61.4185 -30.5493 -30.5009
   -30.4639 -30.4627 -30.4271 -30.4144 -30.3993 -30.3770 -30.3425 -30.2926
   -30.0823 -30.0800 -30.0288 -30.0142 -29.9483 -29.7797 -29.7335 -29.6236
    -8.0791  -8.0146  -7.9750  -7.9213  -7.9204  -7.8568  -7.8552  -7.8098
    -7.8096  -7.7556  -7.7511  -7.7092  -7.6117  -7.5833  -7.5400  -7.5396
    -7.4825  -7.4747  -7.4618  -7.4265  -7.4080  -7.3897  -7.3843  -7.3706
    -7.3479  -7.2990  -7.2839  -7.2312  -7.1673  -6.9884  -6.0516  -4.5344
    -3.0087  -2.3989  -2.0723  -1.7023  -1.2928  -1.2889  -1.0553  -0.1358
    -0.0853   0.0467   0.1797   0.4508   0.4881   0.6459   0.9189   1.0009
     1.0191   1.1755   1.3228   1.4714   1.6317   1.9539   2.2757   2.5913
     2.7711   3.0264   3.0592   3.3065   3.5705   3.8663

          k = 0.0134-0.0231 0.0000 ( 39303 PWs)   bands (ev):

   -61.9499 -61.9269 -61.8588 -61.8357 -61.4421 -61.4185 -30.5491 -30.5009
   -30.4637 -30.4625 -30.4265 -30.4144 -30.3991 -30.3769 -30.3420 -30.2925
   -30.0822 -30.0799 -30.0285 -30.0142 -29.9483 -29.7796 -29.7334 -29.6236
    -8.0829  -8.0345  -7.9761  -7.9462  -7.9222  -7.8833  -7.8771  -7.8257
    -7.8248  -7.7694  -7.7506  -7.7055  -7.6303  -7.5853  -7.5494  -7.5393
    -7.4839  -7.4781  -7.4677  -7.4373  -7.4115  -7.4067  -7.3936  -7.3643
    -7.3516  -7.2983  -7.2776  -7.2313  -7.1682  -6.9884  -6.2351  -4.6911
    -2.9904  -2.3780  -1.6662  -1.6145  -1.3403  -0.8467  -0.8413  -0.1681
     0.0123   0.1496   0.4350   0.4455   0.4904   0.8040   1.0398   1.1000
     1.1906   1.3112   1.3177   1.6179   1.6344   1.8920   2.2409   2.5329
     2.7620   2.9311   2.9824   3.2127   3.2437   3.9239

          k = 0.0134-0.0077 0.0000 ( 39181 PWs)   bands (ev):

   -61.9499 -61.9269 -61.8588 -61.8357 -61.4421 -61.4185 -30.5490 -30.5009
   -30.4635 -30.4623 -30.4262 -30.4144 -30.3990 -30.3769 -30.3418 -30.2925
   -30.0821 -30.0798 -30.0283 -30.0142 -29.9483 -29.7796 -29.7333 -29.6235
    -8.0850  -8.0460  -7.9766  -7.9609  -7.9229  -7.8986  -7.8890  -7.8348
    -7.8326  -7.7783  -7.7493  -7.7034  -7.6417  -7.5864  -7.5554  -7.5387
    -7.4805  -7.4802  -7.4721  -7.4483  -7.4185  -7.4136  -7.3959  -7.3608
    -7.3536  -7.2979  -7.2739  -7.2314  -7.1689  -6.9884  -6.3263  -4.7703
    -3.0196  -2.3800  -1.6378  -1.3843  -1.1053  -0.7315  -0.5224  -0.2663
    -0.1096   0.1219   0.4156   0.4965   0.7500   0.8894   1.0569   1.1808
     1.2700   1.3730   1.4171   1.6390   1.6896   1.8926   2.2310   2.4647
     2.5528   2.9398   3.0141   3.0437   3.2502   3.7909

          k = 0.0268 0.0154 0.0000 ( 39292 PWs)   bands (ev):

   -61.9487 -61.9281 -61.8576 -61.8369 -61.4409 -61.4198 -30.5466 -30.5035
   -30.4611 -30.4400 -30.4238 -30.4170 -30.3796 -30.3766 -30.3394 -30.2952
   -30.0773 -30.0592 -30.0382 -30.0311 -29.9725 -29.7772 -29.7358 -29.6482
    -8.0483  -8.0166  -7.9335  -7.9312  -7.8863  -7.8741  -7.8622  -7.8198
    -7.8081  -7.7726  -7.7562  -7.6852  -7.6303  -7.5692  -7.5533  -7.5400
    -7.5016  -7.4857  -7.4673  -7.4459  -7.4361  -7.4183  -7.4180  -7.3770
    -7.3567  -7.3222  -7.3016  -7.2508  -7.2053  -7.0295  -6.1888  -4.6504
    -2.9450  -2.7206  -2.0080  -1.5104  -1.2537  -0.5970  -0.4628  -0.1488
    -0.0481   0.3398   0.4739   0.5534   0.6204   0.8578   1.0763   1.2150
     1.2253   1.2950   1.3008   1.6213   1.7380   1.8921   2.0494   2.3886
     2.5817   2.8775   2.9473   3.1751   3.2546   3.8791

          k = 0.0268 0.0308 0.0000 ( 39306 PWs)   bands (ev):

   -61.9487 -61.9281 -61.8576 -61.8369 -61.4409 -61.4198 -30.5467 -30.5035
   -30.4612 -30.4402 -30.4242 -30.4170 -30.3796 -30.3767 -30.3397 -30.2952
   -30.0774 -30.0594 -30.0382 -30.0313 -29.9725 -29.7773 -29.7358 -29.6482
    -8.0456  -8.0013  -7.9330  -7.9113  -7.8797  -7.8603  -7.8463  -7.8066
    -7.7975  -7.7616  -7.7576  -7.6880  -7.6167  -7.5677  -7.5459  -7.5401
    -7.5006  -7.4875  -7.4639  -7.4344  -7.4341  -7.4158  -7.4013  -7.3764
    -7.3604  -7.3227  -7.3075  -7.2507  -7.2044  -7.0298  -6.0505  -4.5315
    -2.9235  -2.8161  -2.0112  -1.7602  -1.4599  -0.9463  -0.6308  -0.0721
    -0.0106   0.1792   0.4041   0.5095   0.5469   0.7544   0.9590   1.0966
     1.1307   1.2687   1.3333   1.6160   1.6601   1.9297   2.1153   2.4576
     2.7591   2.8196   3.1855   3.2433   3.3543   3.8357

          k = 0.0268 0.0463 0.0000 ( 39334 PWs)   bands (ev):

   -61.9487 -61.9281 -61.8576 -61.8369 -61.4409 -61.4198 -30.5470 -30.5035
   -30.4614 -30.4404 -30.4248 -30.4170 -30.3796 -30.3769 -30.3401 -30.2953
   -30.0775 -30.0595 -30.0383 -30.0316 -29.9725 -29.7774 -29.7359 -29.6483
    -8.0418  -7.9803  -7.9319  -7.8833  -7.8783  -7.8317  -7.8251  -7.7884
    -7.7812  -7.7601  -7.7457  -7.6921  -7.5997  -7.5655  -7.5402  -7.5367
    -7.4996  -7.4837  -7.4593  -7.4330  -7.4249  -7.4127  -7.3778  -7.3769
    -7.3645  -7.3230  -7.3153  -7.2505  -7.2037  -7.0303  -5.8211  -4.3400
    -3.0391  -2.9525  -2.0978  -2.0216  -1.4380  -1.3835  -0.7161  -0.2070
    -0.1072  -0.0640   0.2270   0.4755   0.5512   0.6764   0.8095   0.9704
     1.0477   1.2174   1.3259   1.5073   1.6926   1.9955   2.2149   2.5147
     2.6441   3.0380   3.3145   3.3273   3.6971   3.7762

          k = 0.0268 0.0617 0.0000 ( 39313 PWs)   bands (ev):

   -61.9487 -61.9281 -61.8576 -61.8369 -61.4408 -61.4198 -30.5472 -30.5034
   -30.4616 -30.4406 -30.4254 -30.4170 -30.3796 -30.3771 -30.3406 -30.2953
   -30.0776 -30.0597 -30.0383 -30.0319 -29.9726 -29.7775 -29.7360 -29.6483
    -8.0380  -7.9594  -7.9304  -7.8779  -7.8538  -7.8051  -7.7990  -7.7694
    -7.7689  -7.7541  -7.7317  -7.6962  -7.5867  -7.5631  -7.5403  -7.5288
    -7.4978  -7.4758  -7.4554  -7.4328  -7.4174  -7.4097  -7.3805  -7.3659
    -7.3572  -7.3231  -7.3212  -7.2505  -7.2037  -7.0307  -5.5055  -4.1171
    -3.3892  -3.0915  -2.2313  -2.0486  -1.8058  -1.2783  -0.7167  -0.4418
    -0.4395  -0.1515   0.0584   0.3676   0.5354   0.5404   0.7400   0.8927
     0.9798   1.1674   1.2976   1.3522   1.8196   2.0539   2.3486   2.5659
     2.5728   3.0970   3.4109   3.4316   3.7085   3.8975

          k = 0.0268 0.0771 0.0000 ( 39339 PWs)   bands (ev):

   -61.9487 -61.9281 -61.8576 -61.8369 -61.4408 -61.4198 -30.5474 -30.5034
   -30.4618 -30.4408 -30.4259 -30.4169 -30.3796 -30.3773 -30.3409 -30.2953
   -30.0776 -30.0598 -30.0383 -30.0321 -29.9726 -29.7776 -29.7361 -29.6483
    -8.0352  -7.9442  -7.9291  -7.8778  -7.8304  -7.7921  -7.7719  -7.7686
    -7.7549  -7.7391  -7.7216  -7.6993  -7.5827  -7.5612  -7.5408  -7.5241
    -7.4940  -7.4678  -7.4543  -7.4321  -7.4125  -7.4074  -7.3850  -7.3654
    -7.3496  -7.3233  -7.3188  -7.2504  -7.2044  -7.0310  -5.1171  -4.1800
    -3.4865  -3.1933  -2.6432  -2.0813  -1.6659  -1.1522  -0.8621  -0.7293
    -0.5846  -0.1403  -0.0476   0.2509   0.2888   0.5282   0.8049   0.8137
     0.9232   1.1519   1.2370   1.2754   1.9387   2.0721   2.4534   2.5306
     2.6569   3.0214   3.4856   3.5462   3.6424   3.7575

          k = 0.0268 0.0925 0.0000 ( 39398 PWs)   bands (ev):

   -61.9487 -61.9281 -61.8576 -61.8369 -61.4408 -61.4198 -30.5474 -30.5035
   -30.4618 -30.4408 -30.4260 -30.4169 -30.3797 -30.3773 -30.3410 -30.2953
   -30.0777 -30.0599 -30.0384 -30.0322 -29.9726 -29.7776 -29.7361 -29.6484
    -8.0342  -7.9387  -7.9286  -7.8778  -7.8210  -7.7882  -7.7691  -7.7609
    -7.7494  -7.7332  -7.7167  -7.7010  -7.5830  -7.5605  -7.5412  -7.5226
    -7.4915  -7.4644  -7.4547  -7.4314  -7.4108  -7.4065  -7.3870  -7.3651
    -7.3496  -7.3233  -7.3152  -7.2504  -7.2049  -7.0312  -4.7750  -4.5109
    -3.2304  -3.2124  -3.0256  -2.0959  -1.4078  -1.1888  -1.0721  -0.8044
    -0.5830  -0.1187  -0.0166   0.0549   0.2616   0.5262   0.7763   0.8417
     0.8885   1.1635   1.1823   1.2671   2.0044   2.0552   2.4844   2.5225
     2.7385   2.9369   3.5381   3.5882   3.5982   3.7118

          k = 0.0268-0.0771 0.0000 ( 39339 PWs)   bands (ev):

   -61.9487 -61.9281 -61.8576 -61.8369 -61.4408 -61.4198 -30.5474 -30.5034
   -30.4618 -30.4408 -30.4259 -30.4169 -30.3796 -30.3773 -30.3409 -30.2953
   -30.0776 -30.0598 -30.0383 -30.0321 -29.9726 -29.7776 -29.7361 -29.6483
    -8.0352  -7.9442  -7.9291  -7.8778  -7.8304  -7.7921  -7.7719  -7.7686
    -7.7549  -7.7391  -7.7216  -7.6993  -7.5827  -7.5612  -7.5408  -7.5241
    -7.4940  -7.4678  -7.4543  -7.4321  -7.4125  -7.4074  -7.3850  -7.3654
    -7.3496  -7.3233  -7.3188  -7.2504  -7.2044  -7.0310  -5.1171  -4.1800
    -3.4865  -3.1933  -2.6432  -2.0813  -1.6659  -1.1522  -0.8621  -0.7293
    -0.5846  -0.1403  -0.0476   0.2509   0.2888   0.5282   0.8049   0.8137
     0.9232   1.1519   1.2370   1.2754   1.9387   2.0721   2.4534   2.5306
     2.6568   3.0212   3.4854   3.5458   3.6421   3.7575

          k = 0.0268-0.0617 0.0000 ( 39313 PWs)   bands (ev):

   -61.9487 -61.9281 -61.8576 -61.8369 -61.4408 -61.4198 -30.5472 -30.5034
   -30.4616 -30.4406 -30.4254 -30.4170 -30.3796 -30.3771 -30.3406 -30.2953
   -30.0776 -30.0597 -30.0383 -30.0319 -29.9726 -29.7775 -29.7360 -29.6483
    -8.0380  -7.9594  -7.9304  -7.8779  -7.8538  -7.8051  -7.7990  -7.7694
    -7.7689  -7.7541  -7.7317  -7.6962  -7.5867  -7.5631  -7.5403  -7.5288
    -7.4978  -7.4758  -7.4554  -7.4328  -7.4174  -7.4097  -7.3805  -7.3659
    -7.3572  -7.3231  -7.3212  -7.2505  -7.2037  -7.0307  -5.5055  -4.1171
    -3.3892  -3.0915  -2.2313  -2.0486  -1.8058  -1.2783  -0.7167  -0.4418
    -0.4395  -0.1515   0.0584   0.3676   0.5354   0.5404   0.7400   0.8927
     0.9798   1.1674   1.2976   1.3522   1.8196   2.0539   2.3486   2.5660
     2.5728   3.0972   3.4112   3.4322   3.7089   3.8976

          k = 0.0268-0.0463 0.0000 ( 39334 PWs)   bands (ev):

   -61.9487 -61.9281 -61.8576 -61.8369 -61.4409 -61.4198 -30.5470 -30.5035
   -30.4614 -30.4404 -30.4248 -30.4170 -30.3796 -30.3769 -30.3401 -30.2953
   -30.0775 -30.0595 -30.0383 -30.0316 -29.9725 -29.7774 -29.7359 -29.6483
    -8.0418  -7.9803  -7.9319  -7.8833  -7.8783  -7.8317  -7.8251  -7.7884
    -7.7812  -7.7601  -7.7457  -7.6921  -7.5997  -7.5655  -7.5402  -7.5367
    -7.4996  -7.4837  -7.4593  -7.4330  -7.4249  -7.4127  -7.3778  -7.3769
    -7.3645  -7.3230  -7.3153  -7.2505  -7.2037  -7.0303  -5.8211  -4.3400
    -3.0391  -2.9525  -2.0978  -2.0216  -1.4380  -1.3835  -0.7161  -0.2070
    -0.1072  -0.0640   0.2270   0.4755   0.5512   0.6764   0.8095   0.9704
     1.0477   1.2174   1.3259   1.5073   1.6926   1.9955   2.2149   2.5147
     2.6441   3.0381   3.3145   3.3273   3.6971   3.7770

          k = 0.0268-0.0308 0.0000 ( 39306 PWs)   bands (ev):

   -61.9487 -61.9281 -61.8576 -61.8369 -61.4409 -61.4198 -30.5467 -30.5035
   -30.4612 -30.4402 -30.4242 -30.4170 -30.3796 -30.3767 -30.3397 -30.2952
   -30.0774 -30.0594 -30.0382 -30.0313 -29.9725 -29.7773 -29.7358 -29.6482
    -8.0456  -8.0013  -7.9330  -7.9113  -7.8797  -7.8603  -7.8463  -7.8066
    -7.7975  -7.7616  -7.7576  -7.6880  -7.6167  -7.5677  -7.5459  -7.5401
    -7.5006  -7.4875  -7.4639  -7.4344  -7.4341  -7.4158  -7.4013  -7.3764
    -7.3604  -7.3227  -7.3075  -7.2507  -7.2044  -7.0298  -6.0505  -4.5315
    -2.9235  -2.8161  -2.0112  -1.7602  -1.4599  -0.9463  -0.6308  -0.0721
    -0.0106   0.1792   0.4041   0.5095   0.5469   0.7544   0.9590   1.0966
     1.1307   1.2687   1.3333   1.6160   1.6601   1.9297   2.1153   2.4576
     2.7591   2.8196   3.1855   3.2433   3.3543   3.8356

          k = 0.0268-0.0154 0.0000 ( 39292 PWs)   bands (ev):

   -61.9487 -61.9281 -61.8576 -61.8369 -61.4409 -61.4198 -30.5466 -30.5035
   -30.4611 -30.4400 -30.4238 -30.4170 -30.3796 -30.3766 -30.3394 -30.2952
   -30.0773 -30.0592 -30.0382 -30.0311 -29.9725 -29.7772 -29.7358 -29.6482
    -8.0483  -8.0166  -7.9335  -7.9312  -7.8863  -7.8741  -7.8622  -7.8198
    -7.8081  -7.7726  -7.7562  -7.6852  -7.6303  -7.5692  -7.5533  -7.5400
    -7.5016  -7.4857  -7.4673  -7.4459  -7.4361  -7.4183  -7.4180  -7.3770
    -7.3567  -7.3222  -7.3016  -7.2508  -7.2053  -7.0295  -6.1888  -4.6504
    -2.9450  -2.7206  -2.0080  -1.5104  -1.2537  -0.5970  -0.4628  -0.1488
    -0.0481   0.3398   0.4739   0.5534   0.6204   0.8578   1.0763   1.2150
     1.2253   1.2950   1.3008   1.6213   1.7380   1.8921   2.0494   2.3886
     2.5817   2.8775   2.9473   3.1751   3.2547   3.8791

          k = 0.0268-0.0000 0.0000 ( 39272 PWs)   bands (ev):

   -61.9487 -61.9281 -61.8576 -61.8369 -61.4409 -61.4198 -30.5465 -30.5035
   -30.4610 -30.4400 -30.4236 -30.4170 -30.3796 -30.3765 -30.3392 -30.2952
   -30.0773 -30.0592 -30.0382 -30.0310 -29.9725 -29.7772 -29.7357 -29.6482
    -8.0493  -8.0222  -7.9383  -7.9336  -7.8919  -7.8757  -7.8681  -7.8246
    -7.8117  -7.7769  -7.7555  -7.6842  -7.6354  -7.5698  -7.5562  -7.5400
    -7.5021  -7.4826  -7.4685  -7.4533  -7.4371  -7.4233  -7.4193  -7.3772
    -7.3553  -7.3220  -7.2995  -7.2509  -7.2056  -7.0293  -6.2348  -4.6904
    -2.9620  -2.6872  -2.0064  -1.5289  -0.8011  -0.7500  -0.3277  -0.1609
    -0.1074   0.3514   0.4342   0.5537   0.8362   0.8874   1.0108   1.2295
     1.2535   1.3071   1.4929   1.6280   1.6401   1.8868   2.0118   2.3270
     2.5262   2.8454   2.9346   3.1449   3.2294   3.7861

          k = 0.0402 0.0231 0.0000 ( 39311 PWs)   bands (ev):

   -61.9468 -61.9300 -61.8557 -61.8388 -61.4389 -61.4217 -30.5427 -30.5075
   -30.4571 -30.4212 -30.4199 -30.4043 -30.3839 -30.3406 -30.3355 -30.2994
   -30.0763 -30.0732 -30.0355 -30.0227 -30.0108 -29.7735 -29.7396 -29.6872
    -7.9940  -7.9704  -7.8845  -7.8666  -7.8594  -7.8216  -7.8088  -7.7905
    -7.7769  -7.7652  -7.7579  -7.6566  -7.6160  -7.5600  -7.5516  -7.5418
    -7.5178  -7.4931  -7.4808  -7.4569  -7.4508  -7.4452  -7.4198  -7.4116
    -7.3669  -7.3459  -7.3449  -7.2808  -7.2633  -7.0939  -5.9610  -4.4522
    -3.1946  -2.8289  -2.3782  -1.7047  -1.3556  -0.6453  -0.5637   0.0687
     0.1126   0.2784   0.5638   0.6555   0.7387   0.8191   0.9071   1.1347
     1.2542   1.3381   1.3827   1.6170   1.7364   1.9306   1.9545   2.3422
     2.6075   2.6619   3.0332   3.1442   3.3636   3.8250

          k = 0.0402 0.0385 0.0000 ( 39324 PWs)   bands (ev):

   -61.9468 -61.9300 -61.8557 -61.8388 -61.4389 -61.4217 -30.5429 -30.5075
   -30.4573 -30.4211 -30.4204 -30.4045 -30.3838 -30.3408 -30.3358 -30.2994
   -30.0763 -30.0732 -30.0357 -30.0228 -30.0108 -29.7736 -29.7397 -29.6872
    -7.9914  -7.9536  -7.8662  -7.8620  -7.8390  -7.8082  -7.8041  -7.7748
    -7.7742  -7.7570  -7.7471  -7.6598  -7.6037  -7.5601  -7.5454  -7.5392
    -7.5191  -7.4928  -7.4842  -7.4538  -7.4479  -7.4350  -7.4121  -7.4016
    -7.3668  -7.3533  -7.3507  -7.2807  -7.2625  -7.0948  -5.7768  -4.2964
    -3.3763  -2.8503  -2.3786  -1.7986  -1.6465  -1.0282  -0.5903  -0.1034
     0.0820   0.1490   0.5005   0.5717   0.6575   0.7625   0.8622   1.1431
     1.1947   1.3131   1.3652   1.6416   1.6780   1.9610   2.0489   2.4091
     2.5942   2.8576   3.2352   3.3609   3.4688   3.7445

          k = 0.0402 0.0540 0.0000 ( 39320 PWs)   bands (ev):

   -61.9468 -61.9300 -61.8557 -61.8388 -61.4389 -61.4217 -30.5431 -30.5075
   -30.4574 -30.4211 -30.4210 -30.4047 -30.3837 -30.3410 -30.3362 -30.2994
   -30.0763 -30.0733 -30.0360 -30.0230 -30.0108 -29.7736 -29.7398 -29.6872
    -7.9884  -7.9334  -7.8650  -7.8346  -7.8176  -7.8028  -7.7858  -7.7738
    -7.7560  -7.7437  -7.7328  -7.6637  -7.5906  -7.5615  -7.5409  -7.5346
    -7.5204  -7.4870  -7.4850  -7.4536  -7.4457  -7.4275  -7.4117  -7.3852
    -7.3697  -7.3578  -7.3554  -7.2808  -7.2622  -7.0959  -5.5065  -4.0858
    -3.5568  -3.0734  -2.4345  -2.0131  -1.5438  -1.4854  -0.4991  -0.3575
    -0.0853  -0.0011   0.2939   0.4847   0.6652   0.7690   0.8378   1.0437
     1.1141   1.2666   1.3999   1.5460   1.7859   1.9914   2.1823   2.4570
     2.5505   3.0067   3.3065   3.5041   3.6504   3.7732

          k = 0.0402 0.0694 0.0000 ( 39326 PWs)   bands (ev):

   -61.9468 -61.9300 -61.8557 -61.8388 -61.4389 -61.4217 -30.5433 -30.5074
   -30.4576 -30.4215 -30.4210 -30.4048 -30.3837 -30.3412 -30.3366 -30.2994
   -30.0763 -30.0734 -30.0362 -30.0231 -30.0108 -29.7737 -29.7398 -29.6872
    -7.9857  -7.9154  -7.8635  -7.8133  -7.8086  -7.7806  -7.7805  -7.7650
    -7.7390  -7.7355  -7.7146  -7.6676  -7.5843  -7.5629  -7.5384  -7.5304
    -7.5192  -7.4847  -7.4781  -7.4567  -7.4431  -7.4219  -7.4106  -7.3869
    -7.3760  -7.3570  -7.3479  -7.2810  -7.2630  -7.0969  -5.1606  -3.9592
    -3.6986  -3.3388  -2.5066  -2.2879  -1.5833  -1.4354  -0.5944  -0.4857
    -0.3139  -0.0199   0.1415   0.4231   0.5467   0.6660   0.9195   0.9840
     1.0644   1.2246   1.4163   1.4502   1.9032   2.0233   2.3469   2.4947
     2.5290   2.9731   3.3341   3.5605   3.6039   3.6650

          k = 0.0402 0.0848 0.0000 ( 39369 PWs)   bands (ev):

   -61.9468 -61.9300 -61.8557 -61.8388 -61.4389 -61.4217 -30.5434 -30.5074
   -30.4577 -30.4218 -30.4210 -30.4049 -30.3837 -30.3413 -30.3368 -30.2994
   -30.0763 -30.0734 -30.0364 -30.0232 -30.0108 -29.7738 -29.7399 -29.6872
    -7.9842  -7.9047  -7.8624  -7.8132  -7.7911  -7.7810  -7.7632  -7.7585
    -7.7329  -7.7286  -7.6998  -7.6713  -7.5862  -7.5627  -7.5372  -7.5282
    -7.5154  -7.4848  -7.4709  -7.4598  -7.4412  -7.4187  -7.4093  -7.3938
    -7.3814  -7.3573  -7.3376  -7.2812  -7.2641  -7.0975  -4.7731  -4.2332
    -3.7763  -3.1560  -2.7359  -2.5535  -1.3669  -1.3314  -0.8989  -0.6992
    -0.1611   0.0321   0.0517   0.2847   0.3910   0.6673   0.9458   0.9634
     1.0576   1.2016   1.3881   1.4173   1.9850   2.0412   2.4657   2.5222
     2.5624   2.8392   3.3423   3.4447   3.5810   3.6793

          k = 0.0402 0.1002 0.0000 ( 39369 PWs)   bands (ev):

   -61.9468 -61.9300 -61.8557 -61.8388 -61.4389 -61.4217 -30.5434 -30.5074
   -30.4577 -30.4218 -30.4210 -30.4049 -30.3837 -30.3413 -30.3368 -30.2994
   -30.0763 -30.0734 -30.0364 -30.0232 -30.0108 -29.7738 -29.7399 -29.6872
    -7.9842  -7.9047  -7.8624  -7.8132  -7.7911  -7.7810  -7.7632  -7.7585
    -7.7329  -7.7286  -7.6998  -7.6713  -7.5862  -7.5627  -7.5372  -7.5282
    -7.5154  -7.4848  -7.4709  -7.4598  -7.4412  -7.4187  -7.4093  -7.3938
    -7.3814  -7.3573  -7.3376  -7.2812  -7.2641  -7.0975  -4.7731  -4.2332
    -3.7763  -3.1560  -2.7359  -2.5535  -1.3669  -1.3314  -0.8989  -0.6992
    -0.1611   0.0321   0.0517   0.2847   0.3910   0.6673   0.9458   0.9634
     1.0576   1.2016   1.3881   1.4173   1.9850   2.0411   2.4657   2.5222
     2.5624   2.8392   3.3423   3.4443   3.5810   3.6795

          k = 0.0402-0.0694 0.0000 ( 39326 PWs)   bands (ev):

   -61.9468 -61.9300 -61.8557 -61.8388 -61.4389 -61.4217 -30.5433 -30.5074
   -30.4576 -30.4215 -30.4210 -30.4048 -30.3837 -30.3412 -30.3366 -30.2994
   -30.0763 -30.0734 -30.0362 -30.0231 -30.0108 -29.7737 -29.7398 -29.6872
    -7.9857  -7.9154  -7.8635  -7.8133  -7.8086  -7.7806  -7.7805  -7.7650
    -7.7390  -7.7355  -7.7146  -7.6676  -7.5843  -7.5629  -7.5384  -7.5304
    -7.5192  -7.4847  -7.4781  -7.4567  -7.4431  -7.4219  -7.4106  -7.3869
    -7.3760  -7.3570  -7.3479  -7.2810  -7.2630  -7.0969  -5.1606  -3.9592
    -3.6986  -3.3388  -2.5066  -2.2879  -1.5833  -1.4354  -0.5944  -0.4857
    -0.3139  -0.0199   0.1415   0.4231   0.5467   0.6660   0.9195   0.9840
     1.0644   1.2246   1.4163   1.4502   1.9032   2.0234   2.3469   2.4947
     2.5290   2.9731   3.3341   3.5605   3.6040   3.6650

          k = 0.0402-0.0540 0.0000 ( 39320 PWs)   bands (ev):

   -61.9468 -61.9300 -61.8557 -61.8388 -61.4389 -61.4217 -30.5431 -30.5075
   -30.4574 -30.4211 -30.4210 -30.4047 -30.3837 -30.3410 -30.3362 -30.2994
   -30.0763 -30.0733 -30.0360 -30.0230 -30.0108 -29.7736 -29.7398 -29.6872
    -7.9884  -7.9334  -7.8650  -7.8346  -7.8176  -7.8028  -7.7858  -7.7738
    -7.7560  -7.7437  -7.7328  -7.6637  -7.5906  -7.5615  -7.5409  -7.5346
    -7.5204  -7.4870  -7.4850  -7.4536  -7.4457  -7.4275  -7.4117  -7.3852
    -7.3697  -7.3578  -7.3554  -7.2808  -7.2622  -7.0959  -5.5065  -4.0858
    -3.5568  -3.0734  -2.4345  -2.0131  -1.5438  -1.4854  -0.4991  -0.3575
    -0.0853  -0.0011   0.2939   0.4847   0.6652   0.7690   0.8378   1.0437
     1.1141   1.2666   1.3999   1.5460   1.7859   1.9914   2.1823   2.4570
     2.5505   3.0066   3.3065   3.5041   3.6502   3.7730

          k = 0.0402-0.0385 0.0000 ( 39324 PWs)   bands (ev):

   -61.9468 -61.9300 -61.8557 -61.8388 -61.4389 -61.4217 -30.5429 -30.5075
   -30.4573 -30.4211 -30.4204 -30.4045 -30.3838 -30.3408 -30.3358 -30.2994
   -30.0763 -30.0732 -30.0357 -30.0228 -30.0108 -29.7736 -29.7397 -29.6872
    -7.9914  -7.9536  -7.8662  -7.8620  -7.8390  -7.8082  -7.8041  -7.7748
    -7.7742  -7.7570  -7.7471  -7.6598  -7.6037  -7.5601  -7.5454  -7.5392
    -7.5191  -7.4928  -7.4842  -7.4538  -7.4479  -7.4350  -7.4121  -7.4016
    -7.3668  -7.3533  -7.3507  -7.2807  -7.2625  -7.0948  -5.7768  -4.2964
    -3.3763  -2.8503  -2.3786  -1.7986  -1.6465  -1.0282  -0.5903  -0.1034
     0.0820   0.1490   0.5005   0.5717   0.6575   0.7625   0.8622   1.1431
     1.1947   1.3131   1.3652   1.6416   1.6780   1.9610   2.0489   2.4091
     2.5942   2.8576   3.2353   3.3608   3.4688   3.7455

          k = 0.0402-0.0231 0.0000 ( 39311 PWs)   bands (ev):

   -61.9468 -61.9300 -61.8557 -61.8388 -61.4389 -61.4217 -30.5427 -30.5075
   -30.4571 -30.4212 -30.4199 -30.4043 -30.3839 -30.3406 -30.3355 -30.2994
   -30.0763 -30.0732 -30.0355 -30.0227 -30.0108 -29.7735 -29.7396 -29.6872
    -7.9940  -7.9704  -7.8845  -7.8666  -7.8594  -7.8216  -7.8088  -7.7905
    -7.7769  -7.7652  -7.7579  -7.6566  -7.6160  -7.5600  -7.5516  -7.5418
    -7.5178  -7.4931  -7.4808  -7.4569  -7.4508  -7.4452  -7.4198  -7.4116
    -7.3669  -7.3459  -7.3449  -7.2808  -7.2633  -7.0939  -5.9610  -4.4522
    -3.1946  -2.8289  -2.3782  -1.7047  -1.3556  -0.6453  -0.5637   0.0687
     0.1126   0.2784   0.5638   0.6555   0.7387   0.8191   0.9071   1.1347
     1.2542   1.3381   1.3827   1.6170   1.7364   1.9306   1.9545   2.3423
     2.6075   2.6619   3.0333   3.1441   3.3636   3.8187

          k = 0.0402-0.0077 0.0000 ( 39307 PWs)   bands (ev):

   -61.9468 -61.9300 -61.8557 -61.8388 -61.4389 -61.4217 -30.5426 -30.5075
   -30.4570 -30.4212 -30.4196 -30.4042 -30.3839 -30.3406 -30.3353 -30.2994
   -30.0763 -30.0731 -30.0353 -30.0226 -30.0108 -29.7734 -29.7396 -29.6871
    -7.9955  -7.9799  -7.8971  -7.8716  -7.8655  -7.8318  -7.8098  -7.7990
    -7.7805  -7.7702  -7.7614  -7.6548  -7.6231  -7.5602  -7.5558  -7.5430
    -7.5174  -7.4890  -7.4755  -7.4616  -7.4566  -7.4535  -7.4289  -7.4111
    -7.3675  -7.3415  -7.3412  -7.2809  -7.2639  -7.0933  -6.0541  -4.5324
    -3.0682  -2.8537  -2.4149  -1.7208  -0.8490  -0.6643  -0.4269  -0.0406
     0.2007   0.4880   0.5427   0.6535   0.8304   0.8621   0.9453   1.1122
     1.2941   1.3054   1.4557   1.6018   1.8066   1.8991   1.8993   2.1810
     2.4940   2.7304   2.8386   3.0705   3.2845   3.7627

          k = 0.0402 0.0077 0.0000 ( 39307 PWs)   bands (ev):

   -61.9468 -61.9300 -61.8557 -61.8388 -61.4389 -61.4217 -30.5426 -30.5075
   -30.4570 -30.4212 -30.4196 -30.4042 -30.3839 -30.3406 -30.3353 -30.2994
   -30.0763 -30.0731 -30.0353 -30.0226 -30.0108 -29.7734 -29.7396 -29.6871
    -7.9955  -7.9799  -7.8971  -7.8716  -7.8655  -7.8318  -7.8098  -7.7990
    -7.7805  -7.7702  -7.7614  -7.6548  -7.6231  -7.5602  -7.5558  -7.5430
    -7.5174  -7.4890  -7.4755  -7.4616  -7.4566  -7.4535  -7.4289  -7.4111
    -7.3675  -7.3415  -7.3412  -7.2809  -7.2639  -7.0933  -6.0541  -4.5324
    -3.0682  -2.8537  -2.4149  -1.7208  -0.8490  -0.6643  -0.4269  -0.0406
     0.2007   0.4880   0.5427   0.6535   0.8304   0.8621   0.9453   1.1122
     1.2941   1.3054   1.4557   1.6018   1.8066   1.8991   1.8993   2.1810
     2.4940   2.7304   2.8386   3.0705   3.2845   3.7626

          k = 0.0536 0.0308 0.0000 ( 39357 PWs)   bands (ev):

   -61.9443 -61.9325 -61.8532 -61.8413 -61.4364 -61.4242 -30.5376 -30.5127
   -30.4519 -30.4265 -30.4148 -30.3893 -30.3574 -30.3304 -30.3049 -30.2935
   -30.1255 -30.0678 -30.0603 -30.0411 -29.9748 -29.7686 -29.7447 -29.7375
    -7.9339  -7.9120  -7.8339  -7.8258  -7.7936  -7.7842  -7.7677  -7.7509
    -7.7487  -7.7153  -7.7124  -7.6199  -7.6171  -7.5963  -7.5506  -7.5319
    -7.5156  -7.5151  -7.4981  -7.4967  -7.4621  -7.4504  -7.4438  -7.4338
    -7.4089  -7.3962  -7.3420  -7.3371  -7.3179  -7.1737  -5.6468  -4.1803
    -3.7325  -2.7256  -2.6862  -1.9495  -1.3889  -0.8662  -0.5883  -0.0633
     0.2779   0.3065   0.6611   0.7210   0.8015   0.8357   0.8908   1.2296
     1.2562   1.4420   1.5312   1.6493   1.6911   1.8688   1.9637   2.3314
     2.5021   2.6970   3.0903   3.1464   3.3102   3.7348

          k = 0.0536 0.0463 0.0000 ( 39340 PWs)   bands (ev):

   -61.9443 -61.9325 -61.8532 -61.8413 -61.4364 -61.4242 -30.5378 -30.5127
   -30.4521 -30.4264 -30.4153 -30.3892 -30.3576 -30.3307 -30.3048 -30.2936
   -30.1255 -30.0678 -30.0602 -30.0414 -29.9749 -29.7687 -29.7447 -29.7375
    -7.9318  -7.8959  -7.8154  -7.8051  -7.7920  -7.7828  -7.7568  -7.7392
    -7.7369  -7.7132  -7.6991  -7.6230  -7.6149  -7.5951  -7.5459  -7.5383
    -7.5173  -7.5132  -7.4981  -7.4950  -7.4634  -7.4459  -7.4418  -7.4237
    -7.4064  -7.3960  -7.3506  -7.3359  -7.3186  -7.1747  -5.4218  -3.9990
    -3.9543  -2.7843  -2.7838  -1.8599  -1.7211  -1.0543  -0.6857  -0.2662
     0.2021   0.2702   0.5532   0.5685   0.8168   0.8731   0.9081   1.2316
     1.2699   1.3226   1.4920   1.6362   1.7968   1.9314   1.9793   2.3903
     2.4930   2.8917   3.1874   3.3986   3.5257   3.6142

          k = 0.0536 0.0617 0.0000 ( 39351 PWs)   bands (ev):

   -61.9443 -61.9325 -61.8532 -61.8413 -61.4364 -61.4242 -30.5380 -30.5126
   -30.4522 -30.4264 -30.4158 -30.3891 -30.3577 -30.3310 -30.3048 -30.2938
   -30.1255 -30.0678 -30.0602 -30.0416 -29.9750 -29.7687 -29.7448 -29.7375
    -7.9297  -7.8777  -7.7954  -7.7938  -7.7808  -7.7800  -7.7460  -7.7315
    -7.7271  -7.7045  -7.6828  -7.6263  -7.6191  -7.5900  -7.5430  -7.5416
    -7.5206  -7.5084  -7.4998  -7.4907  -7.4640  -7.4477  -7.4411  -7.4221
    -7.4045  -7.3868  -7.3599  -7.3348  -7.3195  -7.1758  -5.1207  -4.1385
    -3.8163  -3.0330  -2.8884  -1.9379  -1.7622  -1.3350  -0.5861  -0.2714
    -0.0639   0.1395   0.4314   0.5276   0.7932   0.8339   1.0174   1.1106
     1.2418   1.2689   1.5682   1.5999   1.8794   1.9504   2.1345   2.4470
     2.4865   2.9247   3.1780   3.4886   3.5050   3.6593

          k = 0.0536 0.0771 0.0000 ( 39352 PWs)   bands (ev):

   -61.9443 -61.9325 -61.8532 -61.8413 -61.4364 -61.4242 -30.5381 -30.5126
   -30.4523 -30.4263 -30.4161 -30.3890 -30.3578 -30.3313 -30.3047 -30.2939
   -30.1254 -30.0679 -30.0602 -30.0417 -29.9751 -29.7688 -29.7448 -29.7375
    -7.9283  -7.8628  -7.7964  -7.7798  -7.7722  -7.7636  -7.7415  -7.7310
    -7.7174  -7.6938  -7.6668  -7.6296  -7.6275  -7.5851  -7.5423  -7.5409
    -7.5223  -7.5044  -7.5040  -7.4830  -7.4635  -7.4559  -7.4412  -7.4229
    -7.4034  -7.3768  -7.3674  -7.3342  -7.3202  -7.1766  -4.7647  -4.2596
    -3.8919  -3.0596  -2.9722  -2.3205  -1.7113  -1.2163  -0.5895  -0.4775
    -0.0684   0.1347   0.3273   0.5418   0.5785   0.8449   1.0240   1.0564
     1.2456   1.2808   1.5571   1.6089   1.9151   2.0381   2.3100   2.4886
     2.4935   2.8031   3.0794   3.3492   3.4944   3.5805

          k = 0.0536 0.0925 0.0000 ( 39328 PWs)   bands (ev):

   -61.9443 -61.9325 -61.8532 -61.8413 -61.4364 -61.4242 -30.5382 -30.5126
   -30.4524 -30.4263 -30.4163 -30.3890 -30.3579 -30.3314 -30.3047 -30.2939
   -30.1255 -30.0678 -30.0602 -30.0418 -29.9752 -29.7688 -29.7448 -29.7375
    -7.9277  -7.8569  -7.7968  -7.7783  -7.7645  -7.7557  -7.7423  -7.7311
    -7.7133  -7.6892  -7.6592  -7.6321  -7.6317  -7.5837  -7.5424  -7.5398
    -7.5211  -7.5084  -7.5025  -7.4757  -7.4638  -7.4630  -7.4415  -7.4231
    -7.4030  -7.3729  -7.3703  -7.3340  -7.3205  -7.1769  -4.4911  -4.3019
    -4.1337  -3.0033  -2.7798  -2.7029  -1.6993  -0.9702  -0.8006  -0.5927
     0.1031   0.1568   0.2876   0.3837   0.5487   0.8496   1.0095   1.0482
     1.2378   1.3150   1.5384   1.6089   1.9406   2.0743   2.4272   2.5072
     2.5109   2.6828   3.0229   3.2692   3.4287   3.6115

          k = 0.0536 0.1079 0.0000 ( 39352 PWs)   bands (ev):

   -61.9443 -61.9325 -61.8532 -61.8413 -61.4364 -61.4242 -30.5381 -30.5126
   -30.4523 -30.4263 -30.4161 -30.3890 -30.3578 -30.3313 -30.3047 -30.2939
   -30.1254 -30.0679 -30.0602 -30.0417 -29.9751 -29.7688 -29.7448 -29.7375
    -7.9283  -7.8628  -7.7964  -7.7798  -7.7722  -7.7636  -7.7415  -7.7310
    -7.7174  -7.6938  -7.6668  -7.6296  -7.6275  -7.5851  -7.5423  -7.5409
    -7.5223  -7.5044  -7.5040  -7.4830  -7.4635  -7.4559  -7.4412  -7.4229
    -7.4034  -7.3768  -7.3674  -7.3342  -7.3202  -7.1766  -4.7647  -4.2596
    -3.8919  -3.0596  -2.9722  -2.3205  -1.7113  -1.2163  -0.5895  -0.4775
    -0.0684   0.1347   0.3272   0.5418   0.5785   0.8449   1.0240   1.0564
     1.2456   1.2808   1.5571   1.6089   1.9151   2.0381   2.3100   2.4886
     2.4935   2.8031   3.0794   3.3492   3.4945   3.5805

          k = 0.0536-0.0617 0.0000 ( 39351 PWs)   bands (ev):

   -61.9443 -61.9325 -61.8532 -61.8413 -61.4364 -61.4242 -30.5380 -30.5126
   -30.4522 -30.4264 -30.4158 -30.3891 -30.3577 -30.3310 -30.3048 -30.2938
   -30.1255 -30.0678 -30.0602 -30.0416 -29.9750 -29.7687 -29.7448 -29.7375
    -7.9297  -7.8777  -7.7954  -7.7938  -7.7808  -7.7800  -7.7460  -7.7315
    -7.7271  -7.7045  -7.6828  -7.6263  -7.6191  -7.5900  -7.5430  -7.5416
    -7.5206  -7.5084  -7.4998  -7.4907  -7.4640  -7.4477  -7.4411  -7.4221
    -7.4045  -7.3868  -7.3599  -7.3348  -7.3195  -7.1758  -5.1207  -4.1385
    -3.8163  -3.0330  -2.8884  -1.9379  -1.7622  -1.3350  -0.5861  -0.2714
    -0.0639   0.1395   0.4314   0.5276   0.7932   0.8339   1.0174   1.1106
     1.2418   1.2689   1.5682   1.5999   1.8794   1.9504   2.1345   2.4470
     2.4865   2.9247   3.1780   3.4886   3.5053   3.6586

          k = 0.0536-0.0463 0.0000 ( 39340 PWs)   bands (ev):

   -61.9443 -61.9325 -61.8532 -61.8413 -61.4364 -61.4242 -30.5378 -30.5127
   -30.4521 -30.4264 -30.4153 -30.3892 -30.3576 -30.3307 -30.3048 -30.2936
   -30.1255 -30.0678 -30.0602 -30.0414 -29.9749 -29.7687 -29.7447 -29.7375
    -7.9318  -7.8959  -7.8154  -7.8051  -7.7920  -7.7828  -7.7568  -7.7392
    -7.7369  -7.7132  -7.6991  -7.6230  -7.6149  -7.5951  -7.5459  -7.5383
    -7.5173  -7.5132  -7.4981  -7.4950  -7.4634  -7.4459  -7.4418  -7.4237
    -7.4064  -7.3960  -7.3506  -7.3359  -7.3186  -7.1747  -5.4218  -3.9990
    -3.9543  -2.7843  -2.7838  -1.8599  -1.7211  -1.0543  -0.6857  -0.2662
     0.2021   0.2702   0.5532   0.5685   0.8168   0.8731   0.9081   1.2316
     1.2699   1.3226   1.4920   1.6362   1.7968   1.9314   1.9793   2.3903
     2.4930   2.8917   3.1874   3.3987   3.5262   3.6142

          k = 0.0536-0.0308 0.0000 ( 39357 PWs)   bands (ev):

   -61.9443 -61.9325 -61.8532 -61.8413 -61.4364 -61.4242 -30.5376 -30.5127
   -30.4519 -30.4265 -30.4148 -30.3893 -30.3574 -30.3304 -30.3049 -30.2935
   -30.1255 -30.0678 -30.0603 -30.0411 -29.9748 -29.7686 -29.7447 -29.7375
    -7.9339  -7.9120  -7.8339  -7.8258  -7.7936  -7.7842  -7.7677  -7.7509
    -7.7487  -7.7153  -7.7124  -7.6199  -7.6171  -7.5963  -7.5506  -7.5319
    -7.5156  -7.5151  -7.4981  -7.4967  -7.4621  -7.4504  -7.4438  -7.4338
    -7.4089  -7.3962  -7.3420  -7.3371  -7.3179  -7.1737  -5.6468  -4.1803
    -3.7325  -2.7256  -2.6862  -1.9495  -1.3889  -0.8662  -0.5883  -0.0633
     0.2779   0.3065   0.6611   0.7210   0.8015   0.8357   0.8908   1.2296
     1.2562   1.4420   1.5312   1.6493   1.6911   1.8688   1.9637   2.3314
     2.5021   2.6970   3.0903   3.1463   3.3101   3.7312

          k = 0.0536-0.0154 0.0000 ( 39318 PWs)   bands (ev):

   -61.9443 -61.9325 -61.8532 -61.8413 -61.4364 -61.4242 -30.5375 -30.5128
   -30.4518 -30.4265 -30.4145 -30.3894 -30.3573 -30.3301 -30.3049 -30.2933
   -30.1255 -30.0678 -30.0603 -30.0410 -29.9747 -29.7685 -29.7446 -29.7375
    -7.9354  -7.9227  -7.8458  -7.8409  -7.7980  -7.7840  -7.7732  -7.7597
    -7.7588  -7.7213  -7.7149  -7.6203  -7.6176  -7.5959  -7.5549  -7.5249
    -7.5159  -7.5142  -7.4988  -7.4957  -7.4609  -7.4597  -7.4474  -7.4424
    -7.4112  -7.3929  -7.3379  -7.3357  -7.3177  -7.1729  -5.7858  -4.2981
    -3.5167  -2.7722  -2.6982  -1.9616  -1.0196  -0.9155  -0.1717   0.0678
     0.1951   0.4143   0.5708   0.7722   0.7935   0.8390   0.9248   1.2287
     1.2802   1.4838   1.5787   1.6633   1.6711   1.8646   1.9701   2.2248
     2.4930   2.5214   2.8805   2.9816   3.1886   3.6725

          k = 0.0536 0.0000 0.0000 ( 39340 PWs)   bands (ev):

   -61.9443 -61.9325 -61.8532 -61.8413 -61.4364 -61.4242 -30.5375 -30.5128
   -30.4517 -30.4265 -30.4144 -30.3895 -30.3572 -30.3300 -30.3049 -30.2933
   -30.1255 -30.0678 -30.0603 -30.0409 -29.9746 -29.7685 -29.7446 -29.7375
    -7.9359  -7.9263  -7.8499  -7.8462  -7.8005  -7.7834  -7.7745  -7.7644
    -7.7615  -7.7244  -7.7146  -7.6215  -7.6167  -7.5958  -7.5567  -7.5214
    -7.5167  -7.5132  -7.4993  -7.4936  -7.4682  -7.4577  -7.4502  -7.4447
    -7.4121  -7.3914  -7.3382  -7.3334  -7.3178  -7.1726  -5.8327  -4.3383
    -3.4088  -2.8318  -2.7118  -1.9445  -1.0828  -0.5040  -0.3455   0.1758
     0.3394   0.4721   0.4777   0.7011   0.7714   0.8192   0.9133   1.2960
     1.3905   1.4058   1.5035   1.6988   1.7454   1.9385   1.9476   2.0852
     2.4258   2.5386   2.7966   2.9336   3.1222   3.6127

          k = 0.0536 0.0154 0.0000 ( 39318 PWs)   bands (ev):

   -61.9443 -61.9325 -61.8532 -61.8413 -61.4364 -61.4242 -30.5375 -30.5128
   -30.4518 -30.4265 -30.4145 -30.3894 -30.3573 -30.3301 -30.3049 -30.2933
   -30.1255 -30.0678 -30.0603 -30.0410 -29.9747 -29.7685 -29.7446 -29.7375
    -7.9354  -7.9227  -7.8458  -7.8409  -7.7980  -7.7840  -7.7732  -7.7597
    -7.7588  -7.7213  -7.7149  -7.6203  -7.6176  -7.5959  -7.5549  -7.5249
    -7.5159  -7.5142  -7.4988  -7.4957  -7.4609  -7.4597  -7.4474  -7.4424
    -7.4112  -7.3929  -7.3379  -7.3357  -7.3177  -7.1729  -5.7858  -4.2981
    -3.5167  -2.7722  -2.6982  -1.9616  -1.0196  -0.9155  -0.1717   0.0678
     0.1951   0.4143   0.5708   0.7722   0.7935   0.8390   0.9248   1.2287
     1.2802   1.4838   1.5787   1.6633   1.6711   1.8646   1.9701   2.2248
     2.4930   2.5214   2.8805   2.9816   3.1886   3.6725

          k = 0.0670 0.0385 0.0000 ( 39374 PWs)   bands (ev):

   -61.9415 -61.9353 -61.8503 -61.8442 -61.4335 -61.4272 -30.5317 -30.5188
   -30.4458 -30.4327 -30.4088 -30.3956 -30.3243 -30.3112 -30.3023 -30.2381
   -30.1823 -30.1174 -30.0615 -30.0477 -29.9184 -29.7957 -29.7629 -29.7505
    -7.8814  -7.8502  -7.8130  -7.8125  -7.7699  -7.7432  -7.7115  -7.6980
    -7.6739  -7.6651  -7.6543  -7.6216  -7.6077  -7.5838  -7.5834  -7.5519
    -7.5440  -7.5341  -7.5174  -7.5029  -7.4856  -7.4729  -7.4572  -7.4517
    -7.4391  -7.4356  -7.4008  -7.3654  -7.3272  -7.2521  -5.2534  -4.2769
    -3.8458  -3.0867  -2.5348  -2.1869  -1.3324  -1.0387  -0.6114  -0.3742
     0.3595   0.3703   0.6798   0.7051   0.9361   0.9828   1.0168   1.2706
     1.2869   1.3954   1.6558   1.7150   1.7809   1.7964   2.0049   2.2659
     2.4645   2.7976   3.0433   3.0520   3.2997   3.5957

          k = 0.0670 0.0540 0.0000 ( 39349 PWs)   bands (ev):

   -61.9415 -61.9353 -61.8503 -61.8442 -61.4335 -61.4272 -30.5318 -30.5187
   -30.4460 -30.4326 -30.4092 -30.3954 -30.3246 -30.3110 -30.3024 -30.2382
   -30.1822 -30.1173 -30.0614 -30.0478 -29.9185 -29.7956 -29.7629 -29.7505
    -7.8795  -7.8379  -7.8137  -7.8001  -7.7644  -7.7247  -7.7076  -7.6852
    -7.6724  -7.6639  -7.6416  -7.6266  -7.6150  -7.5872  -7.5854  -7.5520
    -7.5465  -7.5363  -7.5226  -7.5005  -7.4873  -7.4658  -7.4537  -7.4504
    -7.4375  -7.4348  -7.3974  -7.3662  -7.3365  -7.2506  -4.9974  -4.5044
    -3.6676  -3.2111  -2.6931  -2.0741  -1.5847  -0.9537  -0.8229  -0.3192
     0.2527   0.3536   0.5163   0.6820   0.9506   1.0037   1.0916   1.1946
     1.2904   1.3786   1.6352   1.6608   1.8710   1.9356   1.9609   2.3348
     2.4693   2.8261   3.0645   3.1569   3.4358   3.5652

          k = 0.0670 0.0694 0.0000 ( 39335 PWs)   bands (ev):

   -61.9415 -61.9353 -61.8503 -61.8442 -61.4335 -61.4272 -30.5320 -30.5187
   -30.4461 -30.4325 -30.4096 -30.3952 -30.3249 -30.3109 -30.3025 -30.2383
   -30.1822 -30.1173 -30.0614 -30.0480 -29.9186 -29.7956 -29.7629 -29.7505
    -7.8780  -7.8257  -7.8110  -7.7834  -7.7656  -7.7098  -7.7065  -7.6746
    -7.6736  -7.6586  -7.6321  -7.6275  -7.6194  -7.5859  -7.5849  -7.5540
    -7.5521  -7.5383  -7.5260  -7.5003  -7.4897  -7.4596  -7.4513  -7.4503
    -7.4376  -7.4350  -7.3941  -7.3664  -7.3455  -7.2490  -4.6828  -4.6703
    -3.5996  -3.3315  -2.8332  -2.0209  -1.8854  -0.9874  -0.6296  -0.1307
    -0.0199   0.2091   0.5779   0.6143   0.8382   1.0371   1.1133   1.1273
     1.2417   1.4111   1.6253   1.7716   1.8421   2.0706   2.1096   2.4103
     2.4418   2.7602   2.9036   3.1439   3.2523   3.4317

          k = 0.0670 0.0848 0.0000 ( 39356 PWs)   bands (ev):

   -61.9415 -61.9353 -61.8503 -61.8442 -61.4335 -61.4272 -30.5320 -30.5186
   -30.4461 -30.4324 -30.4098 -30.3951 -30.3250 -30.3108 -30.3026 -30.2384
   -30.1822 -30.1172 -30.0614 -30.0481 -29.9187 -29.7956 -29.7629 -29.7505
    -7.8771  -7.8226  -7.7997  -7.7725  -7.7682  -7.7177  -7.6949  -7.6755
    -7.6667  -7.6538  -7.6365  -7.6212  -7.6171  -7.5856  -7.5799  -7.5575
    -7.5564  -7.5406  -7.5280  -7.5012  -7.4911  -7.4552  -7.4514  -7.4500
    -7.4381  -7.4355  -7.3924  -7.3660  -7.3513  -7.2479  -4.7576  -4.3612
    -3.7996  -3.4002  -2.6813  -2.2514  -2.0143  -0.7653  -0.4907  -0.3979
     0.0600   0.2521   0.4691   0.6207   0.7104   1.0456   1.0570   1.1200
     1.2180   1.5171   1.6056   1.7294   1.9788   2.1434   2.2702   2.4346
     2.4666   2.6306   2.7226   3.1118   3.1576   3.2319

          k = 0.0670 0.1002 0.0000 ( 39356 PWs)   bands (ev):

   -61.9415 -61.9353 -61.8503 -61.8442 -61.4335 -61.4272 -30.5320 -30.5186
   -30.4461 -30.4324 -30.4098 -30.3951 -30.3250 -30.3108 -30.3026 -30.2384
   -30.1822 -30.1172 -30.0614 -30.0481 -29.9187 -29.7956 -29.7629 -29.7505
    -7.8771  -7.8226  -7.7997  -7.7725  -7.7682  -7.7177  -7.6949  -7.6755
    -7.6667  -7.6538  -7.6365  -7.6212  -7.6171  -7.5856  -7.5799  -7.5575
    -7.5564  -7.5406  -7.5280  -7.5012  -7.4911  -7.4552  -7.4514  -7.4500
    -7.4381  -7.4355  -7.3924  -7.3660  -7.3513  -7.2479  -4.7576  -4.3612
    -3.7996  -3.4002  -2.6813  -2.2514  -2.0143  -0.7653  -0.4907  -0.3979
     0.0600   0.2521   0.4691   0.6207   0.7104   1.0456   1.0570   1.1200
     1.2180   1.5171   1.6056   1.7294   1.9788   2.1434   2.2702   2.4346
     2.4666   2.6306   2.7226   3.1119   3.1576   3.2319

          k = 0.0670 0.1156 0.0000 ( 39335 PWs)   bands (ev):

   -61.9415 -61.9353 -61.8503 -61.8442 -61.4335 -61.4272 -30.5320 -30.5187
   -30.4461 -30.4325 -30.4096 -30.3952 -30.3249 -30.3109 -30.3025 -30.2383
   -30.1822 -30.1173 -30.0614 -30.0480 -29.9186 -29.7956 -29.7629 -29.7505
    -7.8780  -7.8257  -7.8110  -7.7834  -7.7656  -7.7098  -7.7065  -7.6746
    -7.6736  -7.6586  -7.6321  -7.6275  -7.6194  -7.5859  -7.5849  -7.5540
    -7.5521  -7.5383  -7.5260  -7.5003  -7.4897  -7.4596  -7.4513  -7.4503
    -7.4376  -7.4350  -7.3941  -7.3664  -7.3455  -7.2490  -4.6828  -4.6703
    -3.5996  -3.3315  -2.8332  -2.0209  -1.8854  -0.9874  -0.6296  -0.1307
    -0.0199   0.2091   0.5779   0.6143   0.8382   1.0371   1.1133   1.1273
     1.2417   1.4111   1.6253   1.7716   1.8421   2.0706   2.1096   2.4103
     2.4418   2.7602   2.9037   3.1440   3.2523   3.4317

          k = 0.0670-0.0540 0.0000 ( 39349 PWs)   bands (ev):

   -61.9415 -61.9353 -61.8503 -61.8442 -61.4335 -61.4272 -30.5318 -30.5187
   -30.4460 -30.4326 -30.4092 -30.3954 -30.3246 -30.3110 -30.3024 -30.2382
   -30.1822 -30.1173 -30.0614 -30.0478 -29.9185 -29.7956 -29.7629 -29.7505
    -7.8795  -7.8379  -7.8137  -7.8001  -7.7644  -7.7247  -7.7076  -7.6852
    -7.6724  -7.6639  -7.6416  -7.6266  -7.6150  -7.5872  -7.5854  -7.5520
    -7.5465  -7.5363  -7.5226  -7.5005  -7.4873  -7.4658  -7.4537  -7.4504
    -7.4375  -7.4348  -7.3974  -7.3662  -7.3365  -7.2506  -4.9974  -4.5044
    -3.6676  -3.2111  -2.6931  -2.0741  -1.5847  -0.9537  -0.8229  -0.3192
     0.2527   0.3536   0.5163   0.6820   0.9506   1.0037   1.0916   1.1946
     1.2904   1.3786   1.6352   1.6608   1.8710   1.9356   1.9609   2.3348
     2.4693   2.8261   3.0645   3.1569   3.4369   3.5661

          k = 0.0670-0.0385 0.0000 ( 39374 PWs)   bands (ev):

   -61.9415 -61.9353 -61.8503 -61.8442 -61.4335 -61.4272 -30.5317 -30.5188
   -30.4458 -30.4327 -30.4088 -30.3956 -30.3243 -30.3112 -30.3023 -30.2381
   -30.1823 -30.1174 -30.0615 -30.0477 -29.9184 -29.7957 -29.7629 -29.7505
    -7.8814  -7.8502  -7.8130  -7.8125  -7.7699  -7.7432  -7.7115  -7.6980
    -7.6739  -7.6651  -7.6543  -7.6216  -7.6077  -7.5838  -7.5834  -7.5519
    -7.5440  -7.5341  -7.5174  -7.5029  -7.4856  -7.4729  -7.4572  -7.4517
    -7.4391  -7.4356  -7.4008  -7.3654  -7.3272  -7.2521  -5.2534  -4.2769
    -3.8458  -3.0867  -2.5348  -2.1869  -1.3323  -1.0387  -0.6114  -0.3742
     0.3595   0.3703   0.6798   0.7051   0.9361   0.9828   1.0168   1.2706
     1.2869   1.3954   1.6558   1.7150   1.7809   1.7964   2.0049   2.2659
     2.4645   2.7977   3.0433   3.0521   3.2997   3.5970

          k = 0.0670-0.0231 0.0000 ( 39354 PWs)   bands (ev):

   -61.9415 -61.9353 -61.8503 -61.8442 -61.4335 -61.4272 -30.5316 -30.5189
   -30.4457 -30.4327 -30.4085 -30.3958 -30.3241 -30.3113 -30.3022 -30.2380
   -30.1824 -30.1174 -30.0615 -30.0475 -29.9183 -29.7957 -29.7628 -29.7505
    -7.8831  -7.8578  -7.8208  -7.8115  -7.7778  -7.7580  -7.7167  -7.7077
    -7.6782  -7.6637  -7.6637  -7.6175  -7.5987  -7.5815  -7.5765  -7.5539
    -7.5459  -7.5294  -7.5111  -7.5062  -7.4896  -7.4766  -7.4616  -7.4539
    -7.4420  -7.4374  -7.4026  -7.3645  -7.3198  -7.2532  -5.4330  -4.0149
    -3.9919  -3.0650  -2.5050  -2.2499  -1.2876  -0.9513  -0.2486  -0.1750
     0.2269   0.4053   0.6446   0.6510   0.8770   1.0451   1.0993   1.1601
     1.3396   1.4694   1.6327   1.6891   1.8053   1.8675   2.0774   2.2237
     2.4306   2.6526   2.8789   2.9099   3.0107   3.5483

          k = 0.0670-0.0077 0.0000 ( 39339 PWs)   bands (ev):

   -61.9415 -61.9353 -61.8503 -61.8442 -61.4335 -61.4272 -30.5315 -30.5189
   -30.4456 -30.4328 -30.4083 -30.3959 -30.3239 -30.3113 -30.3021 -30.2379
   -30.1824 -30.1175 -30.0615 -30.0474 -29.9183 -29.7957 -29.7628 -29.7504
    -7.8841  -7.8608  -7.8242  -7.8111  -7.7829  -7.7668  -7.7199  -7.7126
    -7.6811  -7.6688  -7.6628  -7.6150  -7.5909  -7.5798  -7.5718  -7.5560
    -7.5497  -7.5230  -7.5100  -7.5039  -7.4978  -7.4766  -7.4658  -7.4559
    -7.4441  -7.4390  -7.4031  -7.3639  -7.3157  -7.2536  -5.5256  -4.0700
    -3.7838  -3.1819  -2.5198  -2.1925  -1.4896  -0.5230  -0.0332  -0.0217
     0.2256   0.2391   0.5158   0.6679   0.8044   0.9890   1.0110   1.3373
     1.4502   1.4820   1.5402   1.6670   1.8938   2.0120   2.1000   2.2149
     2.3974   2.4682   2.7545   2.8006   2.8505   3.4302

          k = 0.0670 0.0077 0.0000 ( 39339 PWs)   bands (ev):

   -61.9415 -61.9353 -61.8503 -61.8442 -61.4335 -61.4272 -30.5315 -30.5189
   -30.4456 -30.4328 -30.4083 -30.3959 -30.3239 -30.3113 -30.3021 -30.2379
   -30.1824 -30.1175 -30.0615 -30.0474 -29.9183 -29.7957 -29.7628 -29.7504
    -7.8841  -7.8608  -7.8242  -7.8111  -7.7829  -7.7668  -7.7199  -7.7126
    -7.6811  -7.6688  -7.6628  -7.6150  -7.5909  -7.5798  -7.5718  -7.5560
    -7.5497  -7.5230  -7.5100  -7.5039  -7.4978  -7.4766  -7.4658  -7.4559
    -7.4441  -7.4390  -7.4031  -7.3639  -7.3157  -7.2536  -5.5256  -4.0700
    -3.7838  -3.1819  -2.5198  -2.1925  -1.4896  -0.5230  -0.0332  -0.0217
     0.2256   0.2391   0.5158   0.6679   0.8044   0.9890   1.0110   1.3373
     1.4502   1.4820   1.5402   1.6670   1.8938   2.0120   2.1000   2.2149
     2.3974   2.4682   2.7545   2.8006   2.8505   3.4302

          k = 0.0670 0.0231 0.0000 ( 39354 PWs)   bands (ev):

   -61.9415 -61.9353 -61.8503 -61.8442 -61.4335 -61.4272 -30.5316 -30.5189
   -30.4457 -30.4327 -30.4085 -30.3958 -30.3241 -30.3113 -30.3022 -30.2380
   -30.1824 -30.1174 -30.0615 -30.0475 -29.9183 -29.7957 -29.7628 -29.7505
    -7.8831  -7.8578  -7.8208  -7.8115  -7.7778  -7.7580  -7.7167  -7.7077
    -7.6782  -7.6637  -7.6637  -7.6175  -7.5987  -7.5815  -7.5765  -7.5539
    -7.5459  -7.5294  -7.5111  -7.5062  -7.4896  -7.4766  -7.4616  -7.4539
    -7.4420  -7.4374  -7.4026  -7.3645  -7.3198  -7.2532  -5.4330  -4.0149
    -3.9919  -3.0650  -2.5050  -2.2499  -1.2876  -0.9513  -0.2486  -0.1750
     0.2269   0.4053   0.6446   0.6510   0.8770   1.0451   1.0993   1.1601
     1.3396   1.4695   1.6327   1.6891   1.8053   1.8675   2.0774   2.2237
     2.4306   2.6526   2.8789   2.9099   3.0107   3.5484

          k =-0.0804-0.0463 0.0000 ( 39366 PWs)   bands (ev):

   -61.9385 -61.9383 -61.8473 -61.8472 -61.4303 -61.4303 -30.5253 -30.5252
   -30.4393 -30.4392 -30.4023 -30.4022 -30.3178 -30.3178 -30.2427 -30.2426
   -30.1781 -30.1780 -30.0546 -30.0546 -29.8574 -29.8574 -29.7567 -29.7567
    -7.8426  -7.8425  -7.8088  -7.8088  -7.7389  -7.7389  -7.6808  -7.6808
    -7.6389  -7.6389  -7.6207  -7.6207  -7.5947  -7.5946  -7.5659  -7.5659
    -7.5453  -7.5453  -7.5250  -7.5250  -7.5124  -7.5124  -7.4754  -7.4754
    -7.4261  -7.4261  -7.4099  -7.4099  -7.3043  -7.3043  -4.7915  -4.7915
    -3.4702  -3.4701  -2.3767  -2.3767  -1.1971  -1.1971  -0.5642  -0.5642
     0.3841   0.3841   0.6760   0.6760   1.0461   1.0461   1.1623   1.1623
     1.3647   1.3647   1.6478   1.6478   1.8523   1.8524   2.1382   2.1382
     2.6093   2.6093   3.0143   3.0143   3.4438   3.4440

          k =-0.0804-0.0308 0.0000 ( 39353 PWs)   bands (ev):

   -61.9385 -61.9383 -61.8473 -61.8472 -61.4303 -61.4303 -30.5254 -30.5251
   -30.4394 -30.4391 -30.4026 -30.4020 -30.3180 -30.3176 -30.2427 -30.2425
   -30.1781 -30.1780 -30.0547 -30.0545 -29.8574 -29.8573 -29.7567 -29.7567
    -7.8447  -7.8406  -7.8067  -7.8051  -7.7467  -7.7365  -7.6957  -7.6643
    -7.6464  -7.6304  -7.6245  -7.6167  -7.5977  -7.5874  -7.5673  -7.5645
    -7.5508  -7.5427  -7.5251  -7.5241  -7.5148  -7.5097  -7.4778  -7.4766
    -7.4265  -7.4261  -7.4108  -7.4093  -7.3107  -7.2977  -5.0024  -4.5204
    -3.6235  -3.3485  -2.5196  -2.2909  -1.4543  -0.9256  -0.6687  -0.2631
     0.2691   0.3916   0.5451   0.7251   1.0018   1.0669   1.1776   1.2433
     1.2456   1.3810   1.6264   1.7187   1.8536   1.9605   2.1150   2.2185
     2.5646   2.6108   2.8611   2.9649   3.1741   3.5018

          k =-0.0804-0.0154 0.0000 ( 39351 PWs)   bands (ev):

   -61.9385 -61.9383 -61.8473 -61.8472 -61.4303 -61.4303 -30.5255 -30.5251
   -30.4395 -30.4391 -30.4028 -30.4018 -30.3181 -30.3174 -30.2428 -30.2425
   -30.1782 -30.1779 -30.0548 -30.0544 -29.8575 -29.8573 -29.7567 -29.7567
    -7.8464  -7.8393  -7.8017  -7.7956  -7.7589  -7.7380  -7.7060  -7.6503
    -7.6503  -7.6310  -7.6185  -7.6174  -7.5937  -7.5817  -7.5697  -7.5611
    -7.5552  -7.5453  -7.5256  -7.5251  -7.5115  -7.5082  -7.4833  -7.4796
    -7.4272  -7.4263  -7.4115  -7.4089  -7.3151  -7.2930  -5.1360  -4.2218
    -3.7314  -3.4199  -2.5067  -2.2839  -1.7625  -0.5946  -0.5281   0.0234
     0.0725   0.2256   0.5674   0.7230   0.7873   1.1243   1.1382   1.2240
     1.2614   1.4617   1.5967   1.7912   1.9256   2.1174   2.2271   2.3122
     2.4816   2.4963   2.6568   2.8251   2.9518   3.3460

          k =-0.0804 0.0000 0.0000 ( 39344 PWs)   bands (ev):

   -61.9385 -61.9383 -61.8473 -61.8472 -61.4303 -61.4303 -30.5255 -30.5250
   -30.4395 -30.4390 -30.4029 -30.4017 -30.3182 -30.3174 -30.2428 -30.2424
   -30.1782 -30.1779 -30.0548 -30.0544 -29.8575 -29.8572 -29.7567 -29.7567
    -7.8471  -7.8389  -7.7990  -7.7872  -7.7683  -7.7394  -7.7096  -7.6513
    -7.6446  -7.6320  -7.6185  -7.6147  -7.5903  -7.5806  -7.5713  -7.5575
    -7.5567  -7.5482  -7.5276  -7.5251  -7.5078  -7.5076  -7.4870  -7.4812
    -7.4276  -7.4264  -7.4119  -7.4088  -7.3167  -7.2912  -5.1818  -4.0333
    -3.7694  -3.5616  -2.3967  -2.2903  -1.9547  -0.3903  -0.2972  -0.2076
     0.0197   0.3752   0.5089   0.5676   0.8848   0.9824   1.1158   1.2589
     1.2685   1.5856   1.6339   1.6553   2.1205   2.2042   2.2632   2.3759
     2.3988   2.4408   2.5036   2.7426   2.8904   3.2343

          k =-0.0804 0.0154 0.0000 ( 39351 PWs)   bands (ev):

   -61.9385 -61.9383 -61.8473 -61.8472 -61.4303 -61.4303 -30.5255 -30.5251
   -30.4395 -30.4391 -30.4028 -30.4018 -30.3181 -30.3174 -30.2428 -30.2425
   -30.1782 -30.1779 -30.0548 -30.0544 -29.8575 -29.8573 -29.7567 -29.7567
    -7.8464  -7.8393  -7.8017  -7.7956  -7.7589  -7.7380  -7.7060  -7.6503
    -7.6503  -7.6310  -7.6185  -7.6174  -7.5937  -7.5817  -7.5697  -7.5611
    -7.5552  -7.5453  -7.5256  -7.5251  -7.5115  -7.5082  -7.4833  -7.4796
    -7.4272  -7.4263  -7.4115  -7.4089  -7.3151  -7.2930  -5.1360  -4.2218
    -3.7314  -3.4199  -2.5067  -2.2839  -1.7625  -0.5946  -0.5281   0.0234
     0.0725   0.2256   0.5674   0.7230   0.7873   1.1243   1.1382   1.2240
     1.2614   1.4617   1.5967   1.7912   1.9256   2.1174   2.2271   2.3122
     2.4816   2.4963   2.6568   2.8251   2.9518   3.3460

          k =-0.0804 0.0308 0.0000 ( 39353 PWs)   bands (ev):

   -61.9385 -61.9383 -61.8473 -61.8472 -61.4303 -61.4303 -30.5254 -30.5251
   -30.4394 -30.4391 -30.4026 -30.4020 -30.3180 -30.3176 -30.2427 -30.2425
   -30.1781 -30.1780 -30.0547 -30.0545 -29.8574 -29.8573 -29.7567 -29.7567
    -7.8447  -7.8406  -7.8067  -7.8051  -7.7467  -7.7365  -7.6957  -7.6643
    -7.6464  -7.6304  -7.6245  -7.6167  -7.5977  -7.5874  -7.5673  -7.5645
    -7.5508  -7.5427  -7.5251  -7.5241  -7.5148  -7.5097  -7.4778  -7.4766
    -7.4265  -7.4261  -7.4108  -7.4093  -7.3107  -7.2977  -5.0024  -4.5204
    -3.6235  -3.3485  -2.5196  -2.2909  -1.4543  -0.9256  -0.6687  -0.2631
     0.2691   0.3916   0.5451   0.7251   1.0018   1.0669   1.1776   1.2433
     1.2456   1.3810   1.6264   1.7187   1.8536   1.9605   2.1150   2.2185
     2.5646   2.6108   2.8611   2.9648   3.1741   3.4971

          k =-0.0804-0.1388 0.0000 ( 39366 PWs)   bands (ev):

   -61.9385 -61.9383 -61.8473 -61.8472 -61.4303 -61.4303 -30.5253 -30.5252
   -30.4393 -30.4392 -30.4023 -30.4022 -30.3178 -30.3178 -30.2427 -30.2426
   -30.1781 -30.1780 -30.0546 -30.0546 -29.8574 -29.8574 -29.7567 -29.7567
    -7.8426  -7.8425  -7.8088  -7.8088  -7.7389  -7.7389  -7.6808  -7.6808
    -7.6389  -7.6389  -7.6207  -7.6207  -7.5947  -7.5946  -7.5659  -7.5659
    -7.5453  -7.5453  -7.5250  -7.5250  -7.5124  -7.5124  -7.4754  -7.4754
    -7.4261  -7.4261  -7.4099  -7.4099  -7.3043  -7.3043  -4.7915  -4.7915
    -3.4702  -3.4701  -2.3767  -2.3767  -1.1971  -1.1971  -0.5642  -0.5642
     0.3841   0.3841   0.6760   0.6760   1.0461   1.0461   1.1623   1.1623
     1.3647   1.3647   1.6478   1.6478   1.8523   1.8524   2.1382   2.1382
     2.6093   2.6093   3.0143   3.0143   3.4437   3.4440

     the Fermi energy is     1.1245 ev

!    total energy              =   -1364.21944993 Ry
     estimated scf accuracy    <       0.00000384 Ry
     smearing contrib. (-TS)   =      -0.06838798 Ry
     internal energy E=F+TS    =   -1364.15106196 Ry

     The total energy is F=E-TS. E is the sum of the following terms:
     one-electron contribution =   -8760.94895630 Ry
     hartree contribution      =    4413.83124071 Ry
     xc contribution           =    -398.96840202 Ry
     ewald contribution        =    3381.93505065 Ry
     electric field correction =       0.00000500 Ry

     convergence has been achieved in  17 iterations

     negative rho (up, down):  2.730E-03 0.000E+00

     Forces acting on atoms (cartesian axes, Ry/au):

     atom    1 type  1   force =     0.00000736    0.00080706   -0.01431024
     atom    2 type  1   force =    -0.00000437    0.00081824   -0.01433445
     atom    3 type  2   force =    -0.00000254    0.00386679    0.01511999
     atom    4 type  2   force =    -0.00000007    0.00387443    0.01512899
     atom    5 type  1   force =    -0.00001994    0.00433655   -0.00431180
     atom    6 type  1   force =     0.00001892    0.00432978   -0.00431455
     atom    7 type  2   force =    -0.00000009   -0.00818790    0.00216816
     atom    8 type  2   force =    -0.00000208   -0.00817085    0.00218272
     atom    9 type  1   force =     0.00000353    0.00024164   -0.00039476
     atom   10 type  1   force =     0.00000099    0.00023666   -0.00039430
     atom   11 type  2   force =    -0.00000034   -0.00107481    0.00172685
     atom   12 type  2   force =    -0.00000137   -0.00107759    0.00173338

     Total force =     0.033553     Total SCF correction =     0.009276
     SCF correction compared to forces is large: reduce conv_thr to get better values

     Writing output data file ./Cd2Hf2/Cd2Hf2_beef.save/

     init_run     :     92.43s CPU    132.01s WALL (       1 calls)
     electrons    :   3386.12s CPU   4664.70s WALL (       1 calls)
     forces       :     52.76s CPU     71.46s WALL (       1 calls)

     Called by init_run:
     wfcinit      :     79.85s CPU    115.61s WALL (       1 calls)
     potinit      :      7.32s CPU      9.74s WALL (       1 calls)
     hinit0       :      2.23s CPU      2.63s WALL (       1 calls)

     Called by electrons:
     c_bands      :   2963.65s CPU   4051.68s WALL (      17 calls)
     sum_band     :    381.91s CPU    553.49s WALL (      17 calls)
     v_of_rho     :     29.10s CPU     42.94s WALL (      18 calls)
     newd         :     17.53s CPU     23.21s WALL (      18 calls)
     mix_rho      :      0.71s CPU      1.35s WALL (      17 calls)
     vdW_kernel   :      4.76s CPU      6.09s WALL (       1 calls)

     Called by c_bands:
     init_us_2    :      8.99s CPU      9.43s WALL (    2664 calls)
     cegterg      :   2935.41s CPU   4005.83s WALL (    1258 calls)

     Called by *egterg:
     cdiaghg      :    187.69s CPU    234.14s WALL (    7339 calls)
     h_psi        :   1603.90s CPU   2297.34s WALL (    7413 calls)
     s_psi        :    407.91s CPU    416.28s WALL (    7413 calls)
     g_psi        :      1.64s CPU      1.77s WALL (    6081 calls)

     Called by h_psi:
     h_psi:calbec :    501.11s CPU    639.67s WALL (    7413 calls)
     vloc_psi     :    683.04s CPU   1229.01s WALL (    7413 calls)
     add_vuspsi   :    416.72s CPU    425.22s WALL (    7413 calls)

     General routines
     calbec       :    751.94s CPU    957.86s WALL (    8967 calls)
     fft          :     15.61s CPU     32.42s WALL (    1193 calls)
     ffts         :      0.10s CPU      0.35s WALL (      35 calls)
     fftw         :    756.78s CPU   1401.84s WALL (  643148 calls)
     interpolate  :      0.33s CPU      0.73s WALL (      18 calls)

     Parallel routines
     fft_scatt_xy :     60.43s CPU     75.90s WALL (  644376 calls)
     fft_scatt_yz :    290.98s CPU    858.35s WALL (  644376 calls)

     PWSCF        :  59m 9.40s CPU      1h23m WALL


   This run was terminated on:  20: 3:43  23Jun2022            

=------------------------------------------------------------------------------=
   JOB DONE.
=------------------------------------------------------------------------------=
