
     Program PWSCF v.6.6 starts on 10Jul2022 at 13: 1:28 

     This program is part of the open-source Quantum ESPRESSO suite
     for quantum simulation of materials; please cite
         "P. Giannozzi et al., J. Phys.:Condens. Matter 21 395502 (2009);
         "P. Giannozzi et al., J. Phys.:Condens. Matter 29 465901 (2017);
          URL http://www.quantum-espresso.org", 
     in publications or presentations arising from this work. More details at
     http://www.quantum-espresso.org/quote

     Parallel version (MPI), running on    37 processors

     MPI processes distributed on     3 nodes
     R & G space division:  proc/nbgrp/npool/nimage =      37
     Fft bands division:     nmany     =       1
     Reading input from Cd2Hg2.in
Warning: card &CELL ignored
Warning: card / ignored

     Current dimensions of program PWSCF are:
     Max number of different atomic species (ntypx) = 10
     Max number of k-points (npk) =  40000
     Max angular momentum in pseudopotentials (lmaxx) =  3
     Presently stress not available with electric field and gates

     Message from routine cell_base_init:
     DEPRECATED: use true lattice parameter, not A to a.u. conversion factor
     file Cd.pbe-n-rrkjus_psl.1.0.0.UPF: wavefunction(s)  4D renormalized
     file Hg.pbe-n-rrkjus_psl.1.0.0.UPF: wavefunction(s)  6S renormalized

     **************************************************************************
     Initializing libbeef V0.1.2 with the BEEF-vdW functional.
     Citation: Wellendorff et al., PRB 85, 235149 (2012).
     **************************************************************************


     IMPORTANT: XC functional enforced from input :
     Exchange-correlation= BEEF-VDW
                           (   1   4  43  14   2   0   0)
     Any further DFT definition will be discarded
     Please, verify this is what you really want


     Subspace diagonalization in iterative solution of the eigenvalue problem:
     a serial algorithm will be used


     Parallelization info
     --------------------
     sticks:   dense  smooth     PW     G-vecs:    dense   smooth      PW
     Min         171      68     19                41317    10450    1537
     Max         172      69     21                41338    10471    1544
     Sum        6361    2545    715              1529235   387083   57007



     bravais-lattice index     =            0
     lattice parameter (alat)  =       1.8897  a.u.
     unit-cell volume          =    6999.4456 (a.u.)^3
     number of atoms/cell      =           12
     number of atomic types    =            2
     number of electrons       =       144.00
     number of Kohn-Sham states=           86
     kinetic-energy cutoff     =      55.1240  Ry
     charge density cutoff     =     551.2396  Ry
     convergence threshold     =      1.0E-05
     mixing beta               =       0.1000
     number of iterations used =           10  plain     mixing
     Exchange-correlation= BEEF-VDW
                           (   1   4  43  14   2   0   0)

     celldm(1)=   1.889726  celldm(2)=   0.000000  celldm(3)=   0.000000
     celldm(4)=   0.000000  celldm(5)=   0.000000  celldm(6)=   0.000000

     crystal axes: (cart. coord. in units of alat)
               a(1) = (   6.638598   0.000000   0.000000 )  
               a(2) = (   2.549114   6.129682   0.000000 )  
               a(3) = (   0.000000   0.000000  25.489001 )  

     reciprocal axes: (cart. coord. in units 2 pi/alat)
               b(1) = (  0.150634 -0.062643  0.000000 )  
               b(2) = (  0.000000  0.163141  0.000000 )  
               b(3) = (  0.000000  0.000000  0.039233 )  


     PseudoPot. # 1 for Cd read from file:
     ../pseudo/Cd.pbe-n-rrkjus_psl.1.0.0.UPF
     MD5 check sum: a744746c89d2344a134ead0d8ab94e7a
     Pseudo is Ultrasoft + core correction, Zval = 12.0
     Generated using "atomic" code by A. Dal Corso v.6.3
     Using radial grid of 1239 points,  6 beta functions with: 
                l(1) =   0
                l(2) =   0
                l(3) =   1
                l(4) =   1
                l(5) =   2
                l(6) =   2
     Q(r) pseudized with 0 coefficients 


     PseudoPot. # 2 for Hg read from file:
     ../pseudo/Hg.pbe-n-rrkjus_psl.1.0.0.UPF
     MD5 check sum: 7519ac2e5b9cac440d3cfd4127d6ea3c
     Pseudo is Ultrasoft + core correction, Zval = 12.0
     Generated using "atomic" code by A. Dal Corso v.6.3
     Using radial grid of 1279 points,  6 beta functions with: 
                l(1) =   0
                l(2) =   0
                l(3) =   1
                l(4) =   1
                l(5) =   2
                l(6) =   2
     Q(r) pseudized with 0 coefficients 


     atomic species   valence    mass     pseudopotential
        Cd            12.00   112.41400     Cd( 1.00)
        Hg            12.00   200.59200     Hg( 1.00)

     No symmetry found



   Cartesian axes

     site n.     atom                  positions (alat units)
         1           Cd  tau(   1) = (   0.0000000   0.0000000  10.0000000  )
         2           Cd  tau(   2) = (   4.5938556   3.0648408  10.0000000  )
         3           Hg  tau(   3) = (   3.3192988   0.0000000  10.0000000  )
         4           Hg  tau(   4) = (   1.2745568   3.0648408  10.0000000  )
         5           Cd  tau(   5) = (   6.6385975   4.4290127  12.7445007  )
         6           Cd  tau(   6) = (   2.0447420   1.3641719  12.7445007  )
         7           Hg  tau(   7) = (   3.3192988   4.4290127  12.7445007  )
         8           Hg  tau(   8) = (   5.3640407   1.3641719  12.7445007  )
         9           Cd  tau(   9) = (   4.0964184   2.7329049  15.5750292  )
        10           Cd  tau(  10) = (   8.6902763   5.7980129  15.5748285  )
        11           Hg  tau(  11) = (   7.4214180   2.7367450  15.7319799  )
        12           Hg  tau(  12) = (   5.3766309   5.8016696  15.7319237  )

     number of k points=    74  Fermi-Dirac smearing, width (Ry)=  0.0100
                       cart. coord. in units 2pi/alat
        k(    1) = (   0.0000000   0.0000000   0.0000000), wk =   0.0138889
        k(    2) = (   0.0000000   0.0135951   0.0000000), wk =   0.0277778
        k(    3) = (   0.0000000   0.0271901   0.0000000), wk =   0.0277778
        k(    4) = (   0.0000000   0.0407852   0.0000000), wk =   0.0277778
        k(    5) = (   0.0000000   0.0543802   0.0000000), wk =   0.0277778
        k(    6) = (   0.0000000   0.0679753   0.0000000), wk =   0.0277778
        k(    7) = (   0.0000000  -0.0815703   0.0000000), wk =   0.0138889
        k(    8) = (   0.0125529  -0.0052203   0.0000000), wk =   0.0277778
        k(    9) = (   0.0125529   0.0083748   0.0000000), wk =   0.0277778
        k(   10) = (   0.0125529   0.0219698   0.0000000), wk =   0.0277778
        k(   11) = (   0.0125529   0.0355649   0.0000000), wk =   0.0277778
        k(   12) = (   0.0125529   0.0491599   0.0000000), wk =   0.0277778
        k(   13) = (   0.0125529   0.0627550   0.0000000), wk =   0.0277778
        k(   14) = (   0.0125529  -0.0867906   0.0000000), wk =   0.0277778
        k(   15) = (   0.0125529  -0.0731955   0.0000000), wk =   0.0277778
        k(   16) = (   0.0125529  -0.0596005   0.0000000), wk =   0.0277778
        k(   17) = (   0.0125529  -0.0460054   0.0000000), wk =   0.0277778
        k(   18) = (   0.0125529  -0.0324104   0.0000000), wk =   0.0277778
        k(   19) = (   0.0125529  -0.0188153   0.0000000), wk =   0.0277778
        k(   20) = (   0.0251057  -0.0104406   0.0000000), wk =   0.0277778
        k(   21) = (   0.0251057   0.0031545   0.0000000), wk =   0.0277778
        k(   22) = (   0.0251057   0.0167495   0.0000000), wk =   0.0277778
        k(   23) = (   0.0251057   0.0303446   0.0000000), wk =   0.0277778
        k(   24) = (   0.0251057   0.0439396   0.0000000), wk =   0.0277778
        k(   25) = (   0.0251057   0.0575347   0.0000000), wk =   0.0277778
        k(   26) = (   0.0251057  -0.0920109   0.0000000), wk =   0.0277778
        k(   27) = (   0.0251057  -0.0784158   0.0000000), wk =   0.0277778
        k(   28) = (   0.0251057  -0.0648208   0.0000000), wk =   0.0277778
        k(   29) = (   0.0251057  -0.0512257   0.0000000), wk =   0.0277778
        k(   30) = (   0.0251057  -0.0376307   0.0000000), wk =   0.0277778
        k(   31) = (   0.0251057  -0.0240356   0.0000000), wk =   0.0277778
        k(   32) = (   0.0376586  -0.0156608   0.0000000), wk =   0.0277778
        k(   33) = (   0.0376586  -0.0020658   0.0000000), wk =   0.0277778
        k(   34) = (   0.0376586   0.0115293   0.0000000), wk =   0.0277778
        k(   35) = (   0.0376586   0.0251243   0.0000000), wk =   0.0277778
        k(   36) = (   0.0376586   0.0387194   0.0000000), wk =   0.0277778
        k(   37) = (   0.0376586   0.0523144   0.0000000), wk =   0.0277778
        k(   38) = (   0.0376586  -0.0972311   0.0000000), wk =   0.0277778
        k(   39) = (   0.0376586  -0.0836361   0.0000000), wk =   0.0277778
        k(   40) = (   0.0376586  -0.0700410   0.0000000), wk =   0.0277778
        k(   41) = (   0.0376586  -0.0564460   0.0000000), wk =   0.0277778
        k(   42) = (   0.0376586  -0.0428509   0.0000000), wk =   0.0277778
        k(   43) = (   0.0376586  -0.0292559   0.0000000), wk =   0.0277778
        k(   44) = (   0.0502114  -0.0208811   0.0000000), wk =   0.0277778
        k(   45) = (   0.0502114  -0.0072861   0.0000000), wk =   0.0277778
        k(   46) = (   0.0502114   0.0063090   0.0000000), wk =   0.0277778
        k(   47) = (   0.0502114   0.0199040   0.0000000), wk =   0.0277778
        k(   48) = (   0.0502114   0.0334991   0.0000000), wk =   0.0277778
        k(   49) = (   0.0502114   0.0470941   0.0000000), wk =   0.0277778
        k(   50) = (   0.0502114  -0.1024514   0.0000000), wk =   0.0277778
        k(   51) = (   0.0502114  -0.0888564   0.0000000), wk =   0.0277778
        k(   52) = (   0.0502114  -0.0752613   0.0000000), wk =   0.0277778
        k(   53) = (   0.0502114  -0.0616663   0.0000000), wk =   0.0277778
        k(   54) = (   0.0502114  -0.0480712   0.0000000), wk =   0.0277778
        k(   55) = (   0.0502114  -0.0344762   0.0000000), wk =   0.0277778
        k(   56) = (   0.0627643  -0.0261014   0.0000000), wk =   0.0277778
        k(   57) = (   0.0627643  -0.0125063   0.0000000), wk =   0.0277778
        k(   58) = (   0.0627643   0.0010887   0.0000000), wk =   0.0277778
        k(   59) = (   0.0627643   0.0146838   0.0000000), wk =   0.0277778
        k(   60) = (   0.0627643   0.0282788   0.0000000), wk =   0.0277778
        k(   61) = (   0.0627643   0.0418739   0.0000000), wk =   0.0277778
        k(   62) = (   0.0627643  -0.1076717   0.0000000), wk =   0.0277778
        k(   63) = (   0.0627643  -0.0940766   0.0000000), wk =   0.0277778
        k(   64) = (   0.0627643  -0.0804816   0.0000000), wk =   0.0277778
        k(   65) = (   0.0627643  -0.0668865   0.0000000), wk =   0.0277778
        k(   66) = (   0.0627643  -0.0532915   0.0000000), wk =   0.0277778
        k(   67) = (   0.0627643  -0.0396964   0.0000000), wk =   0.0277778
        k(   68) = (  -0.0753171   0.0313217   0.0000000), wk =   0.0138889
        k(   69) = (  -0.0753171   0.0449167   0.0000000), wk =   0.0277778
        k(   70) = (  -0.0753171   0.0585118   0.0000000), wk =   0.0277778
        k(   71) = (  -0.0753171   0.0721068   0.0000000), wk =   0.0277778
        k(   72) = (  -0.0753171   0.0857019   0.0000000), wk =   0.0277778
        k(   73) = (  -0.0753171   0.0992969   0.0000000), wk =   0.0277778
        k(   74) = (  -0.0753171  -0.0502486   0.0000000), wk =   0.0138889

     Dense  grid:  1529235 G-vectors     FFT dimensions: (  96,  96, 360)

     Smooth grid:   387083 G-vectors     FFT dimensions: (  60,  60, 240)

     Estimated max dynamical RAM per process >     291.53 MB

     Estimated total dynamical RAM >      10.53 GB

     Initial potential from superposition of free atoms

     starting charge  143.97021, renormalised to  144.00000

     negative rho (up, down):  3.544E-03 0.000E+00


     %%%%%%%%%%%%%%%%%%%%%%%%%%%%%%%%%%%%%%%%%%%%%%%%%%%%%%%%%%%%%%%%%%%%%%%%
     %                                                                      %
     % You are using vdW-DF, which was implemented by the Thonhauser group. %
     % Please cite the following two papers that made this development      %
     % possible and the two reviews that describe the various versions:     %
     %                                                                      %
     %   T. Thonhauser et al., PRL 115, 136402 (2015).                      %
     %   T. Thonhauser et al., PRB 76, 125112 (2007).                       %
     %   K. Berland et al., Rep. Prog. Phys. 78, 066501 (2015).             %
     %   D.C. Langreth et al., J. Phys.: Condens. Matter 21, 084203 (2009). %
     %                                                                      %
     %                                                                      %
     % If you are calculating the stress with vdW-DF, please also cite:     %
     %                                                                      %
     %   R. Sabatini et al., J. Phys.: Condens. Matter 24, 424209 (2012).   %
     %                                                                      %
     %%%%%%%%%%%%%%%%%%%%%%%%%%%%%%%%%%%%%%%%%%%%%%%%%%%%%%%%%%%%%%%%%%%%%%%%



     Adding external electric field

     Computed dipole along edir(3) : 
        Dipole               -0.0014 Ry au,         -0.0036 Debye
        Dipole field         -0.0000 Ry au, 

        Potential amp.        0.0002 Ry
        Total length         46.9630 bohr

     Starting wfcs are  108 randomized atomic wfcs

     total cpu time spent up to now is       94.0 secs

     Self-consistent Calculation

     iteration #  1     ecut=    55.12 Ry     beta= 0.10
     Davidson diagonalization with overlap
     ethr =  1.00E-02,  avg # of iterations =  2.0

     Threshold (ethr) on eigenvalues was too large:
     Diagonalizing with lowered threshold

     Davidson diagonalization with overlap
     ethr =  4.54E-04,  avg # of iterations =  3.5

     negative rho (up, down):  3.538E-03 0.000E+00

     Adding external electric field

     Computed dipole along edir(3) : 
        Dipole               -0.0126 Ry au,         -0.0320 Debye
        Dipole field         -0.0000 Ry au, 

        Potential amp.        0.0021 Ry
        Total length         46.9630 bohr


     total cpu time spent up to now is      458.2 secs

     total energy              =   -1214.18386485 Ry
     estimated scf accuracy    <       0.61241645 Ry

     iteration #  2     ecut=    55.12 Ry     beta= 0.10
     Davidson diagonalization with overlap
     ethr =  4.25E-04,  avg # of iterations =  1.9

     negative rho (up, down):  3.616E-03 0.000E+00

     Adding external electric field

     Computed dipole along edir(3) : 
        Dipole                0.0636 Ry au,          0.1618 Debye
        Dipole field          0.0001 Ry au, 

        Potential amp.       -0.0107 Ry
        Total length         46.9630 bohr


     total cpu time spent up to now is      623.2 secs

     total energy              =   -1213.94047266 Ry
     estimated scf accuracy    <       0.39741323 Ry

     iteration #  3     ecut=    55.12 Ry     beta= 0.10
     Davidson diagonalization with overlap
     ethr =  2.76E-04,  avg # of iterations =  7.4

     negative rho (up, down):  3.592E-03 0.000E+00

     Adding external electric field

     Computed dipole along edir(3) : 
        Dipole               -0.0270 Ry au,         -0.0687 Debye
        Dipole field         -0.0000 Ry au, 

        Potential amp.        0.0046 Ry
        Total length         46.9630 bohr


     total cpu time spent up to now is      872.9 secs

     total energy              =   -1214.06165732 Ry
     estimated scf accuracy    <       0.02648850 Ry

     iteration #  4     ecut=    55.12 Ry     beta= 0.10
     Davidson diagonalization with overlap
     c_bands:  1 eigenvalues not converged
     c_bands:  1 eigenvalues not converged
     c_bands:  1 eigenvalues not converged
     c_bands:  1 eigenvalues not converged
     c_bands:  4 eigenvalues not converged
     c_bands:  3 eigenvalues not converged
     c_bands:  1 eigenvalues not converged
     c_bands:  2 eigenvalues not converged
     c_bands:  1 eigenvalues not converged
     c_bands:  2 eigenvalues not converged
     c_bands:  3 eigenvalues not converged
     c_bands:  2 eigenvalues not converged
     c_bands:  1 eigenvalues not converged
     c_bands:  3 eigenvalues not converged
     ethr =  1.84E-05,  avg # of iterations = 12.1

     negative rho (up, down):  3.577E-03 0.000E+00

     Adding external electric field

     Computed dipole along edir(3) : 
        Dipole                0.0018 Ry au,          0.0047 Debye
        Dipole field          0.0000 Ry au, 

        Potential amp.       -0.0003 Ry
        Total length         46.9630 bohr


     total cpu time spent up to now is     1242.0 secs

     total energy              =   -1214.07325999 Ry
     estimated scf accuracy    <       0.01638454 Ry

     iteration #  5     ecut=    55.12 Ry     beta= 0.10
     Davidson diagonalization with overlap
     c_bands:  1 eigenvalues not converged
     c_bands:  1 eigenvalues not converged
     c_bands:  1 eigenvalues not converged
     ethr =  1.14E-05,  avg # of iterations =  5.9

     negative rho (up, down):  3.579E-03 0.000E+00

     Adding external electric field

     Computed dipole along edir(3) : 
        Dipole               -0.0009 Ry au,         -0.0023 Debye
        Dipole field         -0.0000 Ry au, 

        Potential amp.        0.0002 Ry
        Total length         46.9630 bohr


     total cpu time spent up to now is     1449.3 secs

     total energy              =   -1214.07534786 Ry
     estimated scf accuracy    <       0.01020548 Ry

     iteration #  6     ecut=    55.12 Ry     beta= 0.10
     Davidson diagonalization with overlap
     ethr =  7.09E-06,  avg # of iterations =  1.7

     negative rho (up, down):  3.701E-03 0.000E+00

     Adding external electric field

     Computed dipole along edir(3) : 
        Dipole                0.0014 Ry au,          0.0036 Debye
        Dipole field          0.0000 Ry au, 

        Potential amp.       -0.0002 Ry
        Total length         46.9630 bohr


     total cpu time spent up to now is     1612.4 secs

     total energy              =   -1214.07076429 Ry
     estimated scf accuracy    <       0.00852299 Ry

     iteration #  7     ecut=    55.12 Ry     beta= 0.10
     Davidson diagonalization with overlap
     c_bands:  1 eigenvalues not converged
     c_bands:  1 eigenvalues not converged
     c_bands:  1 eigenvalues not converged
     c_bands:  1 eigenvalues not converged
     c_bands:  1 eigenvalues not converged
     c_bands:  1 eigenvalues not converged
     c_bands:  1 eigenvalues not converged
     c_bands:  1 eigenvalues not converged
     c_bands:  1 eigenvalues not converged
     c_bands:  1 eigenvalues not converged
     c_bands:  1 eigenvalues not converged
     c_bands:  2 eigenvalues not converged
     c_bands:  1 eigenvalues not converged
     c_bands:  1 eigenvalues not converged
     ethr =  5.92E-06,  avg # of iterations = 10.0

     negative rho (up, down):  3.663E-03 0.000E+00

     Adding external electric field

     Computed dipole along edir(3) : 
        Dipole                0.0030 Ry au,          0.0077 Debye
        Dipole field          0.0000 Ry au, 

        Potential amp.       -0.0005 Ry
        Total length         46.9630 bohr


     total cpu time spent up to now is     1854.9 secs

     total energy              =   -1214.07216070 Ry
     estimated scf accuracy    <       0.00160599 Ry

     iteration #  8     ecut=    55.12 Ry     beta= 0.10
     Davidson diagonalization with overlap
     c_bands:  2 eigenvalues not converged
     c_bands:  1 eigenvalues not converged
     c_bands:  1 eigenvalues not converged
     c_bands:  1 eigenvalues not converged
     c_bands:  1 eigenvalues not converged
     c_bands:  1 eigenvalues not converged
     c_bands:  1 eigenvalues not converged
     ethr =  1.12E-06,  avg # of iterations =  9.3

     negative rho (up, down):  3.674E-03 0.000E+00

     Adding external electric field

     Computed dipole along edir(3) : 
        Dipole                0.0056 Ry au,          0.0142 Debye
        Dipole field          0.0000 Ry au, 

        Potential amp.       -0.0009 Ry
        Total length         46.9630 bohr


     total cpu time spent up to now is     2152.1 secs

     total energy              =   -1214.07284141 Ry
     estimated scf accuracy    <       0.00055610 Ry

     iteration #  9     ecut=    55.12 Ry     beta= 0.10
     Davidson diagonalization with overlap
     c_bands:  2 eigenvalues not converged
     ethr =  3.86E-07,  avg # of iterations =  6.7

     negative rho (up, down):  3.686E-03 0.000E+00

     Adding external electric field

     Computed dipole along edir(3) : 
        Dipole                0.0063 Ry au,          0.0159 Debye
        Dipole field          0.0000 Ry au, 

        Potential amp.       -0.0011 Ry
        Total length         46.9630 bohr


     total cpu time spent up to now is     2418.6 secs

     total energy              =   -1214.07308723 Ry
     estimated scf accuracy    <       0.00013718 Ry

     iteration # 10     ecut=    55.12 Ry     beta= 0.10
     Davidson diagonalization with overlap
     ethr =  9.53E-08,  avg # of iterations =  6.9

     negative rho (up, down):  3.686E-03 0.000E+00

     Adding external electric field

     Computed dipole along edir(3) : 
        Dipole                0.0033 Ry au,          0.0085 Debye
        Dipole field          0.0000 Ry au, 

        Potential amp.       -0.0006 Ry
        Total length         46.9630 bohr


     total cpu time spent up to now is     2659.1 secs

     total energy              =   -1214.07315559 Ry
     estimated scf accuracy    <       0.00004208 Ry

     iteration # 11     ecut=    55.12 Ry     beta= 0.10
     Davidson diagonalization with overlap
     ethr =  2.92E-08,  avg # of iterations =  5.7

     negative rho (up, down):  3.681E-03 0.000E+00

     Adding external electric field

     Computed dipole along edir(3) : 
        Dipole                0.0036 Ry au,          0.0091 Debye
        Dipole field          0.0000 Ry au, 

        Potential amp.       -0.0006 Ry
        Total length         46.9630 bohr


     total cpu time spent up to now is     2883.1 secs

     total energy              =   -1214.07316025 Ry
     estimated scf accuracy    <       0.00003366 Ry

     iteration # 12     ecut=    55.12 Ry     beta= 0.10
     Davidson diagonalization with overlap
     ethr =  2.34E-08,  avg # of iterations =  2.1

     negative rho (up, down):  3.675E-03 0.000E+00

     Adding external electric field

     Computed dipole along edir(3) : 
        Dipole                0.0055 Ry au,          0.0140 Debye
        Dipole field          0.0000 Ry au, 

        Potential amp.       -0.0009 Ry
        Total length         46.9630 bohr


     total cpu time spent up to now is     3032.0 secs

     End of self-consistent calculation

          k = 0.0000 0.0000 0.0000 ( 48377 PWs)   bands (ev):

    -8.9094  -8.8845  -8.8671  -8.8654  -8.8134  -8.8012  -8.7851  -8.7698
    -8.7517  -8.7514  -8.7344  -8.7291  -8.7097  -8.6902  -8.6892  -8.6878
    -8.6792  -8.6636  -8.6501  -8.6482  -8.6259  -8.6199  -8.5964  -8.5920
    -8.5743  -8.5444  -8.5361  -8.5263  -8.4847  -8.4461  -7.0931  -7.0672
    -7.0471  -7.0330  -6.9614  -6.8990  -6.8659  -6.8366  -6.8050  -6.8001
    -6.7522  -6.7466  -6.7409  -6.6967  -6.6784  -6.6683  -6.6430  -6.6309
    -6.6237  -6.6088  -6.5861  -6.5828  -6.5518  -6.5210  -6.5101  -6.5040
    -6.4935  -6.4605  -6.4282  -6.4167  -6.3400  -5.5998  -3.8223  -2.8911
    -2.7315  -2.1608  -1.7937  -1.6061  -1.2721  -0.7848  -0.5809  -0.4323
    -0.4062  -0.3138  -0.1329   0.3814   0.5520   0.9027   1.0032   1.2650
     1.4551   1.9877   2.0593   3.3062   3.9124   3.9821

          k = 0.0000 0.0136 0.0000 ( 48359 PWs)   bands (ev):

    -8.9042  -8.8794  -8.8632  -8.8619  -8.8115  -8.7997  -8.7807  -8.7646
    -8.7517  -8.7476  -8.7299  -8.7286  -8.7075  -8.6927  -8.6871  -8.6865
    -8.6793  -8.6613  -8.6484  -8.6462  -8.6261  -8.6193  -8.5960  -8.5925
    -8.5761  -8.5448  -8.5384  -8.5300  -8.4885  -8.4503  -7.0750  -7.0632
    -7.0434  -7.0297  -6.9483  -6.8960  -6.8624  -6.8395  -6.8014  -6.7985
    -6.7539  -6.7497  -6.7378  -6.6992  -6.6782  -6.6729  -6.6534  -6.6299
    -6.6227  -6.6097  -6.5859  -6.5838  -6.5524  -6.5233  -6.5147  -6.5114
    -6.4991  -6.4644  -6.4363  -6.4243  -6.3485  -5.5701  -3.8041  -3.2034
    -2.7858  -2.3261  -1.7364  -1.4863  -1.3103  -0.9509  -0.7311  -0.2674
    -0.2409  -0.1774   0.0845   0.3035   0.6010   0.7106   1.1414   1.3468
     1.8041   2.0758   2.2237   3.3340   3.5812   3.6285

          k = 0.0000 0.0272 0.0000 ( 48363 PWs)   bands (ev):

    -8.8895  -8.8647  -8.8524  -8.8520  -8.8057  -8.7955  -8.7684  -8.7525
    -8.7493  -8.7357  -8.7300  -8.7144  -8.7009  -8.6997  -8.6825  -8.6824
    -8.6798  -8.6546  -8.6447  -8.6405  -8.6265  -8.6176  -8.5949  -8.5943
    -8.5812  -8.5472  -8.5439  -8.5404  -8.4999  -8.4624  -7.0510  -7.0381
    -7.0264  -7.0196  -6.9025  -6.8908  -6.8479  -6.8474  -6.8056  -6.7794
    -6.7594  -6.7572  -6.7306  -6.7053  -6.6876  -6.6795  -6.6762  -6.6274
    -6.6225  -6.6115  -6.5873  -6.5855  -6.5533  -6.5343  -6.5283  -6.5242
    -6.5132  -6.4743  -6.4592  -6.4463  -6.3733  -5.4818  -3.7635  -3.7504
    -2.9481  -2.7003  -1.7975  -1.5518  -1.3053  -0.9647  -0.9070  -0.1463
     0.0207   0.1674   0.1892   0.5058   0.6378   0.9709   1.3673   1.6557
     2.1580   2.5218   2.5977   3.1326   3.4164   3.6646

          k = 0.0000 0.0408 0.0000 ( 48386 PWs)   bands (ev):

    -8.8686  -8.8424  -8.8397  -8.8353  -8.7965  -8.7887  -8.7564  -8.7486
    -8.7331  -8.7244  -8.7181  -8.7121  -8.6911  -8.6901  -8.6829  -8.6782
    -8.6752  -8.6442  -8.6417  -8.6314  -8.6272  -8.6152  -8.6000  -8.5938
    -8.5866  -8.5562  -8.5555  -8.5467  -8.5181  -8.4821  -7.0303  -7.0172
    -7.0013  -6.9849  -6.8879  -6.8585  -6.8332  -6.8178  -6.8161  -6.7714
    -6.7651  -6.7414  -6.7260  -6.7238  -6.7080  -6.6977  -6.6722  -6.6258
    -6.6217  -6.6111  -6.5943  -6.5917  -6.5725  -6.5473  -6.5380  -6.5308
    -6.5200  -6.4938  -6.4807  -6.4726  -6.4117  -5.3359  -4.3407  -3.6654
    -3.2704  -3.0015  -2.0533  -1.6087  -1.2418  -1.1509  -1.1324   0.0147
     0.3043   0.3393   0.5815   0.8005   0.8184   1.7226   1.8673   2.0248
     2.2912   2.6236   2.7361   3.4071   3.5516   3.6148

          k = 0.0000 0.0544 0.0000 ( 48345 PWs)   bands (ev):

    -8.8464  -8.8281  -8.8158  -8.8151  -8.7831  -8.7796  -8.7596  -8.7369
    -8.7292  -8.7276  -8.6983  -8.6949  -8.6911  -8.6784  -8.6780  -8.6655
    -8.6602  -8.6417  -8.6316  -8.6296  -8.6195  -8.6125  -8.6107  -8.5946
    -8.5902  -8.5716  -8.5678  -8.5492  -8.5412  -8.5076  -7.0006  -6.9914
    -6.9740  -6.9462  -6.8830  -6.8709  -6.8395  -6.8272  -6.7917  -6.7763
    -6.7662  -6.7454  -6.7220  -6.7044  -6.7008  -6.6885  -6.6644  -6.6296
    -6.6250  -6.6115  -6.6071  -6.6028  -6.5911  -6.5688  -6.5485  -6.5475
    -6.5324  -6.5197  -6.5190  -6.4598  -6.3636  -5.1321  -4.8796  -3.7275
    -3.5581  -3.1414  -2.2216  -1.7842  -1.5237  -1.3620  -0.8562   0.0273
     0.2887   0.5635   0.9605   1.4174   1.6174   1.8168   2.2556   2.4203
     2.4248   2.5170   2.9843   3.3773   3.6326   3.7741

          k = 0.0000 0.0680 0.0000 ( 48355 PWs)   bands (ev):

    -8.8289  -8.8205  -8.7938  -8.7933  -8.7689  -8.7650  -8.7643  -8.7452
    -8.7431  -8.7118  -8.7071  -8.6855  -8.6768  -8.6654  -8.6615  -8.6534
    -8.6470  -8.6361  -8.6286  -8.6242  -8.6185  -8.6066  -8.6058  -8.5998
    -8.5949  -8.5895  -8.5796  -8.5630  -8.5514  -8.5348  -6.9624  -6.9594
    -6.9387  -6.9153  -6.8833  -6.8732  -6.8718  -6.8579  -6.8415  -6.7900
    -6.7483  -6.7313  -6.7079  -6.6912  -6.6813  -6.6549  -6.6502  -6.6433
    -6.6375  -6.6198  -6.6163  -6.6021  -6.6009  -6.5915  -6.5688  -6.5659
    -6.5531  -6.5456  -6.5298  -6.5090  -6.1187  -5.3620  -4.8689  -4.1622
    -3.4435  -3.2432  -2.2808  -2.0267  -1.6228  -1.5167  -0.6097  -0.1927
     0.5942   0.8679   1.3567   1.4779   1.7910   2.0195   2.3995   2.4565
     2.7124   2.8275   3.3423   3.5201   3.6003   3.8905

          k = 0.0000-0.0816 0.0000 ( 48368 PWs)   bands (ev):

    -8.8202  -8.8202  -8.7810  -8.7810  -8.7673  -8.7673  -8.7552  -8.7552
    -8.7324  -8.7324  -8.6955  -8.6955  -8.6587  -8.6587  -8.6544  -8.6543
    -8.6408  -8.6408  -8.6187  -8.6187  -8.6099  -8.6098  -8.6039  -8.6039
    -8.5939  -8.5939  -8.5833  -8.5832  -8.5502  -8.5502  -6.9322  -6.9321
    -6.9046  -6.9046  -6.8947  -6.8946  -6.8899  -6.8899  -6.8300  -6.8299
    -6.7305  -6.7304  -6.6831  -6.6830  -6.6684  -6.6684  -6.6483  -6.6483
    -6.6267  -6.6267  -6.6156  -6.6156  -6.5933  -6.5933  -6.5779  -6.5779
    -6.5626  -6.5626  -6.5320  -6.5320  -5.7783  -5.7782  -4.5453  -4.5450
    -3.3380  -3.3379  -2.2137  -2.2136  -1.6067  -1.6066  -0.3988  -0.3988
     0.9630   0.9632   1.2966   1.2967   1.9573   1.9575   2.5258   2.5259
     2.9472   2.9473   3.4667   3.4668   3.9613   3.9613

          k = 0.0126-0.0052 0.0000 ( 48359 PWs)   bands (ev):

    -8.9042  -8.8794  -8.8632  -8.8619  -8.8115  -8.7998  -8.7807  -8.7646
    -8.7517  -8.7476  -8.7299  -8.7286  -8.7075  -8.6927  -8.6871  -8.6865
    -8.6793  -8.6613  -8.6484  -8.6462  -8.6261  -8.6193  -8.5960  -8.5925
    -8.5761  -8.5448  -8.5384  -8.5300  -8.4885  -8.4503  -7.0750  -7.0632
    -7.0434  -7.0297  -6.9483  -6.8960  -6.8624  -6.8395  -6.8014  -6.7985
    -6.7539  -6.7497  -6.7378  -6.6992  -6.6782  -6.6729  -6.6534  -6.6299
    -6.6227  -6.6097  -6.5859  -6.5838  -6.5524  -6.5233  -6.5147  -6.5114
    -6.4991  -6.4644  -6.4363  -6.4243  -6.3486  -5.5701  -3.8041  -3.2034
    -2.7858  -2.3261  -1.7364  -1.4863  -1.3103  -0.9509  -0.7311  -0.2674
    -0.2409  -0.1774   0.0845   0.3035   0.6010   0.7106   1.1414   1.3468
     1.8041   2.0758   2.2237   3.3339   3.6284   3.9073

          k = 0.0126 0.0084 0.0000 ( 48373 PWs)   bands (ev):

    -8.9029  -8.8824  -8.8637  -8.8593  -8.8106  -8.7991  -8.7801  -8.7679
    -8.7518  -8.7475  -8.7328  -8.7247  -8.7094  -8.6888  -8.6862  -8.6849
    -8.6766  -8.6622  -8.6475  -8.6438  -8.6220  -8.6194  -8.5930  -8.5890
    -8.5739  -8.5470  -8.5358  -8.5295  -8.4834  -8.4463  -7.0846  -7.0655
    -7.0415  -7.0332  -6.9451  -6.9012  -6.8665  -6.8415  -6.8071  -6.8022
    -6.7567  -6.7473  -6.7446  -6.6976  -6.6835  -6.6741  -6.6514  -6.6350
    -6.6259  -6.6068  -6.5852  -6.5804  -6.5509  -6.5286  -6.5188  -6.5106
    -6.4985  -6.4607  -6.4347  -6.4176  -6.3429  -5.5651  -3.8158  -3.1740
    -2.4850  -2.2101  -2.1648  -1.8793  -1.2070  -0.9792  -0.8845  -0.2748
    -0.2499   0.0879   0.0973   0.3094   0.6177   0.6736   1.2418   1.2711
     1.7700   2.0881   2.5995   3.7849   3.8873   3.9121

          k = 0.0126 0.0220 0.0000 ( 48368 PWs)   bands (ev):

    -8.8921  -8.8754  -8.8569  -8.8504  -8.8061  -8.7956  -8.7714  -8.7609
    -8.7524  -8.7395  -8.7263  -8.7209  -8.7067  -8.6915  -8.6809  -8.6808
    -8.6741  -8.6585  -8.6441  -8.6379  -8.6191  -8.6181  -8.5893  -8.5873
    -8.5748  -8.5499  -8.5379  -8.5358  -8.4863  -8.4506  -7.0649  -7.0596
    -7.0320  -7.0300  -6.9163  -6.8972  -6.8611  -6.8484  -6.8052  -6.8022
    -6.7703  -6.7456  -6.7448  -6.7013  -6.6878  -6.6822  -6.6688  -6.6378
    -6.6265  -6.6068  -6.5823  -6.5800  -6.5512  -6.5355  -6.5305  -6.5235
    -6.5084  -6.4646  -6.4484  -6.4260  -6.3535  -5.5012  -3.7983  -3.5488
    -2.5986  -2.3278  -2.2269  -2.1221  -1.3082  -1.1176  -0.8179  -0.2063
    -0.1884   0.1262   0.2323   0.6516   0.6994   0.7467   1.3290   1.7233
     2.1536   2.3096   3.0078   3.3494   3.4044   3.7644

          k = 0.0126 0.0356 0.0000 ( 48386 PWs)   bands (ev):

    -8.8743  -8.8593  -8.8444  -8.8377  -8.7981  -8.7899  -8.7574  -8.7532
    -8.7445  -8.7252  -8.7194  -8.7103  -8.6998  -8.6988  -8.6756  -8.6749
    -8.6728  -8.6506  -8.6402  -8.6291  -8.6179  -8.6156  -8.5900  -8.5858
    -8.5769  -8.5535  -8.5479  -8.5441  -8.4974  -8.4631  -7.0449  -7.0305
    -7.0190  -7.0149  -6.8994  -6.8629  -6.8586  -6.8282  -6.8135  -6.7854
    -6.7844  -6.7491  -6.7421  -6.7120  -6.6982  -6.6955  -6.6881  -6.6381
    -6.6250  -6.6094  -6.5841  -6.5812  -6.5591  -6.5461  -6.5433  -6.5241
    -6.5230  -6.4756  -6.4704  -6.4485  -6.3789  -5.3794  -4.1008  -3.7631
    -3.0153  -2.4874  -2.4846  -1.8262  -1.6091  -1.1754  -0.9093  -0.1051
    -0.0435   0.0048   0.5283   0.8819   1.1978   1.4486   1.5078   2.2195
     2.2945   2.7605   3.1854   3.2246   3.5210   3.6003

          k = 0.0126 0.0492 0.0000 ( 48363 PWs)   bands (ev):

    -8.8539  -8.8362  -8.8278  -8.8245  -8.7873  -8.7824  -8.7578  -8.7379
    -8.7234  -8.7183  -8.7114  -8.7073  -8.6895  -8.6859  -8.6756  -8.6735
    -8.6665  -8.6394  -8.6380  -8.6190  -8.6187  -8.6135  -8.5986  -8.5846
    -8.5796  -8.5619  -8.5584  -8.5528  -8.5159  -8.4832  -7.0207  -6.9988
    -6.9919  -6.9900  -6.8944  -6.8700  -6.8390  -6.8283  -6.7916  -6.7865
    -6.7710  -6.7462  -6.7366  -6.7296  -6.7186  -6.6989  -6.6849  -6.6376
    -6.6233  -6.6133  -6.5973  -6.5935  -6.5758  -6.5607  -6.5549  -6.5402
    -6.5147  -6.4983  -6.4822  -6.4161  -6.4096  -5.2001  -4.6495  -3.7298
    -3.4982  -2.6477  -2.6317  -1.8532  -1.4938  -1.3516  -1.0295  -0.3350
     0.1983   0.2889   0.9464   1.3140   1.7920   1.8050   1.9248   2.4417
     2.7168   2.7477   3.1191   3.2596   3.6994   3.7686

          k = 0.0126 0.0628 0.0000 ( 48346 PWs)   bands (ev):

    -8.8356  -8.8148  -8.8097  -8.8087  -8.7740  -8.7737  -8.7631  -8.7293
    -8.7273  -8.7196  -8.6904  -8.6898  -8.6855  -8.6760  -8.6758  -8.6571
    -8.6567  -8.6389  -8.6268  -8.6256  -8.6111  -8.6101  -8.6082  -8.5905
    -8.5853  -8.5722  -8.5674  -8.5594  -8.5390  -8.5091  -6.9874  -6.9693
    -6.9585  -6.9518  -6.8865  -6.8810  -6.8751  -6.8272  -6.8129  -6.7782
    -6.7768  -6.7524  -6.7177  -6.7139  -6.7027  -6.6882  -6.6762  -6.6432
    -6.6331  -6.6132  -6.6114  -6.6025  -6.5909  -6.5754  -6.5638  -6.5571
    -6.5447  -6.5171  -6.5162  -6.4611  -6.2021  -5.1516  -4.9626  -3.9572
    -3.7168  -2.8232  -2.6388  -2.0299  -1.6433  -1.1659  -0.9195  -0.5399
     0.4870   0.7170   1.0996   1.5726   1.9563   2.3209   2.3694   2.5274
     2.7063   3.0186   3.1611   3.5108   3.6781   3.9300

          k = 0.0126-0.0868 0.0000 ( 48387 PWs)   bands (ev):

    -8.8235  -8.8102  -8.7893  -8.7874  -8.7708  -8.7645  -8.7587  -8.7446
    -8.7410  -8.7079  -8.7025  -8.6846  -8.6699  -8.6633  -8.6585  -8.6473
    -8.6461  -8.6373  -8.6282  -8.6232  -8.6147  -8.6039  -8.6005  -8.5992
    -8.5947  -8.5889  -8.5805  -8.5621  -8.5601  -8.5338  -6.9509  -6.9321
    -6.9252  -6.9167  -6.9095  -6.8894  -6.8785  -6.8630  -6.8535  -6.7991
    -6.7469  -6.7334  -6.7082  -6.7029  -6.6745  -6.6672  -6.6511  -6.6497
    -6.6462  -6.6163  -6.6159  -6.6041  -6.6026  -6.5927  -6.5809  -6.5755
    -6.5601  -6.5384  -6.5345  -6.5043  -5.8936  -5.5928  -4.6667  -4.3660
    -3.7193  -3.0146  -2.5195  -2.1278  -1.7798  -1.0924  -0.6926  -0.5543
     0.8363   1.1234   1.1683   1.3926   1.9196   2.1265   2.6188   2.7752
     2.8878   3.0797   3.2534   3.5686   3.7433   4.1029

          k = 0.0126-0.0732 0.0000 ( 48314 PWs)   bands (ev):

    -8.8200  -8.8142  -8.7849  -8.7779  -8.7674  -8.7660  -8.7589  -8.7568
    -8.7353  -8.7292  -8.6957  -8.6896  -8.6614  -8.6558  -8.6540  -8.6507
    -8.6458  -8.6388  -8.6202  -8.6179  -8.6123  -8.6089  -8.6068  -8.6034
    -8.5977  -8.5940  -8.5849  -8.5822  -8.5571  -8.5423  -6.9601  -6.9353
    -6.9061  -6.9046  -6.8978  -6.8918  -6.8765  -6.8734  -6.8344  -6.8257
    -6.7323  -6.7248  -6.6957  -6.6786  -6.6747  -6.6597  -6.6471  -6.6468
    -6.6284  -6.6269  -6.6200  -6.6100  -6.6005  -6.5883  -6.5801  -6.5755
    -6.5639  -6.5630  -6.5441  -6.5208  -5.9645  -5.5052  -4.7161  -4.3154
    -3.7108  -3.2113  -2.3473  -2.0964  -1.8028  -1.0036  -0.7972  -0.1756
     0.7682   1.2313   1.3706   1.5172   1.6456   1.9426   2.2004   2.7495
     2.7774   3.1109   3.3110   3.4246   3.6208   3.9951

          k = 0.0126-0.0596 0.0000 ( 48329 PWs)   bands (ev):

    -8.8291  -8.8248  -8.7983  -8.7974  -8.7747  -8.7690  -8.7618  -8.7503
    -8.7434  -8.7137  -8.7084  -8.6814  -8.6811  -8.6651  -8.6639  -8.6614
    -8.6446  -8.6376  -8.6294  -8.6243  -8.6235  -8.6158  -8.6083  -8.6042
    -8.5996  -8.5865  -8.5807  -8.5657  -8.5426  -8.5349  -6.9902  -6.9757
    -6.9436  -6.9150  -6.8773  -6.8735  -6.8587  -6.8456  -6.8192  -6.7794
    -6.7419  -6.7375  -6.7109  -6.6840  -6.6792  -6.6488  -6.6477  -6.6390
    -6.6339  -6.6237  -6.6172  -6.5992  -6.5988  -6.5867  -6.5652  -6.5584
    -6.5542  -6.5492  -6.5210  -6.5132  -6.2548  -5.0479  -5.0052  -3.9274
    -3.6560  -3.3949  -2.2396  -1.8405  -1.7245  -0.8710  -0.8656   0.1620
     0.4457   0.8698   1.1322   1.6005   1.7579   1.9413   2.0125   2.0389
     2.5603   3.0463   3.1278   3.2406   3.3500   3.7216

          k = 0.0126-0.0460 0.0000 ( 48336 PWs)   bands (ev):

    -8.8524  -8.8356  -8.8200  -8.8199  -8.7894  -8.7854  -8.7571  -8.7446
    -8.7343  -8.7271  -8.7039  -8.6978  -8.6943  -8.6781  -8.6772  -8.6734
    -8.6625  -8.6425  -8.6356  -8.6345  -8.6297  -8.6139  -8.6105  -8.6017
    -8.5975  -8.5687  -8.5664  -8.5439  -8.5420  -8.5066  -7.0149  -7.0096
    -6.9771  -6.9427  -6.8803  -6.8635  -6.8383  -6.8237  -6.7842  -6.7697
    -6.7481  -6.7380  -6.7346  -6.7020  -6.6935  -6.6819  -6.6575  -6.6298
    -6.6186  -6.6097  -6.6072  -6.6003  -6.5933  -6.5601  -6.5440  -6.5416
    -6.5237  -6.5189  -6.5185  -6.4580  -6.4353  -5.2340  -4.5308  -3.6543
    -3.5512  -3.4069  -2.1110  -1.5633  -1.4646  -0.9214  -0.7102   0.1520
     0.4016   0.4631   0.6326   1.1184   1.2353   1.6333   1.9302   2.3189
     2.3775   2.6247   2.7641   3.2242   3.3472   3.6766

          k = 0.0126-0.0324 0.0000 ( 48337 PWs)   bands (ev):

    -8.8765  -8.8487  -8.8447  -8.8399  -8.8015  -8.7927  -8.7584  -8.7513
    -8.7396  -8.7275  -8.7237  -8.7122  -8.6923  -8.6913  -8.6866  -8.6808
    -8.6801  -8.6469  -8.6425  -8.6395  -8.6339  -8.6161  -8.6022  -8.6000
    -8.5905  -8.5565  -8.5502  -8.5420  -8.5203  -8.4814  -7.0353  -7.0327
    -7.0025  -6.9810  -6.8837  -6.8683  -6.8516  -6.8183  -6.8107  -6.7799
    -6.7474  -6.7378  -6.7167  -6.7128  -6.6992  -6.6940  -6.6655  -6.6238
    -6.6186  -6.6121  -6.5979  -6.5924  -6.5639  -6.5428  -6.5361  -6.5265
    -6.5186  -6.4865  -6.4812  -6.4789  -6.4085  -5.4039  -3.9694  -3.6729
    -3.5022  -2.9853  -1.8886  -1.3490  -1.1046  -1.0062  -0.6043  -0.0523
     0.0178   0.1993   0.3781   0.7250   0.7737   1.2711   1.3310   2.2158
     2.3331   2.3833   2.7398   3.0450   3.3114   3.5675

          k = 0.0126-0.0188 0.0000 ( 48351 PWs)   bands (ev):

    -8.8949  -8.8668  -8.8574  -8.8549  -8.8085  -8.7976  -8.7726  -8.7519
    -8.7510  -8.7393  -8.7340  -8.7159  -8.7011  -8.6999  -8.6853  -8.6849
    -8.6823  -8.6560  -8.6461  -8.6448  -8.6304  -8.6181  -8.5984  -8.5969
    -8.5819  -8.5464  -8.5424  -8.5373  -8.5012  -8.4622  -7.0531  -7.0463
    -7.0271  -7.0197  -6.9244  -6.8880  -6.8477  -6.8431  -6.8039  -6.7780
    -6.7635  -6.7472  -6.7261  -6.7038  -6.6813  -6.6722  -6.6717  -6.6235
    -6.6195  -6.6147  -6.5898  -6.5879  -6.5529  -6.5317  -6.5198  -6.5175
    -6.5106  -6.4749  -6.4536  -6.4453  -6.3709  -5.5161  -3.7572  -3.4428
    -3.2677  -2.6038  -1.5518  -1.2186  -1.2004  -1.0662  -0.7001  -0.2936
    -0.0504   0.0629   0.1538   0.3704   0.6207   0.6404   1.2642   1.9921
     2.0919   2.1039   2.1350   3.3813   3.4398   3.4581

          k = 0.0251-0.0104 0.0000 ( 48363 PWs)   bands (ev):

    -8.8895  -8.8647  -8.8524  -8.8520  -8.8057  -8.7955  -8.7684  -8.7525
    -8.7493  -8.7357  -8.7300  -8.7144  -8.7009  -8.6997  -8.6825  -8.6824
    -8.6798  -8.6546  -8.6447  -8.6405  -8.6265  -8.6176  -8.5949  -8.5943
    -8.5812  -8.5472  -8.5439  -8.5404  -8.4999  -8.4624  -7.0510  -7.0381
    -7.0264  -7.0196  -6.9025  -6.8908  -6.8479  -6.8474  -6.8056  -6.7794
    -6.7594  -6.7572  -6.7306  -6.7053  -6.6876  -6.6795  -6.6762  -6.6274
    -6.6225  -6.6115  -6.5873  -6.5855  -6.5533  -6.5343  -6.5283  -6.5242
    -6.5132  -6.4743  -6.4592  -6.4463  -6.3733  -5.4818  -3.7635  -3.7504
    -2.9481  -2.7003  -1.7975  -1.5518  -1.3053  -0.9647  -0.9070  -0.1463
     0.0207   0.1674   0.1891   0.5058   0.6378   0.9709   1.3673   1.6557
     2.1580   2.5218   2.5977   3.1326   3.4164   3.6648

          k = 0.0251 0.0032 0.0000 ( 48368 PWs)   bands (ev):

    -8.8921  -8.8754  -8.8569  -8.8504  -8.8061  -8.7956  -8.7714  -8.7609
    -8.7524  -8.7395  -8.7263  -8.7209  -8.7067  -8.6915  -8.6809  -8.6808
    -8.6741  -8.6585  -8.6441  -8.6379  -8.6191  -8.6181  -8.5893  -8.5874
    -8.5748  -8.5499  -8.5379  -8.5358  -8.4863  -8.4506  -7.0649  -7.0596
    -7.0320  -7.0300  -6.9163  -6.8972  -6.8611  -6.8484  -6.8052  -6.8022
    -6.7703  -6.7456  -6.7448  -6.7013  -6.6878  -6.6822  -6.6688  -6.6378
    -6.6265  -6.6068  -6.5823  -6.5800  -6.5512  -6.5355  -6.5305  -6.5235
    -6.5084  -6.4646  -6.4484  -6.4260  -6.3535  -5.5012  -3.7983  -3.5488
    -2.5986  -2.3278  -2.2269  -2.1221  -1.3082  -1.1176  -0.8179  -0.2063
    -0.1884   0.1262   0.2323   0.6515   0.6994   0.7467   1.3290   1.7233
     2.1535   2.3096   3.0078   3.3494   3.4052   3.7638

          k = 0.0251 0.0167 0.0000 ( 48391 PWs)   bands (ev):

    -8.8848  -8.8767  -8.8550  -8.8419  -8.8030  -8.7931  -8.7665  -8.7625
    -8.7525  -8.7353  -8.7283  -8.7126  -8.7078  -8.6876  -8.6769  -8.6762
    -8.6687  -8.6584  -8.6407  -8.6320  -8.6181  -8.6118  -8.5835  -8.5828
    -8.5707  -8.5545  -8.5374  -8.5350  -8.4808  -8.4466  -7.0746  -7.0603
    -7.0339  -7.0235  -6.9198  -6.8902  -6.8573  -6.8541  -6.8103  -6.8082
    -6.7876  -6.7556  -6.7355  -6.7004  -6.6977  -6.6836  -6.6736  -6.6461
    -6.6283  -6.6066  -6.5783  -6.5769  -6.5495  -6.5442  -6.5395  -6.5283
    -6.5136  -6.4620  -6.4518  -6.4198  -6.3495  -5.4620  -3.8308  -3.4831
    -2.5791  -2.5477  -2.5243  -2.0698  -1.6955  -1.3183  -0.6088  -0.1808
    -0.0812   0.0664   0.3693   0.3816   0.6918   1.1197   1.7422   2.1548
     2.2283   2.3180   3.2635   3.4487   3.5588   3.7079

          k = 0.0251 0.0303 0.0000 ( 48381 PWs)   bands (ev):

    -8.8703  -8.8686  -8.8473  -8.8292  -8.7966  -8.7885  -8.7555  -8.7543
    -8.7532  -8.7249  -8.7205  -8.7066  -8.7038  -8.6898  -8.6714  -8.6704
    -8.6640  -8.6538  -8.6362  -8.6238  -8.6171  -8.6068  -8.5828  -8.5782
    -8.5680  -8.5594  -8.5448  -8.5368  -8.4840  -8.4509  -7.0628  -7.0522
    -7.0303  -7.0082  -6.9167  -6.8801  -6.8629  -6.8285  -6.8165  -6.8055
    -6.7993  -6.7598  -6.7328  -6.7062  -6.7050  -6.6937  -6.6913  -6.6511
    -6.6279  -6.6115  -6.5794  -6.5760  -6.5551  -6.5512  -6.5447  -6.5248
    -6.5224  -6.4712  -6.4625  -6.4285  -6.3604  -5.3647  -3.8727  -3.8425
    -2.8136  -2.7876  -2.4539  -2.0854  -2.0320  -1.3105  -0.5940  -0.4609
    -0.0066   0.2252   0.3958   0.6596   1.2925   1.6559   1.8181   2.3074
     2.6423   2.8413   3.1758   3.2057   3.5476   3.7878

          k = 0.0251 0.0439 0.0000 ( 48398 PWs)   bands (ev):

    -8.8523  -8.8521  -8.8352  -8.8153  -8.7874  -8.7826  -8.7559  -8.7399
    -8.7378  -8.7113  -8.7057  -8.7033  -8.6972  -8.6946  -8.6671  -8.6652
    -8.6618  -8.6452  -8.6325  -8.6159  -8.6145  -8.6058  -8.5879  -8.5758
    -8.5687  -8.5636  -8.5549  -8.5430  -8.4959  -8.4638  -7.0364  -7.0346
    -7.0178  -6.9857  -6.9095  -6.8730  -6.8639  -6.8457  -6.8049  -6.7966
    -6.7738  -6.7580  -6.7457  -6.7269  -6.7109  -6.7036  -6.7026  -6.6523
    -6.6271  -6.6208  -6.5883  -6.5875  -6.5666  -6.5634  -6.5605  -6.5349
    -6.5014  -6.4792  -6.4507  -6.4154  -6.3846  -5.2101  -4.3675  -3.9477
    -3.2361  -2.9010  -2.3018  -2.2443  -2.0957  -1.1515  -0.8296  -0.7345
     0.1876   0.2870   0.8737   1.1949   1.8080   1.9587   2.1832   2.5145
     2.7240   2.8066   3.3681   3.6847   3.7076   3.9390

          k = 0.0251 0.0575 0.0000 ( 48372 PWs)   bands (ev):

    -8.8346  -8.8295  -8.8198  -8.8032  -8.7765  -8.7761  -8.7603  -8.7233
    -8.7162  -8.7107  -8.7082  -8.6971  -8.6813  -8.6799  -8.6674  -8.6659
    -8.6580  -8.6343  -8.6310  -8.6154  -8.6103  -8.6060  -8.5973  -8.5829
    -8.5741  -8.5679  -8.5597  -8.5529  -8.5153  -8.4846  -7.0078  -7.0001
    -6.9953  -6.9567  -6.9012  -6.8836  -6.8803  -6.8351  -6.7952  -6.7945
    -6.7781  -6.7547  -6.7517  -6.7309  -6.7245  -6.7011  -6.6961  -6.6535
    -6.6287  -6.6280  -6.6076  -6.5967  -6.5767  -6.5765  -6.5743  -6.5415
    -6.5310  -6.4948  -6.4825  -6.4198  -6.2242  -4.9991  -4.8794  -4.0464
    -3.7017  -2.8562  -2.4891  -2.4708  -1.6579  -1.1694  -0.9502  -0.8250
     0.4512   0.4901   1.2428   1.7674   1.8792   2.0600   2.5293   2.6569
     3.0077   3.2629   3.3505   3.7366   3.7656   3.8877

          k = 0.0251-0.0920 0.0000 ( 48364 PWs)   bands (ev):

    -8.8205  -8.8046  -8.8025  -8.7952  -8.7718  -8.7665  -8.7632  -8.7278
    -8.7248  -8.7069  -8.6855  -8.6842  -8.6789  -8.6711  -8.6664  -8.6520
    -8.6510  -8.6329  -8.6249  -8.6231  -8.6107  -8.6101  -8.6005  -8.5940
    -8.5844  -8.5727  -8.5659  -8.5652  -8.5373  -8.5109  -6.9752  -6.9624
    -6.9581  -6.9239  -6.9168  -6.8899  -6.8895  -6.8489  -6.8170  -6.7836
    -6.7809  -6.7626  -6.7293  -6.7156  -6.7087  -6.6880  -6.6827  -6.6633
    -6.6386  -6.6240  -6.6140  -6.6038  -6.5915  -6.5881  -6.5810  -6.5579
    -6.5567  -6.5147  -6.5124  -6.4623  -5.9418  -5.3408  -4.7341  -4.1333
    -4.1299  -2.7763  -2.7285  -2.5255  -1.2897  -1.1445  -1.1058  -0.6870
     0.7764   0.8470   1.3999   1.5227   1.9402   2.5357   2.7251   2.7676
     2.8316   3.2849   3.4908   3.6860   3.7983   3.9430

          k = 0.0251-0.0784 0.0000 ( 48346 PWs)   bands (ev):

    -8.8134  -8.7945  -8.7853  -8.7821  -8.7749  -8.7670  -8.7542  -8.7467
    -8.7412  -8.7066  -8.6915  -8.6790  -8.6669  -8.6561  -8.6547  -8.6439
    -8.6433  -8.6399  -8.6274  -8.6224  -8.6129  -8.6040  -8.6023  -8.5987
    -8.5984  -8.5879  -8.5829  -8.5716  -8.5578  -8.5316  -6.9606  -6.9357
    -6.9191  -6.9139  -6.9094  -6.8935  -6.8829  -6.8660  -6.8540  -6.8096
    -6.7436  -6.7340  -6.7130  -6.7087  -6.6826  -6.6708  -6.6589  -6.6529
    -6.6463  -6.6183  -6.6142  -6.6069  -6.6025  -6.5960  -6.5914  -6.5832
    -6.5713  -6.5358  -6.5317  -6.5010  -5.7397  -5.5814  -4.5040  -4.4326
    -4.1691  -2.9830  -2.7722  -2.3222  -1.2751  -1.2025  -0.7050  -0.5185
     1.0024   1.1545   1.2845   1.5100   1.9495   2.1802   2.4253   2.8770
     2.9526   3.0667   3.2862   3.4558   3.8336   4.0949

          k = 0.0251-0.0648 0.0000 ( 48347 PWs)   bands (ev):

    -8.8156  -8.8035  -8.7880  -8.7767  -8.7682  -8.7659  -8.7656  -8.7609
    -8.7374  -8.7265  -8.6909  -8.6790  -8.6656  -8.6574  -8.6542  -8.6468
    -8.6463  -8.6345  -8.6218  -8.6204  -8.6162  -8.6101  -8.6092  -8.6055
    -8.6011  -8.5973  -8.5869  -8.5819  -8.5611  -8.5364  -6.9860  -6.9471
    -6.9093  -6.9075  -6.8999  -6.8906  -6.8593  -6.8556  -6.8399  -6.8193
    -6.7244  -6.7221  -6.7050  -6.6838  -6.6738  -6.6557  -6.6493  -6.6440
    -6.6325  -6.6284  -6.6157  -6.6120  -6.5997  -6.5869  -6.5850  -6.5724
    -6.5665  -6.5644  -6.5535  -6.5128  -6.0686  -5.1523  -4.8187  -4.2531
    -3.9930  -3.2123  -2.7331  -1.9965  -1.2423  -1.2059  -0.4834  -0.1315
     0.6572   0.9771   1.5598   1.6377   1.6841   2.1601   2.2690   2.4546
     2.6660   2.7032   2.9332   3.6083   3.6464   3.7967

          k = 0.0251-0.0512 0.0000 ( 48316 PWs)   bands (ev):

    -8.8268  -8.8254  -8.8012  -8.7993  -8.7806  -8.7716  -8.7596  -8.7556
    -8.7428  -8.7126  -8.7092  -8.6829  -8.6747  -8.6693  -8.6647  -8.6622
    -8.6498  -8.6343  -8.6299  -8.6289  -8.6210  -8.6208  -8.6106  -8.6087
    -8.6074  -8.5833  -8.5817  -8.5678  -8.5378  -8.5348  -7.0080  -6.9834
    -6.9464  -6.9156  -6.8769  -6.8738  -6.8607  -6.8356  -6.8031  -6.7737
    -6.7472  -6.7244  -6.7167  -6.6813  -6.6702  -6.6540  -6.6432  -6.6401
    -6.6364  -6.6234  -6.6175  -6.5970  -6.5957  -6.5795  -6.5640  -6.5625
    -6.5578  -6.5474  -6.5145  -6.5145  -6.3149  -5.0730  -4.6664  -4.1841
    -3.6327  -3.4055  -2.5955  -1.6092  -1.2249  -1.0942  -0.4070   0.2402
     0.3779   0.4952   1.1193   1.5571   1.5590   1.8583   2.0748   2.3698
     2.4923   2.7542   2.8944   2.9029   3.3117   3.6145

          k = 0.0251-0.0376 0.0000 ( 48335 PWs)   bands (ev):

    -8.8542  -8.8379  -8.8216  -8.8215  -8.7917  -8.7878  -8.7562  -8.7478
    -8.7358  -8.7268  -8.7056  -8.6989  -8.6954  -8.6788  -8.6758  -8.6754
    -8.6632  -8.6452  -8.6374  -8.6343  -8.6335  -8.6146  -8.6098  -8.6047
    -8.6018  -8.5690  -8.5637  -8.5454  -8.5395  -8.5062  -7.0235  -7.0128
    -6.9782  -6.9416  -6.8792  -6.8606  -6.8450  -6.8206  -6.7892  -6.7621
    -6.7456  -6.7440  -6.7199  -6.7019  -6.6899  -6.6791  -6.6560  -6.6344
    -6.6175  -6.6113  -6.6005  -6.5985  -6.5963  -6.5560  -6.5436  -6.5436
    -6.5207  -6.5180  -6.5155  -6.4570  -6.4531  -5.2678  -4.1923  -4.0121
    -3.5590  -3.2843  -2.3159  -1.2555  -1.1165  -1.0594  -0.4898   0.0376
     0.2031   0.6037   0.6203   0.7942   1.3203   1.4319   1.8231   2.3283
     2.4084   2.7429   2.7674   3.0990   3.2230   3.3289

          k = 0.0251-0.0240 0.0000 ( 48337 PWs)   bands (ev):

    -8.8765  -8.8487  -8.8447  -8.8399  -8.8015  -8.7927  -8.7584  -8.7513
    -8.7396  -8.7275  -8.7237  -8.7122  -8.6923  -8.6913  -8.6866  -8.6808
    -8.6801  -8.6469  -8.6425  -8.6395  -8.6339  -8.6161  -8.6022  -8.6000
    -8.5905  -8.5565  -8.5502  -8.5420  -8.5203  -8.4814  -7.0353  -7.0327
    -7.0025  -6.9810  -6.8837  -6.8683  -6.8516  -6.8183  -6.8107  -6.7799
    -6.7474  -6.7378  -6.7167  -6.7128  -6.6992  -6.6940  -6.6655  -6.6238
    -6.6186  -6.6121  -6.5979  -6.5924  -6.5639  -6.5428  -6.5361  -6.5265
    -6.5186  -6.4865  -6.4812  -6.4789  -6.4085  -5.4039  -3.9694  -3.6729
    -3.5022  -2.9853  -1.8886  -1.3490  -1.1046  -1.0062  -0.6043  -0.0523
     0.0178   0.1993   0.3781   0.7250   0.7737   1.2711   1.3310   2.2158
     2.3331   2.3833   2.7397   3.0451   3.3114   3.5673

          k = 0.0377-0.0157 0.0000 ( 48386 PWs)   bands (ev):

    -8.8686  -8.8424  -8.8397  -8.8353  -8.7965  -8.7887  -8.7564  -8.7486
    -8.7331  -8.7244  -8.7181  -8.7121  -8.6911  -8.6901  -8.6829  -8.6782
    -8.6752  -8.6442  -8.6417  -8.6314  -8.6272  -8.6152  -8.6000  -8.5938
    -8.5866  -8.5562  -8.5555  -8.5467  -8.5181  -8.4821  -7.0303  -7.0172
    -7.0013  -6.9849  -6.8879  -6.8585  -6.8332  -6.8178  -6.8161  -6.7714
    -6.7651  -6.7414  -6.7260  -6.7238  -6.7080  -6.6977  -6.6722  -6.6258
    -6.6217  -6.6111  -6.5943  -6.5917  -6.5725  -6.5473  -6.5380  -6.5308
    -6.5200  -6.4938  -6.4807  -6.4726  -6.4117  -5.3359  -4.3407  -3.6654
    -3.2704  -3.0015  -2.0533  -1.6087  -1.2418  -1.1509  -1.1324   0.0147
     0.3043   0.3393   0.5815   0.8005   0.8184   1.7226   1.8673   2.0248
     2.2912   2.6236   2.7362   3.4072   3.6103   3.7263

          k = 0.0377-0.0021 0.0000 ( 48386 PWs)   bands (ev):

    -8.8743  -8.8593  -8.8444  -8.8377  -8.7981  -8.7899  -8.7574  -8.7532
    -8.7445  -8.7252  -8.7194  -8.7103  -8.6998  -8.6988  -8.6756  -8.6749
    -8.6728  -8.6506  -8.6402  -8.6291  -8.6179  -8.6156  -8.5900  -8.5858
    -8.5769  -8.5535  -8.5479  -8.5441  -8.4974  -8.4631  -7.0449  -7.0305
    -7.0190  -7.0149  -6.8994  -6.8629  -6.8586  -6.8282  -6.8135  -6.7854
    -6.7844  -6.7491  -6.7421  -6.7120  -6.6982  -6.6955  -6.6881  -6.6381
    -6.6250  -6.6094  -6.5841  -6.5812  -6.5591  -6.5461  -6.5433  -6.5241
    -6.5230  -6.4756  -6.4704  -6.4485  -6.3789  -5.3794  -4.1008  -3.7631
    -3.0153  -2.4874  -2.4846  -1.8262  -1.6091  -1.1754  -0.9093  -0.1051
    -0.0435   0.0048   0.5283   0.8818   1.1978   1.4485   1.5078   2.2195
     2.2945   2.7605   3.1855   3.2246   3.5212   3.6001

          k = 0.0377 0.0115 0.0000 ( 48381 PWs)   bands (ev):

    -8.8703  -8.8686  -8.8473  -8.8292  -8.7966  -8.7885  -8.7555  -8.7543
    -8.7532  -8.7249  -8.7205  -8.7066  -8.7038  -8.6898  -8.6714  -8.6704
    -8.6640  -8.6538  -8.6362  -8.6238  -8.6171  -8.6068  -8.5828  -8.5782
    -8.5680  -8.5594  -8.5448  -8.5368  -8.4840  -8.4509  -7.0628  -7.0522
    -7.0303  -7.0082  -6.9167  -6.8801  -6.8629  -6.8285  -6.8165  -6.8055
    -6.7993  -6.7598  -6.7328  -6.7062  -6.7051  -6.6937  -6.6913  -6.6511
    -6.6279  -6.6115  -6.5794  -6.5760  -6.5551  -6.5512  -6.5447  -6.5248
    -6.5224  -6.4712  -6.4625  -6.4285  -6.3604  -5.3647  -3.8727  -3.8425
    -2.8136  -2.7876  -2.4539  -2.0854  -2.0320  -1.3105  -0.5940  -0.4609
    -0.0066   0.2252   0.3958   0.6596   1.2925   1.6559   1.8181   2.3074
     2.6423   2.8413   3.1758   3.2057   3.5476   3.7870

          k = 0.0377 0.0251 0.0000 ( 48349 PWs)   bands (ev):

    -8.8689  -8.8591  -8.8449  -8.8165  -8.7926  -8.7850  -8.7545  -8.7532
    -8.7480  -8.7209  -8.7196  -8.7014  -8.6960  -8.6855  -8.6663  -8.6648
    -8.6558  -8.6533  -8.6311  -8.6168  -8.6162  -8.5986  -8.5796  -8.5717
    -8.5658  -8.5601  -8.5466  -8.5336  -8.4792  -8.4466  -7.0748  -7.0511
    -7.0345  -6.9960  -6.9282  -6.8856  -6.8701  -6.8327  -6.8323  -6.8173
    -6.7840  -6.7720  -6.7249  -6.7184  -6.7067  -6.7013  -6.6926  -6.6611
    -6.6314  -6.6195  -6.5834  -6.5811  -6.5598  -6.5566  -6.5443  -6.5289
    -6.4865  -6.4787  -6.4601  -6.4228  -6.3565  -5.2925  -4.0258  -3.7314
    -2.9898  -2.8554  -2.7127  -2.3955  -1.9097  -1.6036  -0.8081  -0.2886
     0.0855   0.4075   0.4193   0.8419   1.3205   2.1168   2.3562   2.4463
     2.7238   2.9230   3.3571   3.3905   3.5586   3.6471

          k = 0.0377 0.0387 0.0000 ( 48397 PWs)   bands (ev):

    -8.8606  -8.8443  -8.8376  -8.8025  -8.7857  -8.7805  -8.7543  -8.7461
    -8.7371  -8.7120  -8.7119  -8.6923  -8.6903  -8.6872  -8.6613  -8.6612
    -8.6497  -8.6482  -8.6263  -8.6163  -8.6080  -8.5951  -8.5803  -8.5718
    -8.5702  -8.5557  -8.5501  -8.5352  -8.4835  -8.4509  -7.0674  -7.0409
    -7.0301  -6.9775  -6.9279  -6.8833  -6.8786  -6.8590  -6.8257  -6.8197
    -6.7767  -6.7647  -6.7325  -6.7269  -6.7207  -6.7072  -6.7026  -6.6659
    -6.6338  -6.6313  -6.5940  -6.5876  -6.5715  -6.5711  -6.5493  -6.5311
    -6.4966  -6.4654  -6.4315  -6.3777  -6.3663  -5.1639  -4.2145  -4.0649
    -3.0272  -2.9778  -2.7093  -2.6769  -1.9675  -1.5271  -1.1016  -0.4391
     0.2516   0.5843   0.8978   1.0307   1.8921   2.3945   2.4609   2.4904
     2.9257   2.9306   3.5616   3.6960   3.8361   3.9584

          k = 0.0377 0.0523 0.0000 ( 48380 PWs)   bands (ev):

    -8.8448  -8.8301  -8.8252  -8.7897  -8.7763  -8.7763  -8.7572  -8.7307
    -8.7246  -8.7019  -8.6960  -8.6948  -8.6916  -8.6793  -8.6609  -8.6565
    -8.6480  -8.6400  -8.6234  -8.6161  -8.6010  -8.5981  -8.5853  -8.5784
    -8.5769  -8.5580  -8.5494  -8.5416  -8.4966  -8.4642  -7.0438  -7.0215
    -7.0160  -6.9531  -6.9190  -6.8907  -6.8859  -6.8692  -6.8151  -6.8040
    -6.7729  -6.7727  -6.7514  -6.7317  -6.7300  -6.7198  -6.7047  -6.6661
    -6.6427  -6.6330  -6.6060  -6.5957  -6.5873  -6.5830  -6.5594  -6.5315
    -6.5210  -6.4769  -6.4529  -6.3890  -6.1918  -4.9825  -4.5562  -4.3953
    -3.4074  -3.0456  -2.7871  -2.3018  -2.1755  -1.3342  -1.2383  -0.6073
     0.4862   0.8006   1.0660   1.7808   2.0940   2.2946   2.4610   2.6222
     3.0823   3.4984   3.6856   3.8971   3.9636   4.0682

          k = 0.0377-0.0972 0.0000 ( 48390 PWs)   bands (ev):

    -8.8235  -8.8165  -8.8110  -8.7802  -8.7745  -8.7654  -8.7624  -8.7121
    -8.7111  -8.7076  -8.7028  -8.6899  -8.6719  -8.6662  -8.6626  -8.6557
    -8.6516  -8.6308  -8.6239  -8.6165  -8.6071  -8.5976  -8.5955  -8.5900
    -8.5804  -8.5685  -8.5527  -8.5484  -8.5167  -8.4858  -7.0073  -6.9964
    -6.9895  -6.9249  -6.9214  -6.9069  -6.8927  -6.8441  -6.8118  -6.8013
    -6.7797  -6.7652  -6.7625  -6.7448  -6.7253  -6.7167  -6.6962  -6.6698
    -6.6441  -6.6323  -6.6190  -6.6028  -6.5942  -6.5927  -6.5741  -6.5468
    -6.5345  -6.4938  -6.4828  -6.4225  -5.9294  -5.0289  -4.7677  -4.5207
    -3.8412  -3.1466  -2.6486  -2.4525  -1.8091  -1.5044  -0.9339  -0.6615
     0.7840   0.9883   1.3587   1.7107   2.1449   2.4160   2.5824   2.8461
     3.0647   3.5994   3.7520   3.8159   3.9704   4.0551

          k = 0.0377-0.0836 0.0000 ( 48399 PWs)   bands (ev):

    -8.8041  -8.8002  -8.7976  -8.7755  -8.7754  -8.7695  -8.7543  -8.7284
    -8.7272  -8.6964  -8.6819  -8.6792  -8.6736  -8.6652  -8.6565  -8.6463
    -8.6460  -8.6313  -8.6217  -8.6211  -8.6142  -8.6079  -8.5997  -8.5972
    -8.5878  -8.5805  -8.5675  -8.5587  -8.5356  -8.5126  -6.9700  -6.9629
    -6.9572  -6.9428  -6.8999  -6.8963  -6.8905  -6.8662  -6.8196  -6.7922
    -6.7838  -6.7688  -6.7375  -6.7175  -6.7092  -6.6952  -6.6838  -6.6804
    -6.6468  -6.6315  -6.6134  -6.6072  -6.6005  -6.5956  -6.5891  -6.5697
    -6.5524  -6.5143  -6.5083  -6.4635  -5.5949  -5.4500  -4.6930  -4.4126
    -4.2341  -3.2020  -2.7368  -2.3947  -1.6123  -1.2735  -0.7877  -0.5234
     1.1383   1.2015   1.3586   1.4582   2.0364   2.2801   2.8895   2.9833
     3.0164   3.1181   3.1205   4.0300   4.0487   4.1622

          k = 0.0377-0.0700 0.0000 ( 48357 PWs)   bands (ev):

    -8.8028  -8.7824  -8.7799  -8.7788  -8.7756  -8.7722  -8.7578  -8.7519
    -8.7396  -8.7060  -8.6812  -8.6704  -8.6632  -8.6577  -8.6560  -8.6484
    -8.6362  -8.6352  -8.6241  -8.6206  -8.6120  -8.6094  -8.6035  -8.6028
    -8.6024  -8.5876  -8.5846  -8.5766  -8.5568  -8.5297  -6.9778  -6.9381
    -6.9206  -6.9155  -6.9073  -6.8926  -6.8775  -6.8683  -6.8480  -6.8184
    -6.7403  -6.7304  -6.7190  -6.7045  -6.6943  -6.6723  -6.6615  -6.6592
    -6.6455  -6.6203  -6.6139  -6.6106  -6.6057  -6.5968  -6.5905  -6.5880
    -6.5808  -6.5364  -6.5278  -6.4993  -5.8096  -5.1974  -4.7157  -4.5727
    -4.1297  -3.1553  -2.9974  -2.0703  -1.6552  -0.7948  -0.6643  -0.3470
     0.9240   1.0256   1.5374   1.6682   1.9718   2.2975   2.5148   2.5574
     2.8491   2.8999   3.2606   3.6390   3.7584   3.7922

          k = 0.0377-0.0564 0.0000 ( 48310 PWs)   bands (ev):

    -8.8127  -8.7955  -8.7891  -8.7766  -8.7747  -8.7676  -8.7652  -8.7619
    -8.7381  -8.7253  -8.6858  -8.6711  -8.6696  -8.6623  -8.6545  -8.6476
    -8.6437  -8.6262  -8.6244  -8.6230  -8.6181  -8.6128  -8.6109  -8.6066
    -8.6021  -8.5988  -8.5878  -8.5820  -8.5623  -8.5342  -6.9957  -6.9518
    -6.9108  -6.9092  -6.9010  -6.8901  -6.8515  -6.8512  -6.8433  -6.8160
    -6.7267  -6.7095  -6.7077  -6.6842  -6.6798  -6.6570  -6.6492  -6.6428
    -6.6355  -6.6264  -6.6157  -6.6121  -6.5974  -6.5877  -6.5855  -6.5754
    -6.5654  -6.5652  -6.5567  -6.5099  -6.1013  -4.8527  -4.8024  -4.6328
    -3.8584  -3.2215  -2.9597  -1.7418  -1.5830  -0.8061  -0.3085  -0.1478
     0.5968   0.6452   1.7098   1.8605   1.9500   2.0006   2.1301   2.2879
     2.6586   2.7369   3.1029   3.1188   3.4211   3.9213

          k = 0.0377-0.0429 0.0000 ( 48316 PWs)   bands (ev):

    -8.8268  -8.8254  -8.8012  -8.7993  -8.7806  -8.7716  -8.7596  -8.7556
    -8.7428  -8.7126  -8.7092  -8.6829  -8.6747  -8.6693  -8.6647  -8.6622
    -8.6498  -8.6343  -8.6299  -8.6289  -8.6210  -8.6208  -8.6106  -8.6087
    -8.6074  -8.5833  -8.5817  -8.5678  -8.5378  -8.5348  -7.0080  -6.9834
    -6.9464  -6.9156  -6.8769  -6.8738  -6.8607  -6.8356  -6.8031  -6.7737
    -6.7472  -6.7244  -6.7167  -6.6813  -6.6702  -6.6540  -6.6432  -6.6401
    -6.6364  -6.6234  -6.6175  -6.5970  -6.5957  -6.5796  -6.5640  -6.5625
    -6.5578  -6.5474  -6.5145  -6.5145  -6.3149  -5.0730  -4.6664  -4.1841
    -3.6327  -3.4055  -2.5955  -1.6092  -1.2249  -1.0942  -0.4070   0.2402
     0.3779   0.4952   1.1193   1.5572   1.5590   1.8583   2.0748   2.3698
     2.4923   2.7543   2.8944   2.9029   3.3117   3.6145

          k = 0.0377-0.0293 0.0000 ( 48336 PWs)   bands (ev):

    -8.8524  -8.8356  -8.8200  -8.8199  -8.7894  -8.7854  -8.7571  -8.7446
    -8.7343  -8.7271  -8.7039  -8.6978  -8.6943  -8.6781  -8.6772  -8.6734
    -8.6625  -8.6425  -8.6356  -8.6345  -8.6297  -8.6139  -8.6105  -8.6017
    -8.5975  -8.5687  -8.5664  -8.5439  -8.5420  -8.5066  -7.0149  -7.0096
    -6.9771  -6.9427  -6.8803  -6.8635  -6.8383  -6.8237  -6.7842  -6.7697
    -6.7481  -6.7380  -6.7346  -6.7020  -6.6935  -6.6819  -6.6575  -6.6298
    -6.6186  -6.6097  -6.6072  -6.6003  -6.5933  -6.5601  -6.5440  -6.5416
    -6.5237  -6.5189  -6.5185  -6.4580  -6.4353  -5.2340  -4.5308  -3.6543
    -3.5512  -3.4069  -2.1110  -1.5633  -1.4646  -0.9214  -0.7102   0.1520
     0.4016   0.4631   0.6326   1.1184   1.2353   1.6333   1.9302   2.3189
     2.3775   2.6247   2.7641   3.2242   3.3473   3.6766

          k = 0.0502-0.0209 0.0000 ( 48345 PWs)   bands (ev):

    -8.8464  -8.8281  -8.8158  -8.8151  -8.7831  -8.7796  -8.7596  -8.7369
    -8.7292  -8.7276  -8.6983  -8.6949  -8.6911  -8.6784  -8.6780  -8.6655
    -8.6602  -8.6417  -8.6316  -8.6296  -8.6195  -8.6125  -8.6107  -8.5946
    -8.5902  -8.5716  -8.5678  -8.5492  -8.5412  -8.5076  -7.0006  -6.9914
    -6.9740  -6.9462  -6.8830  -6.8709  -6.8395  -6.8272  -6.7917  -6.7763
    -6.7662  -6.7454  -6.7220  -6.7044  -6.7008  -6.6885  -6.6644  -6.6296
    -6.6250  -6.6115  -6.6071  -6.6028  -6.5911  -6.5688  -6.5485  -6.5475
    -6.5324  -6.5197  -6.5190  -6.4598  -6.3636  -5.1321  -4.8796  -3.7275
    -3.5581  -3.1414  -2.2216  -1.7842  -1.5237  -1.3620  -0.8562   0.0273
     0.2887   0.5635   0.9605   1.4174   1.6174   1.8168   2.2556   2.4203
     2.4248   2.5171   2.9843   3.3773   3.6326   3.7741

          k = 0.0502-0.0073 0.0000 ( 48363 PWs)   bands (ev):

    -8.8539  -8.8362  -8.8278  -8.8245  -8.7873  -8.7824  -8.7578  -8.7379
    -8.7234  -8.7183  -8.7114  -8.7073  -8.6895  -8.6859  -8.6756  -8.6735
    -8.6665  -8.6394  -8.6380  -8.6190  -8.6187  -8.6135  -8.5986  -8.5846
    -8.5796  -8.5619  -8.5584  -8.5528  -8.5159  -8.4832  -7.0207  -6.9988
    -6.9919  -6.9900  -6.8944  -6.8700  -6.8390  -6.8283  -6.7916  -6.7865
    -6.7710  -6.7462  -6.7366  -6.7296  -6.7186  -6.6989  -6.6849  -6.6376
    -6.6233  -6.6133  -6.5973  -6.5935  -6.5758  -6.5607  -6.5549  -6.5402
    -6.5147  -6.4983  -6.4822  -6.4161  -6.4096  -5.2001  -4.6495  -3.7298
    -3.4982  -2.6477  -2.6317  -1.8532  -1.4938  -1.3516  -1.0296  -0.3350
     0.1983   0.2889   0.9464   1.3140   1.7920   1.8050   1.9248   2.4416
     2.7168   2.7477   3.1190   3.2596   3.6993   3.7686

          k = 0.0502 0.0063 0.0000 ( 48398 PWs)   bands (ev):

    -8.8523  -8.8521  -8.8352  -8.8153  -8.7874  -8.7826  -8.7559  -8.7399
    -8.7378  -8.7113  -8.7057  -8.7033  -8.6972  -8.6946  -8.6671  -8.6652
    -8.6618  -8.6452  -8.6325  -8.6159  -8.6145  -8.6058  -8.5879  -8.5758
    -8.5687  -8.5636  -8.5549  -8.5430  -8.4959  -8.4638  -7.0364  -7.0346
    -7.0178  -6.9857  -6.9095  -6.8730  -6.8639  -6.8457  -6.8049  -6.7966
    -6.7738  -6.7580  -6.7457  -6.7269  -6.7109  -6.7036  -6.7026  -6.6523
    -6.6271  -6.6208  -6.5883  -6.5875  -6.5666  -6.5634  -6.5605  -6.5348
    -6.5014  -6.4792  -6.4507  -6.4154  -6.3846  -5.2101  -4.3675  -3.9477
    -3.2361  -2.9010  -2.3018  -2.2443  -2.0957  -1.1515  -0.8296  -0.7345
     0.1876   0.2870   0.8737   1.1949   1.8080   1.9587   2.1832   2.5145
     2.7240   2.8066   3.3680   3.6847   3.7077   3.9250

          k = 0.0502 0.0199 0.0000 ( 48397 PWs)   bands (ev):

    -8.8606  -8.8443  -8.8376  -8.8025  -8.7857  -8.7805  -8.7543  -8.7461
    -8.7371  -8.7120  -8.7119  -8.6923  -8.6903  -8.6872  -8.6613  -8.6612
    -8.6497  -8.6482  -8.6263  -8.6163  -8.6080  -8.5951  -8.5803  -8.5718
    -8.5702  -8.5557  -8.5501  -8.5352  -8.4835  -8.4509  -7.0674  -7.0409
    -7.0301  -6.9775  -6.9279  -6.8833  -6.8786  -6.8590  -6.8257  -6.8197
    -6.7767  -6.7647  -6.7325  -6.7269  -6.7207  -6.7072  -6.7026  -6.6659
    -6.6338  -6.6313  -6.5940  -6.5876  -6.5715  -6.5711  -6.5493  -6.5311
    -6.4966  -6.4654  -6.4315  -6.3777  -6.3663  -5.1639  -4.2145  -4.0649
    -3.0272  -2.9778  -2.7093  -2.6769  -1.9675  -1.5271  -1.1016  -0.4391
     0.2516   0.5843   0.8978   1.0307   1.8922   2.3945   2.4609   2.4904
     2.9257   2.9306   3.5616   3.6960   3.8361   3.9583

          k = 0.0502 0.0335 0.0000 ( 48396 PWs)   bands (ev):

    -8.8611  -8.8379  -8.8304  -8.7894  -8.7818  -8.7770  -8.7537  -8.7459
    -8.7321  -8.7108  -8.7086  -8.6843  -8.6837  -8.6785  -8.6582  -8.6562
    -8.6482  -8.6393  -8.6217  -8.6157  -8.6007  -8.5893  -8.5780  -8.5751
    -8.5707  -8.5469  -8.5457  -8.5317  -8.4799  -8.4462  -7.0799  -7.0389
    -7.0342  -6.9645  -6.9391  -6.8906  -6.8855  -6.8773  -6.8382  -6.8303
    -6.7875  -6.7583  -6.7418  -6.7333  -6.7230  -6.7095  -6.7067  -6.6752
    -6.6427  -6.6396  -6.6049  -6.5921  -6.5809  -6.5790  -6.5452  -6.5276
    -6.5027  -6.4611  -6.4264  -6.3615  -6.2752  -5.0649  -4.4850  -3.9087
    -3.1379  -3.0796  -2.8749  -2.8700  -1.8572  -1.8145  -1.4144  -0.3478
     0.3871   0.8957   0.9624   1.4582   1.9855   2.2054   2.5577   2.9826
     3.2658   3.3100   3.4628   3.6933   3.8330   4.1828

          k = 0.0502 0.0471 0.0000 ( 48423 PWs)   bands (ev):

    -8.8537  -8.8324  -8.8178  -8.7795  -8.7740  -8.7733  -8.7548  -8.7388
    -8.7261  -8.7013  -8.7012  -8.6857  -8.6756  -8.6741  -8.6579  -8.6527
    -8.6437  -8.6328  -8.6214  -8.6134  -8.5948  -8.5898  -8.5827  -8.5781
    -8.5742  -8.5448  -8.5410  -8.5333  -8.4854  -8.4506  -7.0734  -7.0302
    -7.0269  -6.9466  -6.9375  -6.9003  -6.8909  -6.8882  -6.8337  -6.8326
    -6.7881  -6.7604  -6.7492  -6.7483  -6.7258  -6.7201  -6.7140  -6.6778
    -6.6531  -6.6403  -6.6132  -6.5986  -6.5915  -6.5895  -6.5490  -6.5248
    -6.5171  -6.4653  -6.4348  -6.3701  -6.1023  -4.9347  -4.7016  -4.2120
    -3.3410  -3.1129  -2.8828  -2.8130  -1.9501  -1.6841  -1.6655  -0.4059
     0.5908   1.0152   1.5498   1.6549   1.9700   2.3370   2.7273   3.0432
     3.1247   3.5479   3.8707   3.9210   3.9898   4.0448

          k = 0.0502-0.1025 0.0000 ( 48408 PWs)   bands (ev):

    -8.8394  -8.8236  -8.8057  -8.7739  -8.7708  -8.7645  -8.7581  -8.7256
    -8.7180  -8.6943  -8.6918  -8.6856  -8.6834  -8.6640  -8.6588  -8.6504
    -8.6373  -8.6336  -8.6227  -8.6132  -8.5946  -8.5932  -8.5879  -8.5853
    -8.5811  -8.5518  -8.5404  -8.5379  -8.4995  -8.4643  -7.0496  -7.0144
    -7.0087  -6.9265  -6.9248  -6.9237  -6.8961  -6.8737  -6.8262  -6.8105
    -6.7897  -6.7795  -6.7527  -6.7484  -6.7365  -6.7339  -6.7114  -6.6763
    -6.6594  -6.6350  -6.6213  -6.6041  -6.6026  -6.5962  -6.5594  -6.5360
    -6.5241  -6.4766  -6.4551  -6.3915  -5.8598  -4.9642  -4.6675  -4.6624
    -3.5123  -3.4962  -2.6373  -2.4277  -2.1842  -1.8524  -1.3264  -0.4171
     0.8586   1.2363   1.6115   1.7806   2.0785   2.3898   2.7116   2.9370
     3.2852   3.6254   3.7173   3.8063   4.0493   4.2642

          k = 0.0502-0.0889 0.0000 ( 48449 PWs)   bands (ev):

    -8.8201  -8.8119  -8.7946  -8.7788  -8.7642  -8.7636  -8.7577  -8.7106
    -8.7067  -8.7056  -8.7027  -8.6817  -8.6641  -8.6602  -8.6570  -8.6483
    -8.6476  -8.6290  -8.6240  -8.6171  -8.6037  -8.5977  -8.5941  -8.5929
    -8.5859  -8.5679  -8.5528  -8.5389  -8.5197  -8.4865  -7.0115  -6.9928
    -6.9810  -6.9454  -6.9102  -6.9049  -6.8986  -6.8514  -6.8204  -6.8067
    -6.7820  -6.7737  -6.7672  -6.7533  -6.7265  -6.7229  -6.7028  -6.6808
    -6.6520  -6.6380  -6.6216  -6.6073  -6.6044  -6.6015  -6.5747  -6.5559
    -6.5287  -6.4935  -6.4833  -6.4240  -5.5521  -5.1018  -5.0794  -4.4565
    -3.9112  -3.5471  -2.4687  -2.3902  -1.9719  -1.8890  -0.9173  -0.4197
     1.1850   1.4392   1.6110   1.6439   1.8277   2.1177   2.9250   3.0022
     3.1696   3.3935   3.5054   3.9989   4.3087   4.3476

          k = 0.0502-0.0753 0.0000 ( 48444 PWs)   bands (ev):

    -8.7986  -8.7977  -8.7900  -8.7830  -8.7707  -8.7645  -8.7505  -8.7325
    -8.7280  -8.6932  -8.6807  -8.6763  -8.6695  -8.6623  -8.6564  -8.6421
    -8.6418  -8.6333  -8.6201  -8.6192  -8.6177  -8.6040  -8.6011  -8.5984
    -8.5923  -8.5829  -8.5682  -8.5564  -8.5347  -8.5134  -6.9688  -6.9647
    -6.9638  -6.9430  -6.8986  -6.8956  -6.8880  -6.8713  -6.8205  -6.7975
    -6.7847  -6.7699  -6.7409  -6.7184  -6.7039  -6.6967  -6.6892  -6.6876
    -6.6523  -6.6342  -6.6114  -6.6087  -6.6053  -6.5991  -6.5891  -6.5753
    -6.5506  -6.5142  -6.5065  -6.4641  -5.4854  -5.2380  -5.0905  -4.2687
    -4.2668  -3.4422  -2.7474  -2.1320  -1.9731  -1.3060  -0.5645  -0.4782
     1.2223   1.3069   1.5521   1.5732   1.8147   2.1387   2.5586   2.9965
     3.1851   3.3003   3.4147   3.7577   3.9454   3.9867

          k = 0.0502-0.0617 0.0000 ( 48357 PWs)   bands (ev):

    -8.8028  -8.7824  -8.7799  -8.7788  -8.7756  -8.7722  -8.7578  -8.7519
    -8.7396  -8.7060  -8.6812  -8.6704  -8.6632  -8.6577  -8.6560  -8.6484
    -8.6362  -8.6352  -8.6241  -8.6206  -8.6120  -8.6094  -8.6035  -8.6028
    -8.6024  -8.5876  -8.5846  -8.5766  -8.5568  -8.5297  -6.9778  -6.9381
    -6.9206  -6.9155  -6.9073  -6.8926  -6.8775  -6.8683  -6.8480  -6.8184
    -6.7403  -6.7305  -6.7190  -6.7045  -6.6943  -6.6723  -6.6615  -6.6592
    -6.6455  -6.6203  -6.6140  -6.6106  -6.6057  -6.5968  -6.5905  -6.5880
    -6.5808  -6.5364  -6.5278  -6.4993  -5.8096  -5.1974  -4.7157  -4.5727
    -4.1297  -3.1553  -2.9974  -2.0703  -1.6552  -0.7948  -0.6643  -0.3470
     0.9240   1.0256   1.5374   1.6682   1.9718   2.2975   2.5147   2.5573
     2.8491   2.8999   3.2607   3.6395   3.7583   3.7921

          k = 0.0502-0.0481 0.0000 ( 48347 PWs)   bands (ev):

    -8.8156  -8.8035  -8.7880  -8.7767  -8.7682  -8.7659  -8.7656  -8.7609
    -8.7374  -8.7265  -8.6909  -8.6790  -8.6656  -8.6574  -8.6542  -8.6468
    -8.6463  -8.6345  -8.6218  -8.6204  -8.6162  -8.6101  -8.6092  -8.6055
    -8.6011  -8.5973  -8.5869  -8.5819  -8.5611  -8.5364  -6.9860  -6.9471
    -6.9093  -6.9075  -6.8999  -6.8906  -6.8593  -6.8556  -6.8399  -6.8193
    -6.7244  -6.7221  -6.7050  -6.6838  -6.6738  -6.6557  -6.6493  -6.6440
    -6.6325  -6.6284  -6.6157  -6.6120  -6.5997  -6.5869  -6.5850  -6.5724
    -6.5665  -6.5644  -6.5535  -6.5128  -6.0686  -5.1523  -4.8187  -4.2531
    -3.9930  -3.2123  -2.7331  -1.9965  -1.2423  -1.2059  -0.4834  -0.1315
     0.6572   0.9771   1.5598   1.6377   1.6841   2.1601   2.2690   2.4547
     2.6661   2.7032   2.9332   3.6084   3.6477   3.8000

          k = 0.0502-0.0345 0.0000 ( 48329 PWs)   bands (ev):

    -8.8291  -8.8248  -8.7983  -8.7974  -8.7747  -8.7690  -8.7618  -8.7503
    -8.7434  -8.7137  -8.7084  -8.6814  -8.6811  -8.6651  -8.6639  -8.6614
    -8.6446  -8.6376  -8.6294  -8.6243  -8.6235  -8.6158  -8.6083  -8.6042
    -8.5996  -8.5865  -8.5807  -8.5657  -8.5426  -8.5349  -6.9902  -6.9757
    -6.9436  -6.9150  -6.8773  -6.8735  -6.8587  -6.8456  -6.8192  -6.7794
    -6.7419  -6.7375  -6.7109  -6.6840  -6.6792  -6.6488  -6.6477  -6.6390
    -6.6339  -6.6237  -6.6172  -6.5992  -6.5988  -6.5867  -6.5652  -6.5584
    -6.5542  -6.5492  -6.5210  -6.5132  -6.2548  -5.0479  -5.0052  -3.9274
    -3.6560  -3.3949  -2.2396  -1.8405  -1.7245  -0.8710  -0.8656   0.1620
     0.4457   0.8698   1.1321   1.6005   1.7578   1.9413   2.0126   2.0389
     2.5604   3.0463   3.1278   3.2405   3.3500   3.7225

          k = 0.0628-0.0261 0.0000 ( 48355 PWs)   bands (ev):

    -8.8289  -8.8205  -8.7938  -8.7933  -8.7689  -8.7650  -8.7643  -8.7452
    -8.7431  -8.7118  -8.7071  -8.6855  -8.6768  -8.6654  -8.6615  -8.6534
    -8.6470  -8.6361  -8.6286  -8.6242  -8.6185  -8.6066  -8.6058  -8.5998
    -8.5949  -8.5895  -8.5796  -8.5630  -8.5514  -8.5348  -6.9624  -6.9594
    -6.9387  -6.9153  -6.8833  -6.8732  -6.8718  -6.8579  -6.8414  -6.7900
    -6.7483  -6.7313  -6.7079  -6.6912  -6.6813  -6.6549  -6.6502  -6.6433
    -6.6375  -6.6198  -6.6163  -6.6021  -6.6009  -6.5915  -6.5688  -6.5659
    -6.5531  -6.5456  -6.5298  -6.5090  -6.1187  -5.3620  -4.8689  -4.1622
    -3.4435  -3.2432  -2.2808  -2.0267  -1.6228  -1.5167  -0.6098  -0.1927
     0.5942   0.8679   1.3567   1.4779   1.7909   2.0195   2.3995   2.4565
     2.7124   2.8275   3.3422   3.5201   3.6002   3.8904

          k = 0.0628-0.0125 0.0000 ( 48346 PWs)   bands (ev):

    -8.8356  -8.8148  -8.8097  -8.8087  -8.7740  -8.7737  -8.7631  -8.7293
    -8.7273  -8.7196  -8.6904  -8.6898  -8.6855  -8.6760  -8.6758  -8.6571
    -8.6567  -8.6389  -8.6268  -8.6256  -8.6111  -8.6101  -8.6082  -8.5905
    -8.5853  -8.5722  -8.5674  -8.5594  -8.5390  -8.5091  -6.9874  -6.9693
    -6.9585  -6.9518  -6.8865  -6.8810  -6.8752  -6.8272  -6.8129  -6.7783
    -6.7768  -6.7524  -6.7177  -6.7139  -6.7027  -6.6882  -6.6762  -6.6432
    -6.6331  -6.6132  -6.6114  -6.6025  -6.5909  -6.5753  -6.5638  -6.5571
    -6.5446  -6.5171  -6.5162  -6.4611  -6.2021  -5.1516  -4.9626  -3.9572
    -3.7168  -2.8232  -2.6388  -2.0299  -1.6433  -1.1658  -0.9195  -0.5399
     0.4870   0.7170   1.0996   1.5726   1.9563   2.3209   2.3694   2.5274
     2.7064   3.0186   3.1611   3.5108   3.6782   3.9300

          k = 0.0628 0.0011 0.0000 ( 48372 PWs)   bands (ev):

    -8.8345  -8.8295  -8.8198  -8.8032  -8.7765  -8.7761  -8.7603  -8.7233
    -8.7162  -8.7107  -8.7082  -8.6971  -8.6813  -8.6799  -8.6674  -8.6659
    -8.6580  -8.6343  -8.6310  -8.6154  -8.6103  -8.6060  -8.5973  -8.5829
    -8.5741  -8.5679  -8.5597  -8.5529  -8.5153  -8.4846  -7.0078  -7.0001
    -6.9953  -6.9567  -6.9012  -6.8836  -6.8803  -6.8351  -6.7952  -6.7945
    -6.7781  -6.7547  -6.7517  -6.7309  -6.7245  -6.7011  -6.6961  -6.6535
    -6.6287  -6.6280  -6.6076  -6.5967  -6.5767  -6.5765  -6.5743  -6.5415
    -6.5310  -6.4948  -6.4825  -6.4198  -6.2242  -4.9991  -4.8794  -4.0464
    -3.7017  -2.8562  -2.4891  -2.4708  -1.6579  -1.1694  -0.9502  -0.8251
     0.4512   0.4901   1.2427   1.7674   1.8792   2.0600   2.5293   2.6569
     3.0076   3.2629   3.3504   3.7366   3.7656   3.8877

          k = 0.0628 0.0147 0.0000 ( 48380 PWs)   bands (ev):

    -8.8448  -8.8301  -8.8252  -8.7897  -8.7763  -8.7763  -8.7572  -8.7307
    -8.7246  -8.7019  -8.6960  -8.6948  -8.6916  -8.6793  -8.6609  -8.6565
    -8.6480  -8.6400  -8.6234  -8.6161  -8.6010  -8.5981  -8.5853  -8.5784
    -8.5769  -8.5580  -8.5494  -8.5416  -8.4966  -8.4642  -7.0438  -7.0215
    -7.0160  -6.9531  -6.9190  -6.8907  -6.8859  -6.8692  -6.8151  -6.8040
    -6.7729  -6.7727  -6.7514  -6.7317  -6.7300  -6.7197  -6.7047  -6.6661
    -6.6427  -6.6330  -6.6060  -6.5957  -6.5873  -6.5830  -6.5594  -6.5315
    -6.5210  -6.4769  -6.4529  -6.3890  -6.1918  -4.9825  -4.5562  -4.3953
    -3.4074  -3.0456  -2.7871  -2.3018  -2.1755  -1.3342  -1.2382  -0.6073
     0.4862   0.8006   1.0660   1.7808   2.0940   2.2946   2.4610   2.6222
     3.0823   3.4984   3.6856   3.8971   3.9636   4.0685

          k = 0.0628 0.0283 0.0000 ( 48423 PWs)   bands (ev):

    -8.8537  -8.8324  -8.8178  -8.7795  -8.7740  -8.7733  -8.7548  -8.7388
    -8.7261  -8.7013  -8.7012  -8.6857  -8.6756  -8.6741  -8.6579  -8.6527
    -8.6437  -8.6328  -8.6214  -8.6134  -8.5948  -8.5898  -8.5827  -8.5781
    -8.5742  -8.5448  -8.5410  -8.5333  -8.4854  -8.4506  -7.0734  -7.0302
    -7.0269  -6.9466  -6.9375  -6.9003  -6.8909  -6.8882  -6.8337  -6.8326
    -6.7881  -6.7604  -6.7492  -6.7483  -6.7258  -6.7201  -6.7140  -6.6778
    -6.6531  -6.6403  -6.6132  -6.5986  -6.5915  -6.5895  -6.5490  -6.5248
    -6.5171  -6.4653  -6.4348  -6.3701  -6.1023  -4.9347  -4.7016  -4.2120
    -3.3410  -3.1129  -2.8828  -2.8130  -1.9501  -1.6841  -1.6655  -0.4059
     0.5908   1.0152   1.5498   1.6548   1.9700   2.3370   2.7273   3.0432
     3.1247   3.5479   3.8705   3.9209   3.9896   4.0447

          k = 0.0628 0.0419 0.0000 ( 48448 PWs)   bands (ev):

    -8.8553  -8.8325  -8.8092  -8.7774  -8.7713  -8.7635  -8.7538  -8.7400
    -8.7267  -8.6993  -8.6970  -8.6817  -8.6679  -8.6662  -8.6578  -8.6490
    -8.6441  -8.6240  -8.6218  -8.6086  -8.5901  -8.5872  -8.5866  -8.5823
    -8.5672  -8.5377  -8.5349  -8.5293  -8.4825  -8.4455  -7.0848  -7.0349
    -7.0251  -6.9473  -6.9366  -6.9114  -6.8952  -6.8949  -6.8460  -6.8443
    -6.7939  -6.7630  -6.7547  -6.7531  -6.7313  -6.7252  -6.7146  -6.6850
    -6.6604  -6.6438  -6.6211  -6.6028  -6.5958  -6.5946  -6.5456  -6.5207
    -6.5199  -6.4616  -6.4297  -6.3643  -5.9496  -5.0571  -4.7454  -4.0139
    -3.5971  -3.2158  -2.9691  -2.7187  -1.9425  -1.9345  -1.8569  -0.4424
     0.7626   1.5047   1.6113   1.6904   2.0245   2.5763   2.8766   3.1479
     3.3156   3.4296   3.6919   3.8255   3.9709   4.3972

          k = 0.0628-0.1077 0.0000 ( 48414 PWs)   bands (ev):

    -8.8496  -8.8290  -8.8018  -8.7733  -8.7709  -8.7567  -8.7549  -8.7351
    -8.7239  -8.6917  -8.6916  -8.6844  -8.6683  -8.6624  -8.6580  -8.6478
    -8.6408  -8.6262  -8.6175  -8.6072  -8.5925  -8.5891  -8.5879  -8.5857
    -8.5686  -8.5392  -8.5318  -8.5313  -8.4882  -8.4502  -7.0772  -7.0292
    -7.0170  -6.9432  -6.9252  -6.9239  -6.8983  -6.8914  -6.8460  -6.8370
    -6.7898  -6.7724  -6.7659  -6.7484  -6.7352  -6.7333  -6.7202  -6.6845
    -6.6657  -6.6412  -6.6251  -6.6056  -6.6029  -6.5984  -6.5495  -6.5286
    -6.5191  -6.4655  -6.4372  -6.3719  -5.7324  -5.2671  -4.6174  -4.2847
    -3.7515  -3.1819  -2.9705  -2.5526  -2.1350  -1.9591  -1.7652  -0.4234
     0.9984   1.4636   1.5885   2.0464   2.2039   2.5071   2.8223   3.0693
     3.3938   3.4833   3.5856   3.8824   4.0153   4.1433

          k = 0.0628-0.0941 0.0000 ( 48438 PWs)   bands (ev):

    -8.8374  -8.8220  -8.7960  -8.7747  -8.7671  -8.7584  -8.7555  -8.7239
    -8.7169  -8.6939  -8.6864  -8.6827  -8.6792  -8.6584  -8.6582  -8.6481
    -8.6358  -8.6265  -8.6262  -8.6103  -8.5965  -8.5933  -8.5882  -8.5880
    -8.5793  -8.5497  -8.5400  -8.5323  -8.5016  -8.4644  -7.0517  -7.0136
    -7.0031  -6.9362  -6.9284  -6.9142  -6.8996  -6.8755  -6.8316  -6.8130
    -6.7964  -6.7801  -6.7569  -6.7536  -6.7439  -6.7336  -6.7174  -6.6805
    -6.6652  -6.6337  -6.6280  -6.6081  -6.6070  -6.6008  -6.5599  -6.5412
    -6.5208  -6.4766  -6.4562  -6.3924  -5.4995  -5.3759  -4.7041  -4.5065
    -3.7467  -3.5474  -2.4702  -2.3741  -2.2156  -2.1936  -1.3593  -0.3601
     1.2869   1.3014   1.7052   1.8235   2.1077   2.3092   2.6851   3.2266
     3.2665   3.3450   3.8745   3.8858   4.0935   4.2508

          k = 0.0628-0.0805 0.0000 ( 48449 PWs)   bands (ev):

    -8.8201  -8.8119  -8.7946  -8.7788  -8.7642  -8.7636  -8.7577  -8.7106
    -8.7067  -8.7056  -8.7027  -8.6817  -8.6641  -8.6602  -8.6570  -8.6483
    -8.6476  -8.6290  -8.6240  -8.6171  -8.6037  -8.5977  -8.5941  -8.5929
    -8.5859  -8.5679  -8.5528  -8.5389  -8.5197  -8.4865  -7.0115  -6.9928
    -6.9810  -6.9454  -6.9102  -6.9049  -6.8986  -6.8514  -6.8204  -6.8067
    -6.7820  -6.7737  -6.7672  -6.7533  -6.7265  -6.7229  -6.7028  -6.6808
    -6.6520  -6.6380  -6.6216  -6.6073  -6.6044  -6.6015  -6.5747  -6.5559
    -6.5287  -6.4935  -6.4833  -6.4240  -5.5521  -5.1018  -5.0794  -4.4565
    -3.9112  -3.5471  -2.4687  -2.3902  -1.9719  -1.8890  -0.9173  -0.4197
     1.1850   1.4392   1.6110   1.6439   1.8276   2.1177   2.9249   3.0022
     3.1696   3.3935   3.5053   3.9981   4.3069   4.3472

          k = 0.0628-0.0669 0.0000 ( 48399 PWs)   bands (ev):

    -8.8041  -8.8002  -8.7976  -8.7755  -8.7754  -8.7695  -8.7543  -8.7284
    -8.7272  -8.6964  -8.6819  -8.6792  -8.6736  -8.6652  -8.6565  -8.6463
    -8.6460  -8.6313  -8.6217  -8.6211  -8.6142  -8.6079  -8.5997  -8.5972
    -8.5878  -8.5805  -8.5675  -8.5587  -8.5356  -8.5126  -6.9700  -6.9629
    -6.9572  -6.9428  -6.8999  -6.8963  -6.8905  -6.8662  -6.8196  -6.7922
    -6.7838  -6.7688  -6.7375  -6.7175  -6.7092  -6.6952  -6.6838  -6.6804
    -6.6468  -6.6315  -6.6134  -6.6072  -6.6005  -6.5956  -6.5891  -6.5697
    -6.5524  -6.5143  -6.5083  -6.4635  -5.5949  -5.4500  -4.6930  -4.4126
    -4.2341  -3.2020  -2.7368  -2.3946  -1.6123  -1.2734  -0.7877  -0.5235
     1.1383   1.2015   1.3586   1.4582   2.0364   2.2801   2.8895   2.9833
     3.0164   3.1182   3.1205   4.0302   4.0487   4.1621

          k = 0.0628-0.0533 0.0000 ( 48346 PWs)   bands (ev):

    -8.8134  -8.7945  -8.7853  -8.7821  -8.7749  -8.7670  -8.7542  -8.7467
    -8.7412  -8.7066  -8.6915  -8.6790  -8.6669  -8.6561  -8.6547  -8.6439
    -8.6433  -8.6399  -8.6274  -8.6224  -8.6129  -8.6040  -8.6023  -8.5987
    -8.5984  -8.5879  -8.5829  -8.5716  -8.5578  -8.5316  -6.9605  -6.9357
    -6.9191  -6.9139  -6.9094  -6.8935  -6.8829  -6.8660  -6.8540  -6.8096
    -6.7436  -6.7340  -6.7130  -6.7087  -6.6826  -6.6708  -6.6589  -6.6529
    -6.6463  -6.6183  -6.6142  -6.6069  -6.6025  -6.5960  -6.5914  -6.5832
    -6.5713  -6.5358  -6.5317  -6.5010  -5.7397  -5.5814  -4.5040  -4.4326
    -4.1691  -2.9830  -2.7722  -2.3222  -1.2751  -1.2025  -0.7050  -0.5185
     1.0024   1.1545   1.2846   1.5100   1.9495   2.1802   2.4253   2.8769
     2.9526   3.0667   3.2860   3.4560   3.8335   4.0944

          k = 0.0628-0.0397 0.0000 ( 48314 PWs)   bands (ev):

    -8.8200  -8.8142  -8.7849  -8.7779  -8.7674  -8.7660  -8.7589  -8.7568
    -8.7353  -8.7292  -8.6957  -8.6896  -8.6614  -8.6558  -8.6540  -8.6507
    -8.6458  -8.6388  -8.6202  -8.6179  -8.6123  -8.6089  -8.6068  -8.6034
    -8.5977  -8.5940  -8.5849  -8.5822  -8.5571  -8.5423  -6.9601  -6.9353
    -6.9061  -6.9046  -6.8978  -6.8918  -6.8765  -6.8734  -6.8344  -6.8257
    -6.7323  -6.7248  -6.6957  -6.6786  -6.6747  -6.6597  -6.6471  -6.6468
    -6.6284  -6.6269  -6.6201  -6.6100  -6.6005  -6.5883  -6.5801  -6.5755
    -6.5639  -6.5630  -6.5441  -6.5208  -5.9645  -5.5052  -4.7161  -4.3154
    -3.7108  -3.2113  -2.3473  -2.0964  -1.8028  -1.0036  -0.7972  -0.1756
     0.7682   1.2313   1.3706   1.5172   1.6456   1.9427   2.2004   2.7495
     2.7774   3.1109   3.3109   3.4246   3.6208   3.9963

          k =-0.0753 0.0313 0.0000 ( 48368 PWs)   bands (ev):

    -8.8202  -8.8202  -8.7810  -8.7810  -8.7673  -8.7673  -8.7552  -8.7552
    -8.7324  -8.7324  -8.6955  -8.6955  -8.6587  -8.6587  -8.6544  -8.6543
    -8.6408  -8.6408  -8.6187  -8.6187  -8.6099  -8.6099  -8.6039  -8.6039
    -8.5939  -8.5939  -8.5833  -8.5833  -8.5502  -8.5502  -6.9322  -6.9321
    -6.9046  -6.9046  -6.8947  -6.8946  -6.8899  -6.8899  -6.8300  -6.8299
    -6.7305  -6.7304  -6.6830  -6.6830  -6.6684  -6.6684  -6.6483  -6.6483
    -6.6267  -6.6267  -6.6156  -6.6156  -6.5933  -6.5933  -6.5779  -6.5779
    -6.5626  -6.5625  -6.5320  -6.5319  -5.7783  -5.7782  -4.5452  -4.5452
    -3.3380  -3.3380  -2.2137  -2.2136  -1.6067  -1.6065  -0.3988  -0.3988
     0.9631   0.9631   1.2967   1.2967   1.9573   1.9574   2.5258   2.5259
     2.9473   2.9473   3.4666   3.4667   3.9613   3.9615

          k =-0.0753 0.0449 0.0000 ( 48387 PWs)   bands (ev):

    -8.8235  -8.8102  -8.7893  -8.7874  -8.7708  -8.7645  -8.7587  -8.7446
    -8.7410  -8.7079  -8.7025  -8.6846  -8.6699  -8.6633  -8.6585  -8.6473
    -8.6461  -8.6373  -8.6282  -8.6232  -8.6147  -8.6039  -8.6005  -8.5992
    -8.5947  -8.5889  -8.5805  -8.5621  -8.5601  -8.5338  -6.9509  -6.9321
    -6.9252  -6.9167  -6.9095  -6.8894  -6.8785  -6.8630  -6.8535  -6.7991
    -6.7469  -6.7334  -6.7082  -6.7029  -6.6745  -6.6672  -6.6511  -6.6497
    -6.6462  -6.6163  -6.6159  -6.6042  -6.6026  -6.5927  -6.5809  -6.5755
    -6.5601  -6.5384  -6.5345  -6.5043  -5.8936  -5.5928  -4.6667  -4.3660
    -3.7193  -3.0146  -2.5195  -2.1278  -1.7798  -1.0924  -0.6926  -0.5543
     0.8362   1.1234   1.1683   1.3926   1.9196   2.1265   2.6188   2.7753
     2.8878   3.0797   3.2534   3.5686   3.7433   4.1024

          k =-0.0753 0.0585 0.0000 ( 48364 PWs)   bands (ev):

    -8.8205  -8.8046  -8.8025  -8.7952  -8.7718  -8.7665  -8.7632  -8.7278
    -8.7248  -8.7069  -8.6855  -8.6842  -8.6789  -8.6711  -8.6664  -8.6520
    -8.6510  -8.6329  -8.6249  -8.6231  -8.6107  -8.6101  -8.6005  -8.5940
    -8.5844  -8.5727  -8.5659  -8.5652  -8.5373  -8.5109  -6.9751  -6.9624
    -6.9581  -6.9239  -6.9168  -6.8899  -6.8895  -6.8489  -6.8170  -6.7836
    -6.7809  -6.7626  -6.7293  -6.7156  -6.7087  -6.6880  -6.6827  -6.6633
    -6.6386  -6.6240  -6.6140  -6.6038  -6.5915  -6.5881  -6.5810  -6.5579
    -6.5567  -6.5147  -6.5124  -6.4623  -5.9418  -5.3408  -4.7341  -4.1333
    -4.1299  -2.7763  -2.7285  -2.5255  -1.2897  -1.1445  -1.1058  -0.6870
     0.7764   0.8470   1.3999   1.5226   1.9402   2.5357   2.7251   2.7676
     2.8316   3.2849   3.4905   3.6860   3.7979   3.9429

          k =-0.0753 0.0721 0.0000 ( 48390 PWs)   bands (ev):

    -8.8235  -8.8165  -8.8110  -8.7802  -8.7745  -8.7654  -8.7624  -8.7121
    -8.7111  -8.7076  -8.7028  -8.6899  -8.6719  -8.6662  -8.6626  -8.6557
    -8.6516  -8.6308  -8.6239  -8.6165  -8.6071  -8.5976  -8.5955  -8.5900
    -8.5804  -8.5685  -8.5527  -8.5484  -8.5167  -8.4858  -7.0073  -6.9964
    -6.9895  -6.9249  -6.9214  -6.9069  -6.8927  -6.8441  -6.8118  -6.8013
    -6.7797  -6.7652  -6.7625  -6.7448  -6.7253  -6.7167  -6.6962  -6.6698
    -6.6441  -6.6323  -6.6190  -6.6028  -6.5942  -6.5927  -6.5741  -6.5468
    -6.5345  -6.4938  -6.4828  -6.4225  -5.9294  -5.0289  -4.7677  -4.5207
    -3.8412  -3.1466  -2.6486  -2.4525  -1.8091  -1.5044  -0.9338  -0.6615
     0.7840   0.9883   1.3587   1.7107   2.1449   2.4160   2.5824   2.8462
     3.0647   3.5993   3.7520   3.8159   3.9700   4.0542

          k =-0.0753 0.0857 0.0000 ( 48408 PWs)   bands (ev):

    -8.8394  -8.8236  -8.8057  -8.7739  -8.7708  -8.7645  -8.7581  -8.7256
    -8.7180  -8.6943  -8.6918  -8.6856  -8.6834  -8.6640  -8.6588  -8.6504
    -8.6373  -8.6336  -8.6227  -8.6132  -8.5946  -8.5932  -8.5879  -8.5853
    -8.5811  -8.5518  -8.5404  -8.5379  -8.4995  -8.4643  -7.0496  -7.0144
    -7.0087  -6.9265  -6.9248  -6.9237  -6.8961  -6.8737  -6.8262  -6.8105
    -6.7897  -6.7795  -6.7527  -6.7484  -6.7365  -6.7339  -6.7114  -6.6763
    -6.6594  -6.6350  -6.6213  -6.6041  -6.6026  -6.5962  -6.5594  -6.5360
    -6.5241  -6.4766  -6.4551  -6.3915  -5.8598  -4.9642  -4.6675  -4.6624
    -3.5123  -3.4962  -2.6373  -2.4277  -2.1842  -1.8524  -1.3264  -0.4171
     0.8586   1.2363   1.6115   1.7806   2.0785   2.3898   2.7116   2.9371
     3.2852   3.6254   3.7175   3.8063   4.0492   4.2637

          k =-0.0753 0.0993 0.0000 ( 48414 PWs)   bands (ev):

    -8.8496  -8.8290  -8.8018  -8.7733  -8.7709  -8.7567  -8.7549  -8.7351
    -8.7239  -8.6917  -8.6916  -8.6844  -8.6683  -8.6624  -8.6580  -8.6478
    -8.6408  -8.6262  -8.6175  -8.6072  -8.5925  -8.5891  -8.5879  -8.5857
    -8.5686  -8.5392  -8.5318  -8.5313  -8.4882  -8.4502  -7.0772  -7.0292
    -7.0170  -6.9432  -6.9252  -6.9239  -6.8983  -6.8914  -6.8460  -6.8370
    -6.7898  -6.7724  -6.7659  -6.7484  -6.7352  -6.7333  -6.7202  -6.6845
    -6.6657  -6.6412  -6.6251  -6.6056  -6.6029  -6.5984  -6.5495  -6.5286
    -6.5191  -6.4655  -6.4372  -6.3719  -5.7324  -5.2671  -4.6174  -4.2847
    -3.7515  -3.1819  -2.9705  -2.5526  -2.1350  -1.9591  -1.7652  -0.4234
     0.9985   1.4636   1.5885   2.0464   2.2039   2.5071   2.8223   3.0693
     3.3938   3.4833   3.5856   3.8823   4.0152   4.1437

          k =-0.0753-0.0502 0.0000 ( 48424 PWs)   bands (ev):

    -8.8532  -8.8308  -8.8008  -8.7749  -8.7691  -8.7538  -8.7535  -8.7383
    -8.7263  -8.6933  -8.6915  -8.6810  -8.6619  -8.6615  -8.6589  -8.6464
    -8.6423  -8.6277  -8.6099  -8.6049  -8.5947  -8.5893  -8.5870  -8.5842
    -8.5636  -8.5350  -8.5297  -8.5276  -8.4842  -8.4452  -7.0867  -7.0347
    -7.0193  -6.9502  -6.9250  -6.9237  -6.8990  -6.8966  -6.8538  -6.8466
    -6.7931  -6.7734  -6.7626  -6.7501  -6.7400  -6.7340  -6.7167  -6.6884
    -6.6670  -6.6437  -6.6274  -6.6061  -6.6018  -6.5993  -6.5460  -6.5260
    -6.5176  -6.4617  -6.4311  -6.3651  -5.5878  -5.4747  -4.5851  -4.0486
    -3.8519  -3.2615  -3.0027  -2.4558  -2.2974  -1.9853  -1.8618  -0.4778
     1.1945   1.2082   1.9261   1.9974   2.2504   2.8131   2.9368   3.1848
     3.2058   3.3055   3.4680   3.7958   3.9667   4.3284

     the Fermi energy is    -0.0622 ev

!    total energy              =   -1214.07316393 Ry
     estimated scf accuracy    <       0.00000551 Ry
     smearing contrib. (-TS)   =      -0.01751379 Ry
     internal energy E=F+TS    =   -1214.05565014 Ry

     The total energy is F=E-TS. E is the sum of the following terms:
     one-electron contribution =   -6949.01851713 Ry
     hartree contribution      =    3555.68709536 Ry
     xc contribution           =    -342.87198517 Ry
     ewald contribution        =    2522.14775674 Ry
     electric field correction =       0.00000005 Ry

     convergence has been achieved in  12 iterations

     negative rho (up, down):  3.675E-03 0.000E+00

     Forces acting on atoms (cartesian axes, Ry/au):

     atom    1 type  1   force =    -0.00070174   -0.00047913   -0.00147352
     atom    2 type  1   force =    -0.00069158   -0.00045669   -0.00143593
     atom    3 type  2   force =     0.00007890    0.00001479   -0.00451243
     atom    4 type  2   force =     0.00004709    0.00006180   -0.00450091
     atom    5 type  1   force =    -0.00014698   -0.00007050    0.00329834
     atom    6 type  1   force =    -0.00015319   -0.00011255    0.00329215
     atom    7 type  2   force =     0.00026520    0.00016568    0.00235502
     atom    8 type  2   force =     0.00025084    0.00016042    0.00234182
     atom    9 type  1   force =     0.00067932    0.00047166   -0.00123801
     atom   10 type  1   force =     0.00065286    0.00043539   -0.00124136
     atom   11 type  2   force =    -0.00013565   -0.00008691    0.00157940
     atom   12 type  2   force =    -0.00014506   -0.00010397    0.00153543

     Total force =     0.009410     Total SCF correction =     0.007438
     SCF correction compared to forces is large: reduce conv_thr to get better values

     Writing output data file ./Cd2Hg2/Cd2Hg2_beef.save/

     init_run     :     75.30s CPU     91.07s WALL (       1 calls)
     electrons    :   2436.65s CPU   2938.33s WALL (       1 calls)
     forces       :     28.30s CPU     31.55s WALL (       1 calls)

     Called by init_run:
     wfcinit      :     62.47s CPU     77.32s WALL (       1 calls)
     potinit      :      8.27s CPU      8.91s WALL (       1 calls)
     hinit0       :      2.86s CPU      3.00s WALL (       1 calls)

     Called by electrons:
     c_bands      :   2208.54s CPU   2646.67s WALL (      13 calls)
     sum_band     :    204.64s CPU    261.43s WALL (      13 calls)
     v_of_rho     :     19.57s CPU     25.08s WALL (      13 calls)
     newd         :     10.92s CPU     12.27s WALL (      13 calls)
     mix_rho      :      0.42s CPU      0.66s WALL (      13 calls)
     vdW_kernel   :      5.68s CPU      5.84s WALL (       1 calls)

     Called by c_bands:
     init_us_2    :      6.07s CPU      6.30s WALL (    2072 calls)
     cegterg      :   2186.03s CPU   2619.03s WALL (     962 calls)

     Called by *egterg:
     cdiaghg      :    171.91s CPU    199.07s WALL (    6460 calls)
     h_psi        :   1087.63s CPU   1412.47s WALL (    6608 calls)
     s_psi        :    290.39s CPU    294.27s WALL (    6608 calls)
     g_psi        :      1.49s CPU      1.56s WALL (    5572 calls)

     Called by h_psi:
     h_psi:calbec :    298.96s CPU    330.67s WALL (    6608 calls)
     vloc_psi     :    498.62s CPU    787.38s WALL (    6608 calls)
     add_vuspsi   :    287.40s CPU    291.49s WALL (    6608 calls)

     General routines
     calbec       :    416.05s CPU    459.97s WALL (    7866 calls)
     fft          :      8.23s CPU     14.05s WALL (     879 calls)
     ffts         :      0.05s CPU      0.12s WALL (      26 calls)
     fftw         :    554.74s CPU    879.95s WALL (  564614 calls)
     interpolate  :      0.15s CPU      0.24s WALL (      13 calls)

     Parallel routines
     fft_scatt_xy :     30.85s CPU     41.60s WALL (  565519 calls)
     fft_scatt_yz :    170.09s CPU    410.01s WALL (  565519 calls)

     PWSCF        :  42m33.09s CPU  52m24.48s WALL


   This run was terminated on:  13:53:53  10Jul2022            

=------------------------------------------------------------------------------=
   JOB DONE.
=------------------------------------------------------------------------------=
