
     Program PWSCF v.6.6 starts on 23Jun2022 at 17:11:13 

     This program is part of the open-source Quantum ESPRESSO suite
     for quantum simulation of materials; please cite
         "P. Giannozzi et al., J. Phys.:Condens. Matter 21 395502 (2009);
         "P. Giannozzi et al., J. Phys.:Condens. Matter 29 465901 (2017);
          URL http://www.quantum-espresso.org", 
     in publications or presentations arising from this work. More details at
     http://www.quantum-espresso.org/quote

     Parallel version (MPI), running on    37 processors

     MPI processes distributed on     1 nodes
     R & G space division:  proc/nbgrp/npool/nimage =      37
     Fft bands division:     nmany     =       1
     Reading input from Cd2Pt2.in
Warning: card &CELL ignored
Warning: card / ignored

     Current dimensions of program PWSCF are:
     Max number of different atomic species (ntypx) = 10
     Max number of k-points (npk) =  40000
     Max angular momentum in pseudopotentials (lmaxx) =  3
     Presently stress not available with electric field and gates

     Message from routine cell_base_init:
     DEPRECATED: use true lattice parameter, not A to a.u. conversion factor
     file Cd.pbe-n-rrkjus_psl.1.0.0.UPF: wavefunction(s)  4D renormalized
     file Pt.pbe-n-rrkjus_psl.1.0.0.UPF: wavefunction(s)  6S renormalized

     **************************************************************************
     Initializing libbeef V0.1.2 with the BEEF-vdW functional.
     Citation: Wellendorff et al., PRB 85, 235149 (2012).
     **************************************************************************


     IMPORTANT: XC functional enforced from input :
     Exchange-correlation= BEEF-VDW
                           (   1   4  43  14   2   0   0)
     Any further DFT definition will be discarded
     Please, verify this is what you really want


     Subspace diagonalization in iterative solution of the eigenvalue problem:
     a serial algorithm will be used

     Found symmetry operation: I + (  0.5000 -0.5000  0.0000)
     This is a supercell, fractional translations are disabled

     Parallelization info
     --------------------
     sticks:   dense  smooth     PW     G-vecs:    dense   smooth      PW
     Min         126      50     14                29622     7492    1134
     Max         127      51     15                29651     7505    1155
     Sum        4683    1875    537              1096437   277471   42219



     bravais-lattice index     =            0
     lattice parameter (alat)  =       1.8897  a.u.
     unit-cell volume          =    5019.0096 (a.u.)^3
     number of atoms/cell      =           12
     number of atomic types    =            2
     number of electrons       =       132.00
     number of Kohn-Sham states=           79
     kinetic-energy cutoff     =      55.1240  Ry
     charge density cutoff     =     551.2396  Ry
     convergence threshold     =      1.0E-05
     mixing beta               =       0.1000
     number of iterations used =           10  plain     mixing
     Exchange-correlation= BEEF-VDW
                           (   1   4  43  14   2   0   0)

     celldm(1)=   1.889726  celldm(2)=   0.000000  celldm(3)=   0.000000
     celldm(4)=   0.000000  celldm(5)=   0.000000  celldm(6)=   0.000000

     crystal axes: (cart. coord. in units of alat)
               a(1) = (   5.796911   0.000000   0.000000 )  
               a(2) = (   2.611146   5.175528   0.000000 )  
               a(3) = (   0.000000   0.000000  24.789640 )  

     reciprocal axes: (cart. coord. in units 2 pi/alat)
               b(1) = (  0.172506 -0.087032  0.000000 )  
               b(2) = (  0.000000  0.193217  0.000000 )  
               b(3) = (  0.000000  0.000000  0.040339 )  


     PseudoPot. # 1 for Cd read from file:
     ../pseudo/Cd.pbe-n-rrkjus_psl.1.0.0.UPF
     MD5 check sum: a744746c89d2344a134ead0d8ab94e7a
     Pseudo is Ultrasoft + core correction, Zval = 12.0
     Generated using "atomic" code by A. Dal Corso v.6.3
     Using radial grid of 1239 points,  6 beta functions with: 
                l(1) =   0
                l(2) =   0
                l(3) =   1
                l(4) =   1
                l(5) =   2
                l(6) =   2
     Q(r) pseudized with 0 coefficients 


     PseudoPot. # 2 for Pt read from file:
     ../pseudo/Pt.pbe-n-rrkjus_psl.1.0.0.UPF
     MD5 check sum: 6bc887cfe28d63a5fc1f72d35a7d3ef7
     Pseudo is Ultrasoft + core correction, Zval = 10.0
     Generated using "atomic" code by A. Dal Corso v.6.3
     Using radial grid of 1277 points,  6 beta functions with: 
                l(1) =   0
                l(2) =   0
                l(3) =   1
                l(4) =   1
                l(5) =   2
                l(6) =   2
     Q(r) pseudized with 0 coefficients 


     atomic species   valence    mass     pseudopotential
        Cd            12.00   112.41400     Cd( 1.00)
        Pt            10.00   195.08400     Pt( 1.00)

     No symmetry found



   Cartesian axes

     site n.     atom                  positions (alat units)
         1           Cd  tau(   1) = (   0.0000000   0.0000000  10.0000000  )
         2           Cd  tau(   2) = (   4.2040281   2.5877640  10.0000000  )
         3           Pt  tau(   3) = (   2.8984553   0.0000000  10.0000000  )
         4           Pt  tau(   4) = (   1.3055728   2.5877640  10.0000000  )
         5           Cd  tau(   5) = (   5.7969105   3.5682531  12.3948202  )
         6           Cd  tau(   6) = (   1.5928825   0.9804891  12.3948202  )
         7           Pt  tau(   7) = (   2.8984553   3.5682531  12.3948202  )
         8           Pt  tau(   8) = (   4.4913377   0.9804891  12.3948202  )
         9           Cd  tau(   9) = (   3.1865180   1.9614552  14.9466996  )
        10           Cd  tau(  10) = (   7.3905709   4.5492278  14.9467125  )
        11           Pt  tau(  11) = (   6.0774224   1.9567800  14.6831344  )
        12           Pt  tau(  12) = (   4.4845308   4.5445468  14.6831373  )

     number of k points=    74  Fermi-Dirac smearing, width (Ry)=  0.0100
                       cart. coord. in units 2pi/alat
        k(    1) = (   0.0000000   0.0000000   0.0000000), wk =   0.0138889
        k(    2) = (   0.0000000   0.0161014   0.0000000), wk =   0.0277778
        k(    3) = (   0.0000000   0.0322028   0.0000000), wk =   0.0277778
        k(    4) = (   0.0000000   0.0483043   0.0000000), wk =   0.0277778
        k(    5) = (   0.0000000   0.0644057   0.0000000), wk =   0.0277778
        k(    6) = (   0.0000000   0.0805071   0.0000000), wk =   0.0277778
        k(    7) = (   0.0000000  -0.0966085   0.0000000), wk =   0.0138889
        k(    8) = (   0.0143755  -0.0072527   0.0000000), wk =   0.0277778
        k(    9) = (   0.0143755   0.0088487   0.0000000), wk =   0.0277778
        k(   10) = (   0.0143755   0.0249502   0.0000000), wk =   0.0277778
        k(   11) = (   0.0143755   0.0410516   0.0000000), wk =   0.0277778
        k(   12) = (   0.0143755   0.0571530   0.0000000), wk =   0.0277778
        k(   13) = (   0.0143755   0.0732544   0.0000000), wk =   0.0277778
        k(   14) = (   0.0143755  -0.1038612   0.0000000), wk =   0.0277778
        k(   15) = (   0.0143755  -0.0877598   0.0000000), wk =   0.0277778
        k(   16) = (   0.0143755  -0.0716583   0.0000000), wk =   0.0277778
        k(   17) = (   0.0143755  -0.0555569   0.0000000), wk =   0.0277778
        k(   18) = (   0.0143755  -0.0394555   0.0000000), wk =   0.0277778
        k(   19) = (   0.0143755  -0.0233541   0.0000000), wk =   0.0277778
        k(   20) = (   0.0287509  -0.0145054   0.0000000), wk =   0.0277778
        k(   21) = (   0.0287509   0.0015961   0.0000000), wk =   0.0277778
        k(   22) = (   0.0287509   0.0176975   0.0000000), wk =   0.0277778
        k(   23) = (   0.0287509   0.0337989   0.0000000), wk =   0.0277778
        k(   24) = (   0.0287509   0.0499003   0.0000000), wk =   0.0277778
        k(   25) = (   0.0287509   0.0660017   0.0000000), wk =   0.0277778
        k(   26) = (   0.0287509  -0.1111139   0.0000000), wk =   0.0277778
        k(   27) = (   0.0287509  -0.0950124   0.0000000), wk =   0.0277778
        k(   28) = (   0.0287509  -0.0789110   0.0000000), wk =   0.0277778
        k(   29) = (   0.0287509  -0.0628096   0.0000000), wk =   0.0277778
        k(   30) = (   0.0287509  -0.0467082   0.0000000), wk =   0.0277778
        k(   31) = (   0.0287509  -0.0306068   0.0000000), wk =   0.0277778
        k(   32) = (   0.0431264  -0.0217580   0.0000000), wk =   0.0277778
        k(   33) = (   0.0431264  -0.0056566   0.0000000), wk =   0.0277778
        k(   34) = (   0.0431264   0.0104448   0.0000000), wk =   0.0277778
        k(   35) = (   0.0431264   0.0265462   0.0000000), wk =   0.0277778
        k(   36) = (   0.0431264   0.0426476   0.0000000), wk =   0.0277778
        k(   37) = (   0.0431264   0.0587490   0.0000000), wk =   0.0277778
        k(   38) = (   0.0431264  -0.1183665   0.0000000), wk =   0.0277778
        k(   39) = (   0.0431264  -0.1022651   0.0000000), wk =   0.0277778
        k(   40) = (   0.0431264  -0.0861637   0.0000000), wk =   0.0277778
        k(   41) = (   0.0431264  -0.0700623   0.0000000), wk =   0.0277778
        k(   42) = (   0.0431264  -0.0539609   0.0000000), wk =   0.0277778
        k(   43) = (   0.0431264  -0.0378595   0.0000000), wk =   0.0277778
        k(   44) = (   0.0575019  -0.0290107   0.0000000), wk =   0.0277778
        k(   45) = (   0.0575019  -0.0129093   0.0000000), wk =   0.0277778
        k(   46) = (   0.0575019   0.0031921   0.0000000), wk =   0.0277778
        k(   47) = (   0.0575019   0.0192935   0.0000000), wk =   0.0277778
        k(   48) = (   0.0575019   0.0353949   0.0000000), wk =   0.0277778
        k(   49) = (   0.0575019   0.0514964   0.0000000), wk =   0.0277778
        k(   50) = (   0.0575019  -0.1256192   0.0000000), wk =   0.0277778
        k(   51) = (   0.0575019  -0.1095178   0.0000000), wk =   0.0277778
        k(   52) = (   0.0575019  -0.0934164   0.0000000), wk =   0.0277778
        k(   53) = (   0.0575019  -0.0773150   0.0000000), wk =   0.0277778
        k(   54) = (   0.0575019  -0.0612136   0.0000000), wk =   0.0277778
        k(   55) = (   0.0575019  -0.0451121   0.0000000), wk =   0.0277778
        k(   56) = (   0.0718774  -0.0362634   0.0000000), wk =   0.0277778
        k(   57) = (   0.0718774  -0.0201620   0.0000000), wk =   0.0277778
        k(   58) = (   0.0718774  -0.0040606   0.0000000), wk =   0.0277778
        k(   59) = (   0.0718774   0.0120408   0.0000000), wk =   0.0277778
        k(   60) = (   0.0718774   0.0281423   0.0000000), wk =   0.0277778
        k(   61) = (   0.0718774   0.0442437   0.0000000), wk =   0.0277778
        k(   62) = (   0.0718774  -0.1328719   0.0000000), wk =   0.0277778
        k(   63) = (   0.0718774  -0.1167705   0.0000000), wk =   0.0277778
        k(   64) = (   0.0718774  -0.1006691   0.0000000), wk =   0.0277778
        k(   65) = (   0.0718774  -0.0845677   0.0000000), wk =   0.0277778
        k(   66) = (   0.0718774  -0.0684662   0.0000000), wk =   0.0277778
        k(   67) = (   0.0718774  -0.0523648   0.0000000), wk =   0.0277778
        k(   68) = (  -0.0862528   0.0435161   0.0000000), wk =   0.0138889
        k(   69) = (  -0.0862528   0.0596175   0.0000000), wk =   0.0277778
        k(   70) = (  -0.0862528   0.0757189   0.0000000), wk =   0.0277778
        k(   71) = (  -0.0862528   0.0918203   0.0000000), wk =   0.0277778
        k(   72) = (  -0.0862528   0.1079218   0.0000000), wk =   0.0277778
        k(   73) = (  -0.0862528   0.1240232   0.0000000), wk =   0.0277778
        k(   74) = (  -0.0862528  -0.0530924   0.0000000), wk =   0.0138889

     Dense  grid:  1096437 G-vectors     FFT dimensions: (  81,  81, 360)

     Smooth grid:   277471 G-vectors     FFT dimensions: (  54,  54, 225)

     Estimated max dynamical RAM per process >     202.54 MB

     Estimated total dynamical RAM >       7.32 GB

     Initial potential from superposition of free atoms

     starting charge  131.96968, renormalised to  132.00000

     negative rho (up, down):  2.864E-03 0.000E+00


     %%%%%%%%%%%%%%%%%%%%%%%%%%%%%%%%%%%%%%%%%%%%%%%%%%%%%%%%%%%%%%%%%%%%%%%%
     %                                                                      %
     % You are using vdW-DF, which was implemented by the Thonhauser group. %
     % Please cite the following two papers that made this development      %
     % possible and the two reviews that describe the various versions:     %
     %                                                                      %
     %   T. Thonhauser et al., PRL 115, 136402 (2015).                      %
     %   T. Thonhauser et al., PRB 76, 125112 (2007).                       %
     %   K. Berland et al., Rep. Prog. Phys. 78, 066501 (2015).             %
     %   D.C. Langreth et al., J. Phys.: Condens. Matter 21, 084203 (2009). %
     %                                                                      %
     %                                                                      %
     % If you are calculating the stress with vdW-DF, please also cite:     %
     %                                                                      %
     %   R. Sabatini et al., J. Phys.: Condens. Matter 24, 424209 (2012).   %
     %                                                                      %
     %%%%%%%%%%%%%%%%%%%%%%%%%%%%%%%%%%%%%%%%%%%%%%%%%%%%%%%%%%%%%%%%%%%%%%%%



     Adding external electric field

     Computed dipole along edir(3) : 
        Dipole                0.0021 Ry au,          0.0054 Debye
        Dipole field          0.0000 Ry au, 

        Potential amp.       -0.0005 Ry
        Total length         45.6745 bohr

     Starting wfcs are  108 randomized atomic wfcs

     total cpu time spent up to now is       86.9 secs

     Self-consistent Calculation

     iteration #  1     ecut=    55.12 Ry     beta= 0.10
     Davidson diagonalization with overlap
     ethr =  1.00E-02,  avg # of iterations =  2.6

     Threshold (ethr) on eigenvalues was too large:
     Diagonalizing with lowered threshold

     Davidson diagonalization with overlap
     ethr =  3.73E-04,  avg # of iterations =  5.5

     negative rho (up, down):  2.878E-03 0.000E+00

     Adding external electric field

     Computed dipole along edir(3) : 
        Dipole                0.0337 Ry au,          0.0857 Debye
        Dipole field          0.0001 Ry au, 

        Potential amp.       -0.0077 Ry
        Total length         45.6745 bohr


     total cpu time spent up to now is      453.8 secs

     total energy              =   -1004.48203913 Ry
     estimated scf accuracy    <       0.53580875 Ry

     iteration #  2     ecut=    55.12 Ry     beta= 0.10
     Davidson diagonalization with overlap
     ethr =  4.06E-04,  avg # of iterations =  1.5

     negative rho (up, down):  2.915E-03 0.000E+00

     Adding external electric field

     Computed dipole along edir(3) : 
        Dipole               -0.0464 Ry au,         -0.1179 Debye
        Dipole field         -0.0001 Ry au, 

        Potential amp.        0.0106 Ry
        Total length         45.6745 bohr


     total cpu time spent up to now is      595.2 secs

     total energy              =   -1004.41958688 Ry
     estimated scf accuracy    <       0.27816506 Ry

     iteration #  3     ecut=    55.12 Ry     beta= 0.10
     Davidson diagonalization with overlap
     c_bands:  1 eigenvalues not converged
     ethr =  2.11E-04,  avg # of iterations =  4.3

     negative rho (up, down):  2.931E-03 0.000E+00

     Adding external electric field

     Computed dipole along edir(3) : 
        Dipole                0.1105 Ry au,          0.2809 Debye
        Dipole field          0.0003 Ry au, 

        Potential amp.       -0.0253 Ry
        Total length         45.6745 bohr


     total cpu time spent up to now is      755.0 secs

     total energy              =   -1004.43127986 Ry
     estimated scf accuracy    <       0.10982637 Ry

     iteration #  4     ecut=    55.12 Ry     beta= 0.10
     Davidson diagonalization with overlap
     c_bands:  2 eigenvalues not converged
     c_bands:  1 eigenvalues not converged
     c_bands:  1 eigenvalues not converged
     ethr =  8.32E-05,  avg # of iterations =  9.9

     negative rho (up, down):  2.959E-03 0.000E+00

     Adding external electric field

     Computed dipole along edir(3) : 
        Dipole                0.0310 Ry au,          0.0789 Debye
        Dipole field          0.0001 Ry au, 

        Potential amp.       -0.0071 Ry
        Total length         45.6745 bohr


     total cpu time spent up to now is      930.8 secs

     total energy              =   -1004.43560091 Ry
     estimated scf accuracy    <       0.08700953 Ry

     iteration #  5     ecut=    55.12 Ry     beta= 0.10
     Davidson diagonalization with overlap
     c_bands:  1 eigenvalues not converged
     c_bands:  1 eigenvalues not converged
     c_bands:  1 eigenvalues not converged
     ethr =  6.59E-05,  avg # of iterations =  4.4

     negative rho (up, down):  3.029E-03 0.000E+00

     Adding external electric field

     Computed dipole along edir(3) : 
        Dipole                0.0389 Ry au,          0.0989 Debye
        Dipole field          0.0001 Ry au, 

        Potential amp.       -0.0089 Ry
        Total length         45.6745 bohr


     total cpu time spent up to now is     1087.5 secs

     total energy              =   -1004.43865658 Ry
     estimated scf accuracy    <       0.01982022 Ry

     iteration #  6     ecut=    55.12 Ry     beta= 0.10
     Davidson diagonalization with overlap
     c_bands:  1 eigenvalues not converged
     c_bands:  1 eigenvalues not converged
     c_bands:  1 eigenvalues not converged
     c_bands:  1 eigenvalues not converged
     c_bands:  1 eigenvalues not converged
     c_bands:  2 eigenvalues not converged
     c_bands:  1 eigenvalues not converged
     c_bands:  1 eigenvalues not converged
     c_bands:  1 eigenvalues not converged
     c_bands:  2 eigenvalues not converged
     c_bands:  1 eigenvalues not converged
     c_bands:  1 eigenvalues not converged
     c_bands:  1 eigenvalues not converged
     c_bands:  2 eigenvalues not converged
     c_bands:  2 eigenvalues not converged
     c_bands:  1 eigenvalues not converged
     c_bands:  3 eigenvalues not converged
     c_bands:  2 eigenvalues not converged
     c_bands:  1 eigenvalues not converged
     c_bands:  2 eigenvalues not converged
     c_bands:  1 eigenvalues not converged
     ethr =  1.50E-05,  avg # of iterations = 12.7

     negative rho (up, down):  3.100E-03 0.000E+00

     Adding external electric field

     Computed dipole along edir(3) : 
        Dipole                0.0533 Ry au,          0.1354 Debye
        Dipole field          0.0001 Ry au, 

        Potential amp.       -0.0122 Ry
        Total length         45.6745 bohr


     total cpu time spent up to now is     1330.8 secs

     total energy              =   -1004.44150783 Ry
     estimated scf accuracy    <       0.00733019 Ry

     iteration #  7     ecut=    55.12 Ry     beta= 0.10
     Davidson diagonalization with overlap
     c_bands:  1 eigenvalues not converged
     c_bands:  1 eigenvalues not converged
     c_bands:  1 eigenvalues not converged
     c_bands:  2 eigenvalues not converged
     c_bands:  1 eigenvalues not converged
     c_bands:  1 eigenvalues not converged
     c_bands:  1 eigenvalues not converged
     c_bands:  1 eigenvalues not converged
     c_bands:  1 eigenvalues not converged
     c_bands:  1 eigenvalues not converged
     c_bands:  1 eigenvalues not converged
     ethr =  5.55E-06,  avg # of iterations = 11.1

     negative rho (up, down):  3.212E-03 0.000E+00

     Adding external electric field

     Computed dipole along edir(3) : 
        Dipole                0.0522 Ry au,          0.1327 Debye
        Dipole field          0.0001 Ry au, 

        Potential amp.       -0.0119 Ry
        Total length         45.6745 bohr


     total cpu time spent up to now is     1546.4 secs

     total energy              =   -1004.44294536 Ry
     estimated scf accuracy    <       0.00382056 Ry

     iteration #  8     ecut=    55.12 Ry     beta= 0.10
     Davidson diagonalization with overlap
     c_bands:  2 eigenvalues not converged
     c_bands:  1 eigenvalues not converged
     c_bands:  1 eigenvalues not converged
     c_bands:  1 eigenvalues not converged
     c_bands:  1 eigenvalues not converged
     c_bands:  1 eigenvalues not converged
     c_bands:  2 eigenvalues not converged
     c_bands:  1 eigenvalues not converged
     c_bands:  1 eigenvalues not converged
     c_bands:  2 eigenvalues not converged
     c_bands:  1 eigenvalues not converged
     c_bands:  1 eigenvalues not converged
     ethr =  2.89E-06,  avg # of iterations = 11.1

     negative rho (up, down):  3.201E-03 0.000E+00

     Adding external electric field

     Computed dipole along edir(3) : 
        Dipole                0.0489 Ry au,          0.1243 Debye
        Dipole field          0.0001 Ry au, 

        Potential amp.       -0.0112 Ry
        Total length         45.6745 bohr


     total cpu time spent up to now is     1747.4 secs

     total energy              =   -1004.44332836 Ry
     estimated scf accuracy    <       0.00092487 Ry

     iteration #  9     ecut=    55.12 Ry     beta= 0.10
     Davidson diagonalization with overlap
     c_bands:  1 eigenvalues not converged
     c_bands:  1 eigenvalues not converged
     c_bands:  1 eigenvalues not converged
     ethr =  7.01E-07,  avg # of iterations =  6.4

     negative rho (up, down):  3.198E-03 0.000E+00

     Adding external electric field

     Computed dipole along edir(3) : 
        Dipole                0.0478 Ry au,          0.1214 Debye
        Dipole field          0.0001 Ry au, 

        Potential amp.       -0.0109 Ry
        Total length         45.6745 bohr


     total cpu time spent up to now is     1989.0 secs

     total energy              =   -1004.44367013 Ry
     estimated scf accuracy    <       0.00044063 Ry

     iteration # 10     ecut=    55.12 Ry     beta= 0.10
     Davidson diagonalization with overlap
     ethr =  3.34E-07,  avg # of iterations =  4.6

     negative rho (up, down):  3.190E-03 0.000E+00

     Adding external electric field

     Computed dipole along edir(3) : 
        Dipole                0.0504 Ry au,          0.1282 Debye
        Dipole field          0.0001 Ry au, 

        Potential amp.       -0.0115 Ry
        Total length         45.6745 bohr


     total cpu time spent up to now is     2197.3 secs

     total energy              =   -1004.44368263 Ry
     estimated scf accuracy    <       0.00023825 Ry

     iteration # 11     ecut=    55.12 Ry     beta= 0.10
     Davidson diagonalization with overlap
     ethr =  1.80E-07,  avg # of iterations =  3.6

     negative rho (up, down):  3.184E-03 0.000E+00

     Adding external electric field

     Computed dipole along edir(3) : 
        Dipole                0.0495 Ry au,          0.1259 Debye
        Dipole field          0.0001 Ry au, 

        Potential amp.       -0.0113 Ry
        Total length         45.6745 bohr


     total cpu time spent up to now is     2437.8 secs

     total energy              =   -1004.44377246 Ry
     estimated scf accuracy    <       0.00022152 Ry

     iteration # 12     ecut=    55.12 Ry     beta= 0.10
     Davidson diagonalization with overlap
     ethr =  1.68E-07,  avg # of iterations =  1.4

     negative rho (up, down):  3.181E-03 0.000E+00

     Adding external electric field

     Computed dipole along edir(3) : 
        Dipole                0.0496 Ry au,          0.1261 Debye
        Dipole field          0.0001 Ry au, 

        Potential amp.       -0.0113 Ry
        Total length         45.6745 bohr


     total cpu time spent up to now is     2578.5 secs

     total energy              =   -1004.44378853 Ry
     estimated scf accuracy    <       0.00003681 Ry

     iteration # 13     ecut=    55.12 Ry     beta= 0.10
     Davidson diagonalization with overlap
     ethr =  2.79E-08,  avg # of iterations =  4.5

     negative rho (up, down):  3.117E-03 0.000E+00

     Adding external electric field

     Computed dipole along edir(3) : 
        Dipole                0.0482 Ry au,          0.1226 Debye
        Dipole field          0.0001 Ry au, 

        Potential amp.       -0.0110 Ry
        Total length         45.6745 bohr


     total cpu time spent up to now is     2810.4 secs

     End of self-consistent calculation

          k = 0.0000 0.0000 0.0000 ( 34597 PWs)   bands (ev):

    -8.7395  -8.7148  -8.6112  -8.5742  -8.5528  -8.5202  -8.4543  -8.4249
    -8.3947  -8.3242  -8.2938  -8.2487  -8.1692  -8.1416  -8.0396  -8.0168
    -7.9969  -7.9852  -7.9758  -7.9362  -7.9077  -7.8879  -7.8191  -7.8022
    -7.7566  -7.7462  -7.6883  -7.6516  -7.6036  -7.5010  -7.4009  -5.6883
    -4.1553  -3.8173  -3.3764  -3.1042  -3.0147  -2.8132  -2.7397  -2.5312
    -2.4755  -2.2988  -2.1780  -1.9506  -1.8598  -1.7506  -1.6437  -1.3854
    -1.3357  -1.3322  -1.2794  -1.0277  -0.9325  -0.8998  -0.8469  -0.8126
    -0.6697  -0.6678  -0.5585  -0.5069  -0.4939  -0.2665   0.1619   0.3998
     0.4202   0.7763   0.8118   1.5097   1.5304   1.5447   1.6519   1.8959
     2.5672   3.4576   3.6579   3.9391   4.1313   4.2834   4.3457

          k = 0.0000 0.0161 0.0000 ( 34612 PWs)   bands (ev):

    -8.7230  -8.7013  -8.5980  -8.5569  -8.5359  -8.5086  -8.4421  -8.4178
    -8.3841  -8.3208  -8.2959  -8.2415  -8.1629  -8.1338  -8.0379  -8.0207
    -7.9986  -7.9906  -7.9673  -7.9336  -7.9052  -7.8972  -7.8258  -7.8098
    -7.7655  -7.7549  -7.6958  -7.6655  -7.6154  -7.4530  -7.4173  -5.6504
    -4.1363  -3.8648  -3.3836  -3.1865  -2.9928  -2.7931  -2.7187  -2.5587
    -2.4735  -2.2838  -2.1729  -1.9506  -1.8716  -1.7528  -1.6667  -1.3900
    -1.3519  -1.2987  -1.2788  -1.0943  -0.9786  -0.9698  -0.8819  -0.8193
    -0.7116  -0.7043  -0.6421  -0.5974  -0.4139  -0.3033   0.0841   0.3115
     0.5158   0.5331   0.7886   0.9708   1.2578   1.8614   1.9400   2.2135
     2.7409   3.5826   3.8543   4.0456   4.1186   4.2570   4.3254

          k = 0.0000 0.0322 0.0000 ( 34646 PWs)   bands (ev):

    -8.6761  -8.6625  -8.5596  -8.5092  -8.4933  -8.4676  -8.4076  -8.3957
    -8.3534  -8.3122  -8.3001  -8.2207  -8.1467  -8.1111  -8.0366  -8.0335
    -8.0035  -7.9995  -7.9550  -7.9271  -7.9210  -7.8984  -7.8459  -7.8340
    -7.8038  -7.7570  -7.7176  -7.7064  -7.6507  -7.4655  -7.3127  -5.5357
    -4.0799  -4.0161  -3.4378  -3.3677  -2.9306  -2.7520  -2.6500  -2.6209
    -2.4538  -2.2533  -2.1715  -1.9594  -1.9174  -1.7597  -1.7014  -1.4516
    -1.3642  -1.2779  -1.2701  -1.2315  -1.1315  -1.0707  -1.0377  -0.8869
    -0.8286  -0.7724  -0.7714  -0.7123  -0.3957  -0.2867  -0.2844  -0.0469
     0.2107   0.5184   0.6665   0.9925   1.1481   1.7958   2.2899   2.4293
     3.1611   3.8526   4.0872   4.1991   4.2457   4.3855   4.8035

          k = 0.0000 0.0483 0.0000 ( 34674 PWs)   bands (ev):

    -8.6067  -8.6023  -8.4994  -8.4590  -8.4244  -8.3894  -8.3600  -8.3517
    -8.3155  -8.3043  -8.2878  -8.1882  -8.1297  -8.0755  -8.0723  -8.0279
    -8.0118  -8.0032  -7.9800  -7.9276  -7.9198  -7.8901  -7.8798  -7.8756
    -7.8480  -7.7709  -7.7624  -7.7490  -7.7089  -7.5421  -7.0788  -5.3426
    -4.3159  -3.9896  -3.6687  -3.4128  -2.8492  -2.7268  -2.6976  -2.5219
    -2.3887  -2.2779  -2.1556  -1.9947  -1.9850  -1.7732  -1.7355  -1.5643
    -1.4434  -1.4387  -1.3424  -1.2777  -1.2596  -1.1752  -1.1521  -1.0128
    -0.9879  -0.8927  -0.8650  -0.7754  -0.7344  -0.5078  -0.4021  -0.2158
    -0.1263   0.3626   0.6658   1.2188   1.4287   1.7323   1.8900   2.9155
     3.5611   3.9448   4.3265   4.4095   4.5594   4.9121   5.0312

          k = 0.0000 0.0644 0.0000 ( 34696 PWs)   bands (ev):

    -8.5290  -8.5278  -8.4235  -8.4177  -8.3457  -8.3401  -8.2999  -8.2971
    -8.2615  -8.2586  -8.2364  -8.1468  -8.1464  -8.1003  -8.0475  -8.0380
    -8.0246  -8.0169  -7.9896  -7.9515  -7.9240  -7.9189  -7.9103  -7.8891
    -7.8888  -7.8479  -7.7991  -7.7854  -7.7600  -7.6377  -6.7508  -5.0730
    -4.7776  -3.8761  -3.8610  -3.4772  -2.8345  -2.7709  -2.6576  -2.4031
    -2.3601  -2.2996  -2.1249  -2.0315  -2.0147  -1.8134  -1.7704  -1.6859
    -1.5972  -1.5476  -1.5354  -1.4451  -1.2647  -1.2582  -1.2177  -1.1658
    -1.0805  -1.0485  -0.9429  -0.8422  -0.8382  -0.8278  -0.6288  -0.5391
     0.0611   0.3372   0.6549   1.2843   1.4988   1.6579   1.9589   3.3056
     3.6417   4.1086   4.3635   4.6724   4.9980   5.1896   5.3241

          k = 0.0000 0.0805 0.0000 ( 34651 PWs)   bands (ev):

    -8.4601  -8.4502  -8.3884  -8.3717  -8.3385  -8.2790  -8.2632  -8.2123
    -8.1914  -8.1792  -8.1677  -8.1429  -8.1372  -8.1092  -8.0863  -8.0575
    -8.0197  -8.0150  -7.9836  -7.9807  -7.9656  -7.9580  -7.9486  -7.9210
    -7.8984  -7.8906  -7.8604  -7.8485  -7.7637  -7.7243  -6.3359  -5.3146
    -4.7400  -4.0705  -3.7634  -3.5830  -2.8620  -2.8089  -2.5846  -2.5568
    -2.3132  -2.1378  -2.1199  -2.0438  -1.9227  -1.8663  -1.7792  -1.7595
    -1.6992  -1.6532  -1.6189  -1.5829  -1.4178  -1.3357  -1.3138  -1.2131
    -1.1961  -1.1576  -1.0238  -0.9345  -0.8976  -0.8825  -0.7496  -0.7379
     0.2459   0.3551   0.6733   1.0581   1.4588   1.5965   2.5228   3.4387
     3.5998   3.7939   4.6552   5.0005   5.6358   5.6700   5.7608

          k = 0.0000-0.0966 0.0000 ( 34694 PWs)   bands (ev):

    -8.4100  -8.4100  -8.3913  -8.3912  -8.2810  -8.2810  -8.2261  -8.2261
    -8.1589  -8.1588  -8.1240  -8.1240  -8.0995  -8.0995  -8.0663  -8.0663
    -8.0323  -8.0323  -8.0058  -8.0058  -7.9918  -7.9918  -7.9375  -7.9375
    -7.9124  -7.9124  -7.8830  -7.8830  -7.7602  -7.7602  -5.8488  -5.8487
    -4.3807  -4.3807  -3.6737  -3.6737  -2.8428  -2.8428  -2.6048  -2.6047
    -2.2129  -2.2129  -2.0454  -2.0454  -1.8654  -1.8654  -1.7913  -1.7912
    -1.6811  -1.6811  -1.5876  -1.5876  -1.5167  -1.5167  -1.3443  -1.3443
    -1.2042  -1.2042  -0.9858  -0.9858  -0.8810  -0.8809  -0.8050  -0.8049
     0.3493   0.3494   0.8002   0.8002   1.5289   1.5289   3.1105   3.1105
     3.5650   3.5650   5.3356   5.3356   5.3850   5.3853   6.1086

          k = 0.0144-0.0073 0.0000 ( 34612 PWs)   bands (ev):

    -8.7230  -8.7013  -8.5980  -8.5569  -8.5359  -8.5086  -8.4421  -8.4178
    -8.3841  -8.3208  -8.2959  -8.2415  -8.1629  -8.1338  -8.0379  -8.0207
    -7.9986  -7.9906  -7.9673  -7.9336  -7.9052  -7.8972  -7.8258  -7.8098
    -7.7655  -7.7549  -7.6958  -7.6655  -7.6154  -7.4530  -7.4173  -5.6504
    -4.1363  -3.8648  -3.3836  -3.1865  -2.9928  -2.7931  -2.7187  -2.5587
    -2.4735  -2.2838  -2.1729  -1.9506  -1.8716  -1.7528  -1.6667  -1.3900
    -1.3519  -1.2987  -1.2788  -1.0943  -0.9786  -0.9698  -0.8819  -0.8193
    -0.7116  -0.7043  -0.6421  -0.5974  -0.4139  -0.3033   0.0841   0.3115
     0.5157   0.5331   0.7886   0.9708   1.2578   1.8614   1.9400   2.2135
     2.7409   3.5826   3.8543   4.0456   4.1186   4.2568   4.3254

          k = 0.0144 0.0088 0.0000 ( 34628 PWs)   bands (ev):

    -8.7358  -8.7034  -8.5997  -8.5718  -8.5485  -8.5092  -8.4427  -8.4159
    -8.3891  -8.3179  -8.2934  -8.2500  -8.1584  -8.1390  -8.0354  -8.0229
    -7.9995  -7.9809  -7.9603  -7.9251  -7.8955  -7.8852  -7.8141  -7.7989
    -7.7647  -7.7464  -7.6879  -7.6641  -7.5959  -7.4563  -7.4008  -5.6464
    -4.1312  -3.7991  -3.3809  -3.0959  -3.0617  -2.8355  -2.7585  -2.6518
    -2.5016  -2.3175  -2.2321  -2.0201  -1.8873  -1.7857  -1.7323  -1.4074
    -1.3461  -1.2729  -1.2433  -1.0426  -1.0164  -1.0085  -0.8421  -0.8315
    -0.6948  -0.6610  -0.5719  -0.5237  -0.5154  -0.2684   0.1031   0.2443
     0.4931   0.6649   0.7092   1.3014   1.4854   1.5045   1.8372   2.0126
     2.9277   3.5332   3.7761   4.0834   4.1331   4.2101   4.2997

          k = 0.0144 0.0250 0.0000 ( 34657 PWs)   bands (ev):

    -8.7160  -8.6798  -8.5761  -8.5526  -8.5274  -8.4883  -8.4201  -8.4003
    -8.3734  -8.3089  -8.2951  -8.2438  -8.1433  -8.1288  -8.0304  -8.0261
    -8.0006  -7.9849  -7.9477  -7.9155  -7.8918  -7.8811  -7.8167  -7.8044
    -7.7743  -7.7610  -7.6950  -7.6868  -7.6037  -7.4173  -7.3587  -5.5654
    -4.0905  -3.8413  -3.3960  -3.2021  -3.0968  -2.8373  -2.7537  -2.7269
    -2.5181  -2.3279  -2.2725  -2.0795  -1.9407  -1.8231  -1.7695  -1.4381
    -1.4028  -1.2944  -1.2190  -1.1432  -1.0905  -1.0501  -0.9413  -0.9142
    -0.7001  -0.6824  -0.6597  -0.6410  -0.4055  -0.3016  -0.0031   0.0649
     0.1071   0.6531   0.8921   1.1489   1.1978   1.6746   1.8717   2.4052
     3.0876   3.5857   3.9234   4.1555   4.2722   4.3919   4.5655

          k = 0.0144 0.0411 0.0000 ( 34672 PWs)   bands (ev):

    -8.6668  -8.6342  -8.5298  -8.5012  -8.4744  -8.4519  -8.3786  -8.3699
    -8.3391  -8.3028  -8.2933  -8.2237  -8.1235  -8.1044  -8.0337  -8.0246
    -8.0026  -8.0012  -7.9469  -7.9103  -7.9058  -7.8659  -7.8368  -7.8288
    -7.8008  -7.7781  -7.7323  -7.7167  -7.6388  -7.4662  -7.1596  -5.4038
    -4.0594  -4.0210  -3.4966  -3.3631  -3.1085  -2.8125  -2.7307  -2.7003
    -2.5005  -2.3669  -2.2871  -2.1299  -2.0038  -1.8623  -1.7969  -1.5935
    -1.4627  -1.3804  -1.2956  -1.2561  -1.1572  -1.1257  -1.0903  -0.9592
    -0.8554  -0.7777  -0.7321  -0.7138  -0.4994  -0.4037  -0.2268  -0.0004
     0.0379   0.1055   1.0251   1.1378   1.3031   1.8167   2.0992   2.3498
     3.0606   3.7613   4.3497   4.3779   4.6438   4.7382   4.9801

          k = 0.0144 0.0572 0.0000 ( 34694 PWs)   bands (ev):

    -8.5967  -8.5716  -8.4657  -8.4266  -8.4165  -8.3845  -8.3359  -8.3204
    -8.3077  -8.2884  -8.2734  -8.1911  -8.1092  -8.0684  -8.0676  -8.0204
    -8.0124  -8.0075  -7.9806  -7.9166  -7.8980  -7.8799  -7.8665  -7.8574
    -7.8423  -7.7951  -7.7882  -7.7506  -7.6991  -7.5439  -6.8647  -5.1616
    -4.4965  -3.9420  -3.6804  -3.4104  -3.1053  -2.7648  -2.7360  -2.6096
    -2.4893  -2.4249  -2.2606  -2.1547  -2.0525  -1.9184  -1.8382  -1.7730
    -1.5506  -1.4995  -1.3968  -1.3750  -1.2791  -1.2033  -1.1300  -0.9695
    -0.9657  -0.9236  -0.8925  -0.8098  -0.7406  -0.5128  -0.4097  -0.2080
    -0.0727   0.0887   0.9515   1.0126   1.6783   1.7874   2.0816   2.8763
     2.9691   4.0550   4.3492   4.6077   4.8770   5.1791   5.3851

          k = 0.0144 0.0733 0.0000 ( 34684 PWs)   bands (ev):

    -8.5199  -8.4989  -8.3914  -8.3839  -8.3439  -8.3317  -8.2868  -8.2852
    -8.2403  -8.2354  -8.2222  -8.1482  -8.1405  -8.0998  -8.0545  -8.0344
    -8.0196  -8.0104  -7.9942  -7.9460  -7.9199  -7.9068  -7.9067  -7.8877
    -7.8766  -7.8492  -7.8068  -7.7864  -7.7752  -7.6379  -6.4821  -5.0420
    -4.8495  -3.9002  -3.8863  -3.4628  -3.0635  -2.7498  -2.7018  -2.6327
    -2.5148  -2.2845  -2.2203  -2.1387  -2.0602  -2.0003  -1.8449  -1.8270
    -1.6530  -1.5604  -1.5287  -1.5285  -1.2963  -1.2859  -1.2324  -1.1213
    -1.0427  -0.9795  -0.9547  -0.8890  -0.8195  -0.8081  -0.6319  -0.5007
    -0.0369   0.2786   0.8550   0.9089   1.4131   2.2325   2.3326   2.8883
     3.5117   3.9531   4.4133   4.8797   4.8846   5.5244   5.7019

          k = 0.0144-0.1039 0.0000 ( 34686 PWs)   bands (ev):

    -8.4530  -8.4279  -8.3733  -8.3659  -8.3216  -8.2636  -8.2507  -8.2048
    -8.1799  -8.1690  -8.1598  -8.1574  -8.1275  -8.1102  -8.0862  -8.0619
    -8.0251  -8.0147  -7.9840  -7.9805  -7.9594  -7.9550  -7.9458  -7.9188
    -7.9023  -7.8817  -7.8533  -7.8533  -7.7984  -7.7093  -6.0260  -5.5975
    -4.5069  -4.2151  -3.8506  -3.5361  -2.9765  -2.7975  -2.6571  -2.6409
    -2.3993  -2.1625  -2.1185  -2.1028  -2.0040  -1.9816  -1.8334  -1.7673
    -1.7004  -1.6510  -1.6261  -1.5795  -1.4203  -1.3532  -1.3311  -1.1643
    -1.1534  -1.1373  -0.9953  -0.9918  -0.9250  -0.8536  -0.7435  -0.7172
    -0.0591   0.5148   0.6360   0.8956   1.3216   2.3219   2.8152   2.9331
     3.4073   4.2352   4.3990   5.2021   5.4198   5.6316   5.8233

          k = 0.0144-0.0878 0.0000 ( 34671 PWs)   bands (ev):

    -8.4143  -8.4050  -8.3891  -8.3856  -8.2836  -8.2831  -8.2501  -8.2014
    -8.1718  -8.1488  -8.1248  -8.1101  -8.1069  -8.0910  -8.0684  -8.0622
    -8.0378  -8.0260  -8.0119  -8.0046  -7.9945  -7.9879  -7.9430  -7.9378
    -7.9141  -7.9092  -7.8921  -7.8788  -7.7897  -7.7314  -6.1121  -5.5193
    -4.5790  -4.2358  -3.7420  -3.6523  -2.9342  -2.7755  -2.5769  -2.5373
    -2.2322  -2.1851  -2.0685  -1.9777  -1.9324  -1.8337  -1.7931  -1.7285
    -1.6869  -1.6647  -1.5956  -1.5698  -1.5290  -1.4847  -1.3735  -1.3237
    -1.2429  -1.1752  -1.0579  -0.9510  -0.9148  -0.8847  -0.8194  -0.7705
    -0.0977   0.3978   0.6502   1.0177   1.3249   2.3784   2.7816   2.8313
     3.5378   4.3963   5.0069   5.1525   5.3956   5.5235   5.7202

          k = 0.0144-0.0717 0.0000 ( 34649 PWs)   bands (ev):

    -8.4662  -8.4641  -8.4014  -8.3722  -8.3553  -8.2900  -8.2728  -8.2263
    -8.2065  -8.1801  -8.1776  -8.1406  -8.1238  -8.1042  -8.0781  -8.0501
    -8.0210  -8.0143  -7.9834  -7.9831  -7.9763  -7.9596  -7.9516  -7.9227
    -7.9009  -7.8987  -7.8713  -7.8462  -7.7361  -7.7335  -6.5580  -5.0022
    -4.9250  -4.0851  -3.7954  -3.5540  -2.8956  -2.6889  -2.5437  -2.3359
    -2.2688  -2.0989  -2.0713  -1.9187  -1.8851  -1.7942  -1.7427  -1.6908
    -1.6784  -1.6271  -1.6036  -1.5197  -1.4119  -1.3415  -1.3111  -1.2754
    -1.2290  -1.1703  -1.0771  -0.9347  -0.9326  -0.8513  -0.7872  -0.7334
    -0.1341   0.1757   0.6283   1.3373   1.3625   2.1824   2.5195   2.7487
     4.1478   4.3002   4.6588   4.9142   5.0851   5.4724   5.5691

          k = 0.0144-0.0556 0.0000 ( 34675 PWs)   bands (ev):

    -8.5469  -8.5356  -8.4457  -8.4388  -8.3500  -8.3430  -8.3136  -8.3097
    -8.2717  -8.2695  -8.2481  -8.1521  -8.1438  -8.1020  -8.0382  -8.0339
    -8.0291  -8.0181  -7.9870  -7.9509  -7.9395  -7.9312  -7.9125  -7.9054
    -7.8982  -7.8321  -7.7970  -7.7964  -7.7389  -7.6372  -6.9187  -5.2154
    -4.5444  -3.9295  -3.9197  -3.4468  -2.7856  -2.6517  -2.5942  -2.3653
    -2.2098  -2.1821  -2.0319  -2.0240  -1.8463  -1.7254  -1.6871  -1.6354
    -1.5565  -1.4842  -1.4129  -1.3792  -1.2924  -1.2753  -1.2060  -1.1662
    -1.1143  -1.0277  -0.9445  -0.9196  -0.8352  -0.7829  -0.6379  -0.5803
    -0.1410  -0.0164   0.5667   1.3952   1.6882   1.7550   2.5166   2.7089
     3.6647   4.4869   4.6039   4.6537   4.6793   5.0584   5.2194

          k = 0.0144-0.0395 0.0000 ( 34641 PWs)   bands (ev):

    -8.6196  -8.6125  -8.5180  -8.4790  -8.4237  -8.3941  -8.3761  -8.3694
    -8.3178  -8.3130  -8.2960  -8.1858  -8.1411  -8.0796  -8.0762  -8.0338
    -8.0067  -7.9939  -7.9746  -7.9413  -7.9403  -7.9081  -7.8858  -7.8757
    -7.8544  -7.7531  -7.7486  -7.7428  -7.7227  -7.5412  -7.1864  -5.4350
    -4.2202  -4.0348  -3.6647  -3.4116  -2.7645  -2.6609  -2.6173  -2.5290
    -2.3502  -2.1595  -2.0471  -1.9646  -1.8345  -1.7121  -1.6255  -1.5404
    -1.4118  -1.3609  -1.3122  -1.2765  -1.2669  -1.1518  -1.0848  -0.9872
    -0.9471  -0.8888  -0.8428  -0.7433  -0.6700  -0.5130  -0.4012  -0.1855
    -0.1728  -0.0364   0.5297   1.1854   1.4189   2.2102   2.3875   2.6320
     3.1329   4.0487   4.2631   4.5034   4.5506   4.7118   4.8772

          k = 0.0144-0.0234 0.0000 ( 34641 PWs)   bands (ev):

    -8.6794  -8.6728  -8.5702  -8.5164  -8.4983  -8.4702  -8.4180  -8.4051
    -8.3582  -8.3177  -8.3008  -8.2194  -8.1553  -8.1135  -8.0380  -8.0372
    -7.9999  -7.9961  -7.9599  -7.9395  -7.9268  -7.9091  -7.8501  -7.8351
    -7.8058  -7.7489  -7.7181  -7.6924  -7.6599  -7.4653  -7.3621  -5.5799
    -4.1042  -4.0080  -3.3956  -3.3903  -2.8904  -2.7049  -2.6438  -2.5719
    -2.4346  -2.2190  -2.0981  -1.8938  -1.8803  -1.7263  -1.6193  -1.4269
    -1.3667  -1.3210  -1.2859  -1.2397  -1.0723  -0.9964  -0.9574  -0.9217
    -0.8182  -0.7637  -0.7285  -0.7022  -0.3968  -0.2979  -0.1028  -0.0406
     0.1013   0.4463   0.6957   0.8108   1.1903   2.1462   2.3766   2.5191
     2.8226   3.6592   4.0172   4.0832   4.3320   4.3684   4.6050

          k = 0.0288-0.0145 0.0000 ( 34646 PWs)   bands (ev):

    -8.6761  -8.6625  -8.5596  -8.5092  -8.4933  -8.4676  -8.4076  -8.3957
    -8.3534  -8.3122  -8.3001  -8.2207  -8.1467  -8.1111  -8.0366  -8.0335
    -8.0035  -7.9995  -7.9550  -7.9271  -7.9210  -7.8984  -7.8459  -7.8340
    -7.8038  -7.7570  -7.7176  -7.7064  -7.6507  -7.4655  -7.3127  -5.5357
    -4.0799  -4.0161  -3.4378  -3.3677  -2.9306  -2.7520  -2.6500  -2.6209
    -2.4538  -2.2533  -2.1715  -1.9594  -1.9174  -1.7597  -1.7014  -1.4516
    -1.3642  -1.2779  -1.2701  -1.2315  -1.1315  -1.0707  -1.0377  -0.8869
    -0.8286  -0.7724  -0.7714  -0.7123  -0.3957  -0.2867  -0.2844  -0.0469
     0.2107   0.5184   0.6665   0.9925   1.1481   1.7958   2.2899   2.4293
     3.1611   3.8526   4.0872   4.1992   4.2457   4.3855   4.8035

          k = 0.0288 0.0016 0.0000 ( 34657 PWs)   bands (ev):

    -8.7160  -8.6798  -8.5761  -8.5526  -8.5274  -8.4883  -8.4201  -8.4003
    -8.3734  -8.3089  -8.2951  -8.2438  -8.1433  -8.1288  -8.0304  -8.0261
    -8.0006  -7.9849  -7.9477  -7.9155  -7.8918  -7.8811  -7.8167  -7.8044
    -7.7743  -7.7610  -7.6950  -7.6868  -7.6037  -7.4173  -7.3587  -5.5654
    -4.0905  -3.8413  -3.3960  -3.2021  -3.0968  -2.8373  -2.7537  -2.7269
    -2.5181  -2.3279  -2.2725  -2.0795  -1.9407  -1.8231  -1.7695  -1.4381
    -1.4028  -1.2944  -1.2190  -1.1432  -1.0905  -1.0501  -0.9413  -0.9142
    -0.7001  -0.6824  -0.6597  -0.6410  -0.4055  -0.3016  -0.0031   0.0649
     0.1071   0.6531   0.8921   1.1489   1.1978   1.6746   1.8717   2.4052
     3.0876   3.5857   3.9233   4.1556   4.2722   4.3919   4.5654

          k = 0.0288 0.0177 0.0000 ( 34698 PWs)   bands (ev):

    -8.7257  -8.6724  -8.5677  -8.5666  -8.5403  -8.4731  -8.4107  -8.3909
    -8.3729  -8.3004  -8.2921  -8.2531  -8.1318  -8.1300  -8.0286  -8.0250
    -7.9965  -7.9695  -7.9378  -7.9043  -7.8773  -7.8598  -7.8005  -7.7901
    -7.7879  -7.7468  -7.6898  -7.6865  -7.5845  -7.4004  -7.3116  -5.5204
    -4.0708  -3.7432  -3.3932  -3.2374  -3.0721  -2.9633  -2.8792  -2.8160
    -2.5651  -2.3677  -2.3464  -2.1728  -2.0127  -1.8956  -1.7992  -1.5214
    -1.4659  -1.3075  -1.3038  -1.1133  -1.0850  -1.0362  -0.9235  -0.9062
    -0.6652  -0.6493  -0.6119  -0.5435  -0.5204  -0.3501  -0.2737  -0.0061
     0.1575   0.7047   1.0353   1.0914   1.1092   1.5369   2.2582   2.5772
     2.8327   3.6714   3.8922   4.1953   4.2800   4.3997   4.6478

          k = 0.0288 0.0338 0.0000 ( 34723 PWs)   bands (ev):

    -8.7038  -8.6430  -8.5465  -8.5367  -8.5188  -8.4427  -8.3819  -8.3686
    -8.3527  -8.2945  -8.2876  -8.2470  -8.1201  -8.1113  -8.0290  -8.0190
    -7.9922  -7.9736  -7.9315  -7.8930  -7.8831  -7.8387  -7.8033  -7.8014
    -7.7943  -7.7600  -7.7148  -7.6933  -7.5942  -7.4170  -7.1566  -5.3955
    -4.0358  -3.8113  -3.4235  -3.3389  -3.2863  -2.9023  -2.8813  -2.8373
    -2.5830  -2.4399  -2.3774  -2.2394  -2.0798  -1.9693  -1.8247  -1.7160
    -1.4953  -1.4577  -1.3121  -1.1781  -1.1393  -1.0354  -1.0289  -0.9169
    -0.7822  -0.6878  -0.6619  -0.6197  -0.4831  -0.3576  -0.3566  -0.2819
     0.1536   0.4672   0.5976   1.3179   1.4893   1.8679   2.3105   2.4786
     2.5930   3.8329   4.1807   4.3309   4.4094   4.9414   5.0383

          k = 0.0288 0.0499 0.0000 ( 34708 PWs)   bands (ev):

    -8.6539  -8.5956  -8.4947  -8.4868  -8.4646  -8.4045  -8.3405  -8.3334
    -8.3167  -8.2988  -8.2753  -8.2257  -8.0953  -8.0940  -8.0309  -8.0144
    -7.9992  -7.9899  -7.9374  -7.9047  -7.8831  -7.8278  -7.8244  -7.8227
    -7.8132  -7.7892  -7.7585  -7.7154  -7.6324  -7.4670  -6.8983  -5.1878
    -4.1788  -4.0249  -3.5418  -3.3680  -3.3645  -2.8636  -2.8157  -2.8031
    -2.5662  -2.5480  -2.3718  -2.2843  -2.1177  -2.0427  -1.9029  -1.8736
    -1.6056  -1.5049  -1.3454  -1.3143  -1.2535  -1.1860  -1.0461  -0.9097
    -0.9035  -0.7793  -0.7494  -0.7157  -0.6808  -0.4577  -0.3938  -0.1411
     0.0411   0.0643   0.4046   1.7283   1.7846   1.9107   2.2814   2.4248
     2.6026   3.7564   4.5834   4.5944   4.9831   5.1664   5.3061

          k = 0.0288 0.0660 0.0000 ( 34686 PWs)   bands (ev):

    -8.5849  -8.5349  -8.4233  -8.4164  -8.3850  -8.3655  -8.3252  -8.2858
    -8.2823  -8.2639  -8.2591  -8.1905  -8.0870  -8.0675  -8.0596  -8.0152
    -8.0132  -7.9931  -7.9787  -7.9123  -7.8788  -7.8756  -7.8605  -7.8441
    -7.8439  -7.8168  -7.7959  -7.7511  -7.6950  -7.5460  -6.5495  -4.9056
    -4.7145  -4.0699  -3.7254  -3.3804  -3.2731  -2.8652  -2.7730  -2.7353
    -2.6916  -2.4446  -2.3534  -2.2731  -2.1292  -2.1203  -1.9727  -1.9207
    -1.6891  -1.5050  -1.4952  -1.4209  -1.3079  -1.2808  -1.0977  -0.9987
    -0.9823  -0.8930  -0.8861  -0.8188  -0.7620  -0.5393  -0.4091  -0.3996
    -0.1688   0.0209   0.4567   1.2975   2.0452   2.1788   2.3583   2.6739
     3.0417   3.8228   4.5740   4.8068   5.0273   5.2959   5.4723

          k = 0.0288-0.1111 0.0000 ( 34667 PWs)   bands (ev):

    -8.5108  -8.4661  -8.3569  -8.3440  -8.3411  -8.3197  -8.2844  -8.2734
    -8.2178  -8.2104  -8.1978  -8.1446  -8.1434  -8.1018  -8.0477  -8.0252
    -8.0169  -8.0033  -7.9988  -7.9381  -7.9205  -7.9152  -7.9052  -7.8917
    -7.8697  -7.8338  -7.8338  -7.7974  -7.7657  -7.6370  -6.1254  -5.2786
    -4.5986  -4.1010  -4.0158  -3.4151  -3.1273  -2.8693  -2.8463  -2.6487
    -2.6089  -2.2956  -2.2765  -2.2088  -2.1460  -2.1134  -1.9583  -1.8897
    -1.7224  -1.6054  -1.5269  -1.4851  -1.3597  -1.3198  -1.2598  -1.0651
    -1.0517  -0.9805  -0.9241  -0.9227  -0.8276  -0.7917  -0.6487  -0.4562
    -0.4113   0.1099   0.6294   0.8878   2.0598   2.2166   2.8007   3.1837
     3.3186   3.7504   4.6120   5.0341   5.1651   5.3398   5.8780

          k = 0.0288-0.0950 0.0000 ( 34656 PWs)   bands (ev):

    -8.4468  -8.4007  -8.3741  -8.3345  -8.3175  -8.2454  -8.2447  -8.2062
    -8.1832  -8.1719  -8.1557  -8.1373  -8.1109  -8.1038  -8.0744  -8.0646
    -8.0323  -8.0225  -7.9836  -7.9810  -7.9607  -7.9499  -7.9439  -7.9167
    -7.9074  -7.8760  -7.8593  -7.8532  -7.8318  -7.6931  -5.8122  -5.6484
    -4.4331  -4.3696  -3.9275  -3.5304  -3.1028  -2.8363  -2.6539  -2.5885
    -2.4434  -2.1967  -2.1435  -2.0780  -2.0666  -2.0261  -1.9089  -1.7988
    -1.7055  -1.6358  -1.5764  -1.5398  -1.4135  -1.3763  -1.3336  -1.1786
    -1.1315  -1.0885  -1.0576  -0.9898  -0.9815  -0.8580  -0.7495  -0.6757
    -0.4351   0.1264   0.5708   0.9067   2.0950   2.1777   3.0498   3.3835
     3.4062   4.0370   4.9013   5.1311   5.2027   5.4981   5.7313

          k = 0.0288-0.0789 0.0000 ( 34670 PWs)   bands (ev):

    -8.4176  -8.4006  -8.3822  -8.3746  -8.2900  -8.2868  -8.2697  -8.1914
    -8.1709  -8.1455  -8.1186  -8.1084  -8.0953  -8.0816  -8.0634  -8.0589
    -8.0410  -8.0260  -8.0214  -8.0095  -7.9938  -7.9775  -7.9521  -7.9436
    -7.9167  -7.9026  -7.9026  -7.8820  -7.8107  -7.7109  -6.2837  -5.1573
    -4.7194  -4.3772  -3.6886  -3.6243  -3.0992  -2.6932  -2.5573  -2.3722
    -2.2387  -2.1617  -2.0679  -1.9440  -1.8857  -1.8509  -1.8042  -1.7001
    -1.6556  -1.6500  -1.6154  -1.5558  -1.5020  -1.4357  -1.3343  -1.3297
    -1.2806  -1.1544  -1.1159  -1.0128  -0.9398  -0.9023  -0.8220  -0.7374
    -0.4520   0.1134   0.3194   1.2590   2.1525   2.1552   2.5613   3.3920
     3.9835   4.2023   4.7088   5.1092   5.1649   5.3628   5.7402

          k = 0.0288-0.0628 0.0000 ( 34665 PWs)   bands (ev):

    -8.4701  -8.4697  -8.4067  -8.3757  -8.3623  -8.2964  -8.2775  -8.2364
    -8.2133  -8.1839  -8.1811  -8.1408  -8.1111  -8.0998  -8.0697  -8.0423
    -8.0266  -8.0084  -7.9873  -7.9872  -7.9815  -7.9620  -7.9529  -7.9203
    -7.9120  -7.9025  -7.8778  -7.8457  -7.7373  -7.7208  -6.6747  -5.0236
    -4.7268  -4.2445  -3.8364  -3.4660  -2.9686  -2.5927  -2.5014  -2.2796
    -2.1493  -2.0370  -1.9986  -1.8789  -1.8499  -1.7754  -1.7217  -1.6730
    -1.6344  -1.6075  -1.5415  -1.4440  -1.4431  -1.3561  -1.3387  -1.2958
    -1.2242  -1.1758  -1.0403  -1.0036  -0.9441  -0.8360  -0.8097  -0.7405
    -0.4223   0.1080   0.1172   1.6822   2.0188   2.1533   2.2369   3.1991
     3.6257   4.5333   4.6671   4.8563   5.1907   5.2978   5.4714

          k = 0.0288-0.0467 0.0000 ( 34673 PWs)   bands (ev):

    -8.5534  -8.5380  -8.4536  -8.4459  -8.3524  -8.3422  -8.3223  -8.3127
    -8.2757  -8.2712  -8.2526  -8.1541  -8.1424  -8.1028  -8.0388  -8.0309
    -8.0270  -8.0151  -7.9861  -7.9511  -7.9456  -7.9372  -7.9138  -7.9115
    -7.9047  -7.8213  -7.8046  -7.7964  -7.7312  -7.6369  -6.9759  -5.2640
    -4.4371  -3.9708  -3.9535  -3.4297  -2.7886  -2.6444  -2.4541  -2.4390
    -2.1555  -2.0928  -2.0438  -1.9499  -1.7720  -1.6798  -1.6706  -1.6461
    -1.5427  -1.4392  -1.3664  -1.3664  -1.3152  -1.3065  -1.2075  -1.1236
    -1.0933  -1.0322  -0.9462  -0.8873  -0.8155  -0.7505  -0.6652  -0.6518
    -0.2609  -0.0435   0.1788   1.5717   2.0455   2.1212   2.2263   2.6920
     3.4230   4.2592   4.6285   4.7780   4.9142   5.1057   5.1997

          k = 0.0288-0.0306 0.0000 ( 34641 PWs)   bands (ev):

    -8.6196  -8.6125  -8.5180  -8.4790  -8.4237  -8.3941  -8.3761  -8.3694
    -8.3178  -8.3130  -8.2960  -8.1858  -8.1411  -8.0796  -8.0762  -8.0338
    -8.0067  -7.9939  -7.9746  -7.9413  -7.9403  -7.9081  -7.8858  -7.8757
    -7.8544  -7.7531  -7.7486  -7.7428  -7.7227  -7.5412  -7.1864  -5.4350
    -4.2202  -4.0348  -3.6647  -3.4116  -2.7645  -2.6609  -2.6173  -2.5290
    -2.3502  -2.1595  -2.0471  -1.9646  -1.8345  -1.7121  -1.6255  -1.5404
    -1.4118  -1.3609  -1.3122  -1.2765  -1.2669  -1.1518  -1.0848  -0.9872
    -0.9471  -0.8888  -0.8428  -0.7433  -0.6700  -0.5130  -0.4012  -0.1855
    -0.1728  -0.0364   0.5297   1.1854   1.4189   2.2102   2.3875   2.6320
     3.1329   4.0487   4.2631   4.5035   4.5506   4.7119   4.8773

          k = 0.0431-0.0218 0.0000 ( 34674 PWs)   bands (ev):

    -8.6067  -8.6023  -8.4994  -8.4590  -8.4244  -8.3894  -8.3600  -8.3517
    -8.3155  -8.3043  -8.2878  -8.1882  -8.1297  -8.0755  -8.0723  -8.0279
    -8.0118  -8.0032  -7.9800  -7.9276  -7.9198  -7.8901  -7.8798  -7.8756
    -7.8480  -7.7709  -7.7624  -7.7490  -7.7089  -7.5421  -7.0788  -5.3426
    -4.3159  -3.9896  -3.6687  -3.4128  -2.8492  -2.7268  -2.6976  -2.5219
    -2.3887  -2.2779  -2.1556  -1.9947  -1.9850  -1.7732  -1.7355  -1.5643
    -1.4434  -1.4387  -1.3424  -1.2777  -1.2596  -1.1752  -1.1521  -1.0128
    -0.9879  -0.8927  -0.8650  -0.7754  -0.7344  -0.5078  -0.4021  -0.2158
    -0.1263   0.3626   0.6659   1.2188   1.4287   1.7323   1.8900   2.9155
     3.5611   3.9448   4.3265   4.4095   4.5595   4.9122   5.0321

          k = 0.0431-0.0057 0.0000 ( 34672 PWs)   bands (ev):

    -8.6668  -8.6342  -8.5298  -8.5012  -8.4744  -8.4519  -8.3786  -8.3699
    -8.3391  -8.3028  -8.2933  -8.2237  -8.1235  -8.1044  -8.0337  -8.0246
    -8.0026  -8.0012  -7.9469  -7.9103  -7.9058  -7.8659  -7.8368  -7.8288
    -7.8008  -7.7781  -7.7323  -7.7167  -7.6388  -7.4662  -7.1596  -5.4038
    -4.0594  -4.0210  -3.4966  -3.3631  -3.1085  -2.8125  -2.7307  -2.7003
    -2.5005  -2.3669  -2.2871  -2.1299  -2.0038  -1.8623  -1.7969  -1.5935
    -1.4627  -1.3804  -1.2956  -1.2561  -1.1572  -1.1257  -1.0903  -0.9592
    -0.8554  -0.7777  -0.7321  -0.7138  -0.4994  -0.4037  -0.2268  -0.0004
     0.0379   0.1055   1.0251   1.1378   1.3031   1.8167   2.0992   2.3498
     3.0606   3.7613   4.3497   4.3779   4.6438   4.7382   4.9803

          k = 0.0431 0.0104 0.0000 ( 34723 PWs)   bands (ev):

    -8.7038  -8.6430  -8.5465  -8.5367  -8.5188  -8.4427  -8.3819  -8.3686
    -8.3527  -8.2945  -8.2876  -8.2470  -8.1201  -8.1113  -8.0290  -8.0190
    -7.9922  -7.9736  -7.9315  -7.8930  -7.8831  -7.8387  -7.8033  -7.8014
    -7.7943  -7.7600  -7.7148  -7.6933  -7.5942  -7.4170  -7.1566  -5.3955
    -4.0358  -3.8113  -3.4235  -3.3389  -3.2863  -2.9023  -2.8813  -2.8373
    -2.5830  -2.4399  -2.3774  -2.2394  -2.0798  -1.9693  -1.8247  -1.7160
    -1.4953  -1.4577  -1.3121  -1.1781  -1.1393  -1.0354  -1.0289  -0.9169
    -0.7822  -0.6878  -0.6619  -0.6197  -0.4830  -0.3576  -0.3566  -0.2819
     0.1536   0.4672   0.5976   1.3179   1.4893   1.8679   2.3105   2.4786
     2.5930   3.8329   4.1807   4.3308   4.4093   4.9414   5.0384

          k = 0.0431 0.0265 0.0000 ( 34688 PWs)   bands (ev):

    -8.7116  -8.6312  -8.5598  -8.5321  -8.5215  -8.4160  -8.3689  -8.3542
    -8.3465  -8.2908  -8.2757  -8.2557  -8.1218  -8.0952  -8.0300  -8.0125
    -7.9816  -7.9546  -7.9267  -7.8801  -7.8657  -7.8217  -7.8133  -7.7831
    -7.7791  -7.7452  -7.7180  -7.6841  -7.5781  -7.3994  -7.0532  -5.3114
    -4.0724  -3.6467  -3.4925  -3.4105  -3.3290  -3.0360  -2.9400  -2.9119
    -2.6343  -2.5195  -2.4353  -2.3055  -2.1574  -2.0798  -1.8803  -1.8559
    -1.5944  -1.5441  -1.3113  -1.2339  -1.1463  -0.9987  -0.9792  -0.8867
    -0.8460  -0.7103  -0.6577  -0.6551  -0.5046  -0.4737  -0.4497  -0.2821
     0.1675   0.2173   0.8947   1.3677   1.4744   1.6541   2.2562   2.8081
     2.9314   3.7217   4.1242   4.4835   4.6695   4.9274   5.0443

          k = 0.0431 0.0426 0.0000 ( 34724 PWs)   bands (ev):

    -8.6894  -8.6018  -8.5396  -8.5113  -8.4876  -8.3810  -8.3445  -8.3288
    -8.3211  -8.2927  -8.2645  -8.2469  -8.1097  -8.0811  -8.0284  -8.0071
    -7.9729  -7.9621  -7.9240  -7.8739  -7.8689  -7.8387  -7.7966  -7.7872
    -7.7839  -7.7552  -7.7383  -7.6909  -7.5918  -7.4163  -6.8417  -5.1463
    -4.1870  -3.8543  -3.5024  -3.4657  -3.3788  -3.0118  -2.9377  -2.9091
    -2.6389  -2.6347  -2.4514  -2.3643  -2.2074  -2.1756  -2.0484  -1.9171
    -1.7113  -1.5671  -1.3929  -1.3120  -1.2044  -1.1261  -0.9815  -0.9118
    -0.8652  -0.7478  -0.6994  -0.6914  -0.6696  -0.5709  -0.4369  -0.2953
     0.1548   0.1943   0.5192   1.5772   1.7120   2.0642   2.0968   2.4533
     3.0437   4.0139   4.4633   4.6012   4.8988   4.9903   5.4541

          k = 0.0431 0.0587 0.0000 ( 34755 PWs)   bands (ev):

    -8.6409  -8.5579  -8.4878  -8.4590  -8.4387  -8.3445  -8.3159  -8.3006
    -8.2930  -8.2756  -8.2594  -8.2215  -8.0855  -8.0741  -8.0296  -8.0053
    -7.9937  -7.9680  -7.9268  -7.9057  -7.8622  -7.8543  -7.8144  -7.8134
    -7.8113  -7.7849  -7.7536  -7.7139  -7.6340  -7.4676  -6.5326  -4.9078
    -4.3540  -4.3463  -3.5679  -3.3793  -3.3433  -3.0803  -2.8601  -2.8167
    -2.7717  -2.5835  -2.4499  -2.4023  -2.2308  -2.2282  -2.1506  -1.9828
    -1.7714  -1.5501  -1.5452  -1.3217  -1.3147  -1.2651  -0.9975  -0.9655
    -0.9111  -0.8464  -0.8364  -0.7332  -0.7213  -0.6290  -0.4429  -0.2992
     0.0328   0.0823   0.3079   1.7195   1.7709   2.0567   2.3146   2.7482
     3.0300   4.2566   4.5584   4.6730   4.9630   5.0241   5.4887

          k = 0.0431-0.1184 0.0000 ( 34726 PWs)   bands (ev):

    -8.5746  -8.5025  -8.4086  -8.3811  -8.3799  -8.3243  -8.3134  -8.2705
    -8.2581  -8.2450  -8.2246  -8.1840  -8.0876  -8.0665  -8.0511  -8.0089
    -8.0042  -7.9751  -7.9702  -7.9160  -7.8775  -7.8718  -7.8667  -7.8552
    -7.8513  -7.8293  -7.7633  -7.7516  -7.6976  -7.5480  -6.1433  -4.9048
    -4.7015  -4.3846  -3.7988  -3.3170  -3.2457  -3.0822  -2.9550  -2.7663
    -2.6695  -2.4704  -2.4285  -2.3434  -2.2573  -2.2303  -2.1438  -1.9759
    -1.7972  -1.6321  -1.5017  -1.4206  -1.3522  -1.3135  -1.1509  -1.0281
    -0.9751  -0.9321  -0.8433  -0.8039  -0.8021  -0.6993  -0.4991  -0.4012
    -0.2742  -0.1354   0.5464   1.2323   1.7210   2.5068   2.7754   2.9745
     3.5031   4.0414   4.5435   4.6191   5.1797   5.2017   6.0048

          k = 0.0431-0.1023 0.0000 ( 34685 PWs)   bands (ev):

    -8.5041  -8.4388  -8.3473  -8.3233  -8.3105  -8.2951  -8.2852  -8.2758
    -8.2098  -8.1867  -8.1687  -8.1592  -8.1376  -8.1030  -8.0344  -8.0198
    -8.0136  -7.9961  -7.9947  -7.9409  -7.9316  -7.9208  -7.9051  -7.8950
    -7.8633  -7.8624  -7.8229  -7.8009  -7.7585  -7.6352  -5.6975  -5.4417
    -4.7314  -4.1208  -4.0755  -3.3923  -3.3034  -2.9700  -2.8383  -2.6317
    -2.5804  -2.3403  -2.3235  -2.2450  -2.2256  -2.1553  -2.0698  -1.8983
    -1.7858  -1.6514  -1.5016  -1.4538  -1.3523  -1.3444  -1.2825  -1.1143
    -1.0269  -1.0166  -0.9312  -0.9115  -0.8396  -0.7770  -0.7483  -0.5775
    -0.4215  -0.2421   0.8194   0.8454   1.6827   2.9068   3.1870   3.3087
     3.5259   4.2857   4.3940   4.5824   5.1679   5.5095   5.7255

          k = 0.0431-0.0862 0.0000 ( 34673 PWs)   bands (ev):

    -8.4433  -8.3847  -8.3639  -8.3277  -8.2983  -8.2631  -8.2331  -8.2007
    -8.1857  -8.1809  -8.1510  -8.1203  -8.0990  -8.0903  -8.0679  -8.0590
    -8.0365  -8.0341  -7.9872  -7.9810  -7.9627  -7.9460  -7.9436  -7.9143
    -7.9124  -7.8744  -7.8624  -7.8563  -7.8532  -7.6828  -5.9285  -5.2369
    -4.7524  -4.4605  -3.6797  -3.5529  -3.3648  -2.8367  -2.5475  -2.5413
    -2.4585  -2.2132  -2.1429  -2.1418  -2.1028  -1.9665  -1.9652  -1.8039
    -1.7402  -1.6531  -1.5321  -1.5198  -1.4008  -1.3384  -1.2651  -1.2293
    -1.1121  -1.1116  -1.0681  -1.0444  -0.9882  -0.8710  -0.7795  -0.6487
    -0.6485  -0.1992   0.5150   1.2038   1.6636   2.9072   3.0989   3.8277
     3.8601   4.0041   4.3820   4.6171   5.3497   5.3852   5.7366

          k = 0.0431-0.0701 0.0000 ( 34680 PWs)   bands (ev):

    -8.4188  -8.3989  -8.3778  -8.3683  -8.2946  -8.2871  -8.2791  -8.1931
    -8.1646  -8.1441  -8.1192  -8.1047  -8.0904  -8.0767  -8.0577  -8.0492
    -8.0429  -8.0419  -8.0209  -8.0125  -7.9911  -7.9671  -7.9572  -7.9524
    -7.9169  -7.9084  -7.8955  -7.8884  -7.8177  -7.7035  -6.3435  -4.8924
    -4.7691  -4.5985  -3.7093  -3.4748  -3.2360  -2.6551  -2.5560  -2.2841
    -2.2272  -2.1515  -2.0688  -1.9310  -1.8987  -1.8161  -1.7831  -1.7027
    -1.6875  -1.6443  -1.6439  -1.5510  -1.4037  -1.3958  -1.3945  -1.3598
    -1.2416  -1.1463  -1.1020  -1.0591  -0.9369  -0.9114  -0.8219  -0.7254
    -0.6225  -0.1108   0.2890   1.6047   1.6931   2.4702   3.0204   3.2632
     4.1850   4.3121   4.3957   4.8154   5.0726   5.2764   5.6764

          k = 0.0431-0.0540 0.0000 ( 34665 PWs)   bands (ev):

    -8.4701  -8.4697  -8.4067  -8.3757  -8.3623  -8.2964  -8.2775  -8.2364
    -8.2133  -8.1839  -8.1811  -8.1408  -8.1111  -8.0998  -8.0697  -8.0423
    -8.0267  -8.0084  -7.9873  -7.9872  -7.9815  -7.9620  -7.9529  -7.9203
    -7.9120  -7.9025  -7.8778  -7.8457  -7.7373  -7.7208  -6.6747  -5.0236
    -4.7268  -4.2445  -3.8364  -3.4660  -2.9686  -2.5927  -2.5014  -2.2796
    -2.1493  -2.0370  -1.9986  -1.8789  -1.8499  -1.7754  -1.7217  -1.6730
    -1.6344  -1.6075  -1.5415  -1.4440  -1.4431  -1.3561  -1.3387  -1.2958
    -1.2242  -1.1758  -1.0403  -1.0036  -0.9441  -0.8360  -0.8097  -0.7405
    -0.4223   0.1080   0.1172   1.6822   2.0188   2.1533   2.2369   3.1991
     3.6257   4.5333   4.6671   4.8562   5.1908   5.2976   5.4707

          k = 0.0431-0.0379 0.0000 ( 34675 PWs)   bands (ev):

    -8.5469  -8.5356  -8.4457  -8.4388  -8.3500  -8.3430  -8.3136  -8.3097
    -8.2717  -8.2695  -8.2481  -8.1521  -8.1438  -8.1020  -8.0382  -8.0339
    -8.0291  -8.0181  -7.9870  -7.9509  -7.9395  -7.9312  -7.9125  -7.9054
    -7.8982  -7.8321  -7.7970  -7.7964  -7.7389  -7.6372  -6.9187  -5.2154
    -4.5444  -3.9295  -3.9197  -3.4468  -2.7856  -2.6517  -2.5942  -2.3653
    -2.2098  -2.1821  -2.0319  -2.0240  -1.8463  -1.7254  -1.6871  -1.6354
    -1.5565  -1.4842  -1.4129  -1.3792  -1.2924  -1.2753  -1.2060  -1.1662
    -1.1143  -1.0277  -0.9445  -0.9196  -0.8352  -0.7829  -0.6379  -0.5803
    -0.1410  -0.0164   0.5667   1.3952   1.6882   1.7550   2.5166   2.7089
     3.6647   4.4869   4.6039   4.6537   4.6793   5.0584   5.2192

          k = 0.0575-0.0290 0.0000 ( 34696 PWs)   bands (ev):

    -8.5290  -8.5278  -8.4235  -8.4177  -8.3457  -8.3401  -8.2999  -8.2971
    -8.2615  -8.2586  -8.2364  -8.1468  -8.1464  -8.1003  -8.0475  -8.0380
    -8.0246  -8.0169  -7.9896  -7.9515  -7.9240  -7.9189  -7.9103  -7.8891
    -7.8888  -7.8479  -7.7991  -7.7854  -7.7600  -7.6377  -6.7508  -5.0730
    -4.7776  -3.8761  -3.8610  -3.4772  -2.8345  -2.7709  -2.6576  -2.4031
    -2.3601  -2.2996  -2.1249  -2.0315  -2.0147  -1.8134  -1.7704  -1.6859
    -1.5972  -1.5476  -1.5354  -1.4451  -1.2647  -1.2582  -1.2177  -1.1658
    -1.0805  -1.0485  -0.9429  -0.8422  -0.8382  -0.8278  -0.6288  -0.5391
     0.0611   0.3372   0.6549   1.2843   1.4988   1.6579   1.9589   3.3056
     3.6417   4.1086   4.3635   4.6728   4.9983   5.1896   5.3242

          k = 0.0575-0.0129 0.0000 ( 34694 PWs)   bands (ev):

    -8.5967  -8.5716  -8.4657  -8.4266  -8.4165  -8.3845  -8.3359  -8.3204
    -8.3077  -8.2884  -8.2734  -8.1911  -8.1092  -8.0684  -8.0676  -8.0204
    -8.0124  -8.0075  -7.9806  -7.9166  -7.8980  -7.8799  -7.8665  -7.8574
    -7.8423  -7.7951  -7.7882  -7.7506  -7.6991  -7.5439  -6.8647  -5.1616
    -4.4965  -3.9420  -3.6804  -3.4104  -3.1053  -2.7648  -2.7360  -2.6096
    -2.4893  -2.4249  -2.2606  -2.1547  -2.0525  -1.9184  -1.8382  -1.7730
    -1.5506  -1.4995  -1.3968  -1.3750  -1.2791  -1.2033  -1.1300  -0.9695
    -0.9657  -0.9236  -0.8925  -0.8098  -0.7406  -0.5128  -0.4097  -0.2080
    -0.0727   0.0887   0.9515   1.0126   1.6783   1.7874   2.0816   2.8763
     2.9691   4.0550   4.3492   4.6077   4.8771   5.1792   5.3842

          k = 0.0575 0.0032 0.0000 ( 34708 PWs)   bands (ev):

    -8.6539  -8.5956  -8.4947  -8.4868  -8.4646  -8.4045  -8.3405  -8.3334
    -8.3167  -8.2988  -8.2753  -8.2257  -8.0953  -8.0940  -8.0309  -8.0144
    -7.9992  -7.9899  -7.9374  -7.9047  -7.8831  -7.8278  -7.8244  -7.8227
    -7.8132  -7.7892  -7.7585  -7.7154  -7.6324  -7.4670  -6.8983  -5.1878
    -4.1788  -4.0249  -3.5418  -3.3680  -3.3645  -2.8636  -2.8157  -2.8031
    -2.5662  -2.5480  -2.3718  -2.2843  -2.1177  -2.0427  -1.9029  -1.8736
    -1.6056  -1.5049  -1.3454  -1.3143  -1.2535  -1.1860  -1.0461  -0.9097
    -0.9035  -0.7793  -0.7494  -0.7157  -0.6808  -0.4577  -0.3938  -0.1411
     0.0411   0.0643   0.4045   1.7283   1.7846   1.9107   2.2814   2.4249
     2.6026   3.7564   4.5834   4.5945   4.9830   5.1665   5.3061

          k = 0.0575 0.0193 0.0000 ( 34724 PWs)   bands (ev):

    -8.6894  -8.6018  -8.5396  -8.5113  -8.4876  -8.3810  -8.3445  -8.3288
    -8.3211  -8.2927  -8.2645  -8.2469  -8.1097  -8.0811  -8.0284  -8.0071
    -7.9729  -7.9621  -7.9240  -7.8739  -7.8689  -7.8387  -7.7966  -7.7872
    -7.7839  -7.7552  -7.7383  -7.6909  -7.5918  -7.4163  -6.8417  -5.1463
    -4.1870  -3.8543  -3.5024  -3.4657  -3.3788  -3.0118  -2.9377  -2.9091
    -2.6389  -2.6347  -2.4514  -2.3643  -2.2074  -2.1756  -2.0484  -1.9171
    -1.7113  -1.5671  -1.3929  -1.3120  -1.2044  -1.1261  -0.9815  -0.9118
    -0.8652  -0.7478  -0.6994  -0.6914  -0.6696  -0.5709  -0.4369  -0.2953
     0.1548   0.1943   0.5192   1.5772   1.7120   2.0642   2.0968   2.4533
     3.0437   4.0139   4.4633   4.6012   4.8988   4.9903   5.4542

          k = 0.0575 0.0354 0.0000 ( 34768 PWs)   bands (ev):

    -8.6974  -8.5920  -8.5530  -8.5250  -8.4706  -8.3504  -8.3417  -8.3128
    -8.3075  -8.2896  -8.2530  -8.2505  -8.1112  -8.0732  -8.0267  -8.0008
    -7.9582  -7.9404  -7.9254  -7.8586  -7.8570  -7.8534  -7.7819  -7.7760
    -7.7626  -7.7386  -7.7299  -7.6811  -7.5798  -7.3979  -6.6829  -5.0326
    -4.4290  -3.6466  -3.5085  -3.4913  -3.4282  -3.1559  -2.9986  -2.9418
    -2.7055  -2.6850  -2.5066  -2.4099  -2.3111  -2.2834  -2.1812  -1.9980
    -1.7937  -1.6223  -1.5281  -1.3046  -1.2099  -1.1000  -1.0463  -0.9384
    -0.8409  -0.7881  -0.7776  -0.6900  -0.6873  -0.6297  -0.4821  -0.2926
     0.1465   0.2464   0.7515   1.4653   1.5743   1.7966   2.1513   2.9916
     3.1503   4.1325   4.5324   4.6604   4.8409   5.4431   5.4785

          k = 0.0575 0.0515 0.0000 ( 34761 PWs)   bands (ev):

    -8.6768  -8.5680  -8.5334  -8.5055  -8.4391  -8.3292  -8.3185  -8.2941
    -8.2884  -8.2796  -8.2466  -8.2367  -8.0999  -8.0722  -8.0234  -7.9978
    -7.9521  -7.9474  -7.9221  -7.8751  -7.8622  -7.8500  -7.7944  -7.7844
    -7.7687  -7.7471  -7.7225  -7.6884  -7.5977  -7.4152  -6.4222  -4.8777
    -4.6456  -4.0085  -3.4671  -3.3863  -3.3475  -3.2789  -2.9299  -2.9199
    -2.8116  -2.6773  -2.5201  -2.4874  -2.3698  -2.3428  -2.2772  -2.0625
    -1.8465  -1.6489  -1.6315  -1.3025  -1.2827  -1.2435  -1.0356  -0.9458
    -0.9041  -0.8498  -0.8236  -0.7249  -0.7193  -0.6072  -0.5122  -0.3222
     0.2139   0.2776   0.4610   1.4343   1.5937   2.1530   2.4238   2.4385
     3.7586   4.0853   4.3151   4.9693   5.1141   5.5553   5.7104

          k = 0.0575-0.1256 0.0000 ( 34750 PWs)   bands (ev):

    -8.6311  -8.5313  -8.4823  -8.4555  -8.3962  -8.3129  -8.2977  -8.2905
    -8.2581  -8.2496  -8.2398  -8.2128  -8.0781  -8.0773  -8.0321  -8.0000
    -7.9772  -7.9414  -7.9227  -7.9080  -7.8813  -7.8539  -7.8321  -7.8101
    -7.8035  -7.7803  -7.7175  -7.7128  -7.6443  -7.4679  -6.0746  -4.9674
    -4.5042  -4.5009  -3.5977  -3.4186  -3.2687  -3.1879  -2.9764  -2.8719
    -2.7445  -2.6201  -2.5241  -2.4728  -2.3730  -2.3703  -2.3114  -2.0528
    -1.8826  -1.7068  -1.5896  -1.3718  -1.3188  -1.3040  -1.0722  -1.0428
    -0.9438  -0.9051  -0.8145  -0.7837  -0.7692  -0.6172  -0.5349  -0.3925
     0.0256   0.0973   0.4961   1.3550   1.6504   2.0517   2.7944   2.8376
     3.9045   4.1423   4.4971   4.7360   5.2009   5.3225   5.8791

          k = 0.0575-0.1095 0.0000 ( 34724 PWs)   bands (ev):

    -8.5685  -8.4837  -8.4034  -8.3803  -8.3456  -8.3248  -8.2832  -8.2728
    -8.2443  -8.2195  -8.2011  -8.1774  -8.1081  -8.0639  -8.0455  -8.0080
    -7.9842  -7.9726  -7.9418  -7.9274  -7.9054  -7.8870  -7.8610  -7.8509
    -7.8501  -7.8331  -7.7519  -7.7343  -7.7077  -7.5492  -5.6653  -5.1177
    -5.0143  -4.1773  -3.8535  -3.5133  -3.2460  -3.0936  -2.9713  -2.7708
    -2.5924  -2.5338  -2.4658  -2.3798  -2.3609  -2.3182  -2.2429  -1.9810
    -1.8731  -1.7134  -1.5134  -1.4262  -1.3379  -1.3047  -1.2034  -1.0719
    -1.0394  -0.9245  -0.8558  -0.8260  -0.8170  -0.7632  -0.5011  -0.4465
    -0.3945  -0.1172   0.7717   1.1863   1.3254   2.4690   3.2951   3.4157
     3.8739   4.0626   4.2415   4.7957   5.4382   5.4998   5.5454

          k = 0.0575-0.0934 0.0000 ( 34692 PWs)   bands (ev):

    -8.5016  -8.4280  -8.3478  -8.3042  -8.3020  -8.2893  -8.2885  -8.2692
    -8.2058  -8.1887  -8.1616  -8.1562  -8.1340  -8.1039  -8.0303  -8.0217
    -8.0090  -7.9895  -7.9843  -7.9555  -7.9401  -7.9118  -7.9096  -7.8961
    -7.8744  -7.8613  -7.8193  -7.8021  -7.7559  -7.6343  -5.4999  -5.2869
    -5.1350  -4.1615  -3.8390  -3.5440  -3.3924  -2.9958  -2.7493  -2.6348
    -2.5407  -2.3883  -2.3539  -2.2613  -2.2527  -2.1635  -2.1157  -1.8922
    -1.8052  -1.6806  -1.5155  -1.4436  -1.3538  -1.2896  -1.2517  -1.1519
    -1.1034  -0.9897  -0.9298  -0.9267  -0.8404  -0.8379  -0.7715  -0.5950
    -0.4085  -0.3596   0.7927   1.0615   1.3724   3.0890   3.4085   3.6906
     3.8280   3.9669   4.1743   4.6995   5.1459   5.6373   5.7082

          k = 0.0575-0.0773 0.0000 ( 34673 PWs)   bands (ev):

    -8.4433  -8.3847  -8.3639  -8.3277  -8.2983  -8.2631  -8.2331  -8.2007
    -8.1857  -8.1809  -8.1510  -8.1203  -8.0990  -8.0903  -8.0679  -8.0590
    -8.0366  -8.0341  -7.9872  -7.9810  -7.9627  -7.9460  -7.9436  -7.9143
    -7.9124  -7.8744  -7.8624  -7.8563  -7.8532  -7.6828  -5.9285  -5.2369
    -4.7524  -4.4605  -3.6797  -3.5529  -3.3648  -2.8367  -2.5475  -2.5413
    -2.4585  -2.2132  -2.1429  -2.1418  -2.1028  -1.9665  -1.9652  -1.8039
    -1.7402  -1.6531  -1.5321  -1.5198  -1.4007  -1.3384  -1.2651  -1.2293
    -1.1121  -1.1116  -1.0681  -1.0444  -0.9882  -0.8710  -0.7795  -0.6487
    -0.6485  -0.1992   0.5150   1.2038   1.6636   2.9072   3.0989   3.8277
     3.8601   4.0041   4.3821   4.6171   5.3498   5.3856   5.7370

          k = 0.0575-0.0612 0.0000 ( 34670 PWs)   bands (ev):

    -8.4176  -8.4006  -8.3822  -8.3746  -8.2900  -8.2868  -8.2697  -8.1914
    -8.1709  -8.1455  -8.1186  -8.1084  -8.0953  -8.0816  -8.0634  -8.0589
    -8.0410  -8.0261  -8.0214  -8.0095  -7.9938  -7.9775  -7.9521  -7.9436
    -7.9167  -7.9026  -7.9026  -7.8820  -7.8107  -7.7109  -6.2837  -5.1573
    -4.7194  -4.3772  -3.6886  -3.6243  -3.0992  -2.6932  -2.5573  -2.3722
    -2.2387  -2.1617  -2.0679  -1.9440  -1.8857  -1.8509  -1.8042  -1.7001
    -1.6556  -1.6500  -1.6154  -1.5558  -1.5020  -1.4357  -1.3343  -1.3297
    -1.2806  -1.1544  -1.1159  -1.0128  -0.9398  -0.9023  -0.8220  -0.7374
    -0.4520   0.1134   0.3194   1.2590   2.1525   2.1552   2.5613   3.3920
     3.9835   4.2023   4.7089   5.1094   5.1649   5.3629   5.7405

          k = 0.0575-0.0451 0.0000 ( 34649 PWs)   bands (ev):

    -8.4662  -8.4641  -8.4014  -8.3722  -8.3553  -8.2900  -8.2728  -8.2263
    -8.2065  -8.1801  -8.1776  -8.1406  -8.1238  -8.1042  -8.0781  -8.0501
    -8.0210  -8.0143  -7.9834  -7.9831  -7.9763  -7.9596  -7.9516  -7.9227
    -7.9009  -7.8987  -7.8713  -7.8462  -7.7361  -7.7335  -6.5580  -5.0022
    -4.9250  -4.0851  -3.7954  -3.5540  -2.8956  -2.6889  -2.5437  -2.3359
    -2.2688  -2.0989  -2.0713  -1.9187  -1.8851  -1.7942  -1.7427  -1.6908
    -1.6784  -1.6271  -1.6036  -1.5197  -1.4119  -1.3415  -1.3111  -1.2754
    -1.2290  -1.1703  -1.0771  -0.9347  -0.9326  -0.8513  -0.7872  -0.7334
    -0.1341   0.1757   0.6283   1.3373   1.3625   2.1824   2.5195   2.7487
     4.1478   4.3002   4.6588   4.9142   5.0851   5.4724   5.5691

          k = 0.0719-0.0363 0.0000 ( 34651 PWs)   bands (ev):

    -8.4601  -8.4502  -8.3884  -8.3717  -8.3385  -8.2790  -8.2632  -8.2123
    -8.1914  -8.1792  -8.1677  -8.1429  -8.1372  -8.1092  -8.0863  -8.0575
    -8.0197  -8.0150  -7.9836  -7.9807  -7.9656  -7.9580  -7.9486  -7.9210
    -7.8984  -7.8906  -7.8604  -7.8485  -7.7637  -7.7243  -6.3359  -5.3146
    -4.7400  -4.0705  -3.7634  -3.5830  -2.8620  -2.8089  -2.5846  -2.5568
    -2.3132  -2.1378  -2.1199  -2.0438  -1.9227  -1.8663  -1.7792  -1.7595
    -1.6992  -1.6532  -1.6189  -1.5829  -1.4178  -1.3357  -1.3138  -1.2131
    -1.1961  -1.1576  -1.0238  -0.9345  -0.8976  -0.8825  -0.7496  -0.7379
     0.2459   0.3551   0.6733   1.0581   1.4588   1.5965   2.5228   3.4387
     3.5998   3.7939   4.6551   5.0006   5.6354   5.6701   5.7592

          k = 0.0719-0.0202 0.0000 ( 34684 PWs)   bands (ev):

    -8.5199  -8.4989  -8.3914  -8.3839  -8.3439  -8.3317  -8.2868  -8.2852
    -8.2403  -8.2354  -8.2222  -8.1482  -8.1405  -8.0998  -8.0545  -8.0344
    -8.0196  -8.0104  -7.9942  -7.9460  -7.9199  -7.9068  -7.9067  -7.8877
    -7.8766  -7.8492  -7.8068  -7.7864  -7.7752  -7.6379  -6.4821  -5.0420
    -4.8495  -3.9002  -3.8863  -3.4628  -3.0635  -2.7498  -2.7018  -2.6327
    -2.5148  -2.2845  -2.2203  -2.1387  -2.0602  -2.0003  -1.8449  -1.8270
    -1.6530  -1.5604  -1.5287  -1.5285  -1.2963  -1.2859  -1.2324  -1.1213
    -1.0427  -0.9795  -0.9547  -0.8890  -0.8195  -0.8081  -0.6319  -0.5007
    -0.0369   0.2786   0.8550   0.9089   1.4131   2.2325   2.3326   2.8883
     3.5117   3.9531   4.4133   4.8797   4.8846   5.5244   5.7017

          k = 0.0719-0.0041 0.0000 ( 34686 PWs)   bands (ev):

    -8.5849  -8.5349  -8.4233  -8.4164  -8.3850  -8.3655  -8.3252  -8.2858
    -8.2823  -8.2639  -8.2591  -8.1905  -8.0870  -8.0675  -8.0596  -8.0152
    -8.0132  -7.9931  -7.9787  -7.9123  -7.8788  -7.8756  -7.8605  -7.8441
    -7.8439  -7.8168  -7.7959  -7.7511  -7.6950  -7.5460  -6.5495  -4.9056
    -4.7145  -4.0699  -3.7254  -3.3804  -3.2732  -2.8652  -2.7730  -2.7353
    -2.6916  -2.4446  -2.3534  -2.2731  -2.1292  -2.1203  -1.9727  -1.9208
    -1.6891  -1.5050  -1.4952  -1.4209  -1.3079  -1.2808  -1.0977  -0.9987
    -0.9823  -0.8930  -0.8861  -0.8188  -0.7620  -0.5393  -0.4091  -0.3996
    -0.1688   0.0209   0.4567   1.2975   2.0452   2.1788   2.3583   2.6739
     3.0417   3.8228   4.5740   4.8068   5.0273   5.2959   5.4723

          k = 0.0719 0.0120 0.0000 ( 34755 PWs)   bands (ev):

    -8.6409  -8.5579  -8.4878  -8.4590  -8.4387  -8.3445  -8.3159  -8.3006
    -8.2930  -8.2756  -8.2594  -8.2215  -8.0855  -8.0741  -8.0296  -8.0053
    -7.9937  -7.9680  -7.9268  -7.9057  -7.8622  -7.8543  -7.8144  -7.8134
    -7.8113  -7.7849  -7.7536  -7.7139  -7.6340  -7.4676  -6.5326  -4.9078
    -4.3540  -4.3463  -3.5679  -3.3793  -3.3433  -3.0803  -2.8601  -2.8167
    -2.7717  -2.5835  -2.4499  -2.4023  -2.2308  -2.2282  -2.1506  -1.9828
    -1.7714  -1.5501  -1.5452  -1.3217  -1.3147  -1.2651  -0.9975  -0.9655
    -0.9111  -0.8464  -0.8364  -0.7332  -0.7213  -0.6290  -0.4429  -0.2992
     0.0328   0.0823   0.3079   1.7195   1.7709   2.0567   2.3146   2.7482
     3.0300   4.2566   4.5584   4.6730   4.9630   5.0241   5.4886

          k = 0.0719 0.0281 0.0000 ( 34761 PWs)   bands (ev):

    -8.6768  -8.5680  -8.5334  -8.5055  -8.4391  -8.3292  -8.3185  -8.2941
    -8.2884  -8.2796  -8.2466  -8.2367  -8.0999  -8.0722  -8.0234  -7.9978
    -7.9521  -7.9474  -7.9221  -7.8751  -7.8622  -7.8500  -7.7944  -7.7844
    -7.7687  -7.7471  -7.7225  -7.6884  -7.5977  -7.4152  -6.4222  -4.8777
    -4.6456  -4.0086  -3.4671  -3.3863  -3.3475  -3.2789  -2.9299  -2.9199
    -2.8116  -2.6773  -2.5201  -2.4874  -2.3698  -2.3428  -2.2772  -2.0625
    -1.8465  -1.6489  -1.6315  -1.3025  -1.2827  -1.2435  -1.0356  -0.9458
    -0.9041  -0.8498  -0.8236  -0.7249  -0.7193  -0.6072  -0.5122  -0.3222
     0.2139   0.2776   0.4610   1.4342   1.5937   2.1530   2.4238   2.4385
     3.7586   4.0852   4.3151   4.9691   5.1141   5.5552   5.7104

          k = 0.0719 0.0442 0.0000 ( 34758 PWs)   bands (ev):

    -8.6867  -8.5652  -8.5479  -8.5201  -8.4269  -8.3362  -8.2958  -8.2888
    -8.2740  -8.2736  -8.2428  -8.2312  -8.1024  -8.0764  -8.0197  -7.9932
    -7.9327  -7.9303  -7.9275  -7.8853  -7.8441  -7.8439  -7.7914  -7.7755
    -7.7489  -7.7303  -7.7021  -7.6786  -7.5888  -7.3964  -6.2141  -5.0536
    -4.6668  -3.8588  -3.4722  -3.4441  -3.3338  -3.2973  -2.9958  -2.9536
    -2.8390  -2.7185  -2.5701  -2.5211  -2.5177  -2.4455  -2.3317  -2.1119
    -1.9212  -1.7272  -1.6803  -1.3373  -1.2948  -1.2573  -1.0937  -0.9997
    -0.8777  -0.8302  -0.8118  -0.7377  -0.7048  -0.6975  -0.4641  -0.3021
     0.2576   0.3267   0.6693   1.2243   1.5052   1.8799   2.6665   2.9616
     3.1936   3.9790   5.0060   5.0970   5.2523   5.7597   5.8770

          k = 0.0719-0.1329 0.0000 ( 34748 PWs)   bands (ev):

    -8.6693  -8.5496  -8.5298  -8.5024  -8.4049  -8.3308  -8.2926  -8.2782
    -8.2571  -8.2571  -8.2324  -8.2276  -8.0934  -8.0818  -8.0203  -7.9932
    -7.9416  -7.9271  -7.9248  -7.8910  -7.8582  -7.8459  -7.8071  -7.7845
    -7.7595  -7.7411  -7.6928  -7.6868  -7.6083  -7.4144  -5.9189  -5.3143
    -4.5005  -4.1228  -3.5934  -3.4754  -3.2358  -3.1921  -2.9727  -2.9291
    -2.8686  -2.7124  -2.5850  -2.5604  -2.5205  -2.5004  -2.3567  -2.0998
    -1.9760  -1.7543  -1.6699  -1.4006  -1.2939  -1.2854  -1.1025  -1.0627
    -0.8896  -0.8583  -0.8036  -0.7743  -0.7301  -0.6547  -0.5002  -0.3326
     0.2217   0.4316   0.4577   1.1294   1.5992   2.1799   2.4047   2.9741
     3.7406   3.7863   4.9004   5.2918   5.3509   5.7858   5.8901

          k = 0.0719-0.1168 0.0000 ( 34716 PWs)   bands (ev):

    -8.6275  -8.5219  -8.4802  -8.4543  -8.3764  -8.3155  -8.2996  -8.2674
    -8.2423  -8.2422  -8.2275  -8.2089  -8.0871  -8.0739  -8.0340  -7.9984
    -7.9645  -7.9296  -7.9252  -7.9048  -7.8913  -7.8637  -7.8334  -7.8097
    -7.7995  -7.7787  -7.7123  -7.6965  -7.6547  -7.4680  -5.6128  -5.4548
    -4.5566  -4.3133  -3.6256  -3.6128  -3.2013  -3.0766  -3.0749  -2.8650
    -2.6917  -2.6642  -2.5501  -2.5010  -2.4775  -2.4533  -2.3393  -2.0459
    -1.9610  -1.7498  -1.6052  -1.3899  -1.3368  -1.2981  -1.1179  -1.1012
    -0.9735  -0.8600  -0.8307  -0.8014  -0.7799  -0.6102  -0.5710  -0.4040
     0.0239   0.1019   0.6331   1.1475   1.6281   2.0465   2.7864   3.2484
     3.7094   4.3132   4.6990   4.9333   5.2270   5.4845   5.7372

          k = 0.0719-0.1007 0.0000 ( 34724 PWs)   bands (ev):

    -8.5685  -8.4837  -8.4034  -8.3803  -8.3456  -8.3248  -8.2832  -8.2728
    -8.2443  -8.2195  -8.2011  -8.1774  -8.1081  -8.0639  -8.0455  -8.0080
    -7.9842  -7.9726  -7.9418  -7.9274  -7.9054  -7.8870  -7.8610  -7.8509
    -7.8501  -7.8331  -7.7519  -7.7343  -7.7077  -7.5492  -5.6653  -5.1177
    -5.0143  -4.1773  -3.8535  -3.5133  -3.2460  -3.0936  -2.9713  -2.7708
    -2.5924  -2.5338  -2.4658  -2.3798  -2.3609  -2.3182  -2.2429  -1.9810
    -1.8731  -1.7134  -1.5134  -1.4262  -1.3379  -1.3047  -1.2034  -1.0719
    -1.0394  -0.9245  -0.8558  -0.8260  -0.8170  -0.7632  -0.5011  -0.4465
    -0.3945  -0.1172   0.7717   1.1863   1.3254   2.4690   3.2951   3.4157
     3.8739   4.0626   4.2415   4.7957   5.4381   5.4998   5.5446

          k = 0.0719-0.0846 0.0000 ( 34685 PWs)   bands (ev):

    -8.5041  -8.4388  -8.3473  -8.3233  -8.3105  -8.2951  -8.2852  -8.2758
    -8.2098  -8.1867  -8.1687  -8.1592  -8.1376  -8.1030  -8.0344  -8.0198
    -8.0136  -7.9961  -7.9947  -7.9409  -7.9316  -7.9208  -7.9051  -7.8950
    -7.8633  -7.8624  -7.8229  -7.8009  -7.7585  -7.6352  -5.6975  -5.4417
    -4.7314  -4.1208  -4.0755  -3.3923  -3.3034  -2.9700  -2.8383  -2.6317
    -2.5804  -2.3403  -2.3235  -2.2450  -2.2256  -2.1553  -2.0698  -1.8983
    -1.7858  -1.6514  -1.5016  -1.4538  -1.3523  -1.3444  -1.2825  -1.1143
    -1.0269  -1.0166  -0.9312  -0.9115  -0.8396  -0.7770  -0.7483  -0.5775
    -0.4215  -0.2421   0.8194   0.8454   1.6827   2.9068   3.1870   3.3087
     3.5259   4.2857   4.3940   4.5824   5.1679   5.5094   5.7257

          k = 0.0719-0.0685 0.0000 ( 34656 PWs)   bands (ev):

    -8.4468  -8.4007  -8.3741  -8.3345  -8.3175  -8.2454  -8.2447  -8.2062
    -8.1832  -8.1719  -8.1557  -8.1373  -8.1109  -8.1038  -8.0744  -8.0646
    -8.0324  -8.0225  -7.9836  -7.9810  -7.9607  -7.9499  -7.9439  -7.9167
    -7.9074  -7.8760  -7.8593  -7.8532  -7.8318  -7.6931  -5.8122  -5.6484
    -4.4331  -4.3696  -3.9275  -3.5304  -3.1028  -2.8363  -2.6539  -2.5885
    -2.4434  -2.1967  -2.1435  -2.0780  -2.0666  -2.0261  -1.9089  -1.7988
    -1.7055  -1.6358  -1.5764  -1.5398  -1.4135  -1.3763  -1.3336  -1.1786
    -1.1315  -1.0885  -1.0576  -0.9898  -0.9815  -0.8580  -0.7495  -0.6757
    -0.4351   0.1264   0.5708   0.9067   2.0950   2.1777   3.0498   3.3834
     3.4062   4.0370   4.9013   5.1305   5.2026   5.4979   5.7306

          k = 0.0719-0.0524 0.0000 ( 34671 PWs)   bands (ev):

    -8.4143  -8.4050  -8.3891  -8.3856  -8.2836  -8.2831  -8.2501  -8.2014
    -8.1718  -8.1488  -8.1248  -8.1101  -8.1069  -8.0910  -8.0684  -8.0622
    -8.0378  -8.0260  -8.0119  -8.0046  -7.9945  -7.9879  -7.9430  -7.9378
    -7.9141  -7.9092  -7.8921  -7.8788  -7.7897  -7.7314  -6.1121  -5.5193
    -4.5790  -4.2358  -3.7420  -3.6523  -2.9342  -2.7755  -2.5769  -2.5373
    -2.2322  -2.1851  -2.0685  -1.9777  -1.9324  -1.8337  -1.7931  -1.7285
    -1.6869  -1.6647  -1.5956  -1.5698  -1.5290  -1.4847  -1.3735  -1.3237
    -1.2429  -1.1752  -1.0579  -0.9510  -0.9148  -0.8847  -0.8194  -0.7705
    -0.0977   0.3978   0.6502   1.0177   1.3249   2.3784   2.7816   2.8313
     3.5378   4.3963   5.0070   5.1523   5.3958   5.5235   5.7203

          k =-0.0863 0.0435 0.0000 ( 34694 PWs)   bands (ev):

    -8.4100  -8.4100  -8.3912  -8.3912  -8.2810  -8.2810  -8.2261  -8.2261
    -8.1589  -8.1588  -8.1240  -8.1240  -8.0995  -8.0995  -8.0663  -8.0663
    -8.0323  -8.0323  -8.0058  -8.0058  -7.9919  -7.9918  -7.9375  -7.9375
    -7.9124  -7.9124  -7.8830  -7.8830  -7.7602  -7.7602  -5.8488  -5.8487
    -4.3807  -4.3807  -3.6737  -3.6737  -2.8428  -2.8428  -2.6048  -2.6047
    -2.2129  -2.2129  -2.0454  -2.0454  -1.8654  -1.8654  -1.7913  -1.7912
    -1.6811  -1.6811  -1.5876  -1.5876  -1.5167  -1.5167  -1.3443  -1.3443
    -1.2042  -1.2042  -0.9858  -0.9858  -0.8810  -0.8809  -0.8050  -0.8049
     0.3493   0.3493   0.8002   0.8002   1.5289   1.5289   3.1105   3.1105
     3.5650   3.5650   5.3356   5.3357   5.3849   5.3852   6.1087

          k =-0.0863 0.0596 0.0000 ( 34686 PWs)   bands (ev):

    -8.4530  -8.4279  -8.3733  -8.3659  -8.3216  -8.2636  -8.2507  -8.2048
    -8.1799  -8.1690  -8.1598  -8.1574  -8.1275  -8.1102  -8.0862  -8.0619
    -8.0251  -8.0147  -7.9840  -7.9805  -7.9594  -7.9550  -7.9458  -7.9188
    -7.9023  -7.8817  -7.8533  -7.8533  -7.7984  -7.7093  -6.0260  -5.5975
    -4.5069  -4.2151  -3.8506  -3.5360  -2.9765  -2.7975  -2.6571  -2.6409
    -2.3993  -2.1625  -2.1185  -2.1028  -2.0040  -1.9816  -1.8334  -1.7673
    -1.7004  -1.6510  -1.6261  -1.5795  -1.4203  -1.3532  -1.3311  -1.1643
    -1.1534  -1.1373  -0.9953  -0.9918  -0.9250  -0.8536  -0.7435  -0.7172
    -0.0591   0.5148   0.6360   0.8956   1.3216   2.3219   2.8152   2.9331
     3.4073   4.2352   4.3990   5.2022   5.4198   5.6312   5.8232

          k =-0.0863 0.0757 0.0000 ( 34667 PWs)   bands (ev):

    -8.5108  -8.4661  -8.3569  -8.3440  -8.3411  -8.3197  -8.2844  -8.2734
    -8.2178  -8.2104  -8.1978  -8.1446  -8.1434  -8.1018  -8.0477  -8.0252
    -8.0169  -8.0033  -7.9988  -7.9381  -7.9205  -7.9152  -7.9052  -7.8917
    -7.8697  -7.8338  -7.8338  -7.7974  -7.7657  -7.6370  -6.1254  -5.2786
    -4.5986  -4.1010  -4.0158  -3.4151  -3.1273  -2.8693  -2.8463  -2.6487
    -2.6089  -2.2957  -2.2765  -2.2088  -2.1460  -2.1134  -1.9583  -1.8897
    -1.7224  -1.6054  -1.5269  -1.4851  -1.3597  -1.3198  -1.2598  -1.0651
    -1.0517  -0.9805  -0.9241  -0.9227  -0.8276  -0.7917  -0.6487  -0.4562
    -0.4113   0.1099   0.6294   0.8878   2.0598   2.2166   2.8007   3.1837
     3.3186   3.7504   4.6120   5.0341   5.1652   5.3398   5.8783

          k =-0.0863 0.0918 0.0000 ( 34726 PWs)   bands (ev):

    -8.5746  -8.5025  -8.4086  -8.3811  -8.3799  -8.3243  -8.3134  -8.2705
    -8.2581  -8.2450  -8.2246  -8.1840  -8.0876  -8.0665  -8.0511  -8.0089
    -8.0042  -7.9751  -7.9702  -7.9160  -7.8775  -7.8718  -7.8667  -7.8552
    -7.8513  -7.8293  -7.7633  -7.7516  -7.6976  -7.5480  -6.1433  -4.9048
    -4.7015  -4.3846  -3.7988  -3.3170  -3.2457  -3.0822  -2.9550  -2.7663
    -2.6695  -2.4704  -2.4285  -2.3434  -2.2573  -2.2303  -2.1438  -1.9759
    -1.7972  -1.6321  -1.5017  -1.4206  -1.3522  -1.3135  -1.1509  -1.0281
    -0.9751  -0.9322  -0.8433  -0.8039  -0.8021  -0.6993  -0.4991  -0.4012
    -0.2742  -0.1354   0.5464   1.2323   1.7210   2.5068   2.7754   2.9745
     3.5031   4.0414   4.5435   4.6191   5.1796   5.2016   6.0051

          k =-0.0863 0.1079 0.0000 ( 34750 PWs)   bands (ev):

    -8.6311  -8.5313  -8.4823  -8.4555  -8.3962  -8.3129  -8.2977  -8.2905
    -8.2581  -8.2496  -8.2398  -8.2128  -8.0781  -8.0773  -8.0321  -8.0000
    -7.9772  -7.9414  -7.9227  -7.9080  -7.8813  -7.8539  -7.8321  -7.8101
    -7.8035  -7.7803  -7.7175  -7.7128  -7.6443  -7.4679  -6.0746  -4.9674
    -4.5042  -4.5009  -3.5977  -3.4186  -3.2687  -3.1879  -2.9764  -2.8719
    -2.7445  -2.6201  -2.5241  -2.4728  -2.3730  -2.3703  -2.3114  -2.0528
    -1.8826  -1.7068  -1.5896  -1.3718  -1.3188  -1.3040  -1.0722  -1.0428
    -0.9438  -0.9051  -0.8145  -0.7837  -0.7692  -0.6172  -0.5349  -0.3925
     0.0256   0.0973   0.4961   1.3550   1.6504   2.0517   2.7944   2.8377
     3.9045   4.1423   4.4971   4.7360   5.2007   5.3226   5.8791

          k =-0.0863 0.1240 0.0000 ( 34748 PWs)   bands (ev):

    -8.6693  -8.5496  -8.5298  -8.5024  -8.4049  -8.3308  -8.2926  -8.2782
    -8.2571  -8.2571  -8.2324  -8.2276  -8.0934  -8.0818  -8.0203  -7.9932
    -7.9416  -7.9271  -7.9248  -7.8910  -7.8582  -7.8459  -7.8071  -7.7845
    -7.7595  -7.7411  -7.6928  -7.6868  -7.6083  -7.4144  -5.9189  -5.3143
    -4.5005  -4.1228  -3.5934  -3.4754  -3.2358  -3.1921  -2.9727  -2.9291
    -2.8686  -2.7124  -2.5850  -2.5604  -2.5205  -2.5004  -2.3567  -2.0998
    -1.9760  -1.7543  -1.6699  -1.4006  -1.2939  -1.2854  -1.1025  -1.0627
    -0.8896  -0.8583  -0.8036  -0.7743  -0.7301  -0.6547  -0.5002  -0.3326
     0.2217   0.4316   0.4577   1.1294   1.5992   2.1799   2.4047   2.9741
     3.7406   3.7863   4.9004   5.2917   5.3509   5.7855   5.8899

          k =-0.0863-0.0531 0.0000 ( 34744 PWs)   bands (ev):

    -8.6828  -8.5558  -8.5461  -8.5183  -8.4074  -8.3392  -8.2885  -8.2762
    -8.2613  -8.2531  -8.2363  -8.2240  -8.0988  -8.0843  -8.0176  -7.9907
    -7.9298  -7.9267  -7.9193  -7.8932  -7.8436  -7.8407  -7.7975  -7.7759
    -7.7437  -7.7267  -7.6849  -7.6777  -7.5957  -7.3957  -5.7484  -5.5559
    -4.4877  -3.9332  -3.6632  -3.4491  -3.2030  -3.1867  -3.0531  -2.9438
    -2.8869  -2.7431  -2.6091  -2.5872  -2.5760  -2.5554  -2.3673  -2.1081
    -2.0239  -1.7668  -1.7017  -1.4302  -1.2903  -1.2747  -1.1109  -1.0720
    -0.8497  -0.8417  -0.7987  -0.7736  -0.7106  -0.7090  -0.4571  -0.3061
     0.2605   0.4412   0.6430   1.0533   1.5171   1.9054   2.9447   3.0871
     3.1915   3.5369   5.3784   5.5628   5.6339   5.8794   5.9893

     the Fermi energy is     0.4667 ev

!    total energy              =   -1004.44379489 Ry
     estimated scf accuracy    <       0.00000872 Ry
     smearing contrib. (-TS)   =      -0.02357094 Ry
     internal energy E=F+TS    =   -1004.42022395 Ry

     The total energy is F=E-TS. E is the sum of the following terms:
     one-electron contribution =   -8254.36703996 Ry
     hartree contribution      =    4208.09359915 Ry
     xc contribution           =    -291.31128248 Ry
     ewald contribution        =    3333.16449353 Ry
     electric field correction =       0.00000583 Ry

     convergence has been achieved in  13 iterations

     negative rho (up, down):  3.117E-03 0.000E+00

     Forces acting on atoms (cartesian axes, Ry/au):

     atom    1 type  1   force =    -0.00291424   -0.00180111   -0.01958003
     atom    2 type  1   force =    -0.00293214   -0.00180650   -0.01951459
     atom    3 type  2   force =     0.00148602    0.00091469    0.01754674
     atom    4 type  2   force =     0.00148929    0.00091910    0.01757891
     atom    5 type  1   force =     0.00660610    0.00406220   -0.00856773
     atom    6 type  1   force =     0.00660977    0.00405340   -0.00852198
     atom    7 type  2   force =    -0.00398599   -0.00245416    0.00891821
     atom    8 type  2   force =    -0.00398467   -0.00244111    0.00892597
     atom    9 type  1   force =     0.00044929    0.00028060    0.00102966
     atom   10 type  1   force =     0.00045908    0.00026160    0.00103234
     atom   11 type  2   force =    -0.00163746   -0.00099299    0.00057180
     atom   12 type  2   force =    -0.00164506   -0.00099574    0.00058071

     Total force =     0.043483     Total SCF correction =     0.005814
     SCF correction compared to forces is large: reduce conv_thr to get better values

     Writing output data file ./Cd2Pt2/Cd2Pt2_beef.save/

     init_run     :     84.00s CPU     84.56s WALL (       1 calls)
     electrons    :   2711.07s CPU   2723.68s WALL (       1 calls)
     forces       :     53.18s CPU     53.43s WALL (       1 calls)

     Called by init_run:
     wfcinit      :     72.31s CPU     72.62s WALL (       1 calls)
     potinit      :      7.83s CPU      7.91s WALL (       1 calls)
     hinit0       :      2.16s CPU      2.17s WALL (       1 calls)

     Called by electrons:
     c_bands      :   2421.68s CPU   2428.78s WALL (      14 calls)
     sum_band     :    261.98s CPU    265.00s WALL (      14 calls)
     v_of_rho     :     19.98s CPU     20.77s WALL (      14 calls)
     newd         :     14.29s CPU     16.05s WALL (      14 calls)
     mix_rho      :      0.50s CPU      0.52s WALL (      14 calls)
     vdW_kernel   :      5.69s CPU      5.70s WALL (       1 calls)

     Called by c_bands:
     init_us_2    :     10.66s CPU     10.72s WALL (    2220 calls)
     cegterg      :   2395.63s CPU   2401.14s WALL (    1036 calls)

     Called by *egterg:
     cdiaghg      :    121.57s CPU    121.61s WALL (    7151 calls)
     h_psi        :   1257.50s CPU   1262.55s WALL (    7299 calls)
     s_psi        :    433.49s CPU    433.57s WALL (    7299 calls)
     g_psi        :      1.12s CPU      1.12s WALL (    6189 calls)

     Called by h_psi:
     h_psi:calbec :    439.93s CPU    440.47s WALL (    7299 calls)
     vloc_psi     :    368.22s CPU    372.64s WALL (    7299 calls)
     add_vuspsi   :    444.35s CPU    444.42s WALL (    7299 calls)

     General routines
     calbec       :    645.93s CPU    646.76s WALL (    8631 calls)
     fft          :     10.40s CPU     10.71s WALL (     942 calls)
     ffts         :      0.05s CPU      0.05s WALL (      28 calls)
     fftw         :    415.66s CPU    420.71s WALL (  525506 calls)
     interpolate  :      0.19s CPU      0.19s WALL (      14 calls)

     Parallel routines
     fft_scatt_xy :     34.97s CPU     35.39s WALL (  526476 calls)
     fft_scatt_yz :     65.78s CPU     66.90s WALL (  526476 calls)

     PWSCF        :  47m35.88s CPU  48m 3.32s WALL


   This run was terminated on:  17:59:16  23Jun2022            

=------------------------------------------------------------------------------=
   JOB DONE.
=------------------------------------------------------------------------------=
