
     Program PWSCF v.6.6 starts on 26Jun2022 at 20:10:11 

     This program is part of the open-source Quantum ESPRESSO suite
     for quantum simulation of materials; please cite
         "P. Giannozzi et al., J. Phys.:Condens. Matter 21 395502 (2009);
         "P. Giannozzi et al., J. Phys.:Condens. Matter 29 465901 (2017);
          URL http://www.quantum-espresso.org", 
     in publications or presentations arising from this work. More details at
     http://www.quantum-espresso.org/quote

     Parallel version (MPI), running on    37 processors

     MPI processes distributed on     1 nodes
     R & G space division:  proc/nbgrp/npool/nimage =      37
     Fft bands division:     nmany     =       1
     Reading input from Co2Au2.in
Warning: card &CELL ignored
Warning: card / ignored

     Current dimensions of program PWSCF are:
     Max number of different atomic species (ntypx) = 10
     Max number of k-points (npk) =  40000
     Max angular momentum in pseudopotentials (lmaxx) =  3
     Presently stress not available with electric field and gates

     Message from routine cell_base_init:
     DEPRECATED: use true lattice parameter, not A to a.u. conversion factor
     file Co.pbe-spn-rrkjus_psl.0.3.1.UPF: wavefunction(s)  3P renormalized

     **************************************************************************
     Initializing libbeef V0.1.2 with the BEEF-vdW functional.
     Citation: Wellendorff et al., PRB 85, 235149 (2012).
     **************************************************************************


     IMPORTANT: XC functional enforced from input :
     Exchange-correlation= BEEF-VDW
                           (   1   4  43  14   2   0   0)
     Any further DFT definition will be discarded
     Please, verify this is what you really want


     Subspace diagonalization in iterative solution of the eigenvalue problem:
     a serial algorithm will be used


     Parallelization info
     --------------------
     sticks:   dense  smooth     PW     G-vecs:    dense   smooth      PW
     Min         111      44     13                25843     6530    1005
     Max         112      45     14                25870     6553    1015
     Sum        4141    1651    483               956823   242065   37403



     bravais-lattice index     =            0
     lattice parameter (alat)  =       1.8897  a.u.
     unit-cell volume          =    4378.5638 (a.u.)^3
     number of atoms/cell      =           12
     number of atomic types    =            2
     number of electrons       =       168.00
     number of Kohn-Sham states=          101
     kinetic-energy cutoff     =      55.1240  Ry
     charge density cutoff     =     551.2396  Ry
     convergence threshold     =      1.0E-05
     mixing beta               =       0.1000
     number of iterations used =           10  plain     mixing
     Exchange-correlation= BEEF-VDW
                           (   1   4  43  14   2   0   0)

     celldm(1)=   1.889726  celldm(2)=   0.000000  celldm(3)=   0.000000
     celldm(4)=   0.000000  celldm(5)=   0.000000  celldm(6)=   0.000000

     crystal axes: (cart. coord. in units of alat)
               a(1) = (   5.499664   0.000000   0.000000 )  
               a(2) = (   2.661146   4.812962   0.000000 )  
               a(3) = (   0.000000   0.000000  24.512442 )  

     reciprocal axes: (cart. coord. in units 2 pi/alat)
               b(1) = (  0.181829 -0.100536  0.000000 )  
               b(2) = (  0.000000  0.207772  0.000000 )  
               b(3) = (  0.000000  0.000000  0.040796 )  


     PseudoPot. # 1 for Co read from file:
     ../pseudo/Co.pbe-spn-rrkjus_psl.0.3.1.UPF
     MD5 check sum: 99b21b1f85602741a4c0ed67614a7280
     Pseudo is Ultrasoft + core correction, Zval = 17.0
     Generated using "atomic" code by A. Dal Corso v.6.2.2
     Using radial grid of 1193 points,  6 beta functions with: 
                l(1) =   0
                l(2) =   0
                l(3) =   1
                l(4) =   1
                l(5) =   2
                l(6) =   2
     Q(r) pseudized with 0 coefficients 


     PseudoPot. # 2 for Au read from file:
     ../pseudo/Au.pbe-n-rrkjus_psl.1.0.0.UPF
     MD5 check sum: d7e77ba19504afed2c9b41c931dde4f0
     Pseudo is Ultrasoft + core correction, Zval = 11.0
     Generated using "atomic" code by A. Dal Corso v.6.3
     Using radial grid of 1279 points,  6 beta functions with: 
                l(1) =   0
                l(2) =   0
                l(3) =   1
                l(4) =   1
                l(5) =   2
                l(6) =   2
     Q(r) pseudized with 0 coefficients 


     atomic species   valence    mass     pseudopotential
        Co            17.00    58.93319     Co( 1.00)
        Au            11.00   196.96657     Au( 1.00)

     Starting magnetic structure 
     atomic species   magnetization
        Co           1.000
        Au           0.000

     No symmetry found



   Cartesian axes

     site n.     atom                  positions (alat units)
         1           Co  tau(   1) = (   0.0000000   0.0000000  10.0000000  )
         2           Co  tau(   2) = (   4.0804049   2.4064811  10.0000000  )
         3           Au  tau(   3) = (   2.7498320   0.0000000  10.0000000  )
         4           Au  tau(   4) = (   1.3305730   2.4064811  10.0000000  )
         5           Co  tau(   5) = (   5.4996639   3.2435108  12.2562209  )
         6           Co  tau(   6) = (   1.4192590   0.8370297  12.2562209  )
         7           Au  tau(   7) = (   2.7498320   3.2435108  12.2562209  )
         8           Au  tau(   8) = (   4.1690909   0.8370297  12.2562209  )
         9           Co  tau(   9) = (   2.6199356   1.5451477  14.3286099  )
        10           Co  tau(  10) = (   6.7005912   3.9517736  14.3290228  )
        11           Au  tau(  11) = (   5.4561510   1.5961856  14.6623493  )
        12           Au  tau(  12) = (   4.0369791   4.0025317  14.6623434  )

     number of k points=    74  Fermi-Dirac smearing, width (Ry)=  0.0100
                       cart. coord. in units 2pi/alat
        k(    1) = (   0.0000000   0.0000000   0.0000000), wk =   0.0069444
        k(    2) = (   0.0000000   0.0173144   0.0000000), wk =   0.0138889
        k(    3) = (   0.0000000   0.0346287   0.0000000), wk =   0.0138889
        k(    4) = (   0.0000000   0.0519431   0.0000000), wk =   0.0138889
        k(    5) = (   0.0000000   0.0692574   0.0000000), wk =   0.0138889
        k(    6) = (   0.0000000   0.0865718   0.0000000), wk =   0.0138889
        k(    7) = (   0.0000000  -0.1038861   0.0000000), wk =   0.0069444
        k(    8) = (   0.0151524  -0.0083780   0.0000000), wk =   0.0138889
        k(    9) = (   0.0151524   0.0089364   0.0000000), wk =   0.0138889
        k(   10) = (   0.0151524   0.0262507   0.0000000), wk =   0.0138889
        k(   11) = (   0.0151524   0.0435651   0.0000000), wk =   0.0138889
        k(   12) = (   0.0151524   0.0608794   0.0000000), wk =   0.0138889
        k(   13) = (   0.0151524   0.0781938   0.0000000), wk =   0.0138889
        k(   14) = (   0.0151524  -0.1122641   0.0000000), wk =   0.0138889
        k(   15) = (   0.0151524  -0.0949497   0.0000000), wk =   0.0138889
        k(   16) = (   0.0151524  -0.0776354   0.0000000), wk =   0.0138889
        k(   17) = (   0.0151524  -0.0603210   0.0000000), wk =   0.0138889
        k(   18) = (   0.0151524  -0.0430067   0.0000000), wk =   0.0138889
        k(   19) = (   0.0151524  -0.0256923   0.0000000), wk =   0.0138889
        k(   20) = (   0.0303049  -0.0167559   0.0000000), wk =   0.0138889
        k(   21) = (   0.0303049   0.0005584   0.0000000), wk =   0.0138889
        k(   22) = (   0.0303049   0.0178728   0.0000000), wk =   0.0138889
        k(   23) = (   0.0303049   0.0351871   0.0000000), wk =   0.0138889
        k(   24) = (   0.0303049   0.0525015   0.0000000), wk =   0.0138889
        k(   25) = (   0.0303049   0.0698158   0.0000000), wk =   0.0138889
        k(   26) = (   0.0303049  -0.1206421   0.0000000), wk =   0.0138889
        k(   27) = (   0.0303049  -0.1033277   0.0000000), wk =   0.0138889
        k(   28) = (   0.0303049  -0.0860134   0.0000000), wk =   0.0138889
        k(   29) = (   0.0303049  -0.0686990   0.0000000), wk =   0.0138889
        k(   30) = (   0.0303049  -0.0513847   0.0000000), wk =   0.0138889
        k(   31) = (   0.0303049  -0.0340703   0.0000000), wk =   0.0138889
        k(   32) = (   0.0454573  -0.0251339   0.0000000), wk =   0.0138889
        k(   33) = (   0.0454573  -0.0078196   0.0000000), wk =   0.0138889
        k(   34) = (   0.0454573   0.0094948   0.0000000), wk =   0.0138889
        k(   35) = (   0.0454573   0.0268092   0.0000000), wk =   0.0138889
        k(   36) = (   0.0454573   0.0441235   0.0000000), wk =   0.0138889
        k(   37) = (   0.0454573   0.0614379   0.0000000), wk =   0.0138889
        k(   38) = (   0.0454573  -0.1290200   0.0000000), wk =   0.0138889
        k(   39) = (   0.0454573  -0.1117057   0.0000000), wk =   0.0138889
        k(   40) = (   0.0454573  -0.0943913   0.0000000), wk =   0.0138889
        k(   41) = (   0.0454573  -0.0770770   0.0000000), wk =   0.0138889
        k(   42) = (   0.0454573  -0.0597626   0.0000000), wk =   0.0138889
        k(   43) = (   0.0454573  -0.0424483   0.0000000), wk =   0.0138889
        k(   44) = (   0.0606098  -0.0335119   0.0000000), wk =   0.0138889
        k(   45) = (   0.0606098  -0.0161975   0.0000000), wk =   0.0138889
        k(   46) = (   0.0606098   0.0011168   0.0000000), wk =   0.0138889
        k(   47) = (   0.0606098   0.0184312   0.0000000), wk =   0.0138889
        k(   48) = (   0.0606098   0.0357455   0.0000000), wk =   0.0138889
        k(   49) = (   0.0606098   0.0530599   0.0000000), wk =   0.0138889
        k(   50) = (   0.0606098  -0.1373980   0.0000000), wk =   0.0138889
        k(   51) = (   0.0606098  -0.1200837   0.0000000), wk =   0.0138889
        k(   52) = (   0.0606098  -0.1027693   0.0000000), wk =   0.0138889
        k(   53) = (   0.0606098  -0.0854550   0.0000000), wk =   0.0138889
        k(   54) = (   0.0606098  -0.0681406   0.0000000), wk =   0.0138889
        k(   55) = (   0.0606098  -0.0508262   0.0000000), wk =   0.0138889
        k(   56) = (   0.0757622  -0.0418899   0.0000000), wk =   0.0138889
        k(   57) = (   0.0757622  -0.0245755   0.0000000), wk =   0.0138889
        k(   58) = (   0.0757622  -0.0072611   0.0000000), wk =   0.0138889
        k(   59) = (   0.0757622   0.0100532   0.0000000), wk =   0.0138889
        k(   60) = (   0.0757622   0.0273676   0.0000000), wk =   0.0138889
        k(   61) = (   0.0757622   0.0446819   0.0000000), wk =   0.0138889
        k(   62) = (   0.0757622  -0.1457760   0.0000000), wk =   0.0138889
        k(   63) = (   0.0757622  -0.1284616   0.0000000), wk =   0.0138889
        k(   64) = (   0.0757622  -0.1111473   0.0000000), wk =   0.0138889
        k(   65) = (   0.0757622  -0.0938329   0.0000000), wk =   0.0138889
        k(   66) = (   0.0757622  -0.0765186   0.0000000), wk =   0.0138889
        k(   67) = (   0.0757622  -0.0592042   0.0000000), wk =   0.0138889
        k(   68) = (  -0.0909146   0.0502678   0.0000000), wk =   0.0069444
        k(   69) = (  -0.0909146   0.0675822   0.0000000), wk =   0.0138889
        k(   70) = (  -0.0909146   0.0848965   0.0000000), wk =   0.0138889
        k(   71) = (  -0.0909146   0.1022109   0.0000000), wk =   0.0138889
        k(   72) = (  -0.0909146   0.1195252   0.0000000), wk =   0.0138889
        k(   73) = (  -0.0909146   0.1368396   0.0000000), wk =   0.0138889
        k(   74) = (  -0.0909146  -0.0536183   0.0000000), wk =   0.0069444

     Dense  grid:   956823 G-vectors     FFT dimensions: (  80,  80, 360)

     Smooth grid:   242065 G-vectors     FFT dimensions: (  50,  50, 225)

     Estimated max dynamical RAM per process >     303.53 MB

     Estimated total dynamical RAM >      10.97 GB

     Check: negative core charge=   -0.000005
     Generating pointlists ...
     new r_m :   1.0302 (alat units)  1.9469 (a.u.) for type    1
     new r_m :   1.1066 (alat units)  2.0911 (a.u.) for type    2

     Initial potential from superposition of free atoms

     starting charge  167.99764, renormalised to  168.00000


     %%%%%%%%%%%%%%%%%%%%%%%%%%%%%%%%%%%%%%%%%%%%%%%%%%%%%%%%%%%%%%%%%%%%%%%%
     %                                                                      %
     % You are using vdW-DF, which was implemented by the Thonhauser group. %
     % Please cite the following two papers that made this development      %
     % possible and the two reviews that describe the various versions:     %
     %                                                                      %
     %   T. Thonhauser et al., PRL 115, 136402 (2015).                      %
     %   T. Thonhauser et al., PRB 76, 125112 (2007).                       %
     %   K. Berland et al., Rep. Prog. Phys. 78, 066501 (2015).             %
     %   D.C. Langreth et al., J. Phys.: Condens. Matter 21, 084203 (2009). %
     %                                                                      %
     %                                                                      %
     % If you are calculating the stress with vdW-DF, please also cite:     %
     %                                                                      %
     %   R. Sabatini et al., J. Phys.: Condens. Matter 24, 424209 (2012).   %
     %                                                                      %
     %%%%%%%%%%%%%%%%%%%%%%%%%%%%%%%%%%%%%%%%%%%%%%%%%%%%%%%%%%%%%%%%%%%%%%%%



     Adding external electric field

     Computed dipole along edir(3) : 
        Dipole               -0.0001 Ry au,         -0.0001 Debye
        Dipole field         -0.0000 Ry au, 

        Potential amp.        0.0000 Ry
        Total length         45.1638 bohr


     Adding external electric field

     Computed dipole along edir(3) : 
        Dipole               -0.0001 Ry au,         -0.0001 Debye
        Dipole field         -0.0000 Ry au, 

        Potential amp.        0.0000 Ry
        Total length         45.1638 bohr

     Starting wfcs are  114 randomized atomic wfcs

     total cpu time spent up to now is      193.1 secs

     Self-consistent Calculation

     iteration #  1     ecut=    55.12 Ry     beta= 0.10
     Davidson diagonalization with overlap
     ethr =  1.00E-02,  avg # of iterations =  9.6

     Adding external electric field

     Computed dipole along edir(3) : 
        Dipole               -0.2229 Ry au,         -0.5665 Debye
        Dipole field         -0.0006 Ry au, 

        Potential amp.        0.0578 Ry
        Total length         45.1638 bohr


     Adding external electric field

     Computed dipole along edir(3) : 
        Dipole               -0.2229 Ry au,         -0.5665 Debye
        Dipole field         -0.0006 Ry au, 

        Potential amp.        0.0578 Ry
        Total length         45.1638 bohr


     total cpu time spent up to now is      975.7 secs

     total energy              =   -2252.23496581 Ry
     estimated scf accuracy    <      39.10624280 Ry

     total magnetization       =    31.95 Bohr mag/cell
     absolute magnetization    =    33.75 Bohr mag/cell

     iteration #  2     ecut=    55.12 Ry     beta= 0.10
     Davidson diagonalization with overlap
     ethr =  1.00E-02,  avg # of iterations =  1.5

     Adding external electric field

     Computed dipole along edir(3) : 
        Dipole                0.1702 Ry au,          0.4325 Debye
        Dipole field          0.0005 Ry au, 

        Potential amp.       -0.0441 Ry
        Total length         45.1638 bohr


     Adding external electric field

     Computed dipole along edir(3) : 
        Dipole                0.1702 Ry au,          0.4325 Debye
        Dipole field          0.0005 Ry au, 

        Potential amp.       -0.0441 Ry
        Total length         45.1638 bohr


     total cpu time spent up to now is     1341.3 secs

     total energy              =   -2269.46819713 Ry
     estimated scf accuracy    <      27.62716619 Ry

     total magnetization       =    30.77 Bohr mag/cell
     absolute magnetization    =    32.56 Bohr mag/cell

     iteration #  3     ecut=    55.12 Ry     beta= 0.10
     Davidson diagonalization with overlap
     ethr =  1.00E-02,  avg # of iterations =  3.9

     Adding external electric field

     Computed dipole along edir(3) : 
        Dipole                0.1347 Ry au,          0.3424 Debye
        Dipole field          0.0004 Ry au, 

        Potential amp.       -0.0349 Ry
        Total length         45.1638 bohr


     Adding external electric field

     Computed dipole along edir(3) : 
        Dipole                0.1347 Ry au,          0.3424 Debye
        Dipole field          0.0004 Ry au, 

        Potential amp.       -0.0349 Ry
        Total length         45.1638 bohr


     total cpu time spent up to now is     1895.0 secs

     total energy              =   -2272.14110486 Ry
     estimated scf accuracy    <      60.19741314 Ry

     total magnetization       =    10.23 Bohr mag/cell
     absolute magnetization    =    11.42 Bohr mag/cell

     iteration #  4     ecut=    55.12 Ry     beta= 0.10
     Davidson diagonalization with overlap
     ethr =  1.00E-02,  avg # of iterations =  1.5

     Adding external electric field

     Computed dipole along edir(3) : 
        Dipole               -0.5016 Ry au,         -1.2749 Debye
        Dipole field         -0.0014 Ry au, 

        Potential amp.        0.1300 Ry
        Total length         45.1638 bohr


     Adding external electric field

     Computed dipole along edir(3) : 
        Dipole               -0.5016 Ry au,         -1.2749 Debye
        Dipole field         -0.0014 Ry au, 

        Potential amp.        0.1300 Ry
        Total length         45.1638 bohr


     total cpu time spent up to now is     2258.7 secs

     total energy              =   -2272.72150822 Ry
     estimated scf accuracy    <      61.39234580 Ry

     total magnetization       =     9.93 Bohr mag/cell
     absolute magnetization    =    10.87 Bohr mag/cell

     iteration #  5     ecut=    55.12 Ry     beta= 0.10
     Davidson diagonalization with overlap
     ethr =  1.00E-02,  avg # of iterations =  1.6

     Adding external electric field

     Computed dipole along edir(3) : 
        Dipole               -0.6068 Ry au,         -1.5424 Debye
        Dipole field         -0.0017 Ry au, 

        Potential amp.        0.1573 Ry
        Total length         45.1638 bohr


     Adding external electric field

     Computed dipole along edir(3) : 
        Dipole               -0.6068 Ry au,         -1.5424 Debye
        Dipole field         -0.0017 Ry au, 

        Potential amp.        0.1573 Ry
        Total length         45.1638 bohr


     total cpu time spent up to now is     2619.0 secs

     total energy              =   -2272.31633132 Ry
     estimated scf accuracy    <     118.44779170 Ry

     total magnetization       =     6.37 Bohr mag/cell
     absolute magnetization    =     8.84 Bohr mag/cell

     iteration #  6     ecut=    55.12 Ry     beta= 0.10
     Davidson diagonalization with overlap
     ethr =  1.00E-02,  avg # of iterations =  1.2

     Adding external electric field

     Computed dipole along edir(3) : 
        Dipole               -0.5139 Ry au,         -1.3061 Debye
        Dipole field         -0.0015 Ry au, 

        Potential amp.        0.1332 Ry
        Total length         45.1638 bohr


     Adding external electric field

     Computed dipole along edir(3) : 
        Dipole               -0.5139 Ry au,         -1.3061 Debye
        Dipole field         -0.0015 Ry au, 

        Potential amp.        0.1332 Ry
        Total length         45.1638 bohr


     total cpu time spent up to now is     2962.1 secs

     total energy              =   -2276.08750215 Ry
     estimated scf accuracy    <     133.35579904 Ry

     total magnetization       =     5.91 Bohr mag/cell
     absolute magnetization    =     8.50 Bohr mag/cell

     iteration #  7     ecut=    55.12 Ry     beta= 0.10
     Davidson diagonalization with overlap
     ethr =  1.00E-02,  avg # of iterations =  1.8

     Adding external electric field

     Computed dipole along edir(3) : 
        Dipole               -0.3937 Ry au,         -1.0006 Debye
        Dipole field         -0.0011 Ry au, 

        Potential amp.        0.1020 Ry
        Total length         45.1638 bohr


     Adding external electric field

     Computed dipole along edir(3) : 
        Dipole               -0.3937 Ry au,         -1.0006 Debye
        Dipole field         -0.0011 Ry au, 

        Potential amp.        0.1020 Ry
        Total length         45.1638 bohr


     total cpu time spent up to now is     3364.1 secs

     total energy              =   -2277.67772899 Ry
     estimated scf accuracy    <     152.63597107 Ry

     total magnetization       =     4.73 Bohr mag/cell
     absolute magnetization    =     7.61 Bohr mag/cell

     iteration #  8     ecut=    55.12 Ry     beta= 0.10
     Davidson diagonalization with overlap
     ethr =  1.00E-02,  avg # of iterations =  1.2

     Adding external electric field

     Computed dipole along edir(3) : 
        Dipole               -0.3299 Ry au,         -0.8386 Debye
        Dipole field         -0.0009 Ry au, 

        Potential amp.        0.0855 Ry
        Total length         45.1638 bohr


     Adding external electric field

     Computed dipole along edir(3) : 
        Dipole               -0.3299 Ry au,         -0.8386 Debye
        Dipole field         -0.0009 Ry au, 

        Potential amp.        0.0855 Ry
        Total length         45.1638 bohr


     total cpu time spent up to now is     3713.2 secs

     total energy              =   -2279.39266834 Ry
     estimated scf accuracy    <      72.98730685 Ry

     total magnetization       =    11.86 Bohr mag/cell
     absolute magnetization    =    13.59 Bohr mag/cell

     iteration #  9     ecut=    55.12 Ry     beta= 0.10
     Davidson diagonalization with overlap
     ethr =  1.00E-02,  avg # of iterations =  1.0

     Adding external electric field

     Computed dipole along edir(3) : 
        Dipole               -0.1341 Ry au,         -0.3409 Debye
        Dipole field         -0.0004 Ry au, 

        Potential amp.        0.0348 Ry
        Total length         45.1638 bohr


     Adding external electric field

     Computed dipole along edir(3) : 
        Dipole               -0.1341 Ry au,         -0.3409 Debye
        Dipole field         -0.0004 Ry au, 

        Potential amp.        0.0348 Ry
        Total length         45.1638 bohr


     total cpu time spent up to now is     4080.0 secs

     total energy              =   -2281.20452481 Ry
     estimated scf accuracy    <      62.35968619 Ry

     total magnetization       =    11.08 Bohr mag/cell
     absolute magnetization    =    12.49 Bohr mag/cell

     iteration # 10     ecut=    55.12 Ry     beta= 0.10
     Davidson diagonalization with overlap
     ethr =  1.00E-02,  avg # of iterations =  1.5

     Adding external electric field

     Computed dipole along edir(3) : 
        Dipole               -0.1968 Ry au,         -0.5003 Debye
        Dipole field         -0.0006 Ry au, 

        Potential amp.        0.0510 Ry
        Total length         45.1638 bohr


     Adding external electric field

     Computed dipole along edir(3) : 
        Dipole               -0.1968 Ry au,         -0.5003 Debye
        Dipole field         -0.0006 Ry au, 

        Potential amp.        0.0510 Ry
        Total length         45.1638 bohr


     total cpu time spent up to now is     4448.9 secs

     total energy              =   -2283.82628590 Ry
     estimated scf accuracy    <      25.56755653 Ry

     total magnetization       =    17.99 Bohr mag/cell
     absolute magnetization    =    19.10 Bohr mag/cell

     iteration # 11     ecut=    55.12 Ry     beta= 0.10
     Davidson diagonalization with overlap
     ethr =  1.00E-02,  avg # of iterations =  1.5

     Adding external electric field

     Computed dipole along edir(3) : 
        Dipole               -0.2977 Ry au,         -0.7568 Debye
        Dipole field         -0.0009 Ry au, 

        Potential amp.        0.0772 Ry
        Total length         45.1638 bohr


     Adding external electric field

     Computed dipole along edir(3) : 
        Dipole               -0.2977 Ry au,         -0.7568 Debye
        Dipole field         -0.0009 Ry au, 

        Potential amp.        0.0772 Ry
        Total length         45.1638 bohr


     total cpu time spent up to now is     4834.3 secs

     total energy              =   -2284.03227091 Ry
     estimated scf accuracy    <      30.27272295 Ry

     total magnetization       =    16.87 Bohr mag/cell
     absolute magnetization    =    17.86 Bohr mag/cell

     iteration # 12     ecut=    55.12 Ry     beta= 0.10
     Davidson diagonalization with overlap
     ethr =  1.00E-02,  avg # of iterations =  1.0

     Adding external electric field

     Computed dipole along edir(3) : 
        Dipole               -0.2656 Ry au,         -0.6751 Debye
        Dipole field         -0.0008 Ry au, 

        Potential amp.        0.0689 Ry
        Total length         45.1638 bohr


     Adding external electric field

     Computed dipole along edir(3) : 
        Dipole               -0.2656 Ry au,         -0.6751 Debye
        Dipole field         -0.0008 Ry au, 

        Potential amp.        0.0689 Ry
        Total length         45.1638 bohr


     total cpu time spent up to now is     5170.7 secs

     total energy              =   -2284.94577376 Ry
     estimated scf accuracy    <      19.44438177 Ry

     total magnetization       =    14.33 Bohr mag/cell
     absolute magnetization    =    15.56 Bohr mag/cell

     iteration # 13     ecut=    55.12 Ry     beta= 0.10
     Davidson diagonalization with overlap
     ethr =  1.00E-02,  avg # of iterations =  1.1

     Adding external electric field

     Computed dipole along edir(3) : 
        Dipole               -0.6019 Ry au,         -1.5300 Debye
        Dipole field         -0.0017 Ry au, 

        Potential amp.        0.1560 Ry
        Total length         45.1638 bohr


     Adding external electric field

     Computed dipole along edir(3) : 
        Dipole               -0.6019 Ry au,         -1.5300 Debye
        Dipole field         -0.0017 Ry au, 

        Potential amp.        0.1560 Ry
        Total length         45.1638 bohr


     total cpu time spent up to now is     5506.8 secs

     total energy              =   -2282.44541970 Ry
     estimated scf accuracy    <      27.97666351 Ry

     total magnetization       =    12.98 Bohr mag/cell
     absolute magnetization    =    14.24 Bohr mag/cell

     iteration # 14     ecut=    55.12 Ry     beta= 0.10
     Davidson diagonalization with overlap
     ethr =  1.00E-02,  avg # of iterations =  1.0

     Adding external electric field

     Computed dipole along edir(3) : 
        Dipole               -0.7692 Ry au,         -1.9550 Debye
        Dipole field         -0.0022 Ry au, 

        Potential amp.        0.1994 Ry
        Total length         45.1638 bohr


     Adding external electric field

     Computed dipole along edir(3) : 
        Dipole               -0.7692 Ry au,         -1.9550 Debye
        Dipole field         -0.0022 Ry au, 

        Potential amp.        0.1994 Ry
        Total length         45.1638 bohr


     total cpu time spent up to now is     5857.8 secs

     total energy              =   -2279.74570627 Ry
     estimated scf accuracy    <      23.24752916 Ry

     total magnetization       =    17.78 Bohr mag/cell
     absolute magnetization    =    19.23 Bohr mag/cell

     iteration # 15     ecut=    55.12 Ry     beta= 0.10
     Davidson diagonalization with overlap
     ethr =  1.00E-02,  avg # of iterations =  1.1

     Adding external electric field

     Computed dipole along edir(3) : 
        Dipole               -0.3902 Ry au,         -0.9917 Debye
        Dipole field         -0.0011 Ry au, 

        Potential amp.        0.1011 Ry
        Total length         45.1638 bohr


     Adding external electric field

     Computed dipole along edir(3) : 
        Dipole               -0.3902 Ry au,         -0.9917 Debye
        Dipole field         -0.0011 Ry au, 

        Potential amp.        0.1011 Ry
        Total length         45.1638 bohr


     total cpu time spent up to now is     6197.6 secs

     total energy              =   -2280.57386108 Ry
     estimated scf accuracy    <      61.77861223 Ry

     total magnetization       =    10.57 Bohr mag/cell
     absolute magnetization    =    11.59 Bohr mag/cell

     iteration # 16     ecut=    55.12 Ry     beta= 0.10
     Davidson diagonalization with overlap
     ethr =  1.00E-02,  avg # of iterations =  1.0

     Adding external electric field

     Computed dipole along edir(3) : 
        Dipole               -0.3482 Ry au,         -0.8851 Debye
        Dipole field         -0.0010 Ry au, 

        Potential amp.        0.0903 Ry
        Total length         45.1638 bohr


     Adding external electric field

     Computed dipole along edir(3) : 
        Dipole               -0.3482 Ry au,         -0.8851 Debye
        Dipole field         -0.0010 Ry au, 

        Potential amp.        0.0903 Ry
        Total length         45.1638 bohr


     total cpu time spent up to now is     6534.9 secs

     total energy              =   -2281.90325573 Ry
     estimated scf accuracy    <      14.10108128 Ry

     total magnetization       =    11.01 Bohr mag/cell
     absolute magnetization    =    12.28 Bohr mag/cell

     iteration # 17     ecut=    55.12 Ry     beta= 0.10
     Davidson diagonalization with overlap
     ethr =  8.39E-03,  avg # of iterations =  1.0

     Adding external electric field

     Computed dipole along edir(3) : 
        Dipole               -0.0921 Ry au,         -0.2341 Debye
        Dipole field         -0.0003 Ry au, 

        Potential amp.        0.0239 Ry
        Total length         45.1638 bohr


     Adding external electric field

     Computed dipole along edir(3) : 
        Dipole               -0.0921 Ry au,         -0.2341 Debye
        Dipole field         -0.0003 Ry au, 

        Potential amp.        0.0239 Ry
        Total length         45.1638 bohr


     total cpu time spent up to now is     6871.9 secs

     total energy              =   -2283.44698498 Ry
     estimated scf accuracy    <      31.75729980 Ry

     total magnetization       =    10.81 Bohr mag/cell
     absolute magnetization    =    12.24 Bohr mag/cell

     iteration # 18     ecut=    55.12 Ry     beta= 0.10
     Davidson diagonalization with overlap
     ethr =  8.39E-03,  avg # of iterations =  1.0

     Adding external electric field

     Computed dipole along edir(3) : 
        Dipole                0.1142 Ry au,          0.2903 Debye
        Dipole field          0.0003 Ry au, 

        Potential amp.       -0.0296 Ry
        Total length         45.1638 bohr


     Adding external electric field

     Computed dipole along edir(3) : 
        Dipole                0.1142 Ry au,          0.2903 Debye
        Dipole field          0.0003 Ry au, 

        Potential amp.       -0.0296 Ry
        Total length         45.1638 bohr


     total cpu time spent up to now is     7224.1 secs

     total energy              =   -2286.86674174 Ry
     estimated scf accuracy    <       7.72085554 Ry

     total magnetization       =    11.59 Bohr mag/cell
     absolute magnetization    =    13.08 Bohr mag/cell

     iteration # 19     ecut=    55.12 Ry     beta= 0.10
     Davidson diagonalization with overlap
     ethr =  4.60E-03,  avg # of iterations =  1.0

     Adding external electric field

     Computed dipole along edir(3) : 
        Dipole                0.1124 Ry au,          0.2857 Debye
        Dipole field          0.0003 Ry au, 

        Potential amp.       -0.0291 Ry
        Total length         45.1638 bohr


     Adding external electric field

     Computed dipole along edir(3) : 
        Dipole                0.1124 Ry au,          0.2857 Debye
        Dipole field          0.0003 Ry au, 

        Potential amp.       -0.0291 Ry
        Total length         45.1638 bohr


     total cpu time spent up to now is     7560.8 secs

     total energy              =   -2286.99870670 Ry
     estimated scf accuracy    <       5.01591578 Ry

     total magnetization       =    11.69 Bohr mag/cell
     absolute magnetization    =    13.22 Bohr mag/cell

     iteration # 20     ecut=    55.12 Ry     beta= 0.10
     Davidson diagonalization with overlap
     ethr =  2.99E-03,  avg # of iterations =  1.0

     Adding external electric field

     Computed dipole along edir(3) : 
        Dipole                0.0777 Ry au,          0.1974 Debye
        Dipole field          0.0002 Ry au, 

        Potential amp.       -0.0201 Ry
        Total length         45.1638 bohr


     Adding external electric field

     Computed dipole along edir(3) : 
        Dipole                0.0777 Ry au,          0.1974 Debye
        Dipole field          0.0002 Ry au, 

        Potential amp.       -0.0201 Ry
        Total length         45.1638 bohr


     total cpu time spent up to now is     7911.1 secs

     total energy              =   -2285.65543951 Ry
     estimated scf accuracy    <       3.11118479 Ry

     total magnetization       =    11.57 Bohr mag/cell
     absolute magnetization    =    13.09 Bohr mag/cell

     iteration # 21     ecut=    55.12 Ry     beta= 0.10
     Davidson diagonalization with overlap
     ethr =  1.85E-03,  avg # of iterations =  1.3

     Adding external electric field

     Computed dipole along edir(3) : 
        Dipole                0.0457 Ry au,          0.1160 Debye
        Dipole field          0.0001 Ry au, 

        Potential amp.       -0.0118 Ry
        Total length         45.1638 bohr


     Adding external electric field

     Computed dipole along edir(3) : 
        Dipole                0.0457 Ry au,          0.1160 Debye
        Dipole field          0.0001 Ry au, 

        Potential amp.       -0.0118 Ry
        Total length         45.1638 bohr


     total cpu time spent up to now is     8251.6 secs

     total energy              =   -2286.53428045 Ry
     estimated scf accuracy    <       1.01496911 Ry

     total magnetization       =    11.53 Bohr mag/cell
     absolute magnetization    =    12.97 Bohr mag/cell

     iteration # 22     ecut=    55.12 Ry     beta= 0.10
     Davidson diagonalization with overlap
     ethr =  6.04E-04,  avg # of iterations =  1.7

     Adding external electric field

     Computed dipole along edir(3) : 
        Dipole                0.0405 Ry au,          0.1030 Debye
        Dipole field          0.0001 Ry au, 

        Potential amp.       -0.0105 Ry
        Total length         45.1638 bohr


     Adding external electric field

     Computed dipole along edir(3) : 
        Dipole                0.0405 Ry au,          0.1030 Debye
        Dipole field          0.0001 Ry au, 

        Potential amp.       -0.0105 Ry
        Total length         45.1638 bohr


     total cpu time spent up to now is     8599.3 secs

     total energy              =   -2285.06896652 Ry
     estimated scf accuracy    <       0.30222192 Ry

     total magnetization       =    11.69 Bohr mag/cell
     absolute magnetization    =    13.22 Bohr mag/cell

     iteration # 23     ecut=    55.12 Ry     beta= 0.10
     Davidson diagonalization with overlap
     c_bands:  2 eigenvalues not converged
     ethr =  1.80E-04,  avg # of iterations =  4.4

     Adding external electric field

     Computed dipole along edir(3) : 
        Dipole                0.0013 Ry au,          0.0033 Debye
        Dipole field          0.0000 Ry au, 

        Potential amp.       -0.0003 Ry
        Total length         45.1638 bohr


     Adding external electric field

     Computed dipole along edir(3) : 
        Dipole                0.0013 Ry au,          0.0033 Debye
        Dipole field          0.0000 Ry au, 

        Potential amp.       -0.0003 Ry
        Total length         45.1638 bohr


     total cpu time spent up to now is     8989.1 secs

     total energy              =   -2284.09574274 Ry
     estimated scf accuracy    <       0.09831269 Ry

     total magnetization       =    11.69 Bohr mag/cell
     absolute magnetization    =    13.21 Bohr mag/cell

     iteration # 24     ecut=    55.12 Ry     beta= 0.10
     Davidson diagonalization with overlap
     c_bands:  1 eigenvalues not converged
     c_bands:  1 eigenvalues not converged
     c_bands:  1 eigenvalues not converged
     c_bands:  1 eigenvalues not converged
     c_bands:  1 eigenvalues not converged
     c_bands:  1 eigenvalues not converged
     c_bands:  1 eigenvalues not converged
     c_bands:  1 eigenvalues not converged
     c_bands:  1 eigenvalues not converged
     c_bands:  2 eigenvalues not converged
     c_bands:  1 eigenvalues not converged
     c_bands:  2 eigenvalues not converged
     c_bands:  1 eigenvalues not converged
     ethr =  5.85E-05,  avg # of iterations = 11.2

     Adding external electric field

     Computed dipole along edir(3) : 
        Dipole               -0.0141 Ry au,         -0.0357 Debye
        Dipole field         -0.0000 Ry au, 

        Potential amp.        0.0036 Ry
        Total length         45.1638 bohr


     Adding external electric field

     Computed dipole along edir(3) : 
        Dipole               -0.0141 Ry au,         -0.0357 Debye
        Dipole field         -0.0000 Ry au, 

        Potential amp.        0.0036 Ry
        Total length         45.1638 bohr


     total cpu time spent up to now is     9457.6 secs

     total energy              =   -2282.39782663 Ry
     estimated scf accuracy    <       0.09771281 Ry

     total magnetization       =    11.67 Bohr mag/cell
     absolute magnetization    =    13.22 Bohr mag/cell

     iteration # 25     ecut=    55.12 Ry     beta= 0.10
     Davidson diagonalization with overlap
     c_bands:  1 eigenvalues not converged
     c_bands:  2 eigenvalues not converged
     ethr =  5.82E-05,  avg # of iterations =  2.4

     Adding external electric field

     Computed dipole along edir(3) : 
        Dipole               -0.0461 Ry au,         -0.1171 Debye
        Dipole field         -0.0001 Ry au, 

        Potential amp.        0.0119 Ry
        Total length         45.1638 bohr


     Adding external electric field

     Computed dipole along edir(3) : 
        Dipole               -0.0461 Ry au,         -0.1171 Debye
        Dipole field         -0.0001 Ry au, 

        Potential amp.        0.0119 Ry
        Total length         45.1638 bohr


     total cpu time spent up to now is     9854.5 secs

     total energy              =   -2280.92135284 Ry
     estimated scf accuracy    <       0.13637790 Ry

     total magnetization       =    11.42 Bohr mag/cell
     absolute magnetization    =    13.00 Bohr mag/cell

     iteration # 26     ecut=    55.12 Ry     beta= 0.10
     Davidson diagonalization with overlap
     ethr =  5.82E-05,  avg # of iterations =  2.0

     Adding external electric field

     Computed dipole along edir(3) : 
        Dipole               -0.0379 Ry au,         -0.0962 Debye
        Dipole field         -0.0001 Ry au, 

        Potential amp.        0.0098 Ry
        Total length         45.1638 bohr


     Adding external electric field

     Computed dipole along edir(3) : 
        Dipole               -0.0379 Ry au,         -0.0962 Debye
        Dipole field         -0.0001 Ry au, 

        Potential amp.        0.0098 Ry
        Total length         45.1638 bohr


     total cpu time spent up to now is    10244.4 secs

     total energy              =   -2279.44081263 Ry
     estimated scf accuracy    <       0.11192084 Ry

     total magnetization       =    11.50 Bohr mag/cell
     absolute magnetization    =    13.10 Bohr mag/cell

     iteration # 27     ecut=    55.12 Ry     beta= 0.10
     Davidson diagonalization with overlap
     ethr =  5.82E-05,  avg # of iterations =  1.3

     Adding external electric field

     Computed dipole along edir(3) : 
        Dipole               -0.0385 Ry au,         -0.0978 Debye
        Dipole field         -0.0001 Ry au, 

        Potential amp.        0.0100 Ry
        Total length         45.1638 bohr


     Adding external electric field

     Computed dipole along edir(3) : 
        Dipole               -0.0385 Ry au,         -0.0978 Debye
        Dipole field         -0.0001 Ry au, 

        Potential amp.        0.0100 Ry
        Total length         45.1638 bohr


     total cpu time spent up to now is    10610.5 secs

     total energy              =   -2278.97256185 Ry
     estimated scf accuracy    <       0.06145739 Ry

     total magnetization       =    11.70 Bohr mag/cell
     absolute magnetization    =    13.28 Bohr mag/cell

     iteration # 28     ecut=    55.12 Ry     beta= 0.10
     Davidson diagonalization with overlap
     ethr =  3.66E-05,  avg # of iterations =  1.6

     Adding external electric field

     Computed dipole along edir(3) : 
        Dipole               -0.0409 Ry au,         -0.1039 Debye
        Dipole field         -0.0001 Ry au, 

        Potential amp.        0.0106 Ry
        Total length         45.1638 bohr


     Adding external electric field

     Computed dipole along edir(3) : 
        Dipole               -0.0409 Ry au,         -0.1039 Debye
        Dipole field         -0.0001 Ry au, 

        Potential amp.        0.0106 Ry
        Total length         45.1638 bohr


     total cpu time spent up to now is    10982.6 secs

     total energy              =   -2278.26392698 Ry
     estimated scf accuracy    <       0.01577636 Ry

     total magnetization       =    11.81 Bohr mag/cell
     absolute magnetization    =    13.40 Bohr mag/cell

     iteration # 29     ecut=    55.12 Ry     beta= 0.10
     Davidson diagonalization with overlap
     c_bands:  1 eigenvalues not converged
     c_bands:  1 eigenvalues not converged
     c_bands:  1 eigenvalues not converged
     c_bands:  1 eigenvalues not converged
     c_bands:  1 eigenvalues not converged
     c_bands:  1 eigenvalues not converged
     c_bands:  1 eigenvalues not converged
     c_bands:  1 eigenvalues not converged
     c_bands:  1 eigenvalues not converged
     c_bands:  1 eigenvalues not converged
     c_bands:  1 eigenvalues not converged
     c_bands:  2 eigenvalues not converged
     c_bands:  1 eigenvalues not converged
     c_bands:  1 eigenvalues not converged
     c_bands:  1 eigenvalues not converged
     c_bands:  1 eigenvalues not converged
     c_bands:  1 eigenvalues not converged
     c_bands:  1 eigenvalues not converged
     c_bands:  1 eigenvalues not converged
     c_bands:  1 eigenvalues not converged
     ethr =  9.39E-06,  avg # of iterations = 11.6

     Adding external electric field

     Computed dipole along edir(3) : 
        Dipole               -0.0329 Ry au,         -0.0837 Debye
        Dipole field         -0.0001 Ry au, 

        Potential amp.        0.0085 Ry
        Total length         45.1638 bohr


     Adding external electric field

     Computed dipole along edir(3) : 
        Dipole               -0.0329 Ry au,         -0.0837 Debye
        Dipole field         -0.0001 Ry au, 

        Potential amp.        0.0085 Ry
        Total length         45.1638 bohr


     total cpu time spent up to now is    11452.9 secs

     total energy              =   -2277.79942674 Ry
     estimated scf accuracy    <       0.00591480 Ry

     total magnetization       =    11.80 Bohr mag/cell
     absolute magnetization    =    13.41 Bohr mag/cell

     iteration # 30     ecut=    55.12 Ry     beta= 0.10
     Davidson diagonalization with overlap
     c_bands:  1 eigenvalues not converged
     c_bands:  1 eigenvalues not converged
     c_bands:  1 eigenvalues not converged
     c_bands:  1 eigenvalues not converged
     c_bands:  1 eigenvalues not converged
     c_bands:  2 eigenvalues not converged
     c_bands:  1 eigenvalues not converged
     c_bands:  1 eigenvalues not converged
     c_bands:  1 eigenvalues not converged
     c_bands:  1 eigenvalues not converged
     c_bands:  1 eigenvalues not converged
     c_bands:  1 eigenvalues not converged
     c_bands:  1 eigenvalues not converged
     c_bands:  1 eigenvalues not converged
     c_bands:  1 eigenvalues not converged
     c_bands:  3 eigenvalues not converged
     c_bands:  1 eigenvalues not converged
     c_bands:  2 eigenvalues not converged
     c_bands:  1 eigenvalues not converged
     c_bands:  1 eigenvalues not converged
     c_bands:  1 eigenvalues not converged
     ethr =  3.52E-06,  avg # of iterations = 11.5

     Adding external electric field

     Computed dipole along edir(3) : 
        Dipole               -0.0358 Ry au,         -0.0911 Debye
        Dipole field         -0.0001 Ry au, 

        Potential amp.        0.0093 Ry
        Total length         45.1638 bohr


     Adding external electric field

     Computed dipole along edir(3) : 
        Dipole               -0.0358 Ry au,         -0.0911 Debye
        Dipole field         -0.0001 Ry au, 

        Potential amp.        0.0093 Ry
        Total length         45.1638 bohr


     total cpu time spent up to now is    11966.5 secs

     total energy              =   -2277.40757410 Ry
     estimated scf accuracy    <       0.00396763 Ry

     total magnetization       =    11.76 Bohr mag/cell
     absolute magnetization    =    13.39 Bohr mag/cell

     iteration # 31     ecut=    55.12 Ry     beta= 0.10
     Davidson diagonalization with overlap
     c_bands:  1 eigenvalues not converged
     c_bands:  1 eigenvalues not converged
     c_bands:  1 eigenvalues not converged
     c_bands:  1 eigenvalues not converged
     ethr =  2.36E-06,  avg # of iterations =  5.2

     Adding external electric field

     Computed dipole along edir(3) : 
        Dipole               -0.0402 Ry au,         -0.1022 Debye
        Dipole field         -0.0001 Ry au, 

        Potential amp.        0.0104 Ry
        Total length         45.1638 bohr


     Adding external electric field

     Computed dipole along edir(3) : 
        Dipole               -0.0402 Ry au,         -0.1022 Debye
        Dipole field         -0.0001 Ry au, 

        Potential amp.        0.0104 Ry
        Total length         45.1638 bohr


     total cpu time spent up to now is    12376.1 secs

     total energy              =   -2277.18108564 Ry
     estimated scf accuracy    <       0.00140570 Ry

     total magnetization       =    11.76 Bohr mag/cell
     absolute magnetization    =    13.40 Bohr mag/cell

     iteration # 32     ecut=    55.12 Ry     beta= 0.10
     Davidson diagonalization with overlap
     c_bands:  1 eigenvalues not converged
     c_bands:  1 eigenvalues not converged
     ethr =  8.37E-07,  avg # of iterations =  6.0

     Adding external electric field

     Computed dipole along edir(3) : 
        Dipole               -0.0517 Ry au,         -0.1315 Debye
        Dipole field         -0.0001 Ry au, 

        Potential amp.        0.0134 Ry
        Total length         45.1638 bohr


     Adding external electric field

     Computed dipole along edir(3) : 
        Dipole               -0.0517 Ry au,         -0.1315 Debye
        Dipole field         -0.0001 Ry au, 

        Potential amp.        0.0134 Ry
        Total length         45.1638 bohr


     total cpu time spent up to now is    12806.3 secs

     total energy              =   -2277.05718573 Ry
     estimated scf accuracy    <       0.00146697 Ry

     total magnetization       =    11.74 Bohr mag/cell
     absolute magnetization    =    13.38 Bohr mag/cell

     iteration # 33     ecut=    55.12 Ry     beta= 0.10
     Davidson diagonalization with overlap
     ethr =  8.37E-07,  avg # of iterations =  1.9

     Adding external electric field

     Computed dipole along edir(3) : 
        Dipole               -0.0509 Ry au,         -0.1293 Debye
        Dipole field         -0.0001 Ry au, 

        Potential amp.        0.0132 Ry
        Total length         45.1638 bohr


     Adding external electric field

     Computed dipole along edir(3) : 
        Dipole               -0.0509 Ry au,         -0.1293 Debye
        Dipole field         -0.0001 Ry au, 

        Potential amp.        0.0132 Ry
        Total length         45.1638 bohr


     total cpu time spent up to now is    13181.2 secs

     total energy              =   -2276.84345464 Ry
     estimated scf accuracy    <       0.00041582 Ry

     total magnetization       =    11.71 Bohr mag/cell
     absolute magnetization    =    13.36 Bohr mag/cell

     iteration # 34     ecut=    55.12 Ry     beta= 0.10
     Davidson diagonalization with overlap
     ethr =  2.48E-07,  avg # of iterations =  2.4

     Adding external electric field

     Computed dipole along edir(3) : 
        Dipole               -0.0488 Ry au,         -0.1239 Debye
        Dipole field         -0.0001 Ry au, 

        Potential amp.        0.0126 Ry
        Total length         45.1638 bohr


     Adding external electric field

     Computed dipole along edir(3) : 
        Dipole               -0.0488 Ry au,         -0.1239 Debye
        Dipole field         -0.0001 Ry au, 

        Potential amp.        0.0126 Ry
        Total length         45.1638 bohr


     total cpu time spent up to now is    13604.7 secs

     total energy              =   -2276.66722889 Ry
     estimated scf accuracy    <       0.00044794 Ry

     total magnetization       =    11.71 Bohr mag/cell
     absolute magnetization    =    13.37 Bohr mag/cell

     iteration # 35     ecut=    55.12 Ry     beta= 0.10
     Davidson diagonalization with overlap
     ethr =  2.48E-07,  avg # of iterations =  2.0

     Adding external electric field

     Computed dipole along edir(3) : 
        Dipole               -0.0460 Ry au,         -0.1170 Debye
        Dipole field         -0.0001 Ry au, 

        Potential amp.        0.0119 Ry
        Total length         45.1638 bohr


     Adding external electric field

     Computed dipole along edir(3) : 
        Dipole               -0.0460 Ry au,         -0.1170 Debye
        Dipole field         -0.0001 Ry au, 

        Potential amp.        0.0119 Ry
        Total length         45.1638 bohr


     total cpu time spent up to now is    13993.2 secs

     total energy              =   -2276.51516201 Ry
     estimated scf accuracy    <       0.00034944 Ry

     total magnetization       =    11.71 Bohr mag/cell
     absolute magnetization    =    13.37 Bohr mag/cell

     iteration # 36     ecut=    55.12 Ry     beta= 0.10
     Davidson diagonalization with overlap
     ethr =  2.08E-07,  avg # of iterations =  2.0

     Adding external electric field

     Computed dipole along edir(3) : 
        Dipole               -0.0469 Ry au,         -0.1192 Debye
        Dipole field         -0.0001 Ry au, 

        Potential amp.        0.0122 Ry
        Total length         45.1638 bohr


     Adding external electric field

     Computed dipole along edir(3) : 
        Dipole               -0.0469 Ry au,         -0.1192 Debye
        Dipole field         -0.0001 Ry au, 

        Potential amp.        0.0122 Ry
        Total length         45.1638 bohr


     total cpu time spent up to now is    14382.3 secs

     total energy              =   -2276.36732453 Ry
     estimated scf accuracy    <       0.00011402 Ry

     total magnetization       =    11.72 Bohr mag/cell
     absolute magnetization    =    13.38 Bohr mag/cell

     iteration # 37     ecut=    55.12 Ry     beta= 0.10
     Davidson diagonalization with overlap
     ethr =  6.79E-08,  avg # of iterations =  4.6

     Adding external electric field

     Computed dipole along edir(3) : 
        Dipole               -0.0486 Ry au,         -0.1236 Debye
        Dipole field         -0.0001 Ry au, 

        Potential amp.        0.0126 Ry
        Total length         45.1638 bohr


     Adding external electric field

     Computed dipole along edir(3) : 
        Dipole               -0.0486 Ry au,         -0.1236 Debye
        Dipole field         -0.0001 Ry au, 

        Potential amp.        0.0126 Ry
        Total length         45.1638 bohr


     total cpu time spent up to now is    14822.0 secs

     total energy              =   -2276.26515989 Ry
     estimated scf accuracy    <       0.00008493 Ry

     total magnetization       =    11.72 Bohr mag/cell
     absolute magnetization    =    13.38 Bohr mag/cell

     iteration # 38     ecut=    55.12 Ry     beta= 0.10
     Davidson diagonalization with overlap
     ethr =  5.06E-08,  avg # of iterations =  4.7

     Adding external electric field

     Computed dipole along edir(3) : 
        Dipole               -0.0483 Ry au,         -0.1228 Debye
        Dipole field         -0.0001 Ry au, 

        Potential amp.        0.0125 Ry
        Total length         45.1638 bohr


     Adding external electric field

     Computed dipole along edir(3) : 
        Dipole               -0.0483 Ry au,         -0.1228 Debye
        Dipole field         -0.0001 Ry au, 

        Potential amp.        0.0125 Ry
        Total length         45.1638 bohr


     total cpu time spent up to now is    15269.7 secs

     total energy              =   -2276.12606734 Ry
     estimated scf accuracy    <       0.00009277 Ry

     total magnetization       =    11.72 Bohr mag/cell
     absolute magnetization    =    13.39 Bohr mag/cell

     iteration # 39     ecut=    55.12 Ry     beta= 0.10
     Davidson diagonalization with overlap
     ethr =  5.06E-08,  avg # of iterations =  1.6

     Adding external electric field

     Computed dipole along edir(3) : 
        Dipole               -0.0485 Ry au,         -0.1233 Debye
        Dipole field         -0.0001 Ry au, 

        Potential amp.        0.0126 Ry
        Total length         45.1638 bohr


     Adding external electric field

     Computed dipole along edir(3) : 
        Dipole               -0.0485 Ry au,         -0.1233 Debye
        Dipole field         -0.0001 Ry au, 

        Potential amp.        0.0126 Ry
        Total length         45.1638 bohr


     total cpu time spent up to now is    15625.3 secs

     total energy              =   -2276.03421631 Ry
     estimated scf accuracy    <       0.00003617 Ry

     total magnetization       =    11.72 Bohr mag/cell
     absolute magnetization    =    13.39 Bohr mag/cell

     iteration # 40     ecut=    55.12 Ry     beta= 0.10
     Davidson diagonalization with overlap
     ethr =  2.15E-08,  avg # of iterations =  6.7

     Adding external electric field

     Computed dipole along edir(3) : 
        Dipole               -0.0481 Ry au,         -0.1223 Debye
        Dipole field         -0.0001 Ry au, 

        Potential amp.        0.0125 Ry
        Total length         45.1638 bohr


     Adding external electric field

     Computed dipole along edir(3) : 
        Dipole               -0.0481 Ry au,         -0.1223 Debye
        Dipole field         -0.0001 Ry au, 

        Potential amp.        0.0125 Ry
        Total length         45.1638 bohr


     total cpu time spent up to now is    16100.6 secs

     total energy              =   -2275.91668227 Ry
     estimated scf accuracy    <       0.00003059 Ry

     total magnetization       =    11.72 Bohr mag/cell
     absolute magnetization    =    13.40 Bohr mag/cell

     iteration # 41     ecut=    55.12 Ry     beta= 0.10
     Davidson diagonalization with overlap
     ethr =  1.82E-08,  avg # of iterations =  1.8

     Adding external electric field

     Computed dipole along edir(3) : 
        Dipole               -0.0485 Ry au,         -0.1233 Debye
        Dipole field         -0.0001 Ry au, 

        Potential amp.        0.0126 Ry
        Total length         45.1638 bohr


     Adding external electric field

     Computed dipole along edir(3) : 
        Dipole               -0.0485 Ry au,         -0.1233 Debye
        Dipole field         -0.0001 Ry au, 

        Potential amp.        0.0126 Ry
        Total length         45.1638 bohr


     total cpu time spent up to now is    16473.7 secs

     total energy              =   -2275.82419562 Ry
     estimated scf accuracy    <       0.00001632 Ry

     total magnetization       =    11.72 Bohr mag/cell
     absolute magnetization    =    13.40 Bohr mag/cell

     iteration # 42     ecut=    55.12 Ry     beta= 0.10
     Davidson diagonalization with overlap
     ethr =  9.72E-09,  avg # of iterations =  3.1

     Adding external electric field

     Computed dipole along edir(3) : 
        Dipole               -0.0480 Ry au,         -0.1220 Debye
        Dipole field         -0.0001 Ry au, 

        Potential amp.        0.0124 Ry
        Total length         45.1638 bohr


     Adding external electric field

     Computed dipole along edir(3) : 
        Dipole               -0.0480 Ry au,         -0.1220 Debye
        Dipole field         -0.0001 Ry au, 

        Potential amp.        0.0124 Ry
        Total length         45.1638 bohr


     total cpu time spent up to now is    16887.1 secs

     total energy              =   -2275.71559173 Ry
     estimated scf accuracy    <       0.00001710 Ry

     total magnetization       =    11.72 Bohr mag/cell
     absolute magnetization    =    13.40 Bohr mag/cell

     iteration # 43     ecut=    55.12 Ry     beta= 0.10
     Davidson diagonalization with overlap
     ethr =  9.72E-09,  avg # of iterations =  1.8

     Adding external electric field

     Computed dipole along edir(3) : 
        Dipole               -0.0555 Ry au,         -0.1410 Debye
        Dipole field         -0.0002 Ry au, 

        Potential amp.        0.0144 Ry
        Total length         45.1638 bohr


     Adding external electric field

     Computed dipole along edir(3) : 
        Dipole               -0.0555 Ry au,         -0.1410 Debye
        Dipole field         -0.0002 Ry au, 

        Potential amp.        0.0144 Ry
        Total length         45.1638 bohr


     Magnetic moment per site:
     atom:    1    charge:   15.3992    magn:    2.0026    constr:    0.0000
     atom:    2    charge:   15.3996    magn:    2.0019    constr:    0.0000
     atom:    3    charge:    8.8433    magn:    0.0567    constr:    0.0000
     atom:    4    charge:    8.8433    magn:    0.0567    constr:    0.0000
     atom:    5    charge:   15.4434    magn:    1.9904    constr:    0.0000
     atom:    6    charge:   15.4420    magn:    1.9918    constr:    0.0000
     atom:    7    charge:    8.8828    magn:    0.0551    constr:    0.0000
     atom:    8    charge:    8.8828    magn:    0.0551    constr:    0.0000
     atom:    9    charge:   15.4295    magn:    1.9928    constr:    0.0000
     atom:   10    charge:   15.4301    magn:    1.9922    constr:    0.0000
     atom:   11    charge:    8.8305    magn:    0.0457    constr:    0.0000
     atom:   12    charge:    8.8305    magn:    0.0457    constr:    0.0000

     total cpu time spent up to now is    17271.7 secs

     End of self-consistent calculation

     Number of k-points >= 100: set verbosity='high' to print the bands.

     the Fermi energy is     0.6350 ev

!    total energy              =   -2274.82731892 Ry
     estimated scf accuracy    <       0.00000798 Ry
     smearing contrib. (-TS)   =      -0.07355688 Ry
     internal energy E=F+TS    =   -2274.75376204 Ry

     The total energy is F=E-TS. E is the sum of the following terms:
     one-electron contribution =  -16809.44195645 Ry
     hartree contribution      =    8447.15371808 Ry
     xc contribution           =    -390.55959439 Ry
     ewald contribution        =    6478.09406188 Ry
     electric field correction =       0.00000883 Ry

     total magnetization       =    11.72 Bohr mag/cell
     absolute magnetization    =    13.40 Bohr mag/cell

     convergence has been achieved in  43 iterations

     Forces acting on atoms (cartesian axes, Ry/au):

     atom    1 type  1   force =     0.01155474    0.00679590    0.01488137
     atom    2 type  1   force =     0.01148559    0.00678900    0.01497263
     atom    3 type  2   force =    -0.01527483   -0.00891115   -0.02467184
     atom    4 type  2   force =    -0.01517505   -0.00904357   -0.02467010
     atom    5 type  1   force =    -0.00571062   -0.00336453    0.00961085
     atom    6 type  1   force =    -0.00565826   -0.00335115    0.00969008
     atom    7 type  2   force =     0.00977343    0.00575138   -0.00540923
     atom    8 type  2   force =     0.00975747    0.00576631   -0.00543354
     atom    9 type  1   force =    -0.00099277   -0.00056103    0.00130395
     atom   10 type  1   force =    -0.00088941   -0.00052862    0.00135886
     atom   11 type  2   force =     0.00064815    0.00019273    0.00418740
     atom   12 type  2   force =     0.00048158    0.00046473    0.00417956

     Total force =     0.057241     Total SCF correction =     0.010750
     SCF correction compared to forces is large: reduce conv_thr to get better values

     Writing output data file ./Co2Au2/Co2Au2_beef.save/

     init_run     :    187.84s CPU    188.71s WALL (       1 calls)
     electrons    :  16981.59s CPU  17078.83s WALL (       1 calls)
     forces       :    119.35s CPU    119.84s WALL (       1 calls)

     Called by init_run:
     wfcinit      :    175.53s CPU    176.12s WALL (       1 calls)
     potinit      :      8.13s CPU      8.24s WALL (       1 calls)
     hinit0       :      1.93s CPU      1.94s WALL (       1 calls)

     Called by electrons:
     c_bands      :  14956.35s CPU  15028.03s WALL (      43 calls)
     sum_band     :   1883.29s CPU   1899.61s WALL (      43 calls)
     v_of_rho     :     78.47s CPU     82.45s WALL (      44 calls)
     newd         :     66.28s CPU     71.33s WALL (      44 calls)
     mix_rho      :      3.37s CPU      3.55s WALL (      43 calls)
     vdW_kernel   :      5.73s CPU      5.74s WALL (       1 calls)

     Called by c_bands:
     init_us_2    :     59.13s CPU     59.49s WALL (   13024 calls)
     cegterg      :  14798.27s CPU  14858.51s WALL (    6364 calls)

     Called by *egterg:
     cdiaghg      :    730.67s CPU    731.13s WALL (   25332 calls)
     h_psi        :   7459.86s CPU   7510.67s WALL (   25480 calls)
     s_psi        :   2407.23s CPU   2408.26s WALL (   25480 calls)
     g_psi        :      5.26s CPU      5.32s WALL (   18968 calls)

     Called by h_psi:
     h_psi:calbec :   2498.73s CPU   2503.34s WALL (   25480 calls)
     vloc_psi     :   2470.66s CPU   2515.63s WALL (   25480 calls)
     add_vuspsi   :   2458.95s CPU   2460.05s WALL (   25480 calls)

     General routines
     calbec       :   3756.43s CPU   3763.03s WALL (   32436 calls)
     fft          :     50.48s CPU     52.33s WALL (    3993 calls)
     ffts         :      0.58s CPU      0.60s WALL (     174 calls)
     fftw         :   2843.78s CPU   2893.28s WALL ( 3430834 calls)
     interpolate  :      1.74s CPU      1.78s WALL (      88 calls)

     Parallel routines
     fft_scatt_xy :    212.18s CPU    214.73s WALL ( 3435001 calls)
     fft_scatt_yz :    764.46s CPU    790.11s WALL ( 3435001 calls)

     PWSCF        :      4h58m CPU      5h 1m WALL


   This run was terminated on:   1:11:38  27Jun2022            

=------------------------------------------------------------------------------=
   JOB DONE.
=------------------------------------------------------------------------------=
