
     Program PWSCF v.6.6 starts on 29Jun2022 at 14:35:56 

     This program is part of the open-source Quantum ESPRESSO suite
     for quantum simulation of materials; please cite
         "P. Giannozzi et al., J. Phys.:Condens. Matter 21 395502 (2009);
         "P. Giannozzi et al., J. Phys.:Condens. Matter 29 465901 (2017);
          URL http://www.quantum-espresso.org", 
     in publications or presentations arising from this work. More details at
     http://www.quantum-espresso.org/quote

     Parallel version (MPI), running on    37 processors

     MPI processes distributed on     4 nodes
     R & G space division:  proc/nbgrp/npool/nimage =      37
     Fft bands division:     nmany     =       1
     Reading input from Co2Os2.in
Warning: card &CELL ignored
Warning: card / ignored

     Current dimensions of program PWSCF are:
     Max number of different atomic species (ntypx) = 10
     Max number of k-points (npk) =  40000
     Max angular momentum in pseudopotentials (lmaxx) =  3
     Presently stress not available with electric field and gates

     Message from routine cell_base_init:
     DEPRECATED: use true lattice parameter, not A to a.u. conversion factor
     file Co.pbe-spn-rrkjus_psl.0.3.1.UPF: wavefunction(s)  3P renormalized

     **************************************************************************
     Initializing libbeef V0.1.2 with the BEEF-vdW functional.
     Citation: Wellendorff et al., PRB 85, 235149 (2012).
     **************************************************************************


     IMPORTANT: XC functional enforced from input :
     Exchange-correlation= BEEF-VDW
                           (   1   4  43  14   2   0   0)
     Any further DFT definition will be discarded
     Please, verify this is what you really want


     Subspace diagonalization in iterative solution of the eigenvalue problem:
     a serial algorithm will be used


     Parallelization info
     --------------------
     sticks:   dense  smooth     PW     G-vecs:    dense   smooth      PW
     Min          99      40     11                22781     5768     893
     Max         100      41     12                22806     5779     916
     Sum        3679    1487    433               843261   213515   33513



     bravais-lattice index     =            0
     lattice parameter (alat)  =       1.8897  a.u.
     unit-cell volume          =    3859.3810 (a.u.)^3
     number of atoms/cell      =           12
     number of atomic types    =            2
     number of electrons       =       198.00
     number of Kohn-Sham states=          119
     kinetic-energy cutoff     =      55.1240  Ry
     charge density cutoff     =     551.2396  Ry
     convergence threshold     =      1.0E-05
     mixing beta               =       0.1000
     number of iterations used =           10  plain     mixing
     Exchange-correlation= BEEF-VDW
                           (   1   4  43  14   2   0   0)

     celldm(1)=   1.889726  celldm(2)=   0.000000  celldm(3)=   0.000000
     celldm(4)=   0.000000  celldm(5)=   0.000000  celldm(6)=   0.000000

     crystal axes: (cart. coord. in units of alat)
               a(1) = (   5.207476   0.000000   0.000000 )  
               a(2) = (   2.573792   4.526964   0.000000 )  
               a(3) = (   0.000000   0.000000  24.259778 )  

     reciprocal axes: (cart. coord. in units 2 pi/alat)
               b(1) = (  0.192032 -0.109179  0.000000 )  
               b(2) = (  0.000000  0.220899  0.000000 )  
               b(3) = (  0.000000  0.000000  0.041220 )  


     PseudoPot. # 1 for Co read from file:
     ../pseudo/Co.pbe-spn-rrkjus_psl.0.3.1.UPF
     MD5 check sum: 99b21b1f85602741a4c0ed67614a7280
     Pseudo is Ultrasoft + core correction, Zval = 17.0
     Generated using "atomic" code by A. Dal Corso v.6.2.2
     Using radial grid of 1193 points,  6 beta functions with: 
                l(1) =   0
                l(2) =   0
                l(3) =   1
                l(4) =   1
                l(5) =   2
                l(6) =   2
     Q(r) pseudized with 0 coefficients 


     PseudoPot. # 2 for Os read from file:
     ../pseudo/Os.pbe-spn-rrkjus_psl.1.0.0.UPF
     MD5 check sum: 3e7416ed594f6513d36e5cb31ba709d9
     Pseudo is Ultrasoft + core correction, Zval = 16.0
     Generated using "atomic" code by A. Dal Corso v.6.2.2
     Using radial grid of 1275 points,  6 beta functions with: 
                l(1) =   0
                l(2) =   0
                l(3) =   1
                l(4) =   1
                l(5) =   2
                l(6) =   2
     Q(r) pseudized with 0 coefficients 


     atomic species   valence    mass     pseudopotential
        Co            17.00    58.93319     Co( 1.00)
        Os            16.00   190.23000     Os( 1.00)

     Starting magnetic structure 
     atomic species   magnetization
        Co           1.000
        Os           0.000

     No symmetry found



   Cartesian axes

     site n.     atom                  positions (alat units)
         1           Co  tau(   1) = (   0.0000000   0.0000000  10.0000000  )
         2           Co  tau(   2) = (   3.8906343   2.2634818  10.0000000  )
         3           Os  tau(   3) = (   2.6037381   0.0000000  10.0000000  )
         4           Os  tau(   4) = (   1.2868962   2.2634818  10.0000000  )
         5           Co  tau(   5) = (   5.2074762   3.0295902  12.1298892  )
         6           Co  tau(   6) = (   1.3168418   0.7661084  12.1298892  )
         7           Os  tau(   7) = (   2.6037381   3.0295902  12.1298892  )
         8           Os  tau(   8) = (   3.9205799   0.7661084  12.1298892  )
         9           Co  tau(   9) = (   2.6278645   1.5288317  14.1745111  )
        10           Co  tau(  10) = (   6.5186327   3.7923911  14.1745529  )
        11           Os  tau(  11) = (   5.2208954   1.5226270  14.2057576  )
        12           Os  tau(  12) = (   3.9040753   3.7860717  14.2057575  )

     number of k points=    74  Fermi-Dirac smearing, width (Ry)=  0.0100
                       cart. coord. in units 2pi/alat
        k(    1) = (   0.0000000   0.0000000   0.0000000), wk =   0.0069444
        k(    2) = (   0.0000000   0.0184082   0.0000000), wk =   0.0138889
        k(    3) = (   0.0000000   0.0368164   0.0000000), wk =   0.0138889
        k(    4) = (   0.0000000   0.0552246   0.0000000), wk =   0.0138889
        k(    5) = (   0.0000000   0.0736329   0.0000000), wk =   0.0138889
        k(    6) = (   0.0000000   0.0920411   0.0000000), wk =   0.0138889
        k(    7) = (   0.0000000  -0.1104493   0.0000000), wk =   0.0069444
        k(    8) = (   0.0160026  -0.0090983   0.0000000), wk =   0.0138889
        k(    9) = (   0.0160026   0.0093100   0.0000000), wk =   0.0138889
        k(   10) = (   0.0160026   0.0277182   0.0000000), wk =   0.0138889
        k(   11) = (   0.0160026   0.0461264   0.0000000), wk =   0.0138889
        k(   12) = (   0.0160026   0.0645346   0.0000000), wk =   0.0138889
        k(   13) = (   0.0160026   0.0829428   0.0000000), wk =   0.0138889
        k(   14) = (   0.0160026  -0.1195475   0.0000000), wk =   0.0138889
        k(   15) = (   0.0160026  -0.1011393   0.0000000), wk =   0.0138889
        k(   16) = (   0.0160026  -0.0827311   0.0000000), wk =   0.0138889
        k(   17) = (   0.0160026  -0.0643229   0.0000000), wk =   0.0138889
        k(   18) = (   0.0160026  -0.0459147   0.0000000), wk =   0.0138889
        k(   19) = (   0.0160026  -0.0275065   0.0000000), wk =   0.0138889
        k(   20) = (   0.0320053  -0.0181965   0.0000000), wk =   0.0138889
        k(   21) = (   0.0320053   0.0002117   0.0000000), wk =   0.0138889
        k(   22) = (   0.0320053   0.0186199   0.0000000), wk =   0.0138889
        k(   23) = (   0.0320053   0.0370281   0.0000000), wk =   0.0138889
        k(   24) = (   0.0320053   0.0554364   0.0000000), wk =   0.0138889
        k(   25) = (   0.0320053   0.0738446   0.0000000), wk =   0.0138889
        k(   26) = (   0.0320053  -0.1286458   0.0000000), wk =   0.0138889
        k(   27) = (   0.0320053  -0.1102376   0.0000000), wk =   0.0138889
        k(   28) = (   0.0320053  -0.0918294   0.0000000), wk =   0.0138889
        k(   29) = (   0.0320053  -0.0734212   0.0000000), wk =   0.0138889
        k(   30) = (   0.0320053  -0.0550129   0.0000000), wk =   0.0138889
        k(   31) = (   0.0320053  -0.0366047   0.0000000), wk =   0.0138889
        k(   32) = (   0.0480079  -0.0272948   0.0000000), wk =   0.0138889
        k(   33) = (   0.0480079  -0.0088865   0.0000000), wk =   0.0138889
        k(   34) = (   0.0480079   0.0095217   0.0000000), wk =   0.0138889
        k(   35) = (   0.0480079   0.0279299   0.0000000), wk =   0.0138889
        k(   36) = (   0.0480079   0.0463381   0.0000000), wk =   0.0138889
        k(   37) = (   0.0480079   0.0647463   0.0000000), wk =   0.0138889
        k(   38) = (   0.0480079  -0.1377440   0.0000000), wk =   0.0138889
        k(   39) = (   0.0480079  -0.1193358   0.0000000), wk =   0.0138889
        k(   40) = (   0.0480079  -0.1009276   0.0000000), wk =   0.0138889
        k(   41) = (   0.0480079  -0.0825194   0.0000000), wk =   0.0138889
        k(   42) = (   0.0480079  -0.0641112   0.0000000), wk =   0.0138889
        k(   43) = (   0.0480079  -0.0457030   0.0000000), wk =   0.0138889
        k(   44) = (   0.0640105  -0.0363930   0.0000000), wk =   0.0138889
        k(   45) = (   0.0640105  -0.0179848   0.0000000), wk =   0.0138889
        k(   46) = (   0.0640105   0.0004234   0.0000000), wk =   0.0138889
        k(   47) = (   0.0640105   0.0188316   0.0000000), wk =   0.0138889
        k(   48) = (   0.0640105   0.0372399   0.0000000), wk =   0.0138889
        k(   49) = (   0.0640105   0.0556481   0.0000000), wk =   0.0138889
        k(   50) = (   0.0640105  -0.1468423   0.0000000), wk =   0.0138889
        k(   51) = (   0.0640105  -0.1284341   0.0000000), wk =   0.0138889
        k(   52) = (   0.0640105  -0.1100259   0.0000000), wk =   0.0138889
        k(   53) = (   0.0640105  -0.0916177   0.0000000), wk =   0.0138889
        k(   54) = (   0.0640105  -0.0732094   0.0000000), wk =   0.0138889
        k(   55) = (   0.0640105  -0.0548012   0.0000000), wk =   0.0138889
        k(   56) = (   0.0800132  -0.0454913   0.0000000), wk =   0.0138889
        k(   57) = (   0.0800132  -0.0270830   0.0000000), wk =   0.0138889
        k(   58) = (   0.0800132  -0.0086748   0.0000000), wk =   0.0138889
        k(   59) = (   0.0800132   0.0097334   0.0000000), wk =   0.0138889
        k(   60) = (   0.0800132   0.0281416   0.0000000), wk =   0.0138889
        k(   61) = (   0.0800132   0.0465498   0.0000000), wk =   0.0138889
        k(   62) = (   0.0800132  -0.1559406   0.0000000), wk =   0.0138889
        k(   63) = (   0.0800132  -0.1375323   0.0000000), wk =   0.0138889
        k(   64) = (   0.0800132  -0.1191241   0.0000000), wk =   0.0138889
        k(   65) = (   0.0800132  -0.1007159   0.0000000), wk =   0.0138889
        k(   66) = (   0.0800132  -0.0823077   0.0000000), wk =   0.0138889
        k(   67) = (   0.0800132  -0.0638995   0.0000000), wk =   0.0138889
        k(   68) = (  -0.0960158   0.0545895   0.0000000), wk =   0.0069444
        k(   69) = (  -0.0960158   0.0729977   0.0000000), wk =   0.0138889
        k(   70) = (  -0.0960158   0.0914059   0.0000000), wk =   0.0138889
        k(   71) = (  -0.0960158   0.1098142   0.0000000), wk =   0.0138889
        k(   72) = (  -0.0960158   0.1282224   0.0000000), wk =   0.0138889
        k(   73) = (  -0.0960158   0.1466306   0.0000000), wk =   0.0138889
        k(   74) = (  -0.0960158  -0.0558598   0.0000000), wk =   0.0069444

     Dense  grid:   843261 G-vectors     FFT dimensions: (  75,  75, 360)

     Smooth grid:   213515 G-vectors     FFT dimensions: (  48,  48, 225)

     Estimated max dynamical RAM per process >     297.34 MB

     Estimated total dynamical RAM >      10.74 GB

     Check: negative core charge=   -0.000006
     Generating pointlists ...
     new r_m :   1.0463 (alat units)  1.9771 (a.u.) for type    1
     new r_m :   1.0463 (alat units)  1.9771 (a.u.) for type    2

     Initial potential from superposition of free atoms

     starting charge  197.99683, renormalised to  198.00000


     %%%%%%%%%%%%%%%%%%%%%%%%%%%%%%%%%%%%%%%%%%%%%%%%%%%%%%%%%%%%%%%%%%%%%%%%
     %                                                                      %
     % You are using vdW-DF, which was implemented by the Thonhauser group. %
     % Please cite the following two papers that made this development      %
     % possible and the two reviews that describe the various versions:     %
     %                                                                      %
     %   T. Thonhauser et al., PRL 115, 136402 (2015).                      %
     %   T. Thonhauser et al., PRB 76, 125112 (2007).                       %
     %   K. Berland et al., Rep. Prog. Phys. 78, 066501 (2015).             %
     %   D.C. Langreth et al., J. Phys.: Condens. Matter 21, 084203 (2009). %
     %                                                                      %
     %                                                                      %
     % If you are calculating the stress with vdW-DF, please also cite:     %
     %                                                                      %
     %   R. Sabatini et al., J. Phys.: Condens. Matter 24, 424209 (2012).   %
     %                                                                      %
     %%%%%%%%%%%%%%%%%%%%%%%%%%%%%%%%%%%%%%%%%%%%%%%%%%%%%%%%%%%%%%%%%%%%%%%%



     Adding external electric field

     Computed dipole along edir(3) : 
        Dipole               -0.0000 Ry au,         -0.0000 Debye
        Dipole field         -0.0000 Ry au, 

        Potential amp.        0.0000 Ry
        Total length         44.6982 bohr


     Adding external electric field

     Computed dipole along edir(3) : 
        Dipole               -0.0000 Ry au,         -0.0000 Debye
        Dipole field         -0.0000 Ry au, 

        Potential amp.        0.0000 Ry
        Total length         44.6982 bohr

     Starting wfcs are  120 randomized atomic wfcs

     total cpu time spent up to now is      357.1 secs

     Self-consistent Calculation

     iteration #  1     ecut=    55.12 Ry     beta= 0.10
     Davidson diagonalization with overlap
     c_bands:  1 eigenvalues not converged
     ethr =  1.00E-02,  avg # of iterations =  9.2

     Adding external electric field

     Computed dipole along edir(3) : 
        Dipole               -0.0194 Ry au,         -0.0494 Debye
        Dipole field         -0.0001 Ry au, 

        Potential amp.        0.0057 Ry
        Total length         44.6982 bohr


     Adding external electric field

     Computed dipole along edir(3) : 
        Dipole               -0.0194 Ry au,         -0.0494 Debye
        Dipole field         -0.0001 Ry au, 

        Potential amp.        0.0057 Ry
        Total length         44.6982 bohr


     total cpu time spent up to now is     1781.4 secs

     total energy              =   -2937.95098629 Ry
     estimated scf accuracy    <      48.28258855 Ry

     total magnetization       =    32.20 Bohr mag/cell
     absolute magnetization    =    32.56 Bohr mag/cell

     iteration #  2     ecut=    55.12 Ry     beta= 0.10
     Davidson diagonalization with overlap
     ethr =  1.00E-02,  avg # of iterations =  1.4

     Adding external electric field

     Computed dipole along edir(3) : 
        Dipole                0.0872 Ry au,          0.2217 Debye
        Dipole field          0.0003 Ry au, 

        Potential amp.       -0.0254 Ry
        Total length         44.6982 bohr


     Adding external electric field

     Computed dipole along edir(3) : 
        Dipole                0.0872 Ry au,          0.2217 Debye
        Dipole field          0.0003 Ry au, 

        Potential amp.       -0.0254 Ry
        Total length         44.6982 bohr


     total cpu time spent up to now is     2245.1 secs

     total energy              =   -2953.57873792 Ry
     estimated scf accuracy    <      30.88846994 Ry

     total magnetization       =    31.38 Bohr mag/cell
     absolute magnetization    =    31.83 Bohr mag/cell

     iteration #  3     ecut=    55.12 Ry     beta= 0.10
     Davidson diagonalization with overlap
     ethr =  1.00E-02,  avg # of iterations =  5.3

     Adding external electric field

     Computed dipole along edir(3) : 
        Dipole                0.2121 Ry au,          0.5392 Debye
        Dipole field          0.0007 Ry au, 

        Potential amp.       -0.0617 Ry
        Total length         44.6982 bohr


     Adding external electric field

     Computed dipole along edir(3) : 
        Dipole                0.2121 Ry au,          0.5392 Debye
        Dipole field          0.0007 Ry au, 

        Potential amp.       -0.0617 Ry
        Total length         44.6982 bohr


     total cpu time spent up to now is     2953.4 secs

     total energy              =   -2971.85294355 Ry
     estimated scf accuracy    <      88.97737800 Ry

     total magnetization       =     7.36 Bohr mag/cell
     absolute magnetization    =     8.11 Bohr mag/cell

     iteration #  4     ecut=    55.12 Ry     beta= 0.10
     Davidson diagonalization with overlap
     ethr =  1.00E-02,  avg # of iterations =  3.1

     Adding external electric field

     Computed dipole along edir(3) : 
        Dipole               -0.1697 Ry au,         -0.4312 Debye
        Dipole field         -0.0006 Ry au, 

        Potential amp.        0.0494 Ry
        Total length         44.6982 bohr


     Adding external electric field

     Computed dipole along edir(3) : 
        Dipole               -0.1697 Ry au,         -0.4312 Debye
        Dipole field         -0.0006 Ry au, 

        Potential amp.        0.0494 Ry
        Total length         44.6982 bohr


     total cpu time spent up to now is     3610.3 secs

     total energy              =   -2976.23545365 Ry
     estimated scf accuracy    <     124.38850571 Ry

     total magnetization       =     5.01 Bohr mag/cell
     absolute magnetization    =     6.40 Bohr mag/cell

     iteration #  5     ecut=    55.12 Ry     beta= 0.10
     Davidson diagonalization with overlap
     ethr =  1.00E-02,  avg # of iterations =  2.0

     Adding external electric field

     Computed dipole along edir(3) : 
        Dipole               -0.1452 Ry au,         -0.3690 Debye
        Dipole field         -0.0005 Ry au, 

        Potential amp.        0.0423 Ry
        Total length         44.6982 bohr


     Adding external electric field

     Computed dipole along edir(3) : 
        Dipole               -0.1452 Ry au,         -0.3690 Debye
        Dipole field         -0.0005 Ry au, 

        Potential amp.        0.0423 Ry
        Total length         44.6982 bohr


     total cpu time spent up to now is     4175.0 secs

     total energy              =   -2975.55728479 Ry
     estimated scf accuracy    <     147.65239723 Ry

     total magnetization       =     5.19 Bohr mag/cell
     absolute magnetization    =     6.47 Bohr mag/cell

     iteration #  6     ecut=    55.12 Ry     beta= 0.10
     Davidson diagonalization with overlap
     ethr =  1.00E-02,  avg # of iterations =  1.1

     Adding external electric field

     Computed dipole along edir(3) : 
        Dipole               -0.1700 Ry au,         -0.4321 Debye
        Dipole field         -0.0006 Ry au, 

        Potential amp.        0.0495 Ry
        Total length         44.6982 bohr


     Adding external electric field

     Computed dipole along edir(3) : 
        Dipole               -0.1700 Ry au,         -0.4321 Debye
        Dipole field         -0.0006 Ry au, 

        Potential amp.        0.0495 Ry
        Total length         44.6982 bohr


     total cpu time spent up to now is     4812.9 secs

     total energy              =   -2978.53803318 Ry
     estimated scf accuracy    <     152.71788575 Ry

     total magnetization       =     5.29 Bohr mag/cell
     absolute magnetization    =     6.55 Bohr mag/cell

     iteration #  7     ecut=    55.12 Ry     beta= 0.10
     Davidson diagonalization with overlap
     ethr =  1.00E-02,  avg # of iterations =  2.0

     Adding external electric field

     Computed dipole along edir(3) : 
        Dipole               -0.2764 Ry au,         -0.7025 Debye
        Dipole field         -0.0009 Ry au, 

        Potential amp.        0.0804 Ry
        Total length         44.6982 bohr


     Adding external electric field

     Computed dipole along edir(3) : 
        Dipole               -0.2764 Ry au,         -0.7025 Debye
        Dipole field         -0.0009 Ry au, 

        Potential amp.        0.0804 Ry
        Total length         44.6982 bohr


     total cpu time spent up to now is     5510.9 secs

     total energy              =   -2969.47376142 Ry
     estimated scf accuracy    <      90.24648665 Ry

     total magnetization       =     3.21 Bohr mag/cell
     absolute magnetization    =     5.25 Bohr mag/cell

     iteration #  8     ecut=    55.12 Ry     beta= 0.10
     Davidson diagonalization with overlap
     ethr =  1.00E-02,  avg # of iterations =  2.9

     Adding external electric field

     Computed dipole along edir(3) : 
        Dipole               -0.2908 Ry au,         -0.7390 Debye
        Dipole field         -0.0009 Ry au, 

        Potential amp.        0.0846 Ry
        Total length         44.6982 bohr


     Adding external electric field

     Computed dipole along edir(3) : 
        Dipole               -0.2908 Ry au,         -0.7390 Debye
        Dipole field         -0.0009 Ry au, 

        Potential amp.        0.0846 Ry
        Total length         44.6982 bohr


     total cpu time spent up to now is     6264.9 secs

     total energy              =   -2974.49489105 Ry
     estimated scf accuracy    <      13.01410086 Ry

     total magnetization       =    11.48 Bohr mag/cell
     absolute magnetization    =    14.58 Bohr mag/cell

     iteration #  9     ecut=    55.12 Ry     beta= 0.10
     Davidson diagonalization with overlap
     ethr =  6.57E-03,  avg # of iterations =  1.4

     Adding external electric field

     Computed dipole along edir(3) : 
        Dipole               -0.3192 Ry au,         -0.8113 Debye
        Dipole field         -0.0010 Ry au, 

        Potential amp.        0.0929 Ry
        Total length         44.6982 bohr


     Adding external electric field

     Computed dipole along edir(3) : 
        Dipole               -0.3192 Ry au,         -0.8113 Debye
        Dipole field         -0.0010 Ry au, 

        Potential amp.        0.0929 Ry
        Total length         44.6982 bohr


     total cpu time spent up to now is     6840.9 secs

     total energy              =   -2973.91179599 Ry
     estimated scf accuracy    <      13.84862504 Ry

     total magnetization       =    10.86 Bohr mag/cell
     absolute magnetization    =    13.68 Bohr mag/cell

     iteration # 10     ecut=    55.12 Ry     beta= 0.10
     Davidson diagonalization with overlap
     ethr =  6.57E-03,  avg # of iterations =  1.4

     Adding external electric field

     Computed dipole along edir(3) : 
        Dipole               -0.1412 Ry au,         -0.3588 Debye
        Dipole field         -0.0005 Ry au, 

        Potential amp.        0.0411 Ry
        Total length         44.6982 bohr


     Adding external electric field

     Computed dipole along edir(3) : 
        Dipole               -0.1412 Ry au,         -0.3588 Debye
        Dipole field         -0.0005 Ry au, 

        Potential amp.        0.0411 Ry
        Total length         44.6982 bohr


     total cpu time spent up to now is     7404.2 secs

     total energy              =   -2974.92265618 Ry
     estimated scf accuracy    <      18.69614397 Ry

     total magnetization       =    16.64 Bohr mag/cell
     absolute magnetization    =    18.33 Bohr mag/cell

     iteration # 11     ecut=    55.12 Ry     beta= 0.10
     Davidson diagonalization with overlap
     ethr =  6.57E-03,  avg # of iterations =  1.0

     Adding external electric field

     Computed dipole along edir(3) : 
        Dipole               -0.0401 Ry au,         -0.1020 Debye
        Dipole field         -0.0001 Ry au, 

        Potential amp.        0.0117 Ry
        Total length         44.6982 bohr


     Adding external electric field

     Computed dipole along edir(3) : 
        Dipole               -0.0401 Ry au,         -0.1020 Debye
        Dipole field         -0.0001 Ry au, 

        Potential amp.        0.0117 Ry
        Total length         44.6982 bohr


     total cpu time spent up to now is     7971.3 secs

     total energy              =   -2975.74128914 Ry
     estimated scf accuracy    <      11.27081805 Ry

     total magnetization       =    12.60 Bohr mag/cell
     absolute magnetization    =    15.38 Bohr mag/cell

     iteration # 12     ecut=    55.12 Ry     beta= 0.10
     Davidson diagonalization with overlap
     ethr =  5.69E-03,  avg # of iterations =  1.2

     Adding external electric field

     Computed dipole along edir(3) : 
        Dipole               -0.0151 Ry au,         -0.0384 Debye
        Dipole field         -0.0000 Ry au, 

        Potential amp.        0.0044 Ry
        Total length         44.6982 bohr


     Adding external electric field

     Computed dipole along edir(3) : 
        Dipole               -0.0151 Ry au,         -0.0384 Debye
        Dipole field         -0.0000 Ry au, 

        Potential amp.        0.0044 Ry
        Total length         44.6982 bohr


     total cpu time spent up to now is     8499.3 secs

     total energy              =   -2977.97469578 Ry
     estimated scf accuracy    <      19.44633341 Ry

     total magnetization       =    16.28 Bohr mag/cell
     absolute magnetization    =    17.48 Bohr mag/cell

     iteration # 13     ecut=    55.12 Ry     beta= 0.10
     Davidson diagonalization with overlap
     ethr =  5.69E-03,  avg # of iterations =  1.8

     Adding external electric field

     Computed dipole along edir(3) : 
        Dipole                0.0076 Ry au,          0.0192 Debye
        Dipole field          0.0000 Ry au, 

        Potential amp.       -0.0022 Ry
        Total length         44.6982 bohr


     Adding external electric field

     Computed dipole along edir(3) : 
        Dipole                0.0076 Ry au,          0.0192 Debye
        Dipole field          0.0000 Ry au, 

        Potential amp.       -0.0022 Ry
        Total length         44.6982 bohr


     total cpu time spent up to now is     9136.3 secs

     total energy              =   -2967.20263755 Ry
     estimated scf accuracy    <      52.06388085 Ry

     total magnetization       =    15.28 Bohr mag/cell
     absolute magnetization    =    15.85 Bohr mag/cell

     iteration # 14     ecut=    55.12 Ry     beta= 0.10
     Davidson diagonalization with overlap
     ethr =  5.69E-03,  avg # of iterations =  2.0

     Adding external electric field

     Computed dipole along edir(3) : 
        Dipole               -0.0028 Ry au,         -0.0072 Debye
        Dipole field         -0.0000 Ry au, 

        Potential amp.        0.0008 Ry
        Total length         44.6982 bohr


     Adding external electric field

     Computed dipole along edir(3) : 
        Dipole               -0.0028 Ry au,         -0.0072 Debye
        Dipole field         -0.0000 Ry au, 

        Potential amp.        0.0008 Ry
        Total length         44.6982 bohr


     total cpu time spent up to now is     9894.6 secs

     total energy              =   -2972.92826855 Ry
     estimated scf accuracy    <       9.01770807 Ry

     total magnetization       =     9.32 Bohr mag/cell
     absolute magnetization    =    11.49 Bohr mag/cell

     iteration # 15     ecut=    55.12 Ry     beta= 0.10
     Davidson diagonalization with overlap
     ethr =  4.55E-03,  avg # of iterations =  1.0

     Adding external electric field

     Computed dipole along edir(3) : 
        Dipole               -0.0990 Ry au,         -0.2517 Debye
        Dipole field         -0.0003 Ry au, 

        Potential amp.        0.0288 Ry
        Total length         44.6982 bohr


     Adding external electric field

     Computed dipole along edir(3) : 
        Dipole               -0.0990 Ry au,         -0.2517 Debye
        Dipole field         -0.0003 Ry au, 

        Potential amp.        0.0288 Ry
        Total length         44.6982 bohr


     total cpu time spent up to now is    10477.9 secs

     total energy              =   -2973.04150106 Ry
     estimated scf accuracy    <       2.68019775 Ry

     total magnetization       =    13.74 Bohr mag/cell
     absolute magnetization    =    15.58 Bohr mag/cell

     iteration # 16     ecut=    55.12 Ry     beta= 0.10
     Davidson diagonalization with overlap
     ethr =  1.35E-03,  avg # of iterations =  1.2

     Adding external electric field

     Computed dipole along edir(3) : 
        Dipole                0.0132 Ry au,          0.0336 Debye
        Dipole field          0.0000 Ry au, 

        Potential amp.       -0.0039 Ry
        Total length         44.6982 bohr


     Adding external electric field

     Computed dipole along edir(3) : 
        Dipole                0.0132 Ry au,          0.0336 Debye
        Dipole field          0.0000 Ry au, 

        Potential amp.       -0.0039 Ry
        Total length         44.6982 bohr


     total cpu time spent up to now is    11070.3 secs

     total energy              =   -2972.44023693 Ry
     estimated scf accuracy    <       1.71788398 Ry

     total magnetization       =    13.36 Bohr mag/cell
     absolute magnetization    =    15.35 Bohr mag/cell

     iteration # 17     ecut=    55.12 Ry     beta= 0.10
     Davidson diagonalization with overlap
     ethr =  8.68E-04,  avg # of iterations =  1.1

     Adding external electric field

     Computed dipole along edir(3) : 
        Dipole               -0.0147 Ry au,         -0.0374 Debye
        Dipole field         -0.0000 Ry au, 

        Potential amp.        0.0043 Ry
        Total length         44.6982 bohr


     Adding external electric field

     Computed dipole along edir(3) : 
        Dipole               -0.0147 Ry au,         -0.0374 Debye
        Dipole field         -0.0000 Ry au, 

        Potential amp.        0.0043 Ry
        Total length         44.6982 bohr


     total cpu time spent up to now is    11667.8 secs

     total energy              =   -2971.86675335 Ry
     estimated scf accuracy    <       0.33355625 Ry

     total magnetization       =     9.19 Bohr mag/cell
     absolute magnetization    =    11.76 Bohr mag/cell

     iteration # 18     ecut=    55.12 Ry     beta= 0.10
     Davidson diagonalization with overlap
     c_bands:  1 eigenvalues not converged
     ethr =  1.68E-04,  avg # of iterations =  3.6

     Adding external electric field

     Computed dipole along edir(3) : 
        Dipole                0.0139 Ry au,          0.0352 Debye
        Dipole field          0.0000 Ry au, 

        Potential amp.       -0.0040 Ry
        Total length         44.6982 bohr


     Adding external electric field

     Computed dipole along edir(3) : 
        Dipole                0.0139 Ry au,          0.0352 Debye
        Dipole field          0.0000 Ry au, 

        Potential amp.       -0.0040 Ry
        Total length         44.6982 bohr


     total cpu time spent up to now is    12375.0 secs

     total energy              =   -2971.11746119 Ry
     estimated scf accuracy    <       0.94450308 Ry

     total magnetization       =     8.71 Bohr mag/cell
     absolute magnetization    =    11.21 Bohr mag/cell

     iteration # 19     ecut=    55.12 Ry     beta= 0.10
     Davidson diagonalization with overlap
     ethr =  1.68E-04,  avg # of iterations =  1.3

     Adding external electric field

     Computed dipole along edir(3) : 
        Dipole                0.0105 Ry au,          0.0266 Debye
        Dipole field          0.0000 Ry au, 

        Potential amp.       -0.0031 Ry
        Total length         44.6982 bohr


     Adding external electric field

     Computed dipole along edir(3) : 
        Dipole                0.0105 Ry au,          0.0266 Debye
        Dipole field          0.0000 Ry au, 

        Potential amp.       -0.0031 Ry
        Total length         44.6982 bohr


     total cpu time spent up to now is    12966.0 secs

     total energy              =   -2970.43978576 Ry
     estimated scf accuracy    <       0.71453751 Ry

     total magnetization       =     9.66 Bohr mag/cell
     absolute magnetization    =    12.04 Bohr mag/cell

     iteration # 20     ecut=    55.12 Ry     beta= 0.10
     Davidson diagonalization with overlap
     ethr =  1.68E-04,  avg # of iterations =  1.1

     Adding external electric field

     Computed dipole along edir(3) : 
        Dipole                0.0017 Ry au,          0.0042 Debye
        Dipole field          0.0000 Ry au, 

        Potential amp.       -0.0005 Ry
        Total length         44.6982 bohr


     Adding external electric field

     Computed dipole along edir(3) : 
        Dipole                0.0017 Ry au,          0.0042 Debye
        Dipole field          0.0000 Ry au, 

        Potential amp.       -0.0005 Ry
        Total length         44.6982 bohr


     total cpu time spent up to now is    13630.1 secs

     total energy              =   -2968.88934996 Ry
     estimated scf accuracy    <       0.17106201 Ry

     total magnetization       =     9.19 Bohr mag/cell
     absolute magnetization    =    11.54 Bohr mag/cell

     iteration # 21     ecut=    55.12 Ry     beta= 0.10
     Davidson diagonalization with overlap
     ethr =  8.64E-05,  avg # of iterations =  2.0

     Adding external electric field

     Computed dipole along edir(3) : 
        Dipole                0.0029 Ry au,          0.0073 Debye
        Dipole field          0.0000 Ry au, 

        Potential amp.       -0.0008 Ry
        Total length         44.6982 bohr


     Adding external electric field

     Computed dipole along edir(3) : 
        Dipole                0.0029 Ry au,          0.0073 Debye
        Dipole field          0.0000 Ry au, 

        Potential amp.       -0.0008 Ry
        Total length         44.6982 bohr


     total cpu time spent up to now is    14283.8 secs

     total energy              =   -2967.67967771 Ry
     estimated scf accuracy    <       0.23509269 Ry

     total magnetization       =     9.13 Bohr mag/cell
     absolute magnetization    =    11.42 Bohr mag/cell

     iteration # 22     ecut=    55.12 Ry     beta= 0.10
     Davidson diagonalization with overlap
     ethr =  8.64E-05,  avg # of iterations =  1.0

     Adding external electric field

     Computed dipole along edir(3) : 
        Dipole                0.0007 Ry au,          0.0019 Debye
        Dipole field          0.0000 Ry au, 

        Potential amp.       -0.0002 Ry
        Total length         44.6982 bohr


     Adding external electric field

     Computed dipole along edir(3) : 
        Dipole                0.0007 Ry au,          0.0019 Debye
        Dipole field          0.0000 Ry au, 

        Potential amp.       -0.0002 Ry
        Total length         44.6982 bohr


     total cpu time spent up to now is    14872.1 secs

     total energy              =   -2966.86541363 Ry
     estimated scf accuracy    <       0.18076848 Ry

     total magnetization       =     9.33 Bohr mag/cell
     absolute magnetization    =    11.56 Bohr mag/cell

     iteration # 23     ecut=    55.12 Ry     beta= 0.10
     Davidson diagonalization with overlap
     ethr =  8.64E-05,  avg # of iterations =  1.7

     Adding external electric field

     Computed dipole along edir(3) : 
        Dipole                0.0005 Ry au,          0.0014 Debye
        Dipole field          0.0000 Ry au, 

        Potential amp.       -0.0002 Ry
        Total length         44.6982 bohr


     Adding external electric field

     Computed dipole along edir(3) : 
        Dipole                0.0005 Ry au,          0.0014 Debye
        Dipole field          0.0000 Ry au, 

        Potential amp.       -0.0002 Ry
        Total length         44.6982 bohr


     total cpu time spent up to now is    15604.9 secs

     total energy              =   -2966.08094824 Ry
     estimated scf accuracy    <       0.08333991 Ry

     total magnetization       =     9.72 Bohr mag/cell
     absolute magnetization    =    11.88 Bohr mag/cell

     iteration # 24     ecut=    55.12 Ry     beta= 0.10
     Davidson diagonalization with overlap
     c_bands:  1 eigenvalues not converged
     c_bands:  1 eigenvalues not converged
     ethr =  4.21E-05,  avg # of iterations =  1.7

     Adding external electric field

     Computed dipole along edir(3) : 
        Dipole               -0.0122 Ry au,         -0.0309 Debye
        Dipole field         -0.0000 Ry au, 

        Potential amp.        0.0035 Ry
        Total length         44.6982 bohr


     Adding external electric field

     Computed dipole along edir(3) : 
        Dipole               -0.0122 Ry au,         -0.0309 Debye
        Dipole field         -0.0000 Ry au, 

        Potential amp.        0.0035 Ry
        Total length         44.6982 bohr


     total cpu time spent up to now is    16284.8 secs

     total energy              =   -2967.43001912 Ry
     estimated scf accuracy    <       0.09619929 Ry

     total magnetization       =     9.73 Bohr mag/cell
     absolute magnetization    =    11.88 Bohr mag/cell

     iteration # 25     ecut=    55.12 Ry     beta= 0.10
     Davidson diagonalization with overlap
     ethr =  4.21E-05,  avg # of iterations =  2.1

     Adding external electric field

     Computed dipole along edir(3) : 
        Dipole                0.0231 Ry au,          0.0587 Debye
        Dipole field          0.0001 Ry au, 

        Potential amp.       -0.0067 Ry
        Total length         44.6982 bohr


     Adding external electric field

     Computed dipole along edir(3) : 
        Dipole                0.0231 Ry au,          0.0587 Debye
        Dipole field          0.0001 Ry au, 

        Potential amp.       -0.0067 Ry
        Total length         44.6982 bohr


     total cpu time spent up to now is    17061.4 secs

     total energy              =   -2965.51994663 Ry
     estimated scf accuracy    <       0.05751945 Ry

     total magnetization       =     9.35 Bohr mag/cell
     absolute magnetization    =    11.54 Bohr mag/cell

     iteration # 26     ecut=    55.12 Ry     beta= 0.10
     Davidson diagonalization with overlap
     ethr =  2.91E-05,  avg # of iterations =  2.3

     Adding external electric field

     Computed dipole along edir(3) : 
        Dipole                0.0402 Ry au,          0.1023 Debye
        Dipole field          0.0001 Ry au, 

        Potential amp.       -0.0117 Ry
        Total length         44.6982 bohr


     Adding external electric field

     Computed dipole along edir(3) : 
        Dipole                0.0402 Ry au,          0.1023 Debye
        Dipole field          0.0001 Ry au, 

        Potential amp.       -0.0117 Ry
        Total length         44.6982 bohr


     total cpu time spent up to now is    17774.7 secs

     total energy              =   -2963.97341517 Ry
     estimated scf accuracy    <       0.03102742 Ry

     total magnetization       =     8.81 Bohr mag/cell
     absolute magnetization    =    10.87 Bohr mag/cell

     iteration # 27     ecut=    55.12 Ry     beta= 0.10
     Davidson diagonalization with overlap
     c_bands:  2 eigenvalues not converged
     c_bands:  1 eigenvalues not converged
     c_bands:  1 eigenvalues not converged
     c_bands:  1 eigenvalues not converged
     c_bands:  1 eigenvalues not converged
     c_bands:  1 eigenvalues not converged
     c_bands:  1 eigenvalues not converged
     c_bands:  1 eigenvalues not converged
     c_bands:  1 eigenvalues not converged
     c_bands:  1 eigenvalues not converged
     c_bands:  1 eigenvalues not converged
     c_bands:  1 eigenvalues not converged
     c_bands:  1 eigenvalues not converged
     c_bands:  1 eigenvalues not converged
     c_bands:  1 eigenvalues not converged
     c_bands:  1 eigenvalues not converged
     ethr =  1.57E-05,  avg # of iterations =  6.2

     Adding external electric field

     Computed dipole along edir(3) : 
        Dipole                0.0343 Ry au,          0.0872 Debye
        Dipole field          0.0001 Ry au, 

        Potential amp.       -0.0100 Ry
        Total length         44.6982 bohr


     Adding external electric field

     Computed dipole along edir(3) : 
        Dipole                0.0343 Ry au,          0.0872 Debye
        Dipole field          0.0001 Ry au, 

        Potential amp.       -0.0100 Ry
        Total length         44.6982 bohr


     total cpu time spent up to now is    18545.6 secs

     total energy              =   -2963.44214049 Ry
     estimated scf accuracy    <       0.01653760 Ry

     total magnetization       =     8.06 Bohr mag/cell
     absolute magnetization    =     9.97 Bohr mag/cell

     iteration # 28     ecut=    55.12 Ry     beta= 0.10
     Davidson diagonalization with overlap
     c_bands:  2 eigenvalues not converged
     c_bands:  1 eigenvalues not converged
     c_bands:  1 eigenvalues not converged
     c_bands:  1 eigenvalues not converged
     c_bands:  1 eigenvalues not converged
     c_bands:  1 eigenvalues not converged
     c_bands:  1 eigenvalues not converged
     ethr =  8.35E-06,  avg # of iterations =  4.8

     Adding external electric field

     Computed dipole along edir(3) : 
        Dipole                0.0275 Ry au,          0.0700 Debye
        Dipole field          0.0001 Ry au, 

        Potential amp.       -0.0080 Ry
        Total length         44.6982 bohr


     Adding external electric field

     Computed dipole along edir(3) : 
        Dipole                0.0275 Ry au,          0.0700 Debye
        Dipole field          0.0001 Ry au, 

        Potential amp.       -0.0080 Ry
        Total length         44.6982 bohr


     total cpu time spent up to now is    19285.2 secs

     total energy              =   -2963.12525425 Ry
     estimated scf accuracy    <       0.00766435 Ry

     total magnetization       =     7.92 Bohr mag/cell
     absolute magnetization    =     9.71 Bohr mag/cell

     iteration # 29     ecut=    55.12 Ry     beta= 0.10
     Davidson diagonalization with overlap
     c_bands:  1 eigenvalues not converged
     c_bands:  1 eigenvalues not converged
     c_bands:  1 eigenvalues not converged
     c_bands:  1 eigenvalues not converged
     c_bands:  1 eigenvalues not converged
     c_bands:  1 eigenvalues not converged
     ethr =  3.87E-06,  avg # of iterations =  6.2

     Adding external electric field

     Computed dipole along edir(3) : 
        Dipole                0.0141 Ry au,          0.0359 Debye
        Dipole field          0.0000 Ry au, 

        Potential amp.       -0.0041 Ry
        Total length         44.6982 bohr


     Adding external electric field

     Computed dipole along edir(3) : 
        Dipole                0.0141 Ry au,          0.0359 Debye
        Dipole field          0.0000 Ry au, 

        Potential amp.       -0.0041 Ry
        Total length         44.6982 bohr


     total cpu time spent up to now is    20123.5 secs

     total energy              =   -2962.75281870 Ry
     estimated scf accuracy    <       0.00789774 Ry

     total magnetization       =     7.76 Bohr mag/cell
     absolute magnetization    =     9.41 Bohr mag/cell

     iteration # 30     ecut=    55.12 Ry     beta= 0.10
     Davidson diagonalization with overlap
     ethr =  3.87E-06,  avg # of iterations =  1.9

     Adding external electric field

     Computed dipole along edir(3) : 
        Dipole                0.0138 Ry au,          0.0350 Debye
        Dipole field          0.0000 Ry au, 

        Potential amp.       -0.0040 Ry
        Total length         44.6982 bohr


     Adding external electric field

     Computed dipole along edir(3) : 
        Dipole                0.0138 Ry au,          0.0350 Debye
        Dipole field          0.0000 Ry au, 

        Potential amp.       -0.0040 Ry
        Total length         44.6982 bohr


     total cpu time spent up to now is    20787.1 secs

     total energy              =   -2962.38330268 Ry
     estimated scf accuracy    <       0.01135762 Ry

     total magnetization       =     7.70 Bohr mag/cell
     absolute magnetization    =     9.31 Bohr mag/cell

     iteration # 31     ecut=    55.12 Ry     beta= 0.10
     Davidson diagonalization with overlap
     ethr =  3.87E-06,  avg # of iterations =  2.2

     Adding external electric field

     Computed dipole along edir(3) : 
        Dipole                0.0017 Ry au,          0.0044 Debye
        Dipole field          0.0000 Ry au, 

        Potential amp.       -0.0005 Ry
        Total length         44.6982 bohr


     Adding external electric field

     Computed dipole along edir(3) : 
        Dipole                0.0017 Ry au,          0.0044 Debye
        Dipole field          0.0000 Ry au, 

        Potential amp.       -0.0005 Ry
        Total length         44.6982 bohr


     total cpu time spent up to now is    21484.3 secs

     total energy              =   -2961.95152449 Ry
     estimated scf accuracy    <       0.00500791 Ry

     total magnetization       =     7.51 Bohr mag/cell
     absolute magnetization    =     9.03 Bohr mag/cell

     iteration # 32     ecut=    55.12 Ry     beta= 0.10
     Davidson diagonalization with overlap
     c_bands:  1 eigenvalues not converged
     ethr =  2.53E-06,  avg # of iterations =  4.9

     Adding external electric field

     Computed dipole along edir(3) : 
        Dipole                0.0044 Ry au,          0.0111 Debye
        Dipole field          0.0000 Ry au, 

        Potential amp.       -0.0013 Ry
        Total length         44.6982 bohr


     Adding external electric field

     Computed dipole along edir(3) : 
        Dipole                0.0044 Ry au,          0.0111 Debye
        Dipole field          0.0000 Ry au, 

        Potential amp.       -0.0013 Ry
        Total length         44.6982 bohr


     total cpu time spent up to now is    22224.4 secs

     total energy              =   -2961.60314717 Ry
     estimated scf accuracy    <       0.00301166 Ry

     total magnetization       =     7.37 Bohr mag/cell
     absolute magnetization    =     8.80 Bohr mag/cell

     iteration # 33     ecut=    55.12 Ry     beta= 0.10
     Davidson diagonalization with overlap
     c_bands:  1 eigenvalues not converged
     ethr =  1.52E-06,  avg # of iterations =  4.9

     Adding external electric field

     Computed dipole along edir(3) : 
        Dipole                0.0115 Ry au,          0.0292 Debye
        Dipole field          0.0000 Ry au, 

        Potential amp.       -0.0033 Ry
        Total length         44.6982 bohr


     Adding external electric field

     Computed dipole along edir(3) : 
        Dipole                0.0115 Ry au,          0.0292 Debye
        Dipole field          0.0000 Ry au, 

        Potential amp.       -0.0033 Ry
        Total length         44.6982 bohr


     total cpu time spent up to now is    22929.2 secs

     total energy              =   -2961.35243171 Ry
     estimated scf accuracy    <       0.00224204 Ry

     total magnetization       =     7.36 Bohr mag/cell
     absolute magnetization    =     8.72 Bohr mag/cell

     iteration # 34     ecut=    55.12 Ry     beta= 0.10
     Davidson diagonalization with overlap
     ethr =  1.13E-06,  avg # of iterations =  5.8

     Adding external electric field

     Computed dipole along edir(3) : 
        Dipole                0.0116 Ry au,          0.0296 Debye
        Dipole field          0.0000 Ry au, 

        Potential amp.       -0.0034 Ry
        Total length         44.6982 bohr


     Adding external electric field

     Computed dipole along edir(3) : 
        Dipole                0.0116 Ry au,          0.0296 Debye
        Dipole field          0.0000 Ry au, 

        Potential amp.       -0.0034 Ry
        Total length         44.6982 bohr


     total cpu time spent up to now is    23753.3 secs

     total energy              =   -2960.98642602 Ry
     estimated scf accuracy    <       0.00141050 Ry

     total magnetization       =     7.35 Bohr mag/cell
     absolute magnetization    =     8.63 Bohr mag/cell

     iteration # 35     ecut=    55.12 Ry     beta= 0.10
     Davidson diagonalization with overlap
     ethr =  7.12E-07,  avg # of iterations =  4.4

     Adding external electric field

     Computed dipole along edir(3) : 
        Dipole                0.0123 Ry au,          0.0312 Debye
        Dipole field          0.0000 Ry au, 

        Potential amp.       -0.0036 Ry
        Total length         44.6982 bohr


     Adding external electric field

     Computed dipole along edir(3) : 
        Dipole                0.0123 Ry au,          0.0312 Debye
        Dipole field          0.0000 Ry au, 

        Potential amp.       -0.0036 Ry
        Total length         44.6982 bohr


     total cpu time spent up to now is    24446.7 secs

     total energy              =   -2960.73547748 Ry
     estimated scf accuracy    <       0.00118288 Ry

     total magnetization       =     7.33 Bohr mag/cell
     absolute magnetization    =     8.56 Bohr mag/cell

     iteration # 36     ecut=    55.12 Ry     beta= 0.10
     Davidson diagonalization with overlap
     ethr =  5.97E-07,  avg # of iterations =  2.0

     Adding external electric field

     Computed dipole along edir(3) : 
        Dipole                0.0117 Ry au,          0.0298 Debye
        Dipole field          0.0000 Ry au, 

        Potential amp.       -0.0034 Ry
        Total length         44.6982 bohr


     Adding external electric field

     Computed dipole along edir(3) : 
        Dipole                0.0117 Ry au,          0.0298 Debye
        Dipole field          0.0000 Ry au, 

        Potential amp.       -0.0034 Ry
        Total length         44.6982 bohr


     total cpu time spent up to now is    25088.1 secs

     total energy              =   -2960.45700934 Ry
     estimated scf accuracy    <       0.00103857 Ry

     total magnetization       =     7.34 Bohr mag/cell
     absolute magnetization    =     8.56 Bohr mag/cell

     iteration # 37     ecut=    55.12 Ry     beta= 0.10
     Davidson diagonalization with overlap
     ethr =  5.25E-07,  avg # of iterations =  4.4

     Adding external electric field

     Computed dipole along edir(3) : 
        Dipole                0.0070 Ry au,          0.0178 Debye
        Dipole field          0.0000 Ry au, 

        Potential amp.       -0.0020 Ry
        Total length         44.6982 bohr


     Adding external electric field

     Computed dipole along edir(3) : 
        Dipole                0.0070 Ry au,          0.0178 Debye
        Dipole field          0.0000 Ry au, 

        Potential amp.       -0.0020 Ry
        Total length         44.6982 bohr


     total cpu time spent up to now is    25832.0 secs

     total energy              =   -2960.68489024 Ry
     estimated scf accuracy    <       0.00058895 Ry

     total magnetization       =     7.24 Bohr mag/cell
     absolute magnetization    =     8.44 Bohr mag/cell

     iteration # 38     ecut=    55.12 Ry     beta= 0.10
     Davidson diagonalization with overlap
     ethr =  2.97E-07,  avg # of iterations =  2.1

     Adding external electric field

     Computed dipole along edir(3) : 
        Dipole                0.0076 Ry au,          0.0194 Debye
        Dipole field          0.0000 Ry au, 

        Potential amp.       -0.0022 Ry
        Total length         44.6982 bohr


     Adding external electric field

     Computed dipole along edir(3) : 
        Dipole                0.0076 Ry au,          0.0194 Debye
        Dipole field          0.0000 Ry au, 

        Potential amp.       -0.0022 Ry
        Total length         44.6982 bohr


     total cpu time spent up to now is    26585.8 secs

     total energy              =   -2960.72316522 Ry
     estimated scf accuracy    <       0.00033193 Ry

     total magnetization       =     7.23 Bohr mag/cell
     absolute magnetization    =     8.45 Bohr mag/cell

     iteration # 39     ecut=    55.12 Ry     beta= 0.10
     Davidson diagonalization with overlap
     ethr =  1.68E-07,  avg # of iterations =  4.2

     Adding external electric field

     Computed dipole along edir(3) : 
        Dipole                0.0084 Ry au,          0.0214 Debye
        Dipole field          0.0000 Ry au, 

        Potential amp.       -0.0024 Ry
        Total length         44.6982 bohr


     Adding external electric field

     Computed dipole along edir(3) : 
        Dipole                0.0084 Ry au,          0.0214 Debye
        Dipole field          0.0000 Ry au, 

        Potential amp.       -0.0024 Ry
        Total length         44.6982 bohr


     total cpu time spent up to now is    27368.6 secs

     total energy              =   -2960.75262249 Ry
     estimated scf accuracy    <       0.00024000 Ry

     total magnetization       =     7.20 Bohr mag/cell
     absolute magnetization    =     8.41 Bohr mag/cell

     iteration # 40     ecut=    55.12 Ry     beta= 0.10
     Davidson diagonalization with overlap
     ethr =  1.21E-07,  avg # of iterations =  3.5

     Adding external electric field

     Computed dipole along edir(3) : 
        Dipole                0.0100 Ry au,          0.0253 Debye
        Dipole field          0.0000 Ry au, 

        Potential amp.       -0.0029 Ry
        Total length         44.6982 bohr


     Adding external electric field

     Computed dipole along edir(3) : 
        Dipole                0.0100 Ry au,          0.0253 Debye
        Dipole field          0.0000 Ry au, 

        Potential amp.       -0.0029 Ry
        Total length         44.6982 bohr


     total cpu time spent up to now is    28124.3 secs

     total energy              =   -2960.67087421 Ry
     estimated scf accuracy    <       0.00020256 Ry

     total magnetization       =     7.16 Bohr mag/cell
     absolute magnetization    =     8.38 Bohr mag/cell

     iteration # 41     ecut=    55.12 Ry     beta= 0.10
     Davidson diagonalization with overlap
     ethr =  1.02E-07,  avg # of iterations =  4.3

     Adding external electric field

     Computed dipole along edir(3) : 
        Dipole                0.0075 Ry au,          0.0191 Debye
        Dipole field          0.0000 Ry au, 

        Potential amp.       -0.0022 Ry
        Total length         44.6982 bohr


     Adding external electric field

     Computed dipole along edir(3) : 
        Dipole                0.0075 Ry au,          0.0191 Debye
        Dipole field          0.0000 Ry au, 

        Potential amp.       -0.0022 Ry
        Total length         44.6982 bohr


     total cpu time spent up to now is    28902.0 secs

     total energy              =   -2960.65926042 Ry
     estimated scf accuracy    <       0.00023715 Ry

     total magnetization       =     7.11 Bohr mag/cell
     absolute magnetization    =     8.34 Bohr mag/cell

     iteration # 42     ecut=    55.12 Ry     beta= 0.10
     Davidson diagonalization with overlap
     ethr =  1.02E-07,  avg # of iterations =  1.8

     Adding external electric field

     Computed dipole along edir(3) : 
        Dipole                0.0103 Ry au,          0.0263 Debye
        Dipole field          0.0000 Ry au, 

        Potential amp.       -0.0030 Ry
        Total length         44.6982 bohr


     Adding external electric field

     Computed dipole along edir(3) : 
        Dipole                0.0103 Ry au,          0.0263 Debye
        Dipole field          0.0000 Ry au, 

        Potential amp.       -0.0030 Ry
        Total length         44.6982 bohr


     total cpu time spent up to now is    29546.4 secs

     total energy              =   -2960.52117018 Ry
     estimated scf accuracy    <       0.00057095 Ry

     total magnetization       =     7.09 Bohr mag/cell
     absolute magnetization    =     8.32 Bohr mag/cell

     iteration # 43     ecut=    55.12 Ry     beta= 0.10
     Davidson diagonalization with overlap
     ethr =  1.02E-07,  avg # of iterations =  1.8

     Adding external electric field

     Computed dipole along edir(3) : 
        Dipole                0.0101 Ry au,          0.0256 Debye
        Dipole field          0.0000 Ry au, 

        Potential amp.       -0.0029 Ry
        Total length         44.6982 bohr


     Adding external electric field

     Computed dipole along edir(3) : 
        Dipole                0.0101 Ry au,          0.0256 Debye
        Dipole field          0.0000 Ry au, 

        Potential amp.       -0.0029 Ry
        Total length         44.6982 bohr


     total cpu time spent up to now is    30204.0 secs

     total energy              =   -2960.33605673 Ry
     estimated scf accuracy    <       0.00010791 Ry

     total magnetization       =     7.08 Bohr mag/cell
     absolute magnetization    =     8.31 Bohr mag/cell

     iteration # 44     ecut=    55.12 Ry     beta= 0.10
     Davidson diagonalization with overlap
     ethr =  5.45E-08,  avg # of iterations =  4.0

     Adding external electric field

     Computed dipole along edir(3) : 
        Dipole                0.0100 Ry au,          0.0254 Debye
        Dipole field          0.0000 Ry au, 

        Potential amp.       -0.0029 Ry
        Total length         44.6982 bohr


     Adding external electric field

     Computed dipole along edir(3) : 
        Dipole                0.0100 Ry au,          0.0254 Debye
        Dipole field          0.0000 Ry au, 

        Potential amp.       -0.0029 Ry
        Total length         44.6982 bohr


     total cpu time spent up to now is    30924.2 secs

     total energy              =   -2960.23274147 Ry
     estimated scf accuracy    <       0.00005797 Ry

     total magnetization       =     7.08 Bohr mag/cell
     absolute magnetization    =     8.32 Bohr mag/cell

     iteration # 45     ecut=    55.12 Ry     beta= 0.10
     Davidson diagonalization with overlap
     ethr =  2.93E-08,  avg # of iterations =  3.7

     Adding external electric field

     Computed dipole along edir(3) : 
        Dipole                0.0099 Ry au,          0.0251 Debye
        Dipole field          0.0000 Ry au, 

        Potential amp.       -0.0029 Ry
        Total length         44.6982 bohr


     Adding external electric field

     Computed dipole along edir(3) : 
        Dipole                0.0099 Ry au,          0.0251 Debye
        Dipole field          0.0000 Ry au, 

        Potential amp.       -0.0029 Ry
        Total length         44.6982 bohr


     total cpu time spent up to now is    31656.6 secs

     total energy              =   -2960.16340682 Ry
     estimated scf accuracy    <       0.00004027 Ry

     total magnetization       =     7.07 Bohr mag/cell
     absolute magnetization    =     8.32 Bohr mag/cell

     iteration # 46     ecut=    55.12 Ry     beta= 0.10
     Davidson diagonalization with overlap
     ethr =  2.03E-08,  avg # of iterations =  3.1

     Adding external electric field

     Computed dipole along edir(3) : 
        Dipole                0.0095 Ry au,          0.0240 Debye
        Dipole field          0.0000 Ry au, 

        Potential amp.       -0.0028 Ry
        Total length         44.6982 bohr


     Adding external electric field

     Computed dipole along edir(3) : 
        Dipole                0.0095 Ry au,          0.0240 Debye
        Dipole field          0.0000 Ry au, 

        Potential amp.       -0.0028 Ry
        Total length         44.6982 bohr


     total cpu time spent up to now is    32373.9 secs

     total energy              =   -2960.06529333 Ry
     estimated scf accuracy    <       0.00003627 Ry

     total magnetization       =     7.06 Bohr mag/cell
     absolute magnetization    =     8.32 Bohr mag/cell

     iteration # 47     ecut=    55.12 Ry     beta= 0.10
     Davidson diagonalization with overlap
     ethr =  1.83E-08,  avg # of iterations =  2.8

     Adding external electric field

     Computed dipole along edir(3) : 
        Dipole                0.0094 Ry au,          0.0239 Debye
        Dipole field          0.0000 Ry au, 

        Potential amp.       -0.0027 Ry
        Total length         44.6982 bohr


     Adding external electric field

     Computed dipole along edir(3) : 
        Dipole                0.0094 Ry au,          0.0239 Debye
        Dipole field          0.0000 Ry au, 

        Potential amp.       -0.0027 Ry
        Total length         44.6982 bohr


     total cpu time spent up to now is    33138.4 secs

     total energy              =   -2959.91900195 Ry
     estimated scf accuracy    <       0.00002877 Ry

     total magnetization       =     7.06 Bohr mag/cell
     absolute magnetization    =     8.33 Bohr mag/cell

     iteration # 48     ecut=    55.12 Ry     beta= 0.10
     Davidson diagonalization with overlap
     ethr =  1.45E-08,  avg # of iterations =  2.3

     Adding external electric field

     Computed dipole along edir(3) : 
        Dipole                0.0091 Ry au,          0.0231 Debye
        Dipole field          0.0000 Ry au, 

        Potential amp.       -0.0026 Ry
        Total length         44.6982 bohr


     Adding external electric field

     Computed dipole along edir(3) : 
        Dipole                0.0091 Ry au,          0.0231 Debye
        Dipole field          0.0000 Ry au, 

        Potential amp.       -0.0026 Ry
        Total length         44.6982 bohr


     total cpu time spent up to now is    33640.9 secs

     total energy              =   -2959.87016736 Ry
     estimated scf accuracy    <       0.00003873 Ry

     total magnetization       =     7.08 Bohr mag/cell
     absolute magnetization    =     8.36 Bohr mag/cell

     iteration # 49     ecut=    55.12 Ry     beta= 0.10
     Davidson diagonalization with overlap
     ethr =  1.45E-08,  avg # of iterations =  3.0

     Adding external electric field

     Computed dipole along edir(3) : 
        Dipole                0.0092 Ry au,          0.0234 Debye
        Dipole field          0.0000 Ry au, 

        Potential amp.       -0.0027 Ry
        Total length         44.6982 bohr


     Adding external electric field

     Computed dipole along edir(3) : 
        Dipole                0.0092 Ry au,          0.0234 Debye
        Dipole field          0.0000 Ry au, 

        Potential amp.       -0.0027 Ry
        Total length         44.6982 bohr


     total cpu time spent up to now is    34154.0 secs

     total energy              =   -2959.86021100 Ry
     estimated scf accuracy    <       0.00003158 Ry

     total magnetization       =     7.10 Bohr mag/cell
     absolute magnetization    =     8.38 Bohr mag/cell

     iteration # 50     ecut=    55.12 Ry     beta= 0.10
     Davidson diagonalization with overlap
     ethr =  1.45E-08,  avg # of iterations =  2.4

     Adding external electric field

     Computed dipole along edir(3) : 
        Dipole                0.0094 Ry au,          0.0238 Debye
        Dipole field          0.0000 Ry au, 

        Potential amp.       -0.0027 Ry
        Total length         44.6982 bohr


     Adding external electric field

     Computed dipole along edir(3) : 
        Dipole                0.0094 Ry au,          0.0238 Debye
        Dipole field          0.0000 Ry au, 

        Potential amp.       -0.0027 Ry
        Total length         44.6982 bohr


     total cpu time spent up to now is    34693.9 secs

     total energy              =   -2959.83425460 Ry
     estimated scf accuracy    <       0.00001564 Ry

     total magnetization       =     7.09 Bohr mag/cell
     absolute magnetization    =     8.38 Bohr mag/cell

     iteration # 51     ecut=    55.12 Ry     beta= 0.10
     Davidson diagonalization with overlap
     ethr =  7.90E-09,  avg # of iterations =  4.4

     Adding external electric field

     Computed dipole along edir(3) : 
        Dipole                0.0093 Ry au,          0.0235 Debye
        Dipole field          0.0000 Ry au, 

        Potential amp.       -0.0027 Ry
        Total length         44.6982 bohr


     Adding external electric field

     Computed dipole along edir(3) : 
        Dipole                0.0093 Ry au,          0.0235 Debye
        Dipole field          0.0000 Ry au, 

        Potential amp.       -0.0027 Ry
        Total length         44.6982 bohr


     total cpu time spent up to now is    35287.5 secs

     total energy              =   -2959.80897604 Ry
     estimated scf accuracy    <       0.00001133 Ry

     total magnetization       =     7.10 Bohr mag/cell
     absolute magnetization    =     8.40 Bohr mag/cell

     iteration # 52     ecut=    55.12 Ry     beta= 0.10
     Davidson diagonalization with overlap
     ethr =  5.72E-09,  avg # of iterations =  3.1

     Adding external electric field

     Computed dipole along edir(3) : 
        Dipole                0.0095 Ry au,          0.0241 Debye
        Dipole field          0.0000 Ry au, 

        Potential amp.       -0.0028 Ry
        Total length         44.6982 bohr


     Adding external electric field

     Computed dipole along edir(3) : 
        Dipole                0.0095 Ry au,          0.0241 Debye
        Dipole field          0.0000 Ry au, 

        Potential amp.       -0.0028 Ry
        Total length         44.6982 bohr


     total cpu time spent up to now is    35775.9 secs

     total energy              =   -2959.78567236 Ry
     estimated scf accuracy    <       0.00001049 Ry

     total magnetization       =     7.11 Bohr mag/cell
     absolute magnetization    =     8.41 Bohr mag/cell

     iteration # 53     ecut=    55.12 Ry     beta= 0.10
     Davidson diagonalization with overlap
     ethr =  5.30E-09,  avg # of iterations =  4.4

     Adding external electric field

     Computed dipole along edir(3) : 
        Dipole                0.0075 Ry au,          0.0190 Debye
        Dipole field          0.0000 Ry au, 

        Potential amp.       -0.0022 Ry
        Total length         44.6982 bohr


     Adding external electric field

     Computed dipole along edir(3) : 
        Dipole                0.0075 Ry au,          0.0190 Debye
        Dipole field          0.0000 Ry au, 

        Potential amp.       -0.0022 Ry
        Total length         44.6982 bohr


     Magnetic moment per site:
     atom:    1    charge:   15.6732    magn:    1.4024    constr:    0.0000
     atom:    2    charge:   15.6734    magn:    1.4019    constr:    0.0000
     atom:    3    charge:   13.0121    magn:    0.0772    constr:    0.0000
     atom:    4    charge:   13.0121    magn:    0.0772    constr:    0.0000
     atom:    5    charge:   15.8144    magn:    1.0470    constr:    0.0000
     atom:    6    charge:   15.8138    magn:    1.0464    constr:    0.0000
     atom:    7    charge:   13.0569    magn:   -0.0185    constr:    0.0000
     atom:    8    charge:   13.0569    magn:   -0.0185    constr:    0.0000
     atom:    9    charge:   15.7153    magn:    1.2112    constr:    0.0000
     atom:   10    charge:   15.7153    magn:    1.2104    constr:    0.0000
     atom:   11    charge:   13.0271    magn:    0.0419    constr:    0.0000
     atom:   12    charge:   13.0271    magn:    0.0420    constr:    0.0000

     total cpu time spent up to now is    36331.7 secs

     End of self-consistent calculation

     Number of k-points >= 100: set verbosity='high' to print the bands.

     the Fermi energy is     1.9478 ev

!    total energy              =   -2959.61726275 Ry
     estimated scf accuracy    <       0.00000634 Ry
     smearing contrib. (-TS)   =      -0.07441618 Ry
     internal energy E=F+TS    =   -2959.54284658 Ry

     The total energy is F=E-TS. E is the sum of the following terms:
     one-electron contribution =  -26235.97372018 Ry
     hartree contribution      =   13110.01504824 Ry
     xc contribution           =    -427.03443500 Ry
     ewald contribution        =   10593.45026018 Ry
     electric field correction =       0.00000018 Ry

     total magnetization       =     7.11 Bohr mag/cell
     absolute magnetization    =     8.43 Bohr mag/cell

     convergence has been achieved in  53 iterations

     Forces acting on atoms (cartesian axes, Ry/au):

     atom    1 type  1   force =     0.00174331    0.00100520    0.00849437
     atom    2 type  1   force =     0.00167826    0.00098849    0.00846062
     atom    3 type  2   force =     0.00365238    0.00208756    0.01519860
     atom    4 type  2   force =     0.00360895    0.00213655    0.01519665
     atom    5 type  1   force =     0.00130382    0.00077022   -0.01058188
     atom    6 type  1   force =     0.00135057    0.00077598   -0.01058927
     atom    7 type  2   force =    -0.00274065   -0.00165116   -0.01698003
     atom    8 type  2   force =    -0.00278722   -0.00156788   -0.01698175
     atom    9 type  1   force =    -0.00384138   -0.00223596    0.00412615
     atom   10 type  1   force =    -0.00373796   -0.00217610    0.00423383
     atom   11 type  2   force =    -0.00013248   -0.00003824   -0.00028774
     atom   12 type  2   force =    -0.00009760   -0.00009466   -0.00028955

     Total force =     0.039350     Total SCF correction =     0.007040
     SCF correction compared to forces is large: reduce conv_thr to get better values

     Writing output data file ./Co2Os2/Co2Os2_beef.save/

     init_run     :     87.40s CPU    352.81s WALL (       1 calls)
     electrons    :  14227.82s CPU  35975.12s WALL (       1 calls)
     forces       :     81.00s CPU    116.63s WALL (       1 calls)

     Called by init_run:
     wfcinit      :     76.82s CPU    334.05s WALL (       1 calls)
     potinit      :      7.52s CPU     15.32s WALL (       1 calls)
     hinit0       :      1.69s CPU      1.81s WALL (       1 calls)

     Called by electrons:
     c_bands      :  12635.96s CPU  31535.22s WALL (      53 calls)
     sum_band     :   1491.34s CPU   4176.49s WALL (      53 calls)
     v_of_rho     :     62.23s CPU    181.54s WALL (      54 calls)
     newd         :     41.69s CPU     73.43s WALL (      54 calls)
     mix_rho      :      2.54s CPU     17.41s WALL (      53 calls)
     vdW_kernel   :      5.57s CPU      8.68s WALL (       1 calls)

     Called by c_bands:
     init_us_2    :     21.96s CPU     33.19s WALL (   15984 calls)
     cegterg      :  12509.65s CPU  31052.54s WALL (    7844 calls)

     Called by *egterg:
     cdiaghg      :   1674.47s CPU   2758.11s WALL (   30689 calls)
     h_psi        :   5865.38s CPU  18323.50s WALL (   30837 calls)
     s_psi        :   1051.75s CPU   1217.12s WALL (   30837 calls)
     g_psi        :      6.06s CPU      8.00s WALL (   22845 calls)

     Called by h_psi:
     h_psi:calbec :   1482.32s CPU   3640.62s WALL (   30837 calls)
     vloc_psi     :   3327.60s CPU  13439.93s WALL (   30837 calls)
     add_vuspsi   :   1046.68s CPU   1226.92s WALL (   30837 calls)

     General routines
     calbec       :   2229.19s CPU   5264.38s WALL (   39273 calls)
     fft          :     32.30s CPU    173.78s WALL (    4883 calls)
     ffts         :      0.37s CPU      1.95s WALL (     214 calls)
     fftw         :   3862.05s CPU  15576.57s WALL ( 5033710 calls)
     interpolate  :      0.94s CPU      3.62s WALL (     108 calls)

     Parallel routines
     fft_scatt_xy :    178.00s CPU    351.88s WALL ( 5038807 calls)
     fft_scatt_yz :   2229.77s CPU  12596.13s WALL ( 5038807 calls)

     PWSCF        :      4h 0m CPU     10h11m WALL


   This run was terminated on:   0:47:48  30Jun2022            

=------------------------------------------------------------------------------=
   JOB DONE.
=------------------------------------------------------------------------------=
