
     Program PWSCF v.6.6 starts on 30Jun2022 at  0:47:53 

     This program is part of the open-source Quantum ESPRESSO suite
     for quantum simulation of materials; please cite
         "P. Giannozzi et al., J. Phys.:Condens. Matter 21 395502 (2009);
         "P. Giannozzi et al., J. Phys.:Condens. Matter 29 465901 (2017);
          URL http://www.quantum-espresso.org", 
     in publications or presentations arising from this work. More details at
     http://www.quantum-espresso.org/quote

     Parallel version (MPI), running on    37 processors

     MPI processes distributed on     4 nodes
     R & G space division:  proc/nbgrp/npool/nimage =      37
     Fft bands division:     nmany     =       1
     Reading input from Co2Pd2.in
Warning: card &CELL ignored
Warning: card / ignored

     Current dimensions of program PWSCF are:
     Max number of different atomic species (ntypx) = 10
     Max number of k-points (npk) =  40000
     Max angular momentum in pseudopotentials (lmaxx) =  3
     Presently stress not available with electric field and gates

     Message from routine cell_base_init:
     DEPRECATED: use true lattice parameter, not A to a.u. conversion factor
     file Co.pbe-spn-rrkjus_psl.0.3.1.UPF: wavefunction(s)  3P renormalized
     file Pd.pbe-n-rrkjus_psl.1.0.0.UPF: wavefunction(s)  4D renormalized

     **************************************************************************
     Initializing libbeef V0.1.2 with the BEEF-vdW functional.
     Citation: Wellendorff et al., PRB 85, 235149 (2012).
     **************************************************************************


     IMPORTANT: XC functional enforced from input :
     Exchange-correlation= BEEF-VDW
                           (   1   4  43  14   2   0   0)
     Any further DFT definition will be discarded
     Please, verify this is what you really want


     Subspace diagonalization in iterative solution of the eigenvalue problem:
     a serial algorithm will be used


     Parallelization info
     --------------------
     sticks:   dense  smooth     PW     G-vecs:    dense   smooth      PW
     Min         105      42     12                24213     6119     940
     Max         106      43     13                24228     6130     960
     Sum        3899    1561    447               896171   226557   35215



     bravais-lattice index     =            0
     lattice parameter (alat)  =       1.8897  a.u.
     unit-cell volume          =    4100.9195 (a.u.)^3
     number of atoms/cell      =           12
     number of atomic types    =            2
     number of electrons       =       162.00
     number of Kohn-Sham states=           97
     kinetic-energy cutoff     =      55.1240  Ry
     charge density cutoff     =     551.2396  Ry
     convergence threshold     =      1.0E-05
     mixing beta               =       0.1000
     number of iterations used =           10  plain     mixing
     Exchange-correlation= BEEF-VDW
                           (   1   4  43  14   2   0   0)

     celldm(1)=   1.889726  celldm(2)=   0.000000  celldm(3)=   0.000000
     celldm(4)=   0.000000  celldm(5)=   0.000000  celldm(6)=   0.000000

     crystal axes: (cart. coord. in units of alat)
               a(1) = (   5.355476   0.000000   0.000000 )  
               a(2) = (   2.649370   4.654242   0.000000 )  
               a(3) = (   0.000000   0.000000  24.380224 )  

     reciprocal axes: (cart. coord. in units 2 pi/alat)
               b(1) = (  0.186725 -0.106291  0.000000 )  
               b(2) = (  0.000000  0.214858  0.000000 )  
               b(3) = (  0.000000  0.000000  0.041017 )  


     PseudoPot. # 1 for Co read from file:
     ../pseudo/Co.pbe-spn-rrkjus_psl.0.3.1.UPF
     MD5 check sum: 99b21b1f85602741a4c0ed67614a7280
     Pseudo is Ultrasoft + core correction, Zval = 17.0
     Generated using "atomic" code by A. Dal Corso v.6.2.2
     Using radial grid of 1193 points,  6 beta functions with: 
                l(1) =   0
                l(2) =   0
                l(3) =   1
                l(4) =   1
                l(5) =   2
                l(6) =   2
     Q(r) pseudized with 0 coefficients 


     PseudoPot. # 2 for Pd read from file:
     ../pseudo/Pd.pbe-n-rrkjus_psl.1.0.0.UPF
     MD5 check sum: d9f693bf1c5b493397a6bd6f2231cfc3
     Pseudo is Ultrasoft + core correction, Zval = 10.0
     Generated using "atomic" code by A. Dal Corso v.6.3
     Using radial grid of 1235 points,  6 beta functions with: 
                l(1) =   0
                l(2) =   0
                l(3) =   1
                l(4) =   1
                l(5) =   2
                l(6) =   2
     Q(r) pseudized with 0 coefficients 


     atomic species   valence    mass     pseudopotential
        Co            17.00    58.93319     Co( 1.00)
        Pd            10.00   106.42000     Pd( 1.00)

     Starting magnetic structure 
     atomic species   magnetization
        Co           1.000
        Pd           0.000

     No symmetry found



   Cartesian axes

     site n.     atom                  positions (alat units)
         1           Co  tau(   1) = (   0.0000000   0.0000000  10.0000000  )
         2           Co  tau(   2) = (   4.0024230   2.3271210  10.0000000  )
         3           Pd  tau(   3) = (   2.6777382   0.0000000  10.0000000  )
         4           Pd  tau(   4) = (   1.3246848   2.3271210  10.0000000  )
         5           Co  tau(   5) = (   5.3554764   3.1138242  12.1901119  )
         6           Co  tau(   6) = (   1.3530534   0.7867032  12.1901119  )
         7           Pd  tau(   7) = (   2.6777382   3.1138242  12.1901119  )
         8           Pd  tau(   8) = (   4.0307916   0.7867032  12.1901119  )
         9           Co  tau(   9) = (   2.6801532   1.5583152  14.2669052  )
        10           Co  tau(  10) = (   6.6826875   3.8855032  14.2670280  )
        11           Pd  tau(  11) = (   5.4241199   1.5967828  14.4089633  )
        12           Pd  tau(  12) = (   4.0710305   3.9239640  14.4089636  )

     number of k points=    74  Fermi-Dirac smearing, width (Ry)=  0.0100
                       cart. coord. in units 2pi/alat
        k(    1) = (   0.0000000   0.0000000   0.0000000), wk =   0.0069444
        k(    2) = (   0.0000000   0.0179048   0.0000000), wk =   0.0138889
        k(    3) = (   0.0000000   0.0358096   0.0000000), wk =   0.0138889
        k(    4) = (   0.0000000   0.0537144   0.0000000), wk =   0.0138889
        k(    5) = (   0.0000000   0.0716193   0.0000000), wk =   0.0138889
        k(    6) = (   0.0000000   0.0895241   0.0000000), wk =   0.0138889
        k(    7) = (   0.0000000  -0.1074289   0.0000000), wk =   0.0069444
        k(    8) = (   0.0155604  -0.0088576   0.0000000), wk =   0.0138889
        k(    9) = (   0.0155604   0.0090472   0.0000000), wk =   0.0138889
        k(   10) = (   0.0155604   0.0269521   0.0000000), wk =   0.0138889
        k(   11) = (   0.0155604   0.0448569   0.0000000), wk =   0.0138889
        k(   12) = (   0.0155604   0.0627617   0.0000000), wk =   0.0138889
        k(   13) = (   0.0155604   0.0806665   0.0000000), wk =   0.0138889
        k(   14) = (   0.0155604  -0.1162864   0.0000000), wk =   0.0138889
        k(   15) = (   0.0155604  -0.0983816   0.0000000), wk =   0.0138889
        k(   16) = (   0.0155604  -0.0804768   0.0000000), wk =   0.0138889
        k(   17) = (   0.0155604  -0.0625720   0.0000000), wk =   0.0138889
        k(   18) = (   0.0155604  -0.0446672   0.0000000), wk =   0.0138889
        k(   19) = (   0.0155604  -0.0267624   0.0000000), wk =   0.0138889
        k(   20) = (   0.0311208  -0.0177151   0.0000000), wk =   0.0138889
        k(   21) = (   0.0311208   0.0001897   0.0000000), wk =   0.0138889
        k(   22) = (   0.0311208   0.0180945   0.0000000), wk =   0.0138889
        k(   23) = (   0.0311208   0.0359993   0.0000000), wk =   0.0138889
        k(   24) = (   0.0311208   0.0539041   0.0000000), wk =   0.0138889
        k(   25) = (   0.0311208   0.0718089   0.0000000), wk =   0.0138889
        k(   26) = (   0.0311208  -0.1251440   0.0000000), wk =   0.0138889
        k(   27) = (   0.0311208  -0.1072392   0.0000000), wk =   0.0138889
        k(   28) = (   0.0311208  -0.0893344   0.0000000), wk =   0.0138889
        k(   29) = (   0.0311208  -0.0714296   0.0000000), wk =   0.0138889
        k(   30) = (   0.0311208  -0.0535248   0.0000000), wk =   0.0138889
        k(   31) = (   0.0311208  -0.0356199   0.0000000), wk =   0.0138889
        k(   32) = (   0.0466812  -0.0265727   0.0000000), wk =   0.0138889
        k(   33) = (   0.0466812  -0.0086679   0.0000000), wk =   0.0138889
        k(   34) = (   0.0466812   0.0092369   0.0000000), wk =   0.0138889
        k(   35) = (   0.0466812   0.0271417   0.0000000), wk =   0.0138889
        k(   36) = (   0.0466812   0.0450466   0.0000000), wk =   0.0138889
        k(   37) = (   0.0466812   0.0629514   0.0000000), wk =   0.0138889
        k(   38) = (   0.0466812  -0.1340016   0.0000000), wk =   0.0138889
        k(   39) = (   0.0466812  -0.1160968   0.0000000), wk =   0.0138889
        k(   40) = (   0.0466812  -0.0981919   0.0000000), wk =   0.0138889
        k(   41) = (   0.0466812  -0.0802871   0.0000000), wk =   0.0138889
        k(   42) = (   0.0466812  -0.0623823   0.0000000), wk =   0.0138889
        k(   43) = (   0.0466812  -0.0444775   0.0000000), wk =   0.0138889
        k(   44) = (   0.0622416  -0.0354303   0.0000000), wk =   0.0138889
        k(   45) = (   0.0622416  -0.0175254   0.0000000), wk =   0.0138889
        k(   46) = (   0.0622416   0.0003794   0.0000000), wk =   0.0138889
        k(   47) = (   0.0622416   0.0182842   0.0000000), wk =   0.0138889
        k(   48) = (   0.0622416   0.0361890   0.0000000), wk =   0.0138889
        k(   49) = (   0.0622416   0.0540938   0.0000000), wk =   0.0138889
        k(   50) = (   0.0622416  -0.1428591   0.0000000), wk =   0.0138889
        k(   51) = (   0.0622416  -0.1249543   0.0000000), wk =   0.0138889
        k(   52) = (   0.0622416  -0.1070495   0.0000000), wk =   0.0138889
        k(   53) = (   0.0622416  -0.0891447   0.0000000), wk =   0.0138889
        k(   54) = (   0.0622416  -0.0712399   0.0000000), wk =   0.0138889
        k(   55) = (   0.0622416  -0.0533351   0.0000000), wk =   0.0138889
        k(   56) = (   0.0778020  -0.0442878   0.0000000), wk =   0.0138889
        k(   57) = (   0.0778020  -0.0263830   0.0000000), wk =   0.0138889
        k(   58) = (   0.0778020  -0.0084782   0.0000000), wk =   0.0138889
        k(   59) = (   0.0778020   0.0094266   0.0000000), wk =   0.0138889
        k(   60) = (   0.0778020   0.0273314   0.0000000), wk =   0.0138889
        k(   61) = (   0.0778020   0.0452362   0.0000000), wk =   0.0138889
        k(   62) = (   0.0778020  -0.1517167   0.0000000), wk =   0.0138889
        k(   63) = (   0.0778020  -0.1338119   0.0000000), wk =   0.0138889
        k(   64) = (   0.0778020  -0.1159071   0.0000000), wk =   0.0138889
        k(   65) = (   0.0778020  -0.0980023   0.0000000), wk =   0.0138889
        k(   66) = (   0.0778020  -0.0800974   0.0000000), wk =   0.0138889
        k(   67) = (   0.0778020  -0.0621926   0.0000000), wk =   0.0138889
        k(   68) = (  -0.0933624   0.0531454   0.0000000), wk =   0.0069444
        k(   69) = (  -0.0933624   0.0710502   0.0000000), wk =   0.0138889
        k(   70) = (  -0.0933624   0.0889550   0.0000000), wk =   0.0138889
        k(   71) = (  -0.0933624   0.1068598   0.0000000), wk =   0.0138889
        k(   72) = (  -0.0933624   0.1247646   0.0000000), wk =   0.0138889
        k(   73) = (  -0.0933624   0.1426695   0.0000000), wk =   0.0138889
        k(   74) = (  -0.0933624  -0.0542835   0.0000000), wk =   0.0069444

     Dense  grid:   896171 G-vectors     FFT dimensions: (  75,  75, 360)

     Smooth grid:   226557 G-vectors     FFT dimensions: (  48,  48, 225)

     Estimated max dynamical RAM per process >     277.31 MB

     Estimated total dynamical RAM >      10.02 GB

     Check: negative core charge=   -0.000005
     Generating pointlists ...
     new r_m :   1.0653 (alat units)  2.0131 (a.u.) for type    1
     new r_m :   1.0703 (alat units)  2.0226 (a.u.) for type    2

     Initial potential from superposition of free atoms

     starting charge  161.99486, renormalised to  162.00000


     %%%%%%%%%%%%%%%%%%%%%%%%%%%%%%%%%%%%%%%%%%%%%%%%%%%%%%%%%%%%%%%%%%%%%%%%
     %                                                                      %
     % You are using vdW-DF, which was implemented by the Thonhauser group. %
     % Please cite the following two papers that made this development      %
     % possible and the two reviews that describe the various versions:     %
     %                                                                      %
     %   T. Thonhauser et al., PRL 115, 136402 (2015).                      %
     %   T. Thonhauser et al., PRB 76, 125112 (2007).                       %
     %   K. Berland et al., Rep. Prog. Phys. 78, 066501 (2015).             %
     %   D.C. Langreth et al., J. Phys.: Condens. Matter 21, 084203 (2009). %
     %                                                                      %
     %                                                                      %
     % If you are calculating the stress with vdW-DF, please also cite:     %
     %                                                                      %
     %   R. Sabatini et al., J. Phys.: Condens. Matter 24, 424209 (2012).   %
     %                                                                      %
     %%%%%%%%%%%%%%%%%%%%%%%%%%%%%%%%%%%%%%%%%%%%%%%%%%%%%%%%%%%%%%%%%%%%%%%%



     Adding external electric field

     Computed dipole along edir(3) : 
        Dipole                0.0001 Ry au,          0.0003 Debye
        Dipole field          0.0000 Ry au, 

        Potential amp.       -0.0000 Ry
        Total length         44.9201 bohr


     Adding external electric field

     Computed dipole along edir(3) : 
        Dipole                0.0001 Ry au,          0.0003 Debye
        Dipole field          0.0000 Ry au, 

        Potential amp.       -0.0000 Ry
        Total length         44.9201 bohr

     Starting wfcs are  114 randomized atomic wfcs

     total cpu time spent up to now is      194.3 secs

     Self-consistent Calculation

     iteration #  1     ecut=    55.12 Ry     beta= 0.10
     Davidson diagonalization with overlap
     c_bands:  1 eigenvalues not converged
     ethr =  1.00E-02,  avg # of iterations =  9.9

     Adding external electric field

     Computed dipole along edir(3) : 
        Dipole               -0.1217 Ry au,         -0.3093 Debye
        Dipole field         -0.0004 Ry au, 

        Potential amp.        0.0335 Ry
        Total length         44.9201 bohr


     Adding external electric field

     Computed dipole along edir(3) : 
        Dipole               -0.1217 Ry au,         -0.3093 Debye
        Dipole field         -0.0004 Ry au, 

        Potential amp.        0.0335 Ry
        Total length         44.9201 bohr


     total cpu time spent up to now is      914.1 secs

     total energy              =   -2145.09530865 Ry
     estimated scf accuracy    <      40.69126246 Ry

     total magnetization       =    31.81 Bohr mag/cell
     absolute magnetization    =    33.19 Bohr mag/cell

     iteration #  2     ecut=    55.12 Ry     beta= 0.10
     Davidson diagonalization with overlap
     ethr =  1.00E-02,  avg # of iterations =  1.0

     Adding external electric field

     Computed dipole along edir(3) : 
        Dipole                0.2464 Ry au,          0.6264 Debye
        Dipole field          0.0008 Ry au, 

        Potential amp.       -0.0678 Ry
        Total length         44.9201 bohr


     Adding external electric field

     Computed dipole along edir(3) : 
        Dipole                0.2464 Ry au,          0.6264 Debye
        Dipole field          0.0008 Ry au, 

        Potential amp.       -0.0678 Ry
        Total length         44.9201 bohr


     total cpu time spent up to now is     1257.3 secs

     total energy              =   -2165.52770595 Ry
     estimated scf accuracy    <      28.75025558 Ry

     total magnetization       =    31.36 Bohr mag/cell
     absolute magnetization    =    32.57 Bohr mag/cell

     iteration #  3     ecut=    55.12 Ry     beta= 0.10
     Davidson diagonalization with overlap
     ethr =  1.00E-02,  avg # of iterations =  5.4

     Adding external electric field

     Computed dipole along edir(3) : 
        Dipole                0.6538 Ry au,          1.6618 Debye
        Dipole field          0.0020 Ry au, 

        Potential amp.       -0.1800 Ry
        Total length         44.9201 bohr


     Adding external electric field

     Computed dipole along edir(3) : 
        Dipole                0.6538 Ry au,          1.6618 Debye
        Dipole field          0.0020 Ry au, 

        Potential amp.       -0.1800 Ry
        Total length         44.9201 bohr


     total cpu time spent up to now is     1983.5 secs

     total energy              =   -2189.07270935 Ry
     estimated scf accuracy    <     136.74333547 Ry

     total magnetization       =     5.26 Bohr mag/cell
     absolute magnetization    =     6.04 Bohr mag/cell

     iteration #  4     ecut=    55.12 Ry     beta= 0.10
     Davidson diagonalization with overlap
     ethr =  1.00E-02,  avg # of iterations =  1.3

     Adding external electric field

     Computed dipole along edir(3) : 
        Dipole               -0.3245 Ry au,         -0.8247 Debye
        Dipole field         -0.0010 Ry au, 

        Potential amp.        0.0893 Ry
        Total length         44.9201 bohr


     Adding external electric field

     Computed dipole along edir(3) : 
        Dipole               -0.3245 Ry au,         -0.8247 Debye
        Dipole field         -0.0010 Ry au, 

        Potential amp.        0.0893 Ry
        Total length         44.9201 bohr


     total cpu time spent up to now is     2374.8 secs

     total energy              =   -2200.37580866 Ry
     estimated scf accuracy    <     198.12079826 Ry

     total magnetization       =     4.13 Bohr mag/cell
     absolute magnetization    =     5.48 Bohr mag/cell

     iteration #  5     ecut=    55.12 Ry     beta= 0.10
     Davidson diagonalization with overlap
     ethr =  1.00E-02,  avg # of iterations =  2.5

     Adding external electric field

     Computed dipole along edir(3) : 
        Dipole               -0.4325 Ry au,         -1.0994 Debye
        Dipole field         -0.0013 Ry au, 

        Potential amp.        0.1191 Ry
        Total length         44.9201 bohr


     Adding external electric field

     Computed dipole along edir(3) : 
        Dipole               -0.4325 Ry au,         -1.0994 Debye
        Dipole field         -0.0013 Ry au, 

        Potential amp.        0.1191 Ry
        Total length         44.9201 bohr


     total cpu time spent up to now is     2773.3 secs

     total energy              =   -2199.04343291 Ry
     estimated scf accuracy    <     213.21897118 Ry

     total magnetization       =     4.13 Bohr mag/cell
     absolute magnetization    =     5.27 Bohr mag/cell

     iteration #  6     ecut=    55.12 Ry     beta= 0.10
     Davidson diagonalization with overlap
     ethr =  1.00E-02,  avg # of iterations =  1.0

     Adding external electric field

     Computed dipole along edir(3) : 
        Dipole               -0.3443 Ry au,         -0.8752 Debye
        Dipole field         -0.0011 Ry au, 

        Potential amp.        0.0948 Ry
        Total length         44.9201 bohr


     Adding external electric field

     Computed dipole along edir(3) : 
        Dipole               -0.3443 Ry au,         -0.8752 Debye
        Dipole field         -0.0011 Ry au, 

        Potential amp.        0.0948 Ry
        Total length         44.9201 bohr


     total cpu time spent up to now is     3133.4 secs

     total energy              =   -2181.05103308 Ry
     estimated scf accuracy    <     212.31485114 Ry

     total magnetization       =     4.08 Bohr mag/cell
     absolute magnetization    =     5.32 Bohr mag/cell

     iteration #  7     ecut=    55.12 Ry     beta= 0.10
     Davidson diagonalization with overlap
     ethr =  1.00E-02,  avg # of iterations =  2.0

     Adding external electric field

     Computed dipole along edir(3) : 
        Dipole                0.0680 Ry au,          0.1729 Debye
        Dipole field          0.0002 Ry au, 

        Potential amp.       -0.0187 Ry
        Total length         44.9201 bohr


     Adding external electric field

     Computed dipole along edir(3) : 
        Dipole                0.0680 Ry au,          0.1729 Debye
        Dipole field          0.0002 Ry au, 

        Potential amp.       -0.0187 Ry
        Total length         44.9201 bohr


     total cpu time spent up to now is     3561.9 secs

     total energy              =   -2181.41996798 Ry
     estimated scf accuracy    <     154.34819486 Ry

     total magnetization       =     3.34 Bohr mag/cell
     absolute magnetization    =     5.16 Bohr mag/cell

     iteration #  8     ecut=    55.12 Ry     beta= 0.10
     Davidson diagonalization with overlap
     ethr =  1.00E-02,  avg # of iterations =  1.0

     Adding external electric field

     Computed dipole along edir(3) : 
        Dipole               -0.1216 Ry au,         -0.3090 Debye
        Dipole field         -0.0004 Ry au, 

        Potential amp.        0.0335 Ry
        Total length         44.9201 bohr


     Adding external electric field

     Computed dipole along edir(3) : 
        Dipole               -0.1216 Ry au,         -0.3090 Debye
        Dipole field         -0.0004 Ry au, 

        Potential amp.        0.0335 Ry
        Total length         44.9201 bohr


     total cpu time spent up to now is     3897.8 secs

     total energy              =   -2169.90978585 Ry
     estimated scf accuracy    <      86.82547509 Ry

     total magnetization       =     3.48 Bohr mag/cell
     absolute magnetization    =     4.87 Bohr mag/cell

     iteration #  9     ecut=    55.12 Ry     beta= 0.10
     Davidson diagonalization with overlap
     ethr =  1.00E-02,  avg # of iterations =  2.3

     Adding external electric field

     Computed dipole along edir(3) : 
        Dipole               -0.0666 Ry au,         -0.1693 Debye
        Dipole field         -0.0002 Ry au, 

        Potential amp.        0.0183 Ry
        Total length         44.9201 bohr


     Adding external electric field

     Computed dipole along edir(3) : 
        Dipole               -0.0666 Ry au,         -0.1693 Debye
        Dipole field         -0.0002 Ry au, 

        Potential amp.        0.0183 Ry
        Total length         44.9201 bohr


     total cpu time spent up to now is     4363.6 secs

     total energy              =   -2179.06781335 Ry
     estimated scf accuracy    <      13.20040008 Ry

     total magnetization       =    19.70 Bohr mag/cell
     absolute magnetization    =    20.34 Bohr mag/cell

     iteration # 10     ecut=    55.12 Ry     beta= 0.10
     Davidson diagonalization with overlap
     ethr =  8.15E-03,  avg # of iterations =  1.1

     Adding external electric field

     Computed dipole along edir(3) : 
        Dipole               -0.0943 Ry au,         -0.2396 Debye
        Dipole field         -0.0003 Ry au, 

        Potential amp.        0.0259 Ry
        Total length         44.9201 bohr


     Adding external electric field

     Computed dipole along edir(3) : 
        Dipole               -0.0943 Ry au,         -0.2396 Debye
        Dipole field         -0.0003 Ry au, 

        Potential amp.        0.0259 Ry
        Total length         44.9201 bohr


     total cpu time spent up to now is     4713.0 secs

     total energy              =   -2178.34152158 Ry
     estimated scf accuracy    <       9.71728189 Ry

     total magnetization       =    19.29 Bohr mag/cell
     absolute magnetization    =    19.88 Bohr mag/cell

     iteration # 11     ecut=    55.12 Ry     beta= 0.10
     Davidson diagonalization with overlap
     ethr =  6.00E-03,  avg # of iterations =  1.1

     Adding external electric field

     Computed dipole along edir(3) : 
        Dipole               -0.0967 Ry au,         -0.2459 Debye
        Dipole field         -0.0003 Ry au, 

        Potential amp.        0.0266 Ry
        Total length         44.9201 bohr


     Adding external electric field

     Computed dipole along edir(3) : 
        Dipole               -0.0967 Ry au,         -0.2459 Debye
        Dipole field         -0.0003 Ry au, 

        Potential amp.        0.0266 Ry
        Total length         44.9201 bohr


     total cpu time spent up to now is     5038.7 secs

     total energy              =   -2177.86250259 Ry
     estimated scf accuracy    <       5.68128848 Ry

     total magnetization       =    16.57 Bohr mag/cell
     absolute magnetization    =    17.30 Bohr mag/cell

     iteration # 12     ecut=    55.12 Ry     beta= 0.10
     Davidson diagonalization with overlap
     ethr =  3.51E-03,  avg # of iterations =  1.0

     Adding external electric field

     Computed dipole along edir(3) : 
        Dipole               -0.0973 Ry au,         -0.2474 Debye
        Dipole field         -0.0003 Ry au, 

        Potential amp.        0.0268 Ry
        Total length         44.9201 bohr


     Adding external electric field

     Computed dipole along edir(3) : 
        Dipole               -0.0973 Ry au,         -0.2474 Debye
        Dipole field         -0.0003 Ry au, 

        Potential amp.        0.0268 Ry
        Total length         44.9201 bohr


     total cpu time spent up to now is     5379.1 secs

     total energy              =   -2177.49366468 Ry
     estimated scf accuracy    <       4.56017394 Ry

     total magnetization       =    15.89 Bohr mag/cell
     absolute magnetization    =    16.68 Bohr mag/cell

     iteration # 13     ecut=    55.12 Ry     beta= 0.10
     Davidson diagonalization with overlap
     ethr =  2.81E-03,  avg # of iterations =  2.0

     Adding external electric field

     Computed dipole along edir(3) : 
        Dipole                0.0505 Ry au,          0.1284 Debye
        Dipole field          0.0002 Ry au, 

        Potential amp.       -0.0139 Ry
        Total length         44.9201 bohr


     Adding external electric field

     Computed dipole along edir(3) : 
        Dipole                0.0505 Ry au,          0.1284 Debye
        Dipole field          0.0002 Ry au, 

        Potential amp.       -0.0139 Ry
        Total length         44.9201 bohr


     total cpu time spent up to now is     5772.8 secs

     total energy              =   -2173.04604321 Ry
     estimated scf accuracy    <      31.15810161 Ry

     total magnetization       =     5.60 Bohr mag/cell
     absolute magnetization    =     6.94 Bohr mag/cell

     iteration # 14     ecut=    55.12 Ry     beta= 0.10
     Davidson diagonalization with overlap
     ethr =  2.81E-03,  avg # of iterations =  2.9

     Adding external electric field

     Computed dipole along edir(3) : 
        Dipole                0.0160 Ry au,          0.0406 Debye
        Dipole field          0.0000 Ry au, 

        Potential amp.       -0.0044 Ry
        Total length         44.9201 bohr


     Adding external electric field

     Computed dipole along edir(3) : 
        Dipole                0.0160 Ry au,          0.0406 Debye
        Dipole field          0.0000 Ry au, 

        Potential amp.       -0.0044 Ry
        Total length         44.9201 bohr


     total cpu time spent up to now is     6204.5 secs

     total energy              =   -2176.35489144 Ry
     estimated scf accuracy    <      14.35919235 Ry

     total magnetization       =    16.92 Bohr mag/cell
     absolute magnetization    =    17.54 Bohr mag/cell

     iteration # 15     ecut=    55.12 Ry     beta= 0.10
     Davidson diagonalization with overlap
     ethr =  2.81E-03,  avg # of iterations =  1.1

     Adding external electric field

     Computed dipole along edir(3) : 
        Dipole               -0.0170 Ry au,         -0.0432 Debye
        Dipole field         -0.0001 Ry au, 

        Potential amp.        0.0047 Ry
        Total length         44.9201 bohr


     Adding external electric field

     Computed dipole along edir(3) : 
        Dipole               -0.0170 Ry au,         -0.0432 Debye
        Dipole field         -0.0001 Ry au, 

        Potential amp.        0.0047 Ry
        Total length         44.9201 bohr


     total cpu time spent up to now is     6539.3 secs

     total energy              =   -2177.04618636 Ry
     estimated scf accuracy    <       0.40544401 Ry

     total magnetization       =    13.33 Bohr mag/cell
     absolute magnetization    =    14.11 Bohr mag/cell

     iteration # 16     ecut=    55.12 Ry     beta= 0.10
     Davidson diagonalization with overlap
     ethr =  2.50E-04,  avg # of iterations =  4.5

     Adding external electric field

     Computed dipole along edir(3) : 
        Dipole               -0.0005 Ry au,         -0.0013 Debye
        Dipole field         -0.0000 Ry au, 

        Potential amp.        0.0001 Ry
        Total length         44.9201 bohr


     Adding external electric field

     Computed dipole along edir(3) : 
        Dipole               -0.0005 Ry au,         -0.0013 Debye
        Dipole field         -0.0000 Ry au, 

        Potential amp.        0.0001 Ry
        Total length         44.9201 bohr


     total cpu time spent up to now is     7020.8 secs

     total energy              =   -2175.99314363 Ry
     estimated scf accuracy    <       1.59581865 Ry

     total magnetization       =    12.17 Bohr mag/cell
     absolute magnetization    =    13.06 Bohr mag/cell

     iteration # 17     ecut=    55.12 Ry     beta= 0.10
     Davidson diagonalization with overlap
     ethr =  2.50E-04,  avg # of iterations =  1.1

     Adding external electric field

     Computed dipole along edir(3) : 
        Dipole                0.0224 Ry au,          0.0570 Debye
        Dipole field          0.0001 Ry au, 

        Potential amp.       -0.0062 Ry
        Total length         44.9201 bohr


     Adding external electric field

     Computed dipole along edir(3) : 
        Dipole                0.0224 Ry au,          0.0570 Debye
        Dipole field          0.0001 Ry au, 

        Potential amp.       -0.0062 Ry
        Total length         44.9201 bohr


     total cpu time spent up to now is     7352.5 secs

     total energy              =   -2175.04305667 Ry
     estimated scf accuracy    <       0.22459974 Ry

     total magnetization       =    13.94 Bohr mag/cell
     absolute magnetization    =    14.83 Bohr mag/cell

     iteration # 18     ecut=    55.12 Ry     beta= 0.10
     Davidson diagonalization with overlap
     ethr =  1.39E-04,  avg # of iterations =  1.6

     Adding external electric field

     Computed dipole along edir(3) : 
        Dipole                0.0306 Ry au,          0.0778 Debye
        Dipole field          0.0001 Ry au, 

        Potential amp.       -0.0084 Ry
        Total length         44.9201 bohr


     Adding external electric field

     Computed dipole along edir(3) : 
        Dipole                0.0306 Ry au,          0.0778 Debye
        Dipole field          0.0001 Ry au, 

        Potential amp.       -0.0084 Ry
        Total length         44.9201 bohr


     total cpu time spent up to now is     7753.3 secs

     total energy              =   -2174.32474987 Ry
     estimated scf accuracy    <       0.26785813 Ry

     total magnetization       =    14.49 Bohr mag/cell
     absolute magnetization    =    15.48 Bohr mag/cell

     iteration # 19     ecut=    55.12 Ry     beta= 0.10
     Davidson diagonalization with overlap
     ethr =  1.39E-04,  avg # of iterations =  1.0

     Adding external electric field

     Computed dipole along edir(3) : 
        Dipole                0.0390 Ry au,          0.0990 Debye
        Dipole field          0.0001 Ry au, 

        Potential amp.       -0.0107 Ry
        Total length         44.9201 bohr


     Adding external electric field

     Computed dipole along edir(3) : 
        Dipole                0.0390 Ry au,          0.0990 Debye
        Dipole field          0.0001 Ry au, 

        Potential amp.       -0.0107 Ry
        Total length         44.9201 bohr


     total cpu time spent up to now is     8091.9 secs

     total energy              =   -2173.67402978 Ry
     estimated scf accuracy    <       0.19813837 Ry

     total magnetization       =    14.54 Bohr mag/cell
     absolute magnetization    =    15.59 Bohr mag/cell

     iteration # 20     ecut=    55.12 Ry     beta= 0.10
     Davidson diagonalization with overlap
     ethr =  1.22E-04,  avg # of iterations =  1.4

     Adding external electric field

     Computed dipole along edir(3) : 
        Dipole                0.0245 Ry au,          0.0623 Debye
        Dipole field          0.0001 Ry au, 

        Potential amp.       -0.0068 Ry
        Total length         44.9201 bohr


     Adding external electric field

     Computed dipole along edir(3) : 
        Dipole                0.0245 Ry au,          0.0623 Debye
        Dipole field          0.0001 Ry au, 

        Potential amp.       -0.0068 Ry
        Total length         44.9201 bohr


     total cpu time spent up to now is     8440.8 secs

     total energy              =   -2173.00112947 Ry
     estimated scf accuracy    <       0.13121508 Ry

     total magnetization       =    14.35 Bohr mag/cell
     absolute magnetization    =    15.47 Bohr mag/cell

     iteration # 21     ecut=    55.12 Ry     beta= 0.10
     Davidson diagonalization with overlap
     ethr =  8.10E-05,  avg # of iterations =  1.1

     Adding external electric field

     Computed dipole along edir(3) : 
        Dipole                0.0094 Ry au,          0.0239 Debye
        Dipole field          0.0000 Ry au, 

        Potential amp.       -0.0026 Ry
        Total length         44.9201 bohr


     Adding external electric field

     Computed dipole along edir(3) : 
        Dipole                0.0094 Ry au,          0.0239 Debye
        Dipole field          0.0000 Ry au, 

        Potential amp.       -0.0026 Ry
        Total length         44.9201 bohr


     total cpu time spent up to now is     8804.2 secs

     total energy              =   -2172.44546246 Ry
     estimated scf accuracy    <       0.04643669 Ry

     total magnetization       =    14.25 Bohr mag/cell
     absolute magnetization    =    15.39 Bohr mag/cell

     iteration # 22     ecut=    55.12 Ry     beta= 0.10
     Davidson diagonalization with overlap
     ethr =  2.87E-05,  avg # of iterations =  1.9

     Adding external electric field

     Computed dipole along edir(3) : 
        Dipole                0.0006 Ry au,          0.0015 Debye
        Dipole field          0.0000 Ry au, 

        Potential amp.       -0.0002 Ry
        Total length         44.9201 bohr


     Adding external electric field

     Computed dipole along edir(3) : 
        Dipole                0.0006 Ry au,          0.0015 Debye
        Dipole field          0.0000 Ry au, 

        Potential amp.       -0.0002 Ry
        Total length         44.9201 bohr


     total cpu time spent up to now is     9165.2 secs

     total energy              =   -2171.94139248 Ry
     estimated scf accuracy    <       0.01518414 Ry

     total magnetization       =    14.34 Bohr mag/cell
     absolute magnetization    =    15.52 Bohr mag/cell

     iteration # 23     ecut=    55.12 Ry     beta= 0.10
     Davidson diagonalization with overlap
     c_bands:  1 eigenvalues not converged
     c_bands:  1 eigenvalues not converged
     c_bands:  1 eigenvalues not converged
     c_bands:  1 eigenvalues not converged
     c_bands:  1 eigenvalues not converged
     ethr =  9.37E-06,  avg # of iterations =  2.9

     Adding external electric field

     Computed dipole along edir(3) : 
        Dipole               -0.0017 Ry au,         -0.0043 Debye
        Dipole field         -0.0000 Ry au, 

        Potential amp.        0.0005 Ry
        Total length         44.9201 bohr


     Adding external electric field

     Computed dipole along edir(3) : 
        Dipole               -0.0017 Ry au,         -0.0043 Debye
        Dipole field         -0.0000 Ry au, 

        Potential amp.        0.0005 Ry
        Total length         44.9201 bohr


     total cpu time spent up to now is     9551.5 secs

     total energy              =   -2171.58449891 Ry
     estimated scf accuracy    <       0.01512958 Ry

     total magnetization       =    14.26 Bohr mag/cell
     absolute magnetization    =    15.56 Bohr mag/cell

     iteration # 24     ecut=    55.12 Ry     beta= 0.10
     Davidson diagonalization with overlap
     c_bands:  1 eigenvalues not converged
     ethr =  9.34E-06,  avg # of iterations =  1.8

     Adding external electric field

     Computed dipole along edir(3) : 
        Dipole                0.0080 Ry au,          0.0203 Debye
        Dipole field          0.0000 Ry au, 

        Potential amp.       -0.0022 Ry
        Total length         44.9201 bohr


     Adding external electric field

     Computed dipole along edir(3) : 
        Dipole                0.0080 Ry au,          0.0203 Debye
        Dipole field          0.0000 Ry au, 

        Potential amp.       -0.0022 Ry
        Total length         44.9201 bohr


     total cpu time spent up to now is     9925.0 secs

     total energy              =   -2171.20142802 Ry
     estimated scf accuracy    <       0.01678798 Ry

     total magnetization       =    14.19 Bohr mag/cell
     absolute magnetization    =    15.56 Bohr mag/cell

     iteration # 25     ecut=    55.12 Ry     beta= 0.10
     Davidson diagonalization with overlap
     c_bands:  1 eigenvalues not converged
     ethr =  9.34E-06,  avg # of iterations =  2.1

     Adding external electric field

     Computed dipole along edir(3) : 
        Dipole                0.0015 Ry au,          0.0038 Debye
        Dipole field          0.0000 Ry au, 

        Potential amp.       -0.0004 Ry
        Total length         44.9201 bohr


     Adding external electric field

     Computed dipole along edir(3) : 
        Dipole                0.0015 Ry au,          0.0038 Debye
        Dipole field          0.0000 Ry au, 

        Potential amp.       -0.0004 Ry
        Total length         44.9201 bohr


     total cpu time spent up to now is    10297.2 secs

     total energy              =   -2171.05352814 Ry
     estimated scf accuracy    <       0.00547269 Ry

     total magnetization       =    14.26 Bohr mag/cell
     absolute magnetization    =    15.66 Bohr mag/cell

     iteration # 26     ecut=    55.12 Ry     beta= 0.10
     Davidson diagonalization with overlap
     c_bands:  1 eigenvalues not converged
     c_bands:  1 eigenvalues not converged
     c_bands:  1 eigenvalues not converged
     c_bands:  1 eigenvalues not converged
     ethr =  3.38E-06,  avg # of iterations =  4.6

     Adding external electric field

     Computed dipole along edir(3) : 
        Dipole                0.0018 Ry au,          0.0045 Debye
        Dipole field          0.0000 Ry au, 

        Potential amp.       -0.0005 Ry
        Total length         44.9201 bohr


     Adding external electric field

     Computed dipole along edir(3) : 
        Dipole                0.0018 Ry au,          0.0045 Debye
        Dipole field          0.0000 Ry au, 

        Potential amp.       -0.0005 Ry
        Total length         44.9201 bohr


     total cpu time spent up to now is    10730.2 secs

     total energy              =   -2170.64201402 Ry
     estimated scf accuracy    <       0.00448994 Ry

     total magnetization       =    14.21 Bohr mag/cell
     absolute magnetization    =    15.67 Bohr mag/cell

     iteration # 27     ecut=    55.12 Ry     beta= 0.10
     Davidson diagonalization with overlap
     c_bands:  1 eigenvalues not converged
     c_bands:  1 eigenvalues not converged
     c_bands:  1 eigenvalues not converged
     ethr =  2.77E-06,  avg # of iterations =  2.0

     Adding external electric field

     Computed dipole along edir(3) : 
        Dipole               -0.0031 Ry au,         -0.0078 Debye
        Dipole field         -0.0000 Ry au, 

        Potential amp.        0.0008 Ry
        Total length         44.9201 bohr


     Adding external electric field

     Computed dipole along edir(3) : 
        Dipole               -0.0031 Ry au,         -0.0078 Debye
        Dipole field         -0.0000 Ry au, 

        Potential amp.        0.0008 Ry
        Total length         44.9201 bohr


     total cpu time spent up to now is    11115.7 secs

     total energy              =   -2170.49306328 Ry
     estimated scf accuracy    <       0.00319838 Ry

     total magnetization       =    14.19 Bohr mag/cell
     absolute magnetization    =    15.65 Bohr mag/cell

     iteration # 28     ecut=    55.12 Ry     beta= 0.10
     Davidson diagonalization with overlap
     c_bands:  1 eigenvalues not converged
     c_bands:  1 eigenvalues not converged
     c_bands:  1 eigenvalues not converged
     ethr =  1.97E-06,  avg # of iterations =  2.2

     Adding external electric field

     Computed dipole along edir(3) : 
        Dipole               -0.0023 Ry au,         -0.0059 Debye
        Dipole field         -0.0000 Ry au, 

        Potential amp.        0.0006 Ry
        Total length         44.9201 bohr


     Adding external electric field

     Computed dipole along edir(3) : 
        Dipole               -0.0023 Ry au,         -0.0059 Debye
        Dipole field         -0.0000 Ry au, 

        Potential amp.        0.0006 Ry
        Total length         44.9201 bohr


     total cpu time spent up to now is    11477.9 secs

     total energy              =   -2170.29193999 Ry
     estimated scf accuracy    <       0.00092266 Ry

     total magnetization       =    14.16 Bohr mag/cell
     absolute magnetization    =    15.66 Bohr mag/cell

     iteration # 29     ecut=    55.12 Ry     beta= 0.10
     Davidson diagonalization with overlap
     ethr =  5.70E-07,  avg # of iterations =  4.9

     Adding external electric field

     Computed dipole along edir(3) : 
        Dipole               -0.0060 Ry au,         -0.0152 Debye
        Dipole field         -0.0000 Ry au, 

        Potential amp.        0.0016 Ry
        Total length         44.9201 bohr


     Adding external electric field

     Computed dipole along edir(3) : 
        Dipole               -0.0060 Ry au,         -0.0152 Debye
        Dipole field         -0.0000 Ry au, 

        Potential amp.        0.0016 Ry
        Total length         44.9201 bohr


     total cpu time spent up to now is    11884.4 secs

     total energy              =   -2170.17786441 Ry
     estimated scf accuracy    <       0.00107608 Ry

     total magnetization       =    14.17 Bohr mag/cell
     absolute magnetization    =    15.72 Bohr mag/cell

     iteration # 30     ecut=    55.12 Ry     beta= 0.10
     Davidson diagonalization with overlap
     ethr =  5.70E-07,  avg # of iterations =  2.0

     Adding external electric field

     Computed dipole along edir(3) : 
        Dipole               -0.0046 Ry au,         -0.0117 Debye
        Dipole field         -0.0000 Ry au, 

        Potential amp.        0.0013 Ry
        Total length         44.9201 bohr


     Adding external electric field

     Computed dipole along edir(3) : 
        Dipole               -0.0046 Ry au,         -0.0117 Debye
        Dipole field         -0.0000 Ry au, 

        Potential amp.        0.0013 Ry
        Total length         44.9201 bohr


     total cpu time spent up to now is    12263.8 secs

     total energy              =   -2169.96277578 Ry
     estimated scf accuracy    <       0.00028510 Ry

     total magnetization       =    14.17 Bohr mag/cell
     absolute magnetization    =    15.76 Bohr mag/cell

     iteration # 31     ecut=    55.12 Ry     beta= 0.10
     Davidson diagonalization with overlap
     ethr =  1.76E-07,  avg # of iterations =  3.3

     Adding external electric field

     Computed dipole along edir(3) : 
        Dipole               -0.0050 Ry au,         -0.0127 Debye
        Dipole field         -0.0000 Ry au, 

        Potential amp.        0.0014 Ry
        Total length         44.9201 bohr


     Adding external electric field

     Computed dipole along edir(3) : 
        Dipole               -0.0050 Ry au,         -0.0127 Debye
        Dipole field         -0.0000 Ry au, 

        Potential amp.        0.0014 Ry
        Total length         44.9201 bohr


     total cpu time spent up to now is    12697.3 secs

     total energy              =   -2169.74876140 Ry
     estimated scf accuracy    <       0.00034449 Ry

     total magnetization       =    14.19 Bohr mag/cell
     absolute magnetization    =    15.81 Bohr mag/cell

     iteration # 32     ecut=    55.12 Ry     beta= 0.10
     Davidson diagonalization with overlap
     ethr =  1.76E-07,  avg # of iterations =  1.9

     Adding external electric field

     Computed dipole along edir(3) : 
        Dipole               -0.0043 Ry au,         -0.0108 Debye
        Dipole field         -0.0000 Ry au, 

        Potential amp.        0.0012 Ry
        Total length         44.9201 bohr


     Adding external electric field

     Computed dipole along edir(3) : 
        Dipole               -0.0043 Ry au,         -0.0108 Debye
        Dipole field         -0.0000 Ry au, 

        Potential amp.        0.0012 Ry
        Total length         44.9201 bohr


     total cpu time spent up to now is    13142.8 secs

     total energy              =   -2169.49932044 Ry
     estimated scf accuracy    <       0.00021562 Ry

     total magnetization       =    14.18 Bohr mag/cell
     absolute magnetization    =    15.83 Bohr mag/cell

     iteration # 33     ecut=    55.12 Ry     beta= 0.10
     Davidson diagonalization with overlap
     ethr =  1.33E-07,  avg # of iterations =  1.8

     Adding external electric field

     Computed dipole along edir(3) : 
        Dipole               -0.0049 Ry au,         -0.0124 Debye
        Dipole field         -0.0000 Ry au, 

        Potential amp.        0.0013 Ry
        Total length         44.9201 bohr


     Adding external electric field

     Computed dipole along edir(3) : 
        Dipole               -0.0049 Ry au,         -0.0124 Debye
        Dipole field         -0.0000 Ry au, 

        Potential amp.        0.0013 Ry
        Total length         44.9201 bohr


     total cpu time spent up to now is    13510.8 secs

     total energy              =   -2169.28732473 Ry
     estimated scf accuracy    <       0.00012278 Ry

     total magnetization       =    14.19 Bohr mag/cell
     absolute magnetization    =    15.85 Bohr mag/cell

     iteration # 34     ecut=    55.12 Ry     beta= 0.10
     Davidson diagonalization with overlap
     ethr =  7.58E-08,  avg # of iterations =  4.3

     Adding external electric field

     Computed dipole along edir(3) : 
        Dipole               -0.0052 Ry au,         -0.0132 Debye
        Dipole field         -0.0000 Ry au, 

        Potential amp.        0.0014 Ry
        Total length         44.9201 bohr


     Adding external electric field

     Computed dipole along edir(3) : 
        Dipole               -0.0052 Ry au,         -0.0132 Debye
        Dipole field         -0.0000 Ry au, 

        Potential amp.        0.0014 Ry
        Total length         44.9201 bohr


     total cpu time spent up to now is    13914.0 secs

     total energy              =   -2169.18653770 Ry
     estimated scf accuracy    <       0.00008030 Ry

     total magnetization       =    14.19 Bohr mag/cell
     absolute magnetization    =    15.86 Bohr mag/cell

     iteration # 35     ecut=    55.12 Ry     beta= 0.10
     Davidson diagonalization with overlap
     c_bands:  1 eigenvalues not converged
     ethr =  4.96E-08,  avg # of iterations =  3.6

     Adding external electric field

     Computed dipole along edir(3) : 
        Dipole               -0.0052 Ry au,         -0.0131 Debye
        Dipole field         -0.0000 Ry au, 

        Potential amp.        0.0014 Ry
        Total length         44.9201 bohr


     Adding external electric field

     Computed dipole along edir(3) : 
        Dipole               -0.0052 Ry au,         -0.0131 Debye
        Dipole field         -0.0000 Ry au, 

        Potential amp.        0.0014 Ry
        Total length         44.9201 bohr


     total cpu time spent up to now is    14358.3 secs

     total energy              =   -2169.00308104 Ry
     estimated scf accuracy    <       0.00005817 Ry

     total magnetization       =    14.18 Bohr mag/cell
     absolute magnetization    =    15.87 Bohr mag/cell

     iteration # 36     ecut=    55.12 Ry     beta= 0.10
     Davidson diagonalization with overlap
     c_bands:  1 eigenvalues not converged
     ethr =  3.59E-08,  avg # of iterations =  1.9

     Adding external electric field

     Computed dipole along edir(3) : 
        Dipole               -0.0048 Ry au,         -0.0123 Debye
        Dipole field         -0.0000 Ry au, 

        Potential amp.        0.0013 Ry
        Total length         44.9201 bohr


     Adding external electric field

     Computed dipole along edir(3) : 
        Dipole               -0.0048 Ry au,         -0.0123 Debye
        Dipole field         -0.0000 Ry au, 

        Potential amp.        0.0013 Ry
        Total length         44.9201 bohr


     total cpu time spent up to now is    14723.8 secs

     total energy              =   -2168.82336535 Ry
     estimated scf accuracy    <       0.00002972 Ry

     total magnetization       =    14.18 Bohr mag/cell
     absolute magnetization    =    15.88 Bohr mag/cell

     iteration # 37     ecut=    55.12 Ry     beta= 0.10
     Davidson diagonalization with overlap
     ethr =  1.83E-08,  avg # of iterations =  3.5

     Adding external electric field

     Computed dipole along edir(3) : 
        Dipole               -0.0037 Ry au,         -0.0095 Debye
        Dipole field         -0.0000 Ry au, 

        Potential amp.        0.0010 Ry
        Total length         44.9201 bohr


     Adding external electric field

     Computed dipole along edir(3) : 
        Dipole               -0.0037 Ry au,         -0.0095 Debye
        Dipole field         -0.0000 Ry au, 

        Potential amp.        0.0010 Ry
        Total length         44.9201 bohr


     total cpu time spent up to now is    15124.6 secs

     total energy              =   -2168.64647145 Ry
     estimated scf accuracy    <       0.00002707 Ry

     total magnetization       =    14.18 Bohr mag/cell
     absolute magnetization    =    15.88 Bohr mag/cell

     iteration # 38     ecut=    55.12 Ry     beta= 0.10
     Davidson diagonalization with overlap
     ethr =  1.67E-08,  avg # of iterations =  1.7

     Adding external electric field

     Computed dipole along edir(3) : 
        Dipole               -0.0039 Ry au,         -0.0099 Debye
        Dipole field         -0.0000 Ry au, 

        Potential amp.        0.0011 Ry
        Total length         44.9201 bohr


     Adding external electric field

     Computed dipole along edir(3) : 
        Dipole               -0.0039 Ry au,         -0.0099 Debye
        Dipole field         -0.0000 Ry au, 

        Potential amp.        0.0011 Ry
        Total length         44.9201 bohr


     total cpu time spent up to now is    15479.7 secs

     total energy              =   -2168.50713694 Ry
     estimated scf accuracy    <       0.00002006 Ry

     total magnetization       =    14.18 Bohr mag/cell
     absolute magnetization    =    15.88 Bohr mag/cell

     iteration # 39     ecut=    55.12 Ry     beta= 0.10
     Davidson diagonalization with overlap
     ethr =  1.24E-08,  avg # of iterations =  1.7

     Adding external electric field

     Computed dipole along edir(3) : 
        Dipole               -0.0042 Ry au,         -0.0106 Debye
        Dipole field         -0.0000 Ry au, 

        Potential amp.        0.0011 Ry
        Total length         44.9201 bohr


     Adding external electric field

     Computed dipole along edir(3) : 
        Dipole               -0.0042 Ry au,         -0.0106 Debye
        Dipole field         -0.0000 Ry au, 

        Potential amp.        0.0011 Ry
        Total length         44.9201 bohr


     total cpu time spent up to now is    15850.3 secs

     total energy              =   -2168.34918641 Ry
     estimated scf accuracy    <       0.00001115 Ry

     total magnetization       =    14.18 Bohr mag/cell
     absolute magnetization    =    15.88 Bohr mag/cell

     iteration # 40     ecut=    55.12 Ry     beta= 0.10
     Davidson diagonalization with overlap
     ethr =  6.89E-09,  avg # of iterations =  3.4

     Adding external electric field

     Computed dipole along edir(3) : 
        Dipole               -0.0042 Ry au,         -0.0106 Debye
        Dipole field         -0.0000 Ry au, 

        Potential amp.        0.0011 Ry
        Total length         44.9201 bohr


     Adding external electric field

     Computed dipole along edir(3) : 
        Dipole               -0.0042 Ry au,         -0.0106 Debye
        Dipole field         -0.0000 Ry au, 

        Potential amp.        0.0011 Ry
        Total length         44.9201 bohr


     total cpu time spent up to now is    16257.0 secs

     total energy              =   -2168.23904732 Ry
     estimated scf accuracy    <       0.00001513 Ry

     total magnetization       =    14.18 Bohr mag/cell
     absolute magnetization    =    15.88 Bohr mag/cell

     iteration # 41     ecut=    55.12 Ry     beta= 0.10
     Davidson diagonalization with overlap
     ethr =  6.89E-09,  avg # of iterations =  2.0

     Adding external electric field

     Computed dipole along edir(3) : 
        Dipole               -0.0099 Ry au,         -0.0252 Debye
        Dipole field         -0.0000 Ry au, 

        Potential amp.        0.0027 Ry
        Total length         44.9201 bohr


     Adding external electric field

     Computed dipole along edir(3) : 
        Dipole               -0.0099 Ry au,         -0.0252 Debye
        Dipole field         -0.0000 Ry au, 

        Potential amp.        0.0027 Ry
        Total length         44.9201 bohr


     Magnetic moment per site:
     atom:    1    charge:   15.5663    magn:    2.1190    constr:    0.0000
     atom:    2    charge:   15.5655    magn:    2.1197    constr:    0.0000
     atom:    3    charge:    8.1385    magn:    0.3298    constr:    0.0000
     atom:    4    charge:    8.1385    magn:    0.3298    constr:    0.0000
     atom:    5    charge:   15.6208    magn:    2.1361    constr:    0.0000
     atom:    6    charge:   15.6205    magn:    2.1362    constr:    0.0000
     atom:    7    charge:    8.1717    magn:    0.4053    constr:    0.0000
     atom:    8    charge:    8.1717    magn:    0.4053    constr:    0.0000
     atom:    9    charge:   15.5972    magn:    2.1139    constr:    0.0000
     atom:   10    charge:   15.5957    magn:    2.1153    constr:    0.0000
     atom:   11    charge:    8.1373    magn:    0.3262    constr:    0.0000
     atom:   12    charge:    8.1373    magn:    0.3262    constr:    0.0000

     total cpu time spent up to now is    16638.7 secs

     End of self-consistent calculation

     Number of k-points >= 100: set verbosity='high' to print the bands.

     the Fermi energy is     0.4139 ev

!    total energy              =   -2167.15507777 Ry
     estimated scf accuracy    <       0.00000698 Ry
     smearing contrib. (-TS)   =      -0.07343665 Ry
     internal energy E=F+TS    =   -2167.08164112 Ry

     The total energy is F=E-TS. E is the sum of the following terms:
     one-electron contribution =  -16820.16781644 Ry
     hartree contribution      =    8449.89495323 Ry
     xc contribution           =    -325.95847514 Ry
     ewald contribution        =    6529.14969694 Ry
     electric field correction =       0.00000030 Ry

     total magnetization       =    14.18 Bohr mag/cell
     absolute magnetization    =    15.88 Bohr mag/cell

     convergence has been achieved in  41 iterations

     Forces acting on atoms (cartesian axes, Ry/au):

     atom    1 type  1   force =     0.01062349    0.00617534    0.01601071
     atom    2 type  1   force =     0.01059533    0.00616522    0.01574591
     atom    3 type  2   force =    -0.01493904   -0.00866387   -0.00914453
     atom    4 type  2   force =    -0.01491910   -0.00869749   -0.00914439
     atom    5 type  1   force =    -0.00159720   -0.00093185   -0.00121869
     atom    6 type  1   force =    -0.00136645   -0.00078744   -0.00117764
     atom    7 type  2   force =     0.00737480    0.00429967   -0.00591324
     atom    8 type  2   force =     0.00738548    0.00428153   -0.00591432
     atom    9 type  1   force =    -0.00082297   -0.00047589    0.00019819
     atom   10 type  1   force =    -0.00069060   -0.00040819    0.00010135
     atom   11 type  2   force =    -0.00083012   -0.00046174    0.00022861
     atom   12 type  2   force =    -0.00081362   -0.00049528    0.00022804

     Total force =     0.042394     Total SCF correction =     0.009318
     SCF correction compared to forces is large: reduce conv_thr to get better values

     Writing output data file ./Co2Pd2/Co2Pd2_beef.save/

     init_run     :    127.03s CPU    168.90s WALL (       1 calls)
     electrons    :  11714.88s CPU  16444.83s WALL (       1 calls)
     forces       :     91.37s CPU    115.76s WALL (       1 calls)

     Called by init_run:
     wfcinit      :    114.66s CPU    155.53s WALL (       1 calls)
     potinit      :      8.01s CPU      8.79s WALL (       1 calls)
     hinit0       :      1.78s CPU      1.85s WALL (       1 calls)

     Called by electrons:
     c_bands      :  10060.72s CPU  14048.78s WALL (      41 calls)
     sum_band     :   1543.41s CPU   2242.51s WALL (      41 calls)
     v_of_rho     :     66.37s CPU     92.84s WALL (      42 calls)
     newd         :     48.94s CPU     62.90s WALL (      42 calls)
     mix_rho      :      2.78s CPU      4.73s WALL (      41 calls)
     vdW_kernel   :      5.90s CPU      6.09s WALL (       1 calls)

     Called by c_bands:
     init_us_2    :     37.53s CPU     39.34s WALL (   12432 calls)
     cegterg      :   9944.74s CPU  13802.29s WALL (    6068 calls)

     Called by *egterg:
     cdiaghg      :    735.13s CPU    836.08s WALL (   20827 calls)
     h_psi        :   5755.77s CPU   8129.99s WALL (   20975 calls)
     s_psi        :   1241.33s CPU   1243.23s WALL (   20975 calls)
     g_psi        :      5.29s CPU      5.83s WALL (   14759 calls)

     Called by h_psi:
     h_psi:calbec :   1895.10s CPU   2367.46s WALL (   20975 calls)
     vloc_psi     :   2560.20s CPU   4456.27s WALL (   20975 calls)
     add_vuspsi   :   1288.24s CPU   1292.21s WALL (   20975 calls)

     General routines
     calbec       :   2828.71s CPU   3543.85s WALL (   27635 calls)
     fft          :     35.03s CPU     68.81s WALL (    3815 calls)
     ffts         :      0.32s CPU      0.79s WALL (     166 calls)
     fftw         :   2884.97s CPU   5162.21s WALL ( 3186644 calls)
     interpolate  :      0.79s CPU      1.58s WALL (      84 calls)

     Parallel routines
     fft_scatt_xy :    187.51s CPU    272.08s WALL ( 3190625 calls)
     fft_scatt_yz :   1447.27s CPU   3283.91s WALL ( 3190625 calls)

     PWSCF        :      3h19m CPU      4h42m WALL


   This run was terminated on:   5:30:46  30Jun2022            

=------------------------------------------------------------------------------=
   JOB DONE.
=------------------------------------------------------------------------------=
