
     Program PWSCF v.6.6 starts on  1Jul2022 at  0: 3:23 

     This program is part of the open-source Quantum ESPRESSO suite
     for quantum simulation of materials; please cite
         "P. Giannozzi et al., J. Phys.:Condens. Matter 21 395502 (2009);
         "P. Giannozzi et al., J. Phys.:Condens. Matter 29 465901 (2017);
          URL http://www.quantum-espresso.org", 
     in publications or presentations arising from this work. More details at
     http://www.quantum-espresso.org/quote

     Parallel version (MPI), running on    37 processors

     MPI processes distributed on     4 nodes
     R & G space division:  proc/nbgrp/npool/nimage =      37
     Fft bands division:     nmany     =       1
     Reading input from Co2Ru2.in
Warning: card &CELL ignored
Warning: card / ignored

     Current dimensions of program PWSCF are:
     Max number of different atomic species (ntypx) = 10
     Max number of k-points (npk) =  40000
     Max angular momentum in pseudopotentials (lmaxx) =  3
     Presently stress not available with electric field and gates

     Message from routine cell_base_init:
     DEPRECATED: use true lattice parameter, not A to a.u. conversion factor
     file Co.pbe-spn-rrkjus_psl.0.3.1.UPF: wavefunction(s)  3P renormalized

     **************************************************************************
     Initializing libbeef V0.1.2 with the BEEF-vdW functional.
     Citation: Wellendorff et al., PRB 85, 235149 (2012).
     **************************************************************************


     IMPORTANT: XC functional enforced from input :
     Exchange-correlation= BEEF-VDW
                           (   1   4  43  14   2   0   0)
     Any further DFT definition will be discarded
     Please, verify this is what you really want


     Subspace diagonalization in iterative solution of the eigenvalue problem:
     a serial algorithm will be used

     Found symmetry operation: I + (  0.5000 -0.5000  0.0000)
     This is a supercell, fractional translations are disabled

     Parallelization info
     --------------------
     sticks:   dense  smooth     PW     G-vecs:    dense   smooth      PW
     Min          99      39     11                22625     5713     889
     Max         100      40     12                22636     5730     914
     Sum        3667    1473    429               837333   211789   33313



     bravais-lattice index     =            0
     lattice parameter (alat)  =       1.8897  a.u.
     unit-cell volume          =    3831.0640 (a.u.)^3
     number of atoms/cell      =           12
     number of atomic types    =            2
     number of electrons       =       198.00
     number of Kohn-Sham states=          119
     kinetic-energy cutoff     =      55.1240  Ry
     charge density cutoff     =     551.2396  Ry
     convergence threshold     =      1.0E-05
     mixing beta               =       0.1000
     number of iterations used =           10  plain     mixing
     Exchange-correlation= BEEF-VDW
                           (   1   4  43  14   2   0   0)

     celldm(1)=   1.889726  celldm(2)=   0.000000  celldm(3)=   0.000000
     celldm(4)=   0.000000  celldm(5)=   0.000000  celldm(6)=   0.000000

     crystal axes: (cart. coord. in units of alat)
               a(1) = (   5.181923   0.000000   0.000000 )  
               a(2) = (   2.536532   4.518665   0.000000 )  
               a(3) = (   0.000000   0.000000  24.244978 )  

     reciprocal axes: (cart. coord. in units 2 pi/alat)
               b(1) = (  0.192979 -0.108328  0.000000 )  
               b(2) = (  0.000000  0.221304  0.000000 )  
               b(3) = (  0.000000  0.000000  0.041246 )  


     PseudoPot. # 1 for Co read from file:
     ../pseudo/Co.pbe-spn-rrkjus_psl.0.3.1.UPF
     MD5 check sum: 99b21b1f85602741a4c0ed67614a7280
     Pseudo is Ultrasoft + core correction, Zval = 17.0
     Generated using "atomic" code by A. Dal Corso v.6.2.2
     Using radial grid of 1193 points,  6 beta functions with: 
                l(1) =   0
                l(2) =   0
                l(3) =   1
                l(4) =   1
                l(5) =   2
                l(6) =   2
     Q(r) pseudized with 0 coefficients 


     PseudoPot. # 2 for Ru read from file:
     ../pseudo/Ru.pbe-spn-rrkjus_psl.1.0.0.UPF
     MD5 check sum: fbaca725316a1a65f98761fd4ac95971
     Pseudo is Ultrasoft + core correction, Zval = 16.0
     Generated using "atomic" code by A. Dal Corso v.6.2.2
     Using radial grid of 1233 points,  6 beta functions with: 
                l(1) =   0
                l(2) =   0
                l(3) =   1
                l(4) =   1
                l(5) =   2
                l(6) =   2
     Q(r) pseudized with 0 coefficients 


     atomic species   valence    mass     pseudopotential
        Co            17.00    58.93319     Co( 1.00)
        Ru            16.00   101.07000     Ru( 1.00)

     Starting magnetic structure 
     atomic species   magnetization
        Co           1.000
        Ru           0.000

     No symmetry found



   Cartesian axes

     site n.     atom                  positions (alat units)
         1           Co  tau(   1) = (   0.0000000   0.0000000  10.0000000  )
         2           Co  tau(   2) = (   3.8592274   2.2593326  10.0000000  )
         3           Ru  tau(   3) = (   2.5909616   0.0000000  10.0000000  )
         4           Ru  tau(   4) = (   1.2682658   2.2593326  10.0000000  )
         5           Co  tau(   5) = (   5.1819231   3.0336869  12.1224889  )
         6           Co  tau(   6) = (   1.3226957   0.7743544  12.1224889  )
         7           Ru  tau(   7) = (   2.5909616   3.0336869  12.1224889  )
         8           Ru  tau(   8) = (   3.9136573   0.7743544  12.1224889  )
         9           Co  tau(   9) = (   2.6150809   1.5309643  14.1688417  )
        10           Co  tau(  10) = (   6.4742688   3.7902726  14.1688501  )
        11           Ru  tau(  11) = (   5.2197702   1.5389874  14.2058629  )
        12           Ru  tau(  12) = (   3.8970635   3.7983398  14.2058630  )

     number of k points=    74  Fermi-Dirac smearing, width (Ry)=  0.0100
                       cart. coord. in units 2pi/alat
        k(    1) = (   0.0000000   0.0000000   0.0000000), wk =   0.0069444
        k(    2) = (   0.0000000   0.0184420   0.0000000), wk =   0.0138889
        k(    3) = (   0.0000000   0.0368841   0.0000000), wk =   0.0138889
        k(    4) = (   0.0000000   0.0553261   0.0000000), wk =   0.0138889
        k(    5) = (   0.0000000   0.0737681   0.0000000), wk =   0.0138889
        k(    6) = (   0.0000000   0.0922101   0.0000000), wk =   0.0138889
        k(    7) = (   0.0000000  -0.1106522   0.0000000), wk =   0.0069444
        k(    8) = (   0.0160815  -0.0090273   0.0000000), wk =   0.0138889
        k(    9) = (   0.0160815   0.0094147   0.0000000), wk =   0.0138889
        k(   10) = (   0.0160815   0.0278567   0.0000000), wk =   0.0138889
        k(   11) = (   0.0160815   0.0462988   0.0000000), wk =   0.0138889
        k(   12) = (   0.0160815   0.0647408   0.0000000), wk =   0.0138889
        k(   13) = (   0.0160815   0.0831828   0.0000000), wk =   0.0138889
        k(   14) = (   0.0160815  -0.1196795   0.0000000), wk =   0.0138889
        k(   15) = (   0.0160815  -0.1012374   0.0000000), wk =   0.0138889
        k(   16) = (   0.0160815  -0.0827954   0.0000000), wk =   0.0138889
        k(   17) = (   0.0160815  -0.0643534   0.0000000), wk =   0.0138889
        k(   18) = (   0.0160815  -0.0459114   0.0000000), wk =   0.0138889
        k(   19) = (   0.0160815  -0.0274693   0.0000000), wk =   0.0138889
        k(   20) = (   0.0321631  -0.0180546   0.0000000), wk =   0.0138889
        k(   21) = (   0.0321631   0.0003874   0.0000000), wk =   0.0138889
        k(   22) = (   0.0321631   0.0188294   0.0000000), wk =   0.0138889
        k(   23) = (   0.0321631   0.0372715   0.0000000), wk =   0.0138889
        k(   24) = (   0.0321631   0.0557135   0.0000000), wk =   0.0138889
        k(   25) = (   0.0321631   0.0741555   0.0000000), wk =   0.0138889
        k(   26) = (   0.0321631  -0.1287068   0.0000000), wk =   0.0138889
        k(   27) = (   0.0321631  -0.1102647   0.0000000), wk =   0.0138889
        k(   28) = (   0.0321631  -0.0918227   0.0000000), wk =   0.0138889
        k(   29) = (   0.0321631  -0.0733807   0.0000000), wk =   0.0138889
        k(   30) = (   0.0321631  -0.0549387   0.0000000), wk =   0.0138889
        k(   31) = (   0.0321631  -0.0364966   0.0000000), wk =   0.0138889
        k(   32) = (   0.0482446  -0.0270819   0.0000000), wk =   0.0138889
        k(   33) = (   0.0482446  -0.0086399   0.0000000), wk =   0.0138889
        k(   34) = (   0.0482446   0.0098021   0.0000000), wk =   0.0138889
        k(   35) = (   0.0482446   0.0282442   0.0000000), wk =   0.0138889
        k(   36) = (   0.0482446   0.0466862   0.0000000), wk =   0.0138889
        k(   37) = (   0.0482446   0.0651282   0.0000000), wk =   0.0138889
        k(   38) = (   0.0482446  -0.1377341   0.0000000), wk =   0.0138889
        k(   39) = (   0.0482446  -0.1192920   0.0000000), wk =   0.0138889
        k(   40) = (   0.0482446  -0.1008500   0.0000000), wk =   0.0138889
        k(   41) = (   0.0482446  -0.0824080   0.0000000), wk =   0.0138889
        k(   42) = (   0.0482446  -0.0639660   0.0000000), wk =   0.0138889
        k(   43) = (   0.0482446  -0.0455239   0.0000000), wk =   0.0138889
        k(   44) = (   0.0643262  -0.0361092   0.0000000), wk =   0.0138889
        k(   45) = (   0.0643262  -0.0176672   0.0000000), wk =   0.0138889
        k(   46) = (   0.0643262   0.0007748   0.0000000), wk =   0.0138889
        k(   47) = (   0.0643262   0.0192169   0.0000000), wk =   0.0138889
        k(   48) = (   0.0643262   0.0376589   0.0000000), wk =   0.0138889
        k(   49) = (   0.0643262   0.0561009   0.0000000), wk =   0.0138889
        k(   50) = (   0.0643262  -0.1467614   0.0000000), wk =   0.0138889
        k(   51) = (   0.0643262  -0.1283193   0.0000000), wk =   0.0138889
        k(   52) = (   0.0643262  -0.1098773   0.0000000), wk =   0.0138889
        k(   53) = (   0.0643262  -0.0914353   0.0000000), wk =   0.0138889
        k(   54) = (   0.0643262  -0.0729933   0.0000000), wk =   0.0138889
        k(   55) = (   0.0643262  -0.0545512   0.0000000), wk =   0.0138889
        k(   56) = (   0.0804077  -0.0451365   0.0000000), wk =   0.0138889
        k(   57) = (   0.0804077  -0.0266945   0.0000000), wk =   0.0138889
        k(   58) = (   0.0804077  -0.0082525   0.0000000), wk =   0.0138889
        k(   59) = (   0.0804077   0.0101896   0.0000000), wk =   0.0138889
        k(   60) = (   0.0804077   0.0286316   0.0000000), wk =   0.0138889
        k(   61) = (   0.0804077   0.0470736   0.0000000), wk =   0.0138889
        k(   62) = (   0.0804077  -0.1557887   0.0000000), wk =   0.0138889
        k(   63) = (   0.0804077  -0.1373466   0.0000000), wk =   0.0138889
        k(   64) = (   0.0804077  -0.1189046   0.0000000), wk =   0.0138889
        k(   65) = (   0.0804077  -0.1004626   0.0000000), wk =   0.0138889
        k(   66) = (   0.0804077  -0.0820206   0.0000000), wk =   0.0138889
        k(   67) = (   0.0804077  -0.0635785   0.0000000), wk =   0.0138889
        k(   68) = (  -0.0964893   0.0541638   0.0000000), wk =   0.0069444
        k(   69) = (  -0.0964893   0.0726058   0.0000000), wk =   0.0138889
        k(   70) = (  -0.0964893   0.0910479   0.0000000), wk =   0.0138889
        k(   71) = (  -0.0964893   0.1094899   0.0000000), wk =   0.0138889
        k(   72) = (  -0.0964893   0.1279319   0.0000000), wk =   0.0138889
        k(   73) = (  -0.0964893   0.1463739   0.0000000), wk =   0.0138889
        k(   74) = (  -0.0964893  -0.0564883   0.0000000), wk =   0.0069444

     Dense  grid:   837333 G-vectors     FFT dimensions: (  75,  75, 360)

     Smooth grid:   211789 G-vectors     FFT dimensions: (  48,  48, 225)

     Estimated max dynamical RAM per process >     295.35 MB

     Estimated total dynamical RAM >      10.67 GB

     Check: negative core charge=   -0.000008
     Generating pointlists ...
     new r_m :   1.0460 (alat units)  1.9767 (a.u.) for type    1
     new r_m :   1.0473 (alat units)  1.9791 (a.u.) for type    2

     Initial potential from superposition of free atoms

     starting charge  197.99447, renormalised to  198.00000


     %%%%%%%%%%%%%%%%%%%%%%%%%%%%%%%%%%%%%%%%%%%%%%%%%%%%%%%%%%%%%%%%%%%%%%%%
     %                                                                      %
     % You are using vdW-DF, which was implemented by the Thonhauser group. %
     % Please cite the following two papers that made this development      %
     % possible and the two reviews that describe the various versions:     %
     %                                                                      %
     %   T. Thonhauser et al., PRL 115, 136402 (2015).                      %
     %   T. Thonhauser et al., PRB 76, 125112 (2007).                       %
     %   K. Berland et al., Rep. Prog. Phys. 78, 066501 (2015).             %
     %   D.C. Langreth et al., J. Phys.: Condens. Matter 21, 084203 (2009). %
     %                                                                      %
     %                                                                      %
     % If you are calculating the stress with vdW-DF, please also cite:     %
     %                                                                      %
     %   R. Sabatini et al., J. Phys.: Condens. Matter 24, 424209 (2012).   %
     %                                                                      %
     %%%%%%%%%%%%%%%%%%%%%%%%%%%%%%%%%%%%%%%%%%%%%%%%%%%%%%%%%%%%%%%%%%%%%%%%



     Adding external electric field

     Computed dipole along edir(3) : 
        Dipole                0.0000 Ry au,          0.0001 Debye
        Dipole field          0.0000 Ry au, 

        Potential amp.       -0.0000 Ry
        Total length         44.6710 bohr


     Adding external electric field

     Computed dipole along edir(3) : 
        Dipole                0.0000 Ry au,          0.0001 Debye
        Dipole field          0.0000 Ry au, 

        Potential amp.       -0.0000 Ry
        Total length         44.6710 bohr

     Starting wfcs are  120 randomized atomic wfcs

     total cpu time spent up to now is      157.8 secs

     Self-consistent Calculation

     iteration #  1     ecut=    55.12 Ry     beta= 0.10
     Davidson diagonalization with overlap
     ethr =  1.00E-02,  avg # of iterations =  8.4

     Adding external electric field

     Computed dipole along edir(3) : 
        Dipole               -0.0365 Ry au,         -0.0929 Debye
        Dipole field         -0.0001 Ry au, 

        Potential amp.        0.0107 Ry
        Total length         44.6710 bohr


     Adding external electric field

     Computed dipole along edir(3) : 
        Dipole               -0.0365 Ry au,         -0.0929 Debye
        Dipole field         -0.0001 Ry au, 

        Potential amp.        0.0107 Ry
        Total length         44.6710 bohr


     total cpu time spent up to now is      862.2 secs

     total energy              =   -2922.75281767 Ry
     estimated scf accuracy    <      55.02442677 Ry

     total magnetization       =    32.48 Bohr mag/cell
     absolute magnetization    =    32.78 Bohr mag/cell

     iteration #  2     ecut=    55.12 Ry     beta= 0.10
     Davidson diagonalization with overlap
     ethr =  1.00E-02,  avg # of iterations =  1.5

     Adding external electric field

     Computed dipole along edir(3) : 
        Dipole                0.1478 Ry au,          0.3757 Debye
        Dipole field          0.0005 Ry au, 

        Potential amp.       -0.0433 Ry
        Total length         44.6710 bohr


     Adding external electric field

     Computed dipole along edir(3) : 
        Dipole                0.1478 Ry au,          0.3757 Debye
        Dipole field          0.0005 Ry au, 

        Potential amp.       -0.0433 Ry
        Total length         44.6710 bohr


     total cpu time spent up to now is     1212.9 secs

     total energy              =   -2936.20730207 Ry
     estimated scf accuracy    <      33.26999896 Ry

     total magnetization       =    32.06 Bohr mag/cell
     absolute magnetization    =    32.31 Bohr mag/cell

     iteration #  3     ecut=    55.12 Ry     beta= 0.10
     Davidson diagonalization with overlap
     ethr =  1.00E-02,  avg # of iterations =  5.0

     Adding external electric field

     Computed dipole along edir(3) : 
        Dipole                0.2862 Ry au,          0.7274 Debye
        Dipole field          0.0009 Ry au, 

        Potential amp.       -0.0839 Ry
        Total length         44.6710 bohr


     Adding external electric field

     Computed dipole along edir(3) : 
        Dipole                0.2862 Ry au,          0.7274 Debye
        Dipole field          0.0009 Ry au, 

        Potential amp.       -0.0839 Ry
        Total length         44.6710 bohr


     total cpu time spent up to now is     1770.5 secs

     total energy              =   -2952.56230514 Ry
     estimated scf accuracy    <      99.64390341 Ry

     total magnetization       =     7.47 Bohr mag/cell
     absolute magnetization    =     8.16 Bohr mag/cell

     iteration #  4     ecut=    55.12 Ry     beta= 0.10
     Davidson diagonalization with overlap
     ethr =  1.00E-02,  avg # of iterations =  2.3

     Adding external electric field

     Computed dipole along edir(3) : 
        Dipole               -0.2064 Ry au,         -0.5245 Debye
        Dipole field         -0.0007 Ry au, 

        Potential amp.        0.0605 Ry
        Total length         44.6710 bohr


     Adding external electric field

     Computed dipole along edir(3) : 
        Dipole               -0.2064 Ry au,         -0.5245 Debye
        Dipole field         -0.0007 Ry au, 

        Potential amp.        0.0605 Ry
        Total length         44.6710 bohr


     total cpu time spent up to now is     2121.5 secs

     total energy              =   -2955.74309038 Ry
     estimated scf accuracy    <     127.59232804 Ry

     total magnetization       =     6.00 Bohr mag/cell
     absolute magnetization    =     7.20 Bohr mag/cell

     iteration #  5     ecut=    55.12 Ry     beta= 0.10
     Davidson diagonalization with overlap
     ethr =  1.00E-02,  avg # of iterations =  2.3

     Adding external electric field

     Computed dipole along edir(3) : 
        Dipole               -0.1116 Ry au,         -0.2838 Debye
        Dipole field         -0.0004 Ry au, 

        Potential amp.        0.0327 Ry
        Total length         44.6710 bohr


     Adding external electric field

     Computed dipole along edir(3) : 
        Dipole               -0.1116 Ry au,         -0.2838 Debye
        Dipole field         -0.0004 Ry au, 

        Potential amp.        0.0327 Ry
        Total length         44.6710 bohr


     total cpu time spent up to now is     2499.7 secs

     total energy              =   -2958.70664158 Ry
     estimated scf accuracy    <     149.92594847 Ry

     total magnetization       =     5.87 Bohr mag/cell
     absolute magnetization    =     7.11 Bohr mag/cell

     iteration #  6     ecut=    55.12 Ry     beta= 0.10
     Davidson diagonalization with overlap
     ethr =  1.00E-02,  avg # of iterations =  1.7

     Adding external electric field

     Computed dipole along edir(3) : 
        Dipole               -0.1252 Ry au,         -0.3182 Debye
        Dipole field         -0.0004 Ry au, 

        Potential amp.        0.0367 Ry
        Total length         44.6710 bohr


     Adding external electric field

     Computed dipole along edir(3) : 
        Dipole               -0.1252 Ry au,         -0.3182 Debye
        Dipole field         -0.0004 Ry au, 

        Potential amp.        0.0367 Ry
        Total length         44.6710 bohr


     total cpu time spent up to now is     2836.8 secs

     total energy              =   -2944.33040887 Ry
     estimated scf accuracy    <     170.56158645 Ry

     total magnetization       =     5.96 Bohr mag/cell
     absolute magnetization    =     7.29 Bohr mag/cell

     iteration #  7     ecut=    55.12 Ry     beta= 0.10
     Davidson diagonalization with overlap
     ethr =  1.00E-02,  avg # of iterations =  3.6

     Adding external electric field

     Computed dipole along edir(3) : 
        Dipole               -0.0424 Ry au,         -0.1077 Debye
        Dipole field         -0.0001 Ry au, 

        Potential amp.        0.0124 Ry
        Total length         44.6710 bohr


     Adding external electric field

     Computed dipole along edir(3) : 
        Dipole               -0.0424 Ry au,         -0.1077 Debye
        Dipole field         -0.0001 Ry au, 

        Potential amp.        0.0124 Ry
        Total length         44.6710 bohr


     total cpu time spent up to now is     3321.5 secs

     total energy              =   -2958.29939248 Ry
     estimated scf accuracy    <      18.36959543 Ry

     total magnetization       =    17.70 Bohr mag/cell
     absolute magnetization    =    19.60 Bohr mag/cell

     iteration #  8     ecut=    55.12 Ry     beta= 0.10
     Davidson diagonalization with overlap
     ethr =  9.28E-03,  avg # of iterations =  2.6

     Adding external electric field

     Computed dipole along edir(3) : 
        Dipole               -0.1025 Ry au,         -0.2606 Debye
        Dipole field         -0.0003 Ry au, 

        Potential amp.        0.0300 Ry
        Total length         44.6710 bohr


     Adding external electric field

     Computed dipole along edir(3) : 
        Dipole               -0.1025 Ry au,         -0.2606 Debye
        Dipole field         -0.0003 Ry au, 

        Potential amp.        0.0300 Ry
        Total length         44.6710 bohr


     total cpu time spent up to now is     3725.6 secs

     total energy              =   -2964.05963682 Ry
     estimated scf accuracy    <      33.75404885 Ry

     total magnetization       =    26.66 Bohr mag/cell
     absolute magnetization    =    27.39 Bohr mag/cell

     iteration #  9     ecut=    55.12 Ry     beta= 0.10
     Davidson diagonalization with overlap
     ethr =  9.28E-03,  avg # of iterations =  1.6

     Adding external electric field

     Computed dipole along edir(3) : 
        Dipole               -0.1171 Ry au,         -0.2975 Debye
        Dipole field         -0.0004 Ry au, 

        Potential amp.        0.0343 Ry
        Total length         44.6710 bohr


     Adding external electric field

     Computed dipole along edir(3) : 
        Dipole               -0.1171 Ry au,         -0.2975 Debye
        Dipole field         -0.0004 Ry au, 

        Potential amp.        0.0343 Ry
        Total length         44.6710 bohr


     total cpu time spent up to now is     4076.4 secs

     total energy              =   -2964.36200599 Ry
     estimated scf accuracy    <      59.57169310 Ry

     total magnetization       =    17.06 Bohr mag/cell
     absolute magnetization    =    18.02 Bohr mag/cell

     iteration # 10     ecut=    55.12 Ry     beta= 0.10
     Davidson diagonalization with overlap
     ethr =  9.28E-03,  avg # of iterations =  1.1

     Adding external electric field

     Computed dipole along edir(3) : 
        Dipole               -0.1216 Ry au,         -0.3091 Debye
        Dipole field         -0.0004 Ry au, 

        Potential amp.        0.0356 Ry
        Total length         44.6710 bohr


     Adding external electric field

     Computed dipole along edir(3) : 
        Dipole               -0.1216 Ry au,         -0.3091 Debye
        Dipole field         -0.0004 Ry au, 

        Potential amp.        0.0356 Ry
        Total length         44.6710 bohr


     total cpu time spent up to now is     4409.2 secs

     total energy              =   -2962.45910180 Ry
     estimated scf accuracy    <      68.74736226 Ry

     total magnetization       =    16.36 Bohr mag/cell
     absolute magnetization    =    17.22 Bohr mag/cell

     iteration # 11     ecut=    55.12 Ry     beta= 0.10
     Davidson diagonalization with overlap
     ethr =  9.28E-03,  avg # of iterations =  1.2

     Adding external electric field

     Computed dipole along edir(3) : 
        Dipole               -0.0178 Ry au,         -0.0453 Debye
        Dipole field         -0.0001 Ry au, 

        Potential amp.        0.0052 Ry
        Total length         44.6710 bohr


     Adding external electric field

     Computed dipole along edir(3) : 
        Dipole               -0.0178 Ry au,         -0.0453 Debye
        Dipole field         -0.0001 Ry au, 

        Potential amp.        0.0052 Ry
        Total length         44.6710 bohr


     total cpu time spent up to now is     4735.1 secs

     total energy              =   -2956.33117474 Ry
     estimated scf accuracy    <      44.77042352 Ry

     total magnetization       =    22.29 Bohr mag/cell
     absolute magnetization    =    22.71 Bohr mag/cell

     iteration # 12     ecut=    55.12 Ry     beta= 0.10
     Davidson diagonalization with overlap
     ethr =  9.28E-03,  avg # of iterations =  1.0

     Adding external electric field

     Computed dipole along edir(3) : 
        Dipole               -0.0005 Ry au,         -0.0012 Debye
        Dipole field         -0.0000 Ry au, 

        Potential amp.        0.0001 Ry
        Total length         44.6710 bohr


     Adding external electric field

     Computed dipole along edir(3) : 
        Dipole               -0.0005 Ry au,         -0.0012 Debye
        Dipole field         -0.0000 Ry au, 

        Potential amp.        0.0001 Ry
        Total length         44.6710 bohr


     total cpu time spent up to now is     5055.8 secs

     total energy              =   -2958.45785931 Ry
     estimated scf accuracy    <       9.01148618 Ry

     total magnetization       =    10.42 Bohr mag/cell
     absolute magnetization    =    12.97 Bohr mag/cell

     iteration # 13     ecut=    55.12 Ry     beta= 0.10
     Davidson diagonalization with overlap
     ethr =  4.55E-03,  avg # of iterations =  1.6

     Adding external electric field

     Computed dipole along edir(3) : 
        Dipole                0.0034 Ry au,          0.0086 Debye
        Dipole field          0.0000 Ry au, 

        Potential amp.       -0.0010 Ry
        Total length         44.6710 bohr


     Adding external electric field

     Computed dipole along edir(3) : 
        Dipole                0.0034 Ry au,          0.0086 Debye
        Dipole field          0.0000 Ry au, 

        Potential amp.       -0.0010 Ry
        Total length         44.6710 bohr


     total cpu time spent up to now is     5380.7 secs

     total energy              =   -2958.60519372 Ry
     estimated scf accuracy    <      13.96598960 Ry

     total magnetization       =     9.14 Bohr mag/cell
     absolute magnetization    =    11.21 Bohr mag/cell

     iteration # 14     ecut=    55.12 Ry     beta= 0.10
     Davidson diagonalization with overlap
     ethr =  4.55E-03,  avg # of iterations =  1.0

     Adding external electric field

     Computed dipole along edir(3) : 
        Dipole               -0.0236 Ry au,         -0.0599 Debye
        Dipole field         -0.0001 Ry au, 

        Potential amp.        0.0069 Ry
        Total length         44.6710 bohr


     Adding external electric field

     Computed dipole along edir(3) : 
        Dipole               -0.0236 Ry au,         -0.0599 Debye
        Dipole field         -0.0001 Ry au, 

        Potential amp.        0.0069 Ry
        Total length         44.6710 bohr


     total cpu time spent up to now is     5704.6 secs

     total energy              =   -2958.62611374 Ry
     estimated scf accuracy    <      18.03046750 Ry

     total magnetization       =     7.25 Bohr mag/cell
     absolute magnetization    =     9.27 Bohr mag/cell

     iteration # 15     ecut=    55.12 Ry     beta= 0.10
     Davidson diagonalization with overlap
     ethr =  4.55E-03,  avg # of iterations =  1.1

     Adding external electric field

     Computed dipole along edir(3) : 
        Dipole                0.0725 Ry au,          0.1842 Debye
        Dipole field          0.0002 Ry au, 

        Potential amp.       -0.0212 Ry
        Total length         44.6710 bohr


     Adding external electric field

     Computed dipole along edir(3) : 
        Dipole                0.0725 Ry au,          0.1842 Debye
        Dipole field          0.0002 Ry au, 

        Potential amp.       -0.0212 Ry
        Total length         44.6710 bohr


     total cpu time spent up to now is     6039.4 secs

     total energy              =   -2957.38709162 Ry
     estimated scf accuracy    <      22.85539832 Ry

     total magnetization       =     6.32 Bohr mag/cell
     absolute magnetization    =     8.41 Bohr mag/cell

     iteration # 16     ecut=    55.12 Ry     beta= 0.10
     Davidson diagonalization with overlap
     ethr =  4.55E-03,  avg # of iterations =  1.1

     Adding external electric field

     Computed dipole along edir(3) : 
        Dipole               -0.0181 Ry au,         -0.0459 Debye
        Dipole field         -0.0001 Ry au, 

        Potential amp.        0.0053 Ry
        Total length         44.6710 bohr


     Adding external electric field

     Computed dipole along edir(3) : 
        Dipole               -0.0181 Ry au,         -0.0459 Debye
        Dipole field         -0.0001 Ry au, 

        Potential amp.        0.0053 Ry
        Total length         44.6710 bohr


     total cpu time spent up to now is     6366.3 secs

     total energy              =   -2957.62254585 Ry
     estimated scf accuracy    <       8.84511968 Ry

     total magnetization       =    12.68 Bohr mag/cell
     absolute magnetization    =    13.89 Bohr mag/cell

     iteration # 17     ecut=    55.12 Ry     beta= 0.10
     Davidson diagonalization with overlap
     ethr =  4.47E-03,  avg # of iterations =  1.1

     Adding external electric field

     Computed dipole along edir(3) : 
        Dipole                0.0665 Ry au,          0.1691 Debye
        Dipole field          0.0002 Ry au, 

        Potential amp.       -0.0195 Ry
        Total length         44.6710 bohr


     Adding external electric field

     Computed dipole along edir(3) : 
        Dipole                0.0665 Ry au,          0.1691 Debye
        Dipole field          0.0002 Ry au, 

        Potential amp.       -0.0195 Ry
        Total length         44.6710 bohr


     total cpu time spent up to now is     6686.8 secs

     total energy              =   -2957.08593087 Ry
     estimated scf accuracy    <      15.10294567 Ry

     total magnetization       =     6.15 Bohr mag/cell
     absolute magnetization    =     8.02 Bohr mag/cell

     iteration # 18     ecut=    55.12 Ry     beta= 0.10
     Davidson diagonalization with overlap
     ethr =  4.47E-03,  avg # of iterations =  1.0

     Adding external electric field

     Computed dipole along edir(3) : 
        Dipole                0.0450 Ry au,          0.1144 Debye
        Dipole field          0.0001 Ry au, 

        Potential amp.       -0.0132 Ry
        Total length         44.6710 bohr


     Adding external electric field

     Computed dipole along edir(3) : 
        Dipole                0.0450 Ry au,          0.1144 Debye
        Dipole field          0.0001 Ry au, 

        Potential amp.       -0.0132 Ry
        Total length         44.6710 bohr


     total cpu time spent up to now is     7026.4 secs

     total energy              =   -2956.96270667 Ry
     estimated scf accuracy    <       7.02017668 Ry

     total magnetization       =     9.49 Bohr mag/cell
     absolute magnetization    =    11.03 Bohr mag/cell

     iteration # 19     ecut=    55.12 Ry     beta= 0.10
     Davidson diagonalization with overlap
     ethr =  3.55E-03,  avg # of iterations =  1.0

     Adding external electric field

     Computed dipole along edir(3) : 
        Dipole                0.0406 Ry au,          0.1032 Debye
        Dipole field          0.0001 Ry au, 

        Potential amp.       -0.0119 Ry
        Total length         44.6710 bohr


     Adding external electric field

     Computed dipole along edir(3) : 
        Dipole                0.0406 Ry au,          0.1032 Debye
        Dipole field          0.0001 Ry au, 

        Potential amp.       -0.0119 Ry
        Total length         44.6710 bohr


     total cpu time spent up to now is     7364.2 secs

     total energy              =   -2955.57650472 Ry
     estimated scf accuracy    <       3.62808009 Ry

     total magnetization       =     8.95 Bohr mag/cell
     absolute magnetization    =    10.31 Bohr mag/cell

     iteration # 20     ecut=    55.12 Ry     beta= 0.10
     Davidson diagonalization with overlap
     ethr =  1.83E-03,  avg # of iterations =  1.0

     Adding external electric field

     Computed dipole along edir(3) : 
        Dipole                0.0238 Ry au,          0.0604 Debye
        Dipole field          0.0001 Ry au, 

        Potential amp.       -0.0070 Ry
        Total length         44.6710 bohr


     Adding external electric field

     Computed dipole along edir(3) : 
        Dipole                0.0238 Ry au,          0.0604 Debye
        Dipole field          0.0001 Ry au, 

        Potential amp.       -0.0070 Ry
        Total length         44.6710 bohr


     total cpu time spent up to now is     7704.6 secs

     total energy              =   -2954.17361754 Ry
     estimated scf accuracy    <       1.74043800 Ry

     total magnetization       =     9.13 Bohr mag/cell
     absolute magnetization    =    10.47 Bohr mag/cell

     iteration # 21     ecut=    55.12 Ry     beta= 0.10
     Davidson diagonalization with overlap
     ethr =  8.79E-04,  avg # of iterations =  1.1

     Adding external electric field

     Computed dipole along edir(3) : 
        Dipole                0.0161 Ry au,          0.0410 Debye
        Dipole field          0.0001 Ry au, 

        Potential amp.       -0.0047 Ry
        Total length         44.6710 bohr


     Adding external electric field

     Computed dipole along edir(3) : 
        Dipole                0.0161 Ry au,          0.0410 Debye
        Dipole field          0.0001 Ry au, 

        Potential amp.       -0.0047 Ry
        Total length         44.6710 bohr


     total cpu time spent up to now is     8028.4 secs

     total energy              =   -2953.59704521 Ry
     estimated scf accuracy    <       0.55632444 Ry

     total magnetization       =     8.85 Bohr mag/cell
     absolute magnetization    =    10.18 Bohr mag/cell

     iteration # 22     ecut=    55.12 Ry     beta= 0.10
     Davidson diagonalization with overlap
     ethr =  2.81E-04,  avg # of iterations =  1.3

     Adding external electric field

     Computed dipole along edir(3) : 
        Dipole                0.0141 Ry au,          0.0360 Debye
        Dipole field          0.0000 Ry au, 

        Potential amp.       -0.0041 Ry
        Total length         44.6710 bohr


     Adding external electric field

     Computed dipole along edir(3) : 
        Dipole                0.0141 Ry au,          0.0360 Debye
        Dipole field          0.0000 Ry au, 

        Potential amp.       -0.0041 Ry
        Total length         44.6710 bohr


     total cpu time spent up to now is     8380.9 secs

     total energy              =   -2952.91129376 Ry
     estimated scf accuracy    <       0.29297696 Ry

     total magnetization       =     9.00 Bohr mag/cell
     absolute magnetization    =    10.30 Bohr mag/cell

     iteration # 23     ecut=    55.12 Ry     beta= 0.10
     Davidson diagonalization with overlap
     ethr =  1.48E-04,  avg # of iterations =  2.1

     Adding external electric field

     Computed dipole along edir(3) : 
        Dipole                0.0107 Ry au,          0.0273 Debye
        Dipole field          0.0000 Ry au, 

        Potential amp.       -0.0031 Ry
        Total length         44.6710 bohr


     Adding external electric field

     Computed dipole along edir(3) : 
        Dipole                0.0107 Ry au,          0.0273 Debye
        Dipole field          0.0000 Ry au, 

        Potential amp.       -0.0031 Ry
        Total length         44.6710 bohr


     total cpu time spent up to now is     8749.5 secs

     total energy              =   -2950.56058382 Ry
     estimated scf accuracy    <       0.19476218 Ry

     total magnetization       =     9.24 Bohr mag/cell
     absolute magnetization    =    10.53 Bohr mag/cell

     iteration # 24     ecut=    55.12 Ry     beta= 0.10
     Davidson diagonalization with overlap
     ethr =  9.84E-05,  avg # of iterations =  1.3

     Adding external electric field

     Computed dipole along edir(3) : 
        Dipole                0.0050 Ry au,          0.0126 Debye
        Dipole field          0.0000 Ry au, 

        Potential amp.       -0.0015 Ry
        Total length         44.6710 bohr


     Adding external electric field

     Computed dipole along edir(3) : 
        Dipole                0.0050 Ry au,          0.0126 Debye
        Dipole field          0.0000 Ry au, 

        Potential amp.       -0.0015 Ry
        Total length         44.6710 bohr


     total cpu time spent up to now is     9113.2 secs

     total energy              =   -2948.80672165 Ry
     estimated scf accuracy    <       0.15843754 Ry

     total magnetization       =     9.78 Bohr mag/cell
     absolute magnetization    =    11.03 Bohr mag/cell

     iteration # 25     ecut=    55.12 Ry     beta= 0.10
     Davidson diagonalization with overlap
     ethr =  8.00E-05,  avg # of iterations =  1.3

     Adding external electric field

     Computed dipole along edir(3) : 
        Dipole                0.0063 Ry au,          0.0159 Debye
        Dipole field          0.0000 Ry au, 

        Potential amp.       -0.0018 Ry
        Total length         44.6710 bohr


     Adding external electric field

     Computed dipole along edir(3) : 
        Dipole                0.0063 Ry au,          0.0159 Debye
        Dipole field          0.0000 Ry au, 

        Potential amp.       -0.0018 Ry
        Total length         44.6710 bohr


     total cpu time spent up to now is     9486.1 secs

     total energy              =   -2948.09986599 Ry
     estimated scf accuracy    <       0.07144306 Ry

     total magnetization       =    10.42 Bohr mag/cell
     absolute magnetization    =    11.66 Bohr mag/cell

     iteration # 26     ecut=    55.12 Ry     beta= 0.10
     Davidson diagonalization with overlap
     c_bands:  1 eigenvalues not converged
     c_bands:  1 eigenvalues not converged
     c_bands:  1 eigenvalues not converged
     ethr =  3.61E-05,  avg # of iterations =  3.3

     Adding external electric field

     Computed dipole along edir(3) : 
        Dipole                0.0047 Ry au,          0.0120 Debye
        Dipole field          0.0000 Ry au, 

        Potential amp.       -0.0014 Ry
        Total length         44.6710 bohr


     Adding external electric field

     Computed dipole along edir(3) : 
        Dipole                0.0047 Ry au,          0.0120 Debye
        Dipole field          0.0000 Ry au, 

        Potential amp.       -0.0014 Ry
        Total length         44.6710 bohr


     total cpu time spent up to now is     9889.1 secs

     total energy              =   -2947.77510748 Ry
     estimated scf accuracy    <       0.08609646 Ry

     total magnetization       =    10.50 Bohr mag/cell
     absolute magnetization    =    11.73 Bohr mag/cell

     iteration # 27     ecut=    55.12 Ry     beta= 0.10
     Davidson diagonalization with overlap
     ethr =  3.61E-05,  avg # of iterations =  1.4

     Adding external electric field

     Computed dipole along edir(3) : 
        Dipole                0.0167 Ry au,          0.0425 Debye
        Dipole field          0.0001 Ry au, 

        Potential amp.       -0.0049 Ry
        Total length         44.6710 bohr


     Adding external electric field

     Computed dipole along edir(3) : 
        Dipole                0.0167 Ry au,          0.0425 Debye
        Dipole field          0.0001 Ry au, 

        Potential amp.       -0.0049 Ry
        Total length         44.6710 bohr


     total cpu time spent up to now is    10249.1 secs

     total energy              =   -2946.88722792 Ry
     estimated scf accuracy    <       0.04967446 Ry

     total magnetization       =    10.55 Bohr mag/cell
     absolute magnetization    =    11.78 Bohr mag/cell

     iteration # 28     ecut=    55.12 Ry     beta= 0.10
     Davidson diagonalization with overlap
     ethr =  2.51E-05,  avg # of iterations =  1.8

     Adding external electric field

     Computed dipole along edir(3) : 
        Dipole                0.0180 Ry au,          0.0457 Debye
        Dipole field          0.0001 Ry au, 

        Potential amp.       -0.0053 Ry
        Total length         44.6710 bohr


     Adding external electric field

     Computed dipole along edir(3) : 
        Dipole                0.0180 Ry au,          0.0457 Debye
        Dipole field          0.0001 Ry au, 

        Potential amp.       -0.0053 Ry
        Total length         44.6710 bohr


     total cpu time spent up to now is    10612.9 secs

     total energy              =   -2947.08665527 Ry
     estimated scf accuracy    <       0.01615423 Ry

     total magnetization       =    10.68 Bohr mag/cell
     absolute magnetization    =    11.91 Bohr mag/cell

     iteration # 29     ecut=    55.12 Ry     beta= 0.10
     Davidson diagonalization with overlap
     c_bands:  1 eigenvalues not converged
     c_bands:  1 eigenvalues not converged
     c_bands:  1 eigenvalues not converged
     c_bands:  1 eigenvalues not converged
     c_bands:  2 eigenvalues not converged
     c_bands:  2 eigenvalues not converged
     c_bands:  1 eigenvalues not converged
     c_bands:  2 eigenvalues not converged
     c_bands:  2 eigenvalues not converged
     c_bands:  1 eigenvalues not converged
     c_bands:  1 eigenvalues not converged
     c_bands:  1 eigenvalues not converged
     ethr =  8.16E-06,  avg # of iterations =  5.2

     Adding external electric field

     Computed dipole along edir(3) : 
        Dipole                0.0150 Ry au,          0.0381 Debye
        Dipole field          0.0000 Ry au, 

        Potential amp.       -0.0044 Ry
        Total length         44.6710 bohr


     Adding external electric field

     Computed dipole along edir(3) : 
        Dipole                0.0150 Ry au,          0.0381 Debye
        Dipole field          0.0000 Ry au, 

        Potential amp.       -0.0044 Ry
        Total length         44.6710 bohr


     total cpu time spent up to now is    11035.7 secs

     total energy              =   -2946.81921269 Ry
     estimated scf accuracy    <       0.00277278 Ry

     total magnetization       =    10.42 Bohr mag/cell
     absolute magnetization    =    11.69 Bohr mag/cell

     iteration # 30     ecut=    55.12 Ry     beta= 0.10
     Davidson diagonalization with overlap
     c_bands:  1 eigenvalues not converged
     c_bands:  1 eigenvalues not converged
     c_bands:  1 eigenvalues not converged
     c_bands:  1 eigenvalues not converged
     c_bands:  1 eigenvalues not converged
     c_bands:  2 eigenvalues not converged
     c_bands:  2 eigenvalues not converged
     c_bands:  1 eigenvalues not converged
     c_bands:  1 eigenvalues not converged
     c_bands:  1 eigenvalues not converged
     c_bands:  1 eigenvalues not converged
     c_bands:  1 eigenvalues not converged
     c_bands:  1 eigenvalues not converged
     c_bands:  1 eigenvalues not converged
     c_bands:  1 eigenvalues not converged
     c_bands:  1 eigenvalues not converged
     ethr =  1.40E-06,  avg # of iterations =  9.2

     Adding external electric field

     Computed dipole along edir(3) : 
        Dipole                0.0090 Ry au,          0.0228 Debye
        Dipole field          0.0000 Ry au, 

        Potential amp.       -0.0026 Ry
        Total length         44.6710 bohr


     Adding external electric field

     Computed dipole along edir(3) : 
        Dipole                0.0090 Ry au,          0.0228 Debye
        Dipole field          0.0000 Ry au, 

        Potential amp.       -0.0026 Ry
        Total length         44.6710 bohr


     total cpu time spent up to now is    11579.6 secs

     total energy              =   -2946.75533851 Ry
     estimated scf accuracy    <       0.00139138 Ry

     total magnetization       =    10.45 Bohr mag/cell
     absolute magnetization    =    11.70 Bohr mag/cell

     iteration # 31     ecut=    55.12 Ry     beta= 0.10
     Davidson diagonalization with overlap
     c_bands:  1 eigenvalues not converged
     c_bands:  1 eigenvalues not converged
     ethr =  7.03E-07,  avg # of iterations =  4.9

     Adding external electric field

     Computed dipole along edir(3) : 
        Dipole                0.0091 Ry au,          0.0233 Debye
        Dipole field          0.0000 Ry au, 

        Potential amp.       -0.0027 Ry
        Total length         44.6710 bohr


     Adding external electric field

     Computed dipole along edir(3) : 
        Dipole                0.0091 Ry au,          0.0233 Debye
        Dipole field          0.0000 Ry au, 

        Potential amp.       -0.0027 Ry
        Total length         44.6710 bohr


     total cpu time spent up to now is    12022.0 secs

     total energy              =   -2946.59533238 Ry
     estimated scf accuracy    <       0.00132438 Ry

     total magnetization       =    10.31 Bohr mag/cell
     absolute magnetization    =    11.57 Bohr mag/cell

     iteration # 32     ecut=    55.12 Ry     beta= 0.10
     Davidson diagonalization with overlap
     ethr =  6.69E-07,  avg # of iterations =  2.8

     Adding external electric field

     Computed dipole along edir(3) : 
        Dipole                0.0050 Ry au,          0.0127 Debye
        Dipole field          0.0000 Ry au, 

        Potential amp.       -0.0015 Ry
        Total length         44.6710 bohr


     Adding external electric field

     Computed dipole along edir(3) : 
        Dipole                0.0050 Ry au,          0.0127 Debye
        Dipole field          0.0000 Ry au, 

        Potential amp.       -0.0015 Ry
        Total length         44.6710 bohr


     total cpu time spent up to now is    12410.4 secs

     total energy              =   -2946.36422166 Ry
     estimated scf accuracy    <       0.00068569 Ry

     total magnetization       =    10.30 Bohr mag/cell
     absolute magnetization    =    11.56 Bohr mag/cell

     iteration # 33     ecut=    55.12 Ry     beta= 0.10
     Davidson diagonalization with overlap
     ethr =  3.46E-07,  avg # of iterations =  3.0

     Adding external electric field

     Computed dipole along edir(3) : 
        Dipole                0.0061 Ry au,          0.0155 Debye
        Dipole field          0.0000 Ry au, 

        Potential amp.       -0.0018 Ry
        Total length         44.6710 bohr


     Adding external electric field

     Computed dipole along edir(3) : 
        Dipole                0.0061 Ry au,          0.0155 Debye
        Dipole field          0.0000 Ry au, 

        Potential amp.       -0.0018 Ry
        Total length         44.6710 bohr


     total cpu time spent up to now is    12817.1 secs

     total energy              =   -2946.09465264 Ry
     estimated scf accuracy    <       0.00039535 Ry

     total magnetization       =    10.27 Bohr mag/cell
     absolute magnetization    =    11.52 Bohr mag/cell

     iteration # 34     ecut=    55.12 Ry     beta= 0.10
     Davidson diagonalization with overlap
     ethr =  2.00E-07,  avg # of iterations =  3.6

     Adding external electric field

     Computed dipole along edir(3) : 
        Dipole                0.0062 Ry au,          0.0157 Debye
        Dipole field          0.0000 Ry au, 

        Potential amp.       -0.0018 Ry
        Total length         44.6710 bohr


     Adding external electric field

     Computed dipole along edir(3) : 
        Dipole                0.0062 Ry au,          0.0157 Debye
        Dipole field          0.0000 Ry au, 

        Potential amp.       -0.0018 Ry
        Total length         44.6710 bohr


     total cpu time spent up to now is    13224.9 secs

     total energy              =   -2945.93836114 Ry
     estimated scf accuracy    <       0.00038785 Ry

     total magnetization       =    10.29 Bohr mag/cell
     absolute magnetization    =    11.54 Bohr mag/cell

     iteration # 35     ecut=    55.12 Ry     beta= 0.10
     Davidson diagonalization with overlap
     ethr =  1.96E-07,  avg # of iterations =  2.0

     Adding external electric field

     Computed dipole along edir(3) : 
        Dipole                0.0079 Ry au,          0.0201 Debye
        Dipole field          0.0000 Ry au, 

        Potential amp.       -0.0023 Ry
        Total length         44.6710 bohr


     Adding external electric field

     Computed dipole along edir(3) : 
        Dipole                0.0079 Ry au,          0.0201 Debye
        Dipole field          0.0000 Ry au, 

        Potential amp.       -0.0023 Ry
        Total length         44.6710 bohr


     total cpu time spent up to now is    13633.3 secs

     total energy              =   -2945.73444668 Ry
     estimated scf accuracy    <       0.00021872 Ry

     total magnetization       =    10.27 Bohr mag/cell
     absolute magnetization    =    11.51 Bohr mag/cell

     iteration # 36     ecut=    55.12 Ry     beta= 0.10
     Davidson diagonalization with overlap
     ethr =  1.10E-07,  avg # of iterations =  3.0

     Adding external electric field

     Computed dipole along edir(3) : 
        Dipole                0.0112 Ry au,          0.0284 Debye
        Dipole field          0.0000 Ry au, 

        Potential amp.       -0.0033 Ry
        Total length         44.6710 bohr


     Adding external electric field

     Computed dipole along edir(3) : 
        Dipole                0.0112 Ry au,          0.0284 Debye
        Dipole field          0.0000 Ry au, 

        Potential amp.       -0.0033 Ry
        Total length         44.6710 bohr


     total cpu time spent up to now is    14029.7 secs

     total energy              =   -2945.58973631 Ry
     estimated scf accuracy    <       0.00023296 Ry

     total magnetization       =    10.28 Bohr mag/cell
     absolute magnetization    =    11.52 Bohr mag/cell

     iteration # 37     ecut=    55.12 Ry     beta= 0.10
     Davidson diagonalization with overlap
     ethr =  1.10E-07,  avg # of iterations =  5.0

     Adding external electric field

     Computed dipole along edir(3) : 
        Dipole                0.0094 Ry au,          0.0240 Debye
        Dipole field          0.0000 Ry au, 

        Potential amp.       -0.0028 Ry
        Total length         44.6710 bohr


     Adding external electric field

     Computed dipole along edir(3) : 
        Dipole                0.0094 Ry au,          0.0240 Debye
        Dipole field          0.0000 Ry au, 

        Potential amp.       -0.0028 Ry
        Total length         44.6710 bohr


     total cpu time spent up to now is    14505.7 secs

     total energy              =   -2945.42421816 Ry
     estimated scf accuracy    <       0.00008483 Ry

     total magnetization       =    10.27 Bohr mag/cell
     absolute magnetization    =    11.50 Bohr mag/cell

     iteration # 38     ecut=    55.12 Ry     beta= 0.10
     Davidson diagonalization with overlap
     ethr =  4.28E-08,  avg # of iterations =  4.0

     Adding external electric field

     Computed dipole along edir(3) : 
        Dipole                0.0089 Ry au,          0.0225 Debye
        Dipole field          0.0000 Ry au, 

        Potential amp.       -0.0026 Ry
        Total length         44.6710 bohr


     Adding external electric field

     Computed dipole along edir(3) : 
        Dipole                0.0089 Ry au,          0.0225 Debye
        Dipole field          0.0000 Ry au, 

        Potential amp.       -0.0026 Ry
        Total length         44.6710 bohr


     total cpu time spent up to now is    14933.7 secs

     total energy              =   -2945.27517698 Ry
     estimated scf accuracy    <       0.00010013 Ry

     total magnetization       =    10.28 Bohr mag/cell
     absolute magnetization    =    11.51 Bohr mag/cell

     iteration # 39     ecut=    55.12 Ry     beta= 0.10
     Davidson diagonalization with overlap
     ethr =  4.28E-08,  avg # of iterations =  1.8

     Adding external electric field

     Computed dipole along edir(3) : 
        Dipole                0.0093 Ry au,          0.0238 Debye
        Dipole field          0.0000 Ry au, 

        Potential amp.       -0.0027 Ry
        Total length         44.6710 bohr


     Adding external electric field

     Computed dipole along edir(3) : 
        Dipole                0.0093 Ry au,          0.0238 Debye
        Dipole field          0.0000 Ry au, 

        Potential amp.       -0.0027 Ry
        Total length         44.6710 bohr


     total cpu time spent up to now is    15336.5 secs

     total energy              =   -2945.15966105 Ry
     estimated scf accuracy    <       0.00016659 Ry

     total magnetization       =    10.29 Bohr mag/cell
     absolute magnetization    =    11.51 Bohr mag/cell

     iteration # 40     ecut=    55.12 Ry     beta= 0.10
     Davidson diagonalization with overlap
     ethr =  4.28E-08,  avg # of iterations =  1.8

     Adding external electric field

     Computed dipole along edir(3) : 
        Dipole                0.0079 Ry au,          0.0201 Debye
        Dipole field          0.0000 Ry au, 

        Potential amp.       -0.0023 Ry
        Total length         44.6710 bohr


     Adding external electric field

     Computed dipole along edir(3) : 
        Dipole                0.0079 Ry au,          0.0201 Debye
        Dipole field          0.0000 Ry au, 

        Potential amp.       -0.0023 Ry
        Total length         44.6710 bohr


     total cpu time spent up to now is    15729.0 secs

     total energy              =   -2945.05300291 Ry
     estimated scf accuracy    <       0.00006933 Ry

     total magnetization       =    10.29 Bohr mag/cell
     absolute magnetization    =    11.51 Bohr mag/cell

     iteration # 41     ecut=    55.12 Ry     beta= 0.10
     Davidson diagonalization with overlap
     ethr =  3.50E-08,  avg # of iterations =  1.9

     Adding external electric field

     Computed dipole along edir(3) : 
        Dipole                0.0082 Ry au,          0.0209 Debye
        Dipole field          0.0000 Ry au, 

        Potential amp.       -0.0024 Ry
        Total length         44.6710 bohr


     Adding external electric field

     Computed dipole along edir(3) : 
        Dipole                0.0082 Ry au,          0.0209 Debye
        Dipole field          0.0000 Ry au, 

        Potential amp.       -0.0024 Ry
        Total length         44.6710 bohr


     total cpu time spent up to now is    16111.2 secs

     total energy              =   -2944.95824560 Ry
     estimated scf accuracy    <       0.00003544 Ry

     total magnetization       =    10.30 Bohr mag/cell
     absolute magnetization    =    11.51 Bohr mag/cell

     iteration # 42     ecut=    55.12 Ry     beta= 0.10
     Davidson diagonalization with overlap
     ethr =  1.79E-08,  avg # of iterations =  4.9

     Adding external electric field

     Computed dipole along edir(3) : 
        Dipole                0.0083 Ry au,          0.0211 Debye
        Dipole field          0.0000 Ry au, 

        Potential amp.       -0.0024 Ry
        Total length         44.6710 bohr


     Adding external electric field

     Computed dipole along edir(3) : 
        Dipole                0.0083 Ry au,          0.0211 Debye
        Dipole field          0.0000 Ry au, 

        Potential amp.       -0.0024 Ry
        Total length         44.6710 bohr


     total cpu time spent up to now is    16601.2 secs

     total energy              =   -2944.87662959 Ry
     estimated scf accuracy    <       0.00002248 Ry

     total magnetization       =    10.30 Bohr mag/cell
     absolute magnetization    =    11.52 Bohr mag/cell

     iteration # 43     ecut=    55.12 Ry     beta= 0.10
     Davidson diagonalization with overlap
     ethr =  1.14E-08,  avg # of iterations =  1.7

     Adding external electric field

     Computed dipole along edir(3) : 
        Dipole                0.0088 Ry au,          0.0224 Debye
        Dipole field          0.0000 Ry au, 

        Potential amp.       -0.0026 Ry
        Total length         44.6710 bohr


     Adding external electric field

     Computed dipole along edir(3) : 
        Dipole                0.0088 Ry au,          0.0224 Debye
        Dipole field          0.0000 Ry au, 

        Potential amp.       -0.0026 Ry
        Total length         44.6710 bohr


     total cpu time spent up to now is    17009.3 secs

     total energy              =   -2944.80251424 Ry
     estimated scf accuracy    <       0.00002810 Ry

     total magnetization       =    10.30 Bohr mag/cell
     absolute magnetization    =    11.52 Bohr mag/cell

     iteration # 44     ecut=    55.12 Ry     beta= 0.10
     Davidson diagonalization with overlap
     ethr =  1.14E-08,  avg # of iterations =  1.8

     Adding external electric field

     Computed dipole along edir(3) : 
        Dipole                0.0090 Ry au,          0.0228 Debye
        Dipole field          0.0000 Ry au, 

        Potential amp.       -0.0026 Ry
        Total length         44.6710 bohr


     Adding external electric field

     Computed dipole along edir(3) : 
        Dipole                0.0090 Ry au,          0.0228 Debye
        Dipole field          0.0000 Ry au, 

        Potential amp.       -0.0026 Ry
        Total length         44.6710 bohr


     total cpu time spent up to now is    17425.8 secs

     total energy              =   -2944.74625772 Ry
     estimated scf accuracy    <       0.00002345 Ry

     total magnetization       =    10.30 Bohr mag/cell
     absolute magnetization    =    11.51 Bohr mag/cell

     iteration # 45     ecut=    55.12 Ry     beta= 0.10
     Davidson diagonalization with overlap
     ethr =  1.14E-08,  avg # of iterations =  1.9

     Adding external electric field

     Computed dipole along edir(3) : 
        Dipole                0.0086 Ry au,          0.0220 Debye
        Dipole field          0.0000 Ry au, 

        Potential amp.       -0.0025 Ry
        Total length         44.6710 bohr


     Adding external electric field

     Computed dipole along edir(3) : 
        Dipole                0.0086 Ry au,          0.0220 Debye
        Dipole field          0.0000 Ry au, 

        Potential amp.       -0.0025 Ry
        Total length         44.6710 bohr


     Magnetic moment per site:
     atom:    1    charge:   15.6305    magn:    1.6659    constr:    0.0000
     atom:    2    charge:   15.6300    magn:    1.6666    constr:    0.0000
     atom:    3    charge:   13.5805    magn:    0.2418    constr:    0.0000
     atom:    4    charge:   13.5805    magn:    0.2416    constr:    0.0000
     atom:    5    charge:   15.7432    magn:    1.4933    constr:    0.0000
     atom:    6    charge:   15.7433    magn:    1.4934    constr:    0.0000
     atom:    7    charge:   13.6191    magn:    0.1581    constr:    0.0000
     atom:    8    charge:   13.6191    magn:    0.1581    constr:    0.0000
     atom:    9    charge:   15.6606    magn:    1.5868    constr:    0.0000
     atom:   10    charge:   15.6599    magn:    1.5881    constr:    0.0000
     atom:   11    charge:   13.5908    magn:    0.2042    constr:    0.0000
     atom:   12    charge:   13.5908    magn:    0.2040    constr:    0.0000

     total cpu time spent up to now is    17838.7 secs

     End of self-consistent calculation

     Number of k-points >= 100: set verbosity='high' to print the bands.

     the Fermi energy is     1.6755 ev

!    total energy              =   -2944.23308459 Ry
     estimated scf accuracy    <       0.00000915 Ry
     smearing contrib. (-TS)   =      -0.08998125 Ry
     internal energy E=F+TS    =   -2944.14310334 Ry

     The total energy is F=E-TS. E is the sum of the following terms:
     one-electron contribution =  -26482.94636449 Ry
     hartree contribution      =   13242.82590791 Ry
     xc contribution           =    -371.25859440 Ry
     ewald contribution        =   10667.23594740 Ry
     electric field correction =       0.00000025 Ry

     total magnetization       =    10.30 Bohr mag/cell
     absolute magnetization    =    11.51 Bohr mag/cell

     convergence has been achieved in  45 iterations

     Forces acting on atoms (cartesian axes, Ry/au):

     atom    1 type  1   force =     0.00662402    0.00387673    0.00675391
     atom    2 type  1   force =     0.00668301    0.00390697    0.00672792
     atom    3 type  2   force =    -0.00119061   -0.00075821    0.00527297
     atom    4 type  2   force =    -0.00123925   -0.00066523    0.00527672
     atom    5 type  1   force =     0.00001188    0.00000263   -0.00733239
     atom    6 type  1   force =     0.00011225    0.00006570   -0.00731217
     atom    7 type  2   force =    -0.00125399   -0.00071640   -0.01053068
     atom    8 type  2   force =    -0.00124055   -0.00074111   -0.01052345
     atom    9 type  1   force =    -0.00381965   -0.00223426    0.00375975
     atom   10 type  1   force =    -0.00372053   -0.00217679    0.00394039
     atom   11 type  2   force =    -0.00050727   -0.00024222    0.00198518
     atom   12 type  2   force =    -0.00045932   -0.00031781    0.00198185

     Total force =     0.026052     Total SCF correction =     0.005714
     SCF correction compared to forces is large: reduce conv_thr to get better values

     Writing output data file ./Co2Ru2/Co2Ru2_beef.save/

     init_run     :    106.90s CPU    136.29s WALL (       1 calls)
     electrons    :  14304.61s CPU  17681.40s WALL (       1 calls)
     forces       :     98.13s CPU    107.03s WALL (       1 calls)

     Called by init_run:
     wfcinit      :     95.47s CPU    123.37s WALL (       1 calls)
     potinit      :      7.84s CPU      9.08s WALL (       1 calls)
     hinit0       :      1.65s CPU      1.79s WALL (       1 calls)

     Called by electrons:
     c_bands      :  12474.14s CPU  15261.38s WALL (      45 calls)
     sum_band     :   1714.74s CPU   2276.77s WALL (      45 calls)
     v_of_rho     :     69.08s CPU     89.80s WALL (      46 calls)
     newd         :     50.79s CPU     55.88s WALL (      46 calls)
     mix_rho      :      2.54s CPU      4.37s WALL (      45 calls)
     vdW_kernel   :      5.68s CPU      6.41s WALL (       1 calls)

     Called by c_bands:
     init_us_2    :     36.30s CPU     37.85s WALL (   13616 calls)
     cegterg      :  12360.75s CPU  15100.23s WALL (    6660 calls)

     Called by *egterg:
     cdiaghg      :   1352.00s CPU   1415.73s WALL (   23419 calls)
     h_psi        :   6423.67s CPU   8630.25s WALL (   23567 calls)
     s_psi        :   1207.41s CPU   1220.34s WALL (   23567 calls)
     g_psi        :      6.69s CPU      7.17s WALL (   16759 calls)

     Called by h_psi:
     h_psi:calbec :   2047.77s CPU   2220.13s WALL (   23567 calls)
     vloc_psi     :   3107.37s CPU   5125.37s WALL (   23567 calls)
     add_vuspsi   :   1252.95s CPU   1267.74s WALL (   23567 calls)

     General routines
     calbec       :   3050.40s CPU   3302.78s WALL (   30819 calls)
     fft          :     34.49s CPU     56.32s WALL (    4171 calls)
     ffts         :      0.28s CPU      0.72s WALL (     182 calls)
     fftw         :   3461.85s CPU   5886.33s WALL ( 4181600 calls)
     interpolate  :      0.88s CPU      1.51s WALL (      92 calls)

     Parallel routines
     fft_scatt_xy :    244.44s CPU    346.95s WALL ( 4185953 calls)
     fft_scatt_yz :   1583.31s CPU   3485.50s WALL ( 4185953 calls)

     PWSCF        :      4h 2m CPU      5h 3m WALL


   This run was terminated on:   5: 7:15   1Jul2022            

=------------------------------------------------------------------------------=
   JOB DONE.
=------------------------------------------------------------------------------=
