
     Program PWSCF v.6.6 starts on 30Jun2022 at 10:23:10 

     This program is part of the open-source Quantum ESPRESSO suite
     for quantum simulation of materials; please cite
         "P. Giannozzi et al., J. Phys.:Condens. Matter 21 395502 (2009);
         "P. Giannozzi et al., J. Phys.:Condens. Matter 29 465901 (2017);
          URL http://www.quantum-espresso.org", 
     in publications or presentations arising from this work. More details at
     http://www.quantum-espresso.org/quote

     Parallel version (MPI), running on    37 processors

     MPI processes distributed on     4 nodes
     R & G space division:  proc/nbgrp/npool/nimage =      37
     Fft bands division:     nmany     =       1
     Reading input from Co2Re2.in
Warning: card &CELL ignored
Warning: card / ignored

     Current dimensions of program PWSCF are:
     Max number of different atomic species (ntypx) = 10
     Max number of k-points (npk) =  40000
     Max angular momentum in pseudopotentials (lmaxx) =  3
     Presently stress not available with electric field and gates

     Message from routine cell_base_init:
     DEPRECATED: use true lattice parameter, not A to a.u. conversion factor
     file Co.pbe-spn-rrkjus_psl.0.3.1.UPF: wavefunction(s)  3P renormalized

     **************************************************************************
     Initializing libbeef V0.1.2 with the BEEF-vdW functional.
     Citation: Wellendorff et al., PRB 85, 235149 (2012).
     **************************************************************************


     IMPORTANT: XC functional enforced from input :
     Exchange-correlation= BEEF-VDW
                           (   1   4  43  14   2   0   0)
     Any further DFT definition will be discarded
     Please, verify this is what you really want


     Subspace diagonalization in iterative solution of the eigenvalue problem:
     a serial algorithm will be used

     Found symmetry operation: I + ( -0.5000  0.0000  0.0000)
     This is a supercell, fractional translations are disabled

     Parallelization info
     --------------------
     sticks:   dense  smooth     PW     G-vecs:    dense   smooth      PW
     Min         100      40     11                22970     5818     913
     Max         101      41     12                22996     5841     942
     Sum        3701    1495    435               850531   215463   34459



     bravais-lattice index     =            0
     lattice parameter (alat)  =       1.8897  a.u.
     unit-cell volume          =    3894.1419 (a.u.)^3
     number of atoms/cell      =           12
     number of atomic types    =            2
     number of electrons       =       192.00
     number of Kohn-Sham states=          115
     kinetic-energy cutoff     =      55.1240  Ry
     charge density cutoff     =     551.2396  Ry
     convergence threshold     =      1.0E-05
     mixing beta               =       0.1000
     number of iterations used =           10  plain     mixing
     Exchange-correlation= BEEF-VDW
                           (   1   4  43  14   2   0   0)

     celldm(1)=   1.889726  celldm(2)=   0.000000  celldm(3)=   0.000000
     celldm(4)=   0.000000  celldm(5)=   0.000000  celldm(6)=   0.000000

     crystal axes: (cart. coord. in units of alat)
               a(1) = (   5.236372   0.000000   0.000000 )  
               a(2) = (  -2.618186   4.539208   0.000000 )  
               a(3) = (   0.000000   0.000000  24.277540 )  

     reciprocal axes: (cart. coord. in units 2 pi/alat)
               b(1) = (  0.190972  0.110151 -0.000000 )  
               b(2) = (  0.000000  0.220303  0.000000 )  
               b(3) = (  0.000000 -0.000000  0.041190 )  


     PseudoPot. # 1 for Co read from file:
     ../pseudo/Co.pbe-spn-rrkjus_psl.0.3.1.UPF
     MD5 check sum: 99b21b1f85602741a4c0ed67614a7280
     Pseudo is Ultrasoft + core correction, Zval = 17.0
     Generated using "atomic" code by A. Dal Corso v.6.2.2
     Using radial grid of 1193 points,  6 beta functions with: 
                l(1) =   0
                l(2) =   0
                l(3) =   1
                l(4) =   1
                l(5) =   2
                l(6) =   2
     Q(r) pseudized with 0 coefficients 


     PseudoPot. # 2 for Re read from file:
     ../pseudo/Re.pbe-spn-rrkjus_psl.1.0.0.UPF
     MD5 check sum: 1282f1ec51ad523723a04c61ae80a9e6
     Pseudo is Ultrasoft + core correction, Zval = 15.0
     Generated using "atomic" code by A. Dal Corso v.6.2.2
     Using radial grid of 1275 points,  6 beta functions with: 
                l(1) =   0
                l(2) =   0
                l(3) =   1
                l(4) =   1
                l(5) =   2
                l(6) =   2
     Q(r) pseudized with 0 coefficients 


     atomic species   valence    mass     pseudopotential
        Co            17.00    58.93319     Co( 1.00)
        Re            15.00   186.20700     Re( 1.00)

     Starting magnetic structure 
     atomic species   magnetization
        Co           1.000
        Re           0.000

     No symmetry found



   Cartesian axes

     site n.     atom                  positions (alat units)
         1           Co  tau(   1) = (   0.0000000   0.0000000  10.0000000  )
         2           Co  tau(   2) = (   2.6181861   0.0000000  10.0000000  )
         3           Re  tau(   3) = (   1.3090930   2.2696038  10.0000000  )
         4           Re  tau(   4) = (  -1.3090930   2.2696038  10.0000000  )
         5           Co  tau(   5) = (   2.6181861   1.5101530  12.1387698  )
         6           Co  tau(   6) = (   0.0000000   1.5101530  12.1387698  )
         7           Re  tau(   7) = (  -1.3090930   3.7797569  12.1387698  )
         8           Re  tau(   8) = (   1.3090930   3.7797569  12.1387698  )
         9           Co  tau(   9) = (  -0.0000020   3.0502408  14.1869540  )
        10           Co  tau(  10) = (   2.6181875   3.0502363  14.1869834  )
        11           Re  tau(  11) = (   3.9272821   0.7737371  14.2161394  )
        12           Re  tau(  12) = (   1.3090900   0.7737382  14.2161404  )

     number of k points=    74  Fermi-Dirac smearing, width (Ry)=  0.0100
                       cart. coord. in units 2pi/alat
        k(    1) = (   0.0000000   0.0000000   0.0000000), wk =   0.0069444
        k(    2) = (   0.0000000   0.0183586   0.0000000), wk =   0.0138889
        k(    3) = (   0.0000000   0.0367171   0.0000000), wk =   0.0138889
        k(    4) = (   0.0000000   0.0550757   0.0000000), wk =   0.0138889
        k(    5) = (   0.0000000   0.0734342   0.0000000), wk =   0.0138889
        k(    6) = (   0.0000000   0.0917928   0.0000000), wk =   0.0138889
        k(    7) = (   0.0000000  -0.1101514   0.0000000), wk =   0.0069444
        k(    8) = (   0.0159143   0.0091793   0.0000000), wk =   0.0138889
        k(    9) = (   0.0159143   0.0275378   0.0000000), wk =   0.0138889
        k(   10) = (   0.0159143   0.0458964   0.0000000), wk =   0.0138889
        k(   11) = (   0.0159143   0.0642550   0.0000000), wk =   0.0138889
        k(   12) = (   0.0159143   0.0826135   0.0000000), wk =   0.0138889
        k(   13) = (   0.0159143   0.1009721   0.0000000), wk =   0.0138889
        k(   14) = (   0.0159143  -0.1009721   0.0000000), wk =   0.0138889
        k(   15) = (   0.0159143  -0.0826135   0.0000000), wk =   0.0138889
        k(   16) = (   0.0159143  -0.0642550   0.0000000), wk =   0.0138889
        k(   17) = (   0.0159143  -0.0458964   0.0000000), wk =   0.0138889
        k(   18) = (   0.0159143  -0.0275378   0.0000000), wk =   0.0138889
        k(   19) = (   0.0159143  -0.0091793   0.0000000), wk =   0.0138889
        k(   20) = (   0.0318287   0.0183586   0.0000000), wk =   0.0138889
        k(   21) = (   0.0318287   0.0367171   0.0000000), wk =   0.0138889
        k(   22) = (   0.0318287   0.0550757   0.0000000), wk =   0.0138889
        k(   23) = (   0.0318287   0.0734342   0.0000000), wk =   0.0138889
        k(   24) = (   0.0318287   0.0917928   0.0000000), wk =   0.0138889
        k(   25) = (   0.0318287   0.1101514   0.0000000), wk =   0.0138889
        k(   26) = (   0.0318287  -0.0917928   0.0000000), wk =   0.0138889
        k(   27) = (   0.0318287  -0.0734342   0.0000000), wk =   0.0138889
        k(   28) = (   0.0318287  -0.0550757   0.0000000), wk =   0.0138889
        k(   29) = (   0.0318287  -0.0367171   0.0000000), wk =   0.0138889
        k(   30) = (   0.0318287  -0.0183586   0.0000000), wk =   0.0138889
        k(   31) = (   0.0318287  -0.0000000   0.0000000), wk =   0.0138889
        k(   32) = (   0.0477430   0.0275378   0.0000000), wk =   0.0138889
        k(   33) = (   0.0477430   0.0458964   0.0000000), wk =   0.0138889
        k(   34) = (   0.0477430   0.0642550   0.0000000), wk =   0.0138889
        k(   35) = (   0.0477430   0.0826135   0.0000000), wk =   0.0138889
        k(   36) = (   0.0477430   0.1009721   0.0000000), wk =   0.0138889
        k(   37) = (   0.0477430   0.1193307   0.0000000), wk =   0.0138889
        k(   38) = (   0.0477430  -0.0826135   0.0000000), wk =   0.0138889
        k(   39) = (   0.0477430  -0.0642550   0.0000000), wk =   0.0138889
        k(   40) = (   0.0477430  -0.0458964   0.0000000), wk =   0.0138889
        k(   41) = (   0.0477430  -0.0275378   0.0000000), wk =   0.0138889
        k(   42) = (   0.0477430  -0.0091793   0.0000000), wk =   0.0138889
        k(   43) = (   0.0477430   0.0091793   0.0000000), wk =   0.0138889
        k(   44) = (   0.0636573   0.0367171   0.0000000), wk =   0.0138889
        k(   45) = (   0.0636573   0.0550757   0.0000000), wk =   0.0138889
        k(   46) = (   0.0636573   0.0734342   0.0000000), wk =   0.0138889
        k(   47) = (   0.0636573   0.0917928   0.0000000), wk =   0.0138889
        k(   48) = (   0.0636573   0.1101514   0.0000000), wk =   0.0138889
        k(   49) = (   0.0636573   0.1285099   0.0000000), wk =   0.0138889
        k(   50) = (   0.0636573  -0.0734342   0.0000000), wk =   0.0138889
        k(   51) = (   0.0636573  -0.0550757   0.0000000), wk =   0.0138889
        k(   52) = (   0.0636573  -0.0367171   0.0000000), wk =   0.0138889
        k(   53) = (   0.0636573  -0.0183586   0.0000000), wk =   0.0138889
        k(   54) = (   0.0636573   0.0000000   0.0000000), wk =   0.0138889
        k(   55) = (   0.0636573   0.0183586   0.0000000), wk =   0.0138889
        k(   56) = (   0.0795716   0.0458964   0.0000000), wk =   0.0138889
        k(   57) = (   0.0795716   0.0642550   0.0000000), wk =   0.0138889
        k(   58) = (   0.0795716   0.0826135   0.0000000), wk =   0.0138889
        k(   59) = (   0.0795716   0.1009721   0.0000000), wk =   0.0138889
        k(   60) = (   0.0795716   0.1193307   0.0000000), wk =   0.0138889
        k(   61) = (   0.0795716   0.1376892   0.0000000), wk =   0.0138889
        k(   62) = (   0.0795716  -0.0642550   0.0000000), wk =   0.0138889
        k(   63) = (   0.0795716  -0.0458964   0.0000000), wk =   0.0138889
        k(   64) = (   0.0795716  -0.0275378   0.0000000), wk =   0.0138889
        k(   65) = (   0.0795716  -0.0091793   0.0000000), wk =   0.0138889
        k(   66) = (   0.0795716   0.0091793   0.0000000), wk =   0.0138889
        k(   67) = (   0.0795716   0.0275378   0.0000000), wk =   0.0138889
        k(   68) = (  -0.0954860  -0.0550757   0.0000000), wk =   0.0069444
        k(   69) = (  -0.0954860  -0.0367171   0.0000000), wk =   0.0138889
        k(   70) = (  -0.0954860  -0.0183586   0.0000000), wk =   0.0138889
        k(   71) = (  -0.0954860   0.0000000   0.0000000), wk =   0.0138889
        k(   72) = (  -0.0954860   0.0183586   0.0000000), wk =   0.0138889
        k(   73) = (  -0.0954860   0.0367171   0.0000000), wk =   0.0138889
        k(   74) = (  -0.0954860  -0.1652271   0.0000000), wk =   0.0069444

     Dense  grid:   850531 G-vectors     FFT dimensions: (  75,  75, 360)

     Smooth grid:   215463 G-vectors     FFT dimensions: (  48,  48, 225)

     Estimated max dynamical RAM per process >     293.43 MB

     Estimated total dynamical RAM >      10.60 GB

     Check: negative core charge=   -0.000006
     Generating pointlists ...
     new r_m :   1.0469 (alat units)  1.9783 (a.u.) for type    1
     new r_m :   1.0469 (alat units)  1.9783 (a.u.) for type    2

     Initial potential from superposition of free atoms

     starting charge  191.99650, renormalised to  192.00000


     %%%%%%%%%%%%%%%%%%%%%%%%%%%%%%%%%%%%%%%%%%%%%%%%%%%%%%%%%%%%%%%%%%%%%%%%
     %                                                                      %
     % You are using vdW-DF, which was implemented by the Thonhauser group. %
     % Please cite the following two papers that made this development      %
     % possible and the two reviews that describe the various versions:     %
     %                                                                      %
     %   T. Thonhauser et al., PRL 115, 136402 (2015).                      %
     %   T. Thonhauser et al., PRB 76, 125112 (2007).                       %
     %   K. Berland et al., Rep. Prog. Phys. 78, 066501 (2015).             %
     %   D.C. Langreth et al., J. Phys.: Condens. Matter 21, 084203 (2009). %
     %                                                                      %
     %                                                                      %
     % If you are calculating the stress with vdW-DF, please also cite:     %
     %                                                                      %
     %   R. Sabatini et al., J. Phys.: Condens. Matter 24, 424209 (2012).   %
     %                                                                      %
     %%%%%%%%%%%%%%%%%%%%%%%%%%%%%%%%%%%%%%%%%%%%%%%%%%%%%%%%%%%%%%%%%%%%%%%%



     Adding external electric field

     Computed dipole along edir(3) : 
        Dipole                0.0000 Ry au,          0.0000 Debye
        Dipole field          0.0000 Ry au, 

        Potential amp.       -0.0000 Ry
        Total length         44.7310 bohr


     Adding external electric field

     Computed dipole along edir(3) : 
        Dipole                0.0000 Ry au,          0.0000 Debye
        Dipole field          0.0000 Ry au, 

        Potential amp.       -0.0000 Ry
        Total length         44.7310 bohr

     Starting wfcs are  120 randomized atomic wfcs

     total cpu time spent up to now is      212.1 secs

     Self-consistent Calculation

     iteration #  1     ecut=    55.12 Ry     beta= 0.10
     Davidson diagonalization with overlap
     c_bands:  2 eigenvalues not converged
     ethr =  1.00E-02,  avg # of iterations =  7.9

     Adding external electric field

     Computed dipole along edir(3) : 
        Dipole               -0.0802 Ry au,         -0.2040 Debye
        Dipole field         -0.0003 Ry au, 

        Potential amp.        0.0232 Ry
        Total length         44.7310 bohr


     Adding external electric field

     Computed dipole along edir(3) : 
        Dipole               -0.0802 Ry au,         -0.2040 Debye
        Dipole field         -0.0003 Ry au, 

        Potential amp.        0.0232 Ry
        Total length         44.7310 bohr


     total cpu time spent up to now is     1074.8 secs

     total energy              =   -2809.42561168 Ry
     estimated scf accuracy    <      48.66226293 Ry

     total magnetization       =    31.55 Bohr mag/cell
     absolute magnetization    =    32.18 Bohr mag/cell

     iteration #  2     ecut=    55.12 Ry     beta= 0.10
     Davidson diagonalization with overlap
     ethr =  1.00E-02,  avg # of iterations =  1.5

     Adding external electric field

     Computed dipole along edir(3) : 
        Dipole                0.6226 Ry au,          1.5825 Debye
        Dipole field          0.0020 Ry au, 

        Potential amp.       -0.1797 Ry
        Total length         44.7310 bohr


     Adding external electric field

     Computed dipole along edir(3) : 
        Dipole                0.6226 Ry au,          1.5825 Debye
        Dipole field          0.0020 Ry au, 

        Potential amp.       -0.1797 Ry
        Total length         44.7310 bohr


     total cpu time spent up to now is     1578.1 secs

     total energy              =   -2823.87666820 Ry
     estimated scf accuracy    <      31.05454009 Ry

     total magnetization       =    30.71 Bohr mag/cell
     absolute magnetization    =    31.58 Bohr mag/cell

     iteration #  3     ecut=    55.12 Ry     beta= 0.10
     Davidson diagonalization with overlap
     ethr =  1.00E-02,  avg # of iterations =  5.2

     Adding external electric field

     Computed dipole along edir(3) : 
        Dipole                0.3903 Ry au,          0.9921 Debye
        Dipole field          0.0013 Ry au, 

        Potential amp.       -0.1127 Ry
        Total length         44.7310 bohr


     Adding external electric field

     Computed dipole along edir(3) : 
        Dipole                0.3903 Ry au,          0.9921 Debye
        Dipole field          0.0013 Ry au, 

        Potential amp.       -0.1127 Ry
        Total length         44.7310 bohr


     total cpu time spent up to now is     2306.8 secs

     total energy              =   -2829.52025884 Ry
     estimated scf accuracy    <      80.81949663 Ry

     total magnetization       =     9.55 Bohr mag/cell
     absolute magnetization    =    10.52 Bohr mag/cell

     iteration #  4     ecut=    55.12 Ry     beta= 0.10
     Davidson diagonalization with overlap
     ethr =  1.00E-02,  avg # of iterations =  1.5

     Adding external electric field

     Computed dipole along edir(3) : 
        Dipole                0.0372 Ry au,          0.0945 Debye
        Dipole field          0.0001 Ry au, 

        Potential amp.       -0.0107 Ry
        Total length         44.7310 bohr


     Adding external electric field

     Computed dipole along edir(3) : 
        Dipole                0.0372 Ry au,          0.0945 Debye
        Dipole field          0.0001 Ry au, 

        Potential amp.       -0.0107 Ry
        Total length         44.7310 bohr


     total cpu time spent up to now is     2686.2 secs

     total energy              =   -2831.16941012 Ry
     estimated scf accuracy    <      73.16738463 Ry

     total magnetization       =     9.40 Bohr mag/cell
     absolute magnetization    =    10.69 Bohr mag/cell

     iteration #  5     ecut=    55.12 Ry     beta= 0.10
     Davidson diagonalization with overlap
     ethr =  1.00E-02,  avg # of iterations =  2.7

     Adding external electric field

     Computed dipole along edir(3) : 
        Dipole               -0.2156 Ry au,         -0.5479 Debye
        Dipole field         -0.0007 Ry au, 

        Potential amp.        0.0622 Ry
        Total length         44.7310 bohr


     Adding external electric field

     Computed dipole along edir(3) : 
        Dipole               -0.2156 Ry au,         -0.5479 Debye
        Dipole field         -0.0007 Ry au, 

        Potential amp.        0.0622 Ry
        Total length         44.7310 bohr


     total cpu time spent up to now is     3151.6 secs

     total energy              =   -2824.26462989 Ry
     estimated scf accuracy    <      90.95984224 Ry

     total magnetization       =     7.29 Bohr mag/cell
     absolute magnetization    =     8.56 Bohr mag/cell

     iteration #  6     ecut=    55.12 Ry     beta= 0.10
     Davidson diagonalization with overlap
     ethr =  1.00E-02,  avg # of iterations =  1.1

     Adding external electric field

     Computed dipole along edir(3) : 
        Dipole               -0.1379 Ry au,         -0.3506 Debye
        Dipole field         -0.0004 Ry au, 

        Potential amp.        0.0398 Ry
        Total length         44.7310 bohr


     Adding external electric field

     Computed dipole along edir(3) : 
        Dipole               -0.1379 Ry au,         -0.3506 Debye
        Dipole field         -0.0004 Ry au, 

        Potential amp.        0.0398 Ry
        Total length         44.7310 bohr


     total cpu time spent up to now is     3554.3 secs

     total energy              =   -2826.71548852 Ry
     estimated scf accuracy    <      51.27839240 Ry

     total magnetization       =    11.31 Bohr mag/cell
     absolute magnetization    =    12.85 Bohr mag/cell

     iteration #  7     ecut=    55.12 Ry     beta= 0.10
     Davidson diagonalization with overlap
     ethr =  1.00E-02,  avg # of iterations =  4.6

     Adding external electric field

     Computed dipole along edir(3) : 
        Dipole               -0.3271 Ry au,         -0.8315 Debye
        Dipole field         -0.0011 Ry au, 

        Potential amp.        0.0944 Ry
        Total length         44.7310 bohr


     Adding external electric field

     Computed dipole along edir(3) : 
        Dipole               -0.3271 Ry au,         -0.8315 Debye
        Dipole field         -0.0011 Ry au, 

        Potential amp.        0.0944 Ry
        Total length         44.7310 bohr


     total cpu time spent up to now is     4169.6 secs

     total energy              =   -2851.06479373 Ry
     estimated scf accuracy    <      33.74572242 Ry

     total magnetization       =    27.77 Bohr mag/cell
     absolute magnetization    =    30.27 Bohr mag/cell

     iteration #  8     ecut=    55.12 Ry     beta= 0.10
     Davidson diagonalization with overlap
     ethr =  1.00E-02,  avg # of iterations =  4.6

     Adding external electric field

     Computed dipole along edir(3) : 
        Dipole               -0.1957 Ry au,         -0.4973 Debye
        Dipole field         -0.0006 Ry au, 

        Potential amp.        0.0565 Ry
        Total length         44.7310 bohr


     Adding external electric field

     Computed dipole along edir(3) : 
        Dipole               -0.1957 Ry au,         -0.4973 Debye
        Dipole field         -0.0006 Ry au, 

        Potential amp.        0.0565 Ry
        Total length         44.7310 bohr


     total cpu time spent up to now is     4802.5 secs

     total energy              =   -2855.41452822 Ry
     estimated scf accuracy    <     176.26343038 Ry

     total magnetization       =     5.18 Bohr mag/cell
     absolute magnetization    =     6.59 Bohr mag/cell

     iteration #  9     ecut=    55.12 Ry     beta= 0.10
     Davidson diagonalization with overlap
     ethr =  1.00E-02,  avg # of iterations =  1.2

     Adding external electric field

     Computed dipole along edir(3) : 
        Dipole               -0.1897 Ry au,         -0.4821 Debye
        Dipole field         -0.0006 Ry au, 

        Potential amp.        0.0548 Ry
        Total length         44.7310 bohr


     Adding external electric field

     Computed dipole along edir(3) : 
        Dipole               -0.1897 Ry au,         -0.4821 Debye
        Dipole field         -0.0006 Ry au, 

        Potential amp.        0.0548 Ry
        Total length         44.7310 bohr


     total cpu time spent up to now is     5225.5 secs

     total energy              =   -2856.35575188 Ry
     estimated scf accuracy    <     173.77961416 Ry

     total magnetization       =     4.12 Bohr mag/cell
     absolute magnetization    =     5.51 Bohr mag/cell

     iteration # 10     ecut=    55.12 Ry     beta= 0.10
     Davidson diagonalization with overlap
     ethr =  1.00E-02,  avg # of iterations =  1.1

     Adding external electric field

     Computed dipole along edir(3) : 
        Dipole               -0.0304 Ry au,         -0.0774 Debye
        Dipole field         -0.0001 Ry au, 

        Potential amp.        0.0088 Ry
        Total length         44.7310 bohr


     Adding external electric field

     Computed dipole along edir(3) : 
        Dipole               -0.0304 Ry au,         -0.0774 Debye
        Dipole field         -0.0001 Ry au, 

        Potential amp.        0.0088 Ry
        Total length         44.7310 bohr


     total cpu time spent up to now is     5782.2 secs

     total energy              =   -2847.38560303 Ry
     estimated scf accuracy    <     175.51456160 Ry

     total magnetization       =     4.05 Bohr mag/cell
     absolute magnetization    =     5.48 Bohr mag/cell

     iteration # 11     ecut=    55.12 Ry     beta= 0.10
     Davidson diagonalization with overlap
     ethr =  1.00E-02,  avg # of iterations =  1.1

     Adding external electric field

     Computed dipole along edir(3) : 
        Dipole                0.0153 Ry au,          0.0389 Debye
        Dipole field          0.0000 Ry au, 

        Potential amp.       -0.0044 Ry
        Total length         44.7310 bohr


     Adding external electric field

     Computed dipole along edir(3) : 
        Dipole                0.0153 Ry au,          0.0389 Debye
        Dipole field          0.0000 Ry au, 

        Potential amp.       -0.0044 Ry
        Total length         44.7310 bohr


     total cpu time spent up to now is     6307.2 secs

     total energy              =   -2846.79532258 Ry
     estimated scf accuracy    <     108.73113610 Ry

     total magnetization       =     9.64 Bohr mag/cell
     absolute magnetization    =    11.43 Bohr mag/cell

     iteration # 12     ecut=    55.12 Ry     beta= 0.10
     Davidson diagonalization with overlap
     ethr =  1.00E-02,  avg # of iterations =  1.5

     Adding external electric field

     Computed dipole along edir(3) : 
        Dipole               -0.1368 Ry au,         -0.3477 Debye
        Dipole field         -0.0004 Ry au, 

        Potential amp.        0.0395 Ry
        Total length         44.7310 bohr


     Adding external electric field

     Computed dipole along edir(3) : 
        Dipole               -0.1368 Ry au,         -0.3477 Debye
        Dipole field         -0.0004 Ry au, 

        Potential amp.        0.0395 Ry
        Total length         44.7310 bohr


     total cpu time spent up to now is     6819.9 secs

     total energy              =   -2854.61635356 Ry
     estimated scf accuracy    <      80.85436448 Ry

     total magnetization       =    11.88 Bohr mag/cell
     absolute magnetization    =    13.84 Bohr mag/cell

     iteration # 13     ecut=    55.12 Ry     beta= 0.10
     Davidson diagonalization with overlap
     ethr =  1.00E-02,  avg # of iterations =  1.5

     Adding external electric field

     Computed dipole along edir(3) : 
        Dipole                0.2297 Ry au,          0.5839 Debye
        Dipole field          0.0007 Ry au, 

        Potential amp.       -0.0663 Ry
        Total length         44.7310 bohr


     Adding external electric field

     Computed dipole along edir(3) : 
        Dipole                0.2297 Ry au,          0.5839 Debye
        Dipole field          0.0007 Ry au, 

        Potential amp.       -0.0663 Ry
        Total length         44.7310 bohr


     total cpu time spent up to now is     7413.6 secs

     total energy              =   -2830.63514258 Ry
     estimated scf accuracy    <     156.18853709 Ry

     total magnetization       =     6.70 Bohr mag/cell
     absolute magnetization    =     7.78 Bohr mag/cell

     iteration # 14     ecut=    55.12 Ry     beta= 0.10
     Davidson diagonalization with overlap
     ethr =  1.00E-02,  avg # of iterations =  6.2

     Adding external electric field

     Computed dipole along edir(3) : 
        Dipole                0.2137 Ry au,          0.5433 Debye
        Dipole field          0.0007 Ry au, 

        Potential amp.       -0.0617 Ry
        Total length         44.7310 bohr


     Adding external electric field

     Computed dipole along edir(3) : 
        Dipole                0.2137 Ry au,          0.5433 Debye
        Dipole field          0.0007 Ry au, 

        Potential amp.       -0.0617 Ry
        Total length         44.7310 bohr


     total cpu time spent up to now is     8138.8 secs

     total energy              =   -2844.27874899 Ry
     estimated scf accuracy    <      13.24955410 Ry

     total magnetization       =     6.04 Bohr mag/cell
     absolute magnetization    =     9.58 Bohr mag/cell

     iteration # 15     ecut=    55.12 Ry     beta= 0.10
     Davidson diagonalization with overlap
     ethr =  6.90E-03,  avg # of iterations =  1.3

     Adding external electric field

     Computed dipole along edir(3) : 
        Dipole                0.2267 Ry au,          0.5762 Debye
        Dipole field          0.0007 Ry au, 

        Potential amp.       -0.0654 Ry
        Total length         44.7310 bohr


     Adding external electric field

     Computed dipole along edir(3) : 
        Dipole                0.2267 Ry au,          0.5762 Debye
        Dipole field          0.0007 Ry au, 

        Potential amp.       -0.0654 Ry
        Total length         44.7310 bohr


     total cpu time spent up to now is     8526.4 secs

     total energy              =   -2844.02306107 Ry
     estimated scf accuracy    <      10.01511657 Ry

     total magnetization       =     6.26 Bohr mag/cell
     absolute magnetization    =     9.73 Bohr mag/cell

     iteration # 16     ecut=    55.12 Ry     beta= 0.10
     Davidson diagonalization with overlap
     ethr =  5.22E-03,  avg # of iterations =  1.2

     Adding external electric field

     Computed dipole along edir(3) : 
        Dipole                0.2603 Ry au,          0.6617 Debye
        Dipole field          0.0008 Ry au, 

        Potential amp.       -0.0752 Ry
        Total length         44.7310 bohr


     Adding external electric field

     Computed dipole along edir(3) : 
        Dipole                0.2603 Ry au,          0.6617 Debye
        Dipole field          0.0008 Ry au, 

        Potential amp.       -0.0752 Ry
        Total length         44.7310 bohr


     total cpu time spent up to now is     9051.6 secs

     total energy              =   -2843.53515066 Ry
     estimated scf accuracy    <       8.15539330 Ry

     total magnetization       =     6.94 Bohr mag/cell
     absolute magnetization    =    10.21 Bohr mag/cell

     iteration # 17     ecut=    55.12 Ry     beta= 0.10
     Davidson diagonalization with overlap
     ethr =  4.25E-03,  avg # of iterations =  1.4

     Adding external electric field

     Computed dipole along edir(3) : 
        Dipole                0.2378 Ry au,          0.6044 Debye
        Dipole field          0.0008 Ry au, 

        Potential amp.       -0.0686 Ry
        Total length         44.7310 bohr


     Adding external electric field

     Computed dipole along edir(3) : 
        Dipole                0.2378 Ry au,          0.6044 Debye
        Dipole field          0.0008 Ry au, 

        Potential amp.       -0.0686 Ry
        Total length         44.7310 bohr


     total cpu time spent up to now is     9443.2 secs

     total energy              =   -2843.14346047 Ry
     estimated scf accuracy    <       4.26618002 Ry

     total magnetization       =     6.14 Bohr mag/cell
     absolute magnetization    =     9.27 Bohr mag/cell

     iteration # 18     ecut=    55.12 Ry     beta= 0.10
     Davidson diagonalization with overlap
     ethr =  2.22E-03,  avg # of iterations =  1.3

     Adding external electric field

     Computed dipole along edir(3) : 
        Dipole                0.2259 Ry au,          0.5741 Debye
        Dipole field          0.0007 Ry au, 

        Potential amp.       -0.0652 Ry
        Total length         44.7310 bohr


     Adding external electric field

     Computed dipole along edir(3) : 
        Dipole                0.2259 Ry au,          0.5741 Debye
        Dipole field          0.0007 Ry au, 

        Potential amp.       -0.0652 Ry
        Total length         44.7310 bohr


     total cpu time spent up to now is     9849.9 secs

     total energy              =   -2843.03770298 Ry
     estimated scf accuracy    <       1.43463120 Ry

     total magnetization       =     7.80 Bohr mag/cell
     absolute magnetization    =    10.55 Bohr mag/cell

     iteration # 19     ecut=    55.12 Ry     beta= 0.10
     Davidson diagonalization with overlap
     ethr =  7.47E-04,  avg # of iterations =  2.7

     Adding external electric field

     Computed dipole along edir(3) : 
        Dipole                0.1927 Ry au,          0.4897 Debye
        Dipole field          0.0006 Ry au, 

        Potential amp.       -0.0556 Ry
        Total length         44.7310 bohr


     Adding external electric field

     Computed dipole along edir(3) : 
        Dipole                0.1927 Ry au,          0.4897 Debye
        Dipole field          0.0006 Ry au, 

        Potential amp.       -0.0556 Ry
        Total length         44.7310 bohr


     total cpu time spent up to now is    10273.1 secs

     total energy              =   -2842.48089562 Ry
     estimated scf accuracy    <       1.08337528 Ry

     total magnetization       =     6.69 Bohr mag/cell
     absolute magnetization    =     9.44 Bohr mag/cell

     iteration # 20     ecut=    55.12 Ry     beta= 0.10
     Davidson diagonalization with overlap
     ethr =  5.64E-04,  avg # of iterations =  1.7

     Adding external electric field

     Computed dipole along edir(3) : 
        Dipole                0.1406 Ry au,          0.3573 Debye
        Dipole field          0.0005 Ry au, 

        Potential amp.       -0.0406 Ry
        Total length         44.7310 bohr


     Adding external electric field

     Computed dipole along edir(3) : 
        Dipole                0.1406 Ry au,          0.3573 Debye
        Dipole field          0.0005 Ry au, 

        Potential amp.       -0.0406 Ry
        Total length         44.7310 bohr


     total cpu time spent up to now is    10671.5 secs

     total energy              =   -2841.38777497 Ry
     estimated scf accuracy    <       0.15266514 Ry

     total magnetization       =     6.28 Bohr mag/cell
     absolute magnetization    =     9.02 Bohr mag/cell

     iteration # 21     ecut=    55.12 Ry     beta= 0.10
     Davidson diagonalization with overlap
     c_bands:  1 eigenvalues not converged
     ethr =  7.95E-05,  avg # of iterations =  5.7

     Adding external electric field

     Computed dipole along edir(3) : 
        Dipole                0.0819 Ry au,          0.2082 Debye
        Dipole field          0.0003 Ry au, 

        Potential amp.       -0.0236 Ry
        Total length         44.7310 bohr


     Adding external electric field

     Computed dipole along edir(3) : 
        Dipole                0.0819 Ry au,          0.2082 Debye
        Dipole field          0.0003 Ry au, 

        Potential amp.       -0.0236 Ry
        Total length         44.7310 bohr


     total cpu time spent up to now is    11258.6 secs

     total energy              =   -2840.41375526 Ry
     estimated scf accuracy    <       0.47479479 Ry

     total magnetization       =     5.03 Bohr mag/cell
     absolute magnetization    =     7.45 Bohr mag/cell

     iteration # 22     ecut=    55.12 Ry     beta= 0.10
     Davidson diagonalization with overlap
     ethr =  7.95E-05,  avg # of iterations =  1.6

     Adding external electric field

     Computed dipole along edir(3) : 
        Dipole                0.0573 Ry au,          0.1456 Debye
        Dipole field          0.0002 Ry au, 

        Potential amp.       -0.0165 Ry
        Total length         44.7310 bohr


     Adding external electric field

     Computed dipole along edir(3) : 
        Dipole                0.0573 Ry au,          0.1456 Debye
        Dipole field          0.0002 Ry au, 

        Potential amp.       -0.0165 Ry
        Total length         44.7310 bohr


     total cpu time spent up to now is    11699.9 secs

     total energy              =   -2838.95998154 Ry
     estimated scf accuracy    <       0.09897934 Ry

     total magnetization       =     4.83 Bohr mag/cell
     absolute magnetization    =     7.20 Bohr mag/cell

     iteration # 23     ecut=    55.12 Ry     beta= 0.10
     Davidson diagonalization with overlap
     ethr =  5.16E-05,  avg # of iterations =  1.7

     Adding external electric field

     Computed dipole along edir(3) : 
        Dipole                0.0389 Ry au,          0.0988 Debye
        Dipole field          0.0001 Ry au, 

        Potential amp.       -0.0112 Ry
        Total length         44.7310 bohr


     Adding external electric field

     Computed dipole along edir(3) : 
        Dipole                0.0389 Ry au,          0.0988 Debye
        Dipole field          0.0001 Ry au, 

        Potential amp.       -0.0112 Ry
        Total length         44.7310 bohr


     total cpu time spent up to now is    12217.3 secs

     total energy              =   -2837.47351414 Ry
     estimated scf accuracy    <       0.04438241 Ry

     total magnetization       =     4.85 Bohr mag/cell
     absolute magnetization    =     7.04 Bohr mag/cell

     iteration # 24     ecut=    55.12 Ry     beta= 0.10
     Davidson diagonalization with overlap
     ethr =  2.31E-05,  avg # of iterations =  5.2

     Adding external electric field

     Computed dipole along edir(3) : 
        Dipole                0.0225 Ry au,          0.0572 Debye
        Dipole field          0.0001 Ry au, 

        Potential amp.       -0.0065 Ry
        Total length         44.7310 bohr


     Adding external electric field

     Computed dipole along edir(3) : 
        Dipole                0.0225 Ry au,          0.0572 Debye
        Dipole field          0.0001 Ry au, 

        Potential amp.       -0.0065 Ry
        Total length         44.7310 bohr


     total cpu time spent up to now is    12787.4 secs

     total energy              =   -2836.34656899 Ry
     estimated scf accuracy    <       0.25176329 Ry

     total magnetization       =     4.70 Bohr mag/cell
     absolute magnetization    =     6.73 Bohr mag/cell

     iteration # 25     ecut=    55.12 Ry     beta= 0.10
     Davidson diagonalization with overlap
     ethr =  2.31E-05,  avg # of iterations =  1.9

     Adding external electric field

     Computed dipole along edir(3) : 
        Dipole                0.0172 Ry au,          0.0438 Debye
        Dipole field          0.0001 Ry au, 

        Potential amp.       -0.0050 Ry
        Total length         44.7310 bohr


     Adding external electric field

     Computed dipole along edir(3) : 
        Dipole                0.0172 Ry au,          0.0438 Debye
        Dipole field          0.0001 Ry au, 

        Potential amp.       -0.0050 Ry
        Total length         44.7310 bohr


     total cpu time spent up to now is    13402.9 secs

     total energy              =   -2835.56585507 Ry
     estimated scf accuracy    <       0.08511907 Ry

     total magnetization       =     4.65 Bohr mag/cell
     absolute magnetization    =     6.53 Bohr mag/cell

     iteration # 26     ecut=    55.12 Ry     beta= 0.10
     Davidson diagonalization with overlap
     ethr =  2.31E-05,  avg # of iterations =  1.5

     Adding external electric field

     Computed dipole along edir(3) : 
        Dipole                0.0096 Ry au,          0.0244 Debye
        Dipole field          0.0000 Ry au, 

        Potential amp.       -0.0028 Ry
        Total length         44.7310 bohr


     Adding external electric field

     Computed dipole along edir(3) : 
        Dipole                0.0096 Ry au,          0.0244 Debye
        Dipole field          0.0000 Ry au, 

        Potential amp.       -0.0028 Ry
        Total length         44.7310 bohr


     total cpu time spent up to now is    14020.5 secs

     total energy              =   -2835.00142476 Ry
     estimated scf accuracy    <       0.00619773 Ry

     total magnetization       =     4.74 Bohr mag/cell
     absolute magnetization    =     6.50 Bohr mag/cell

     iteration # 27     ecut=    55.12 Ry     beta= 0.10
     Davidson diagonalization with overlap
     c_bands:  3 eigenvalues not converged
     c_bands:  2 eigenvalues not converged
     c_bands:  3 eigenvalues not converged
     c_bands:  1 eigenvalues not converged
     ethr =  3.23E-06,  avg # of iterations =  9.2

     Adding external electric field

     Computed dipole along edir(3) : 
        Dipole                0.0029 Ry au,          0.0074 Debye
        Dipole field          0.0000 Ry au, 

        Potential amp.       -0.0008 Ry
        Total length         44.7310 bohr


     Adding external electric field

     Computed dipole along edir(3) : 
        Dipole                0.0029 Ry au,          0.0074 Debye
        Dipole field          0.0000 Ry au, 

        Potential amp.       -0.0008 Ry
        Total length         44.7310 bohr


     total cpu time spent up to now is    14681.4 secs

     total energy              =   -2834.68535458 Ry
     estimated scf accuracy    <       0.01472315 Ry

     total magnetization       =     4.49 Bohr mag/cell
     absolute magnetization    =     6.09 Bohr mag/cell

     iteration # 28     ecut=    55.12 Ry     beta= 0.10
     Davidson diagonalization with overlap
     c_bands:  1 eigenvalues not converged
     ethr =  3.23E-06,  avg # of iterations =  1.5

     Adding external electric field

     Computed dipole along edir(3) : 
        Dipole               -0.0045 Ry au,         -0.0114 Debye
        Dipole field         -0.0000 Ry au, 

        Potential amp.        0.0013 Ry
        Total length         44.7310 bohr


     Adding external electric field

     Computed dipole along edir(3) : 
        Dipole               -0.0045 Ry au,         -0.0114 Debye
        Dipole field         -0.0000 Ry au, 

        Potential amp.        0.0013 Ry
        Total length         44.7310 bohr


     total cpu time spent up to now is    15076.5 secs

     total energy              =   -2834.36808234 Ry
     estimated scf accuracy    <       0.00283654 Ry

     total magnetization       =     4.54 Bohr mag/cell
     absolute magnetization    =     6.12 Bohr mag/cell

     iteration # 29     ecut=    55.12 Ry     beta= 0.10
     Davidson diagonalization with overlap
     ethr =  1.48E-06,  avg # of iterations =  2.6

     Adding external electric field

     Computed dipole along edir(3) : 
        Dipole               -0.0015 Ry au,         -0.0039 Debye
        Dipole field         -0.0000 Ry au, 

        Potential amp.        0.0004 Ry
        Total length         44.7310 bohr


     Adding external electric field

     Computed dipole along edir(3) : 
        Dipole               -0.0015 Ry au,         -0.0039 Debye
        Dipole field         -0.0000 Ry au, 

        Potential amp.        0.0004 Ry
        Total length         44.7310 bohr


     total cpu time spent up to now is    15626.8 secs

     total energy              =   -2834.00323498 Ry
     estimated scf accuracy    <       0.00093523 Ry

     total magnetization       =     4.32 Bohr mag/cell
     absolute magnetization    =     5.80 Bohr mag/cell

     iteration # 30     ecut=    55.12 Ry     beta= 0.10
     Davidson diagonalization with overlap
     c_bands:  1 eigenvalues not converged
     ethr =  4.87E-07,  avg # of iterations =  4.8

     Adding external electric field

     Computed dipole along edir(3) : 
        Dipole                0.0023 Ry au,          0.0058 Debye
        Dipole field          0.0000 Ry au, 

        Potential amp.       -0.0007 Ry
        Total length         44.7310 bohr


     Adding external electric field

     Computed dipole along edir(3) : 
        Dipole                0.0023 Ry au,          0.0058 Debye
        Dipole field          0.0000 Ry au, 

        Potential amp.       -0.0007 Ry
        Total length         44.7310 bohr


     total cpu time spent up to now is    16171.3 secs

     total energy              =   -2833.71121567 Ry
     estimated scf accuracy    <       0.00087831 Ry

     total magnetization       =     4.36 Bohr mag/cell
     absolute magnetization    =     5.78 Bohr mag/cell

     iteration # 31     ecut=    55.12 Ry     beta= 0.10
     Davidson diagonalization with overlap
     ethr =  4.57E-07,  avg # of iterations =  2.0

     Adding external electric field

     Computed dipole along edir(3) : 
        Dipole                0.0031 Ry au,          0.0080 Debye
        Dipole field          0.0000 Ry au, 

        Potential amp.       -0.0009 Ry
        Total length         44.7310 bohr


     Adding external electric field

     Computed dipole along edir(3) : 
        Dipole                0.0031 Ry au,          0.0080 Debye
        Dipole field          0.0000 Ry au, 

        Potential amp.       -0.0009 Ry
        Total length         44.7310 bohr


     total cpu time spent up to now is    16725.8 secs

     total energy              =   -2833.44698245 Ry
     estimated scf accuracy    <       0.00059542 Ry

     total magnetization       =     4.33 Bohr mag/cell
     absolute magnetization    =     5.71 Bohr mag/cell

     iteration # 32     ecut=    55.12 Ry     beta= 0.10
     Davidson diagonalization with overlap
     ethr =  3.10E-07,  avg # of iterations =  2.4

     Adding external electric field

     Computed dipole along edir(3) : 
        Dipole                0.0030 Ry au,          0.0076 Debye
        Dipole field          0.0000 Ry au, 

        Potential amp.       -0.0009 Ry
        Total length         44.7310 bohr


     Adding external electric field

     Computed dipole along edir(3) : 
        Dipole                0.0030 Ry au,          0.0076 Debye
        Dipole field          0.0000 Ry au, 

        Potential amp.       -0.0009 Ry
        Total length         44.7310 bohr


     total cpu time spent up to now is    17231.9 secs

     total energy              =   -2833.21991191 Ry
     estimated scf accuracy    <       0.00066323 Ry

     total magnetization       =     4.32 Bohr mag/cell
     absolute magnetization    =     5.66 Bohr mag/cell

     iteration # 33     ecut=    55.12 Ry     beta= 0.10
     Davidson diagonalization with overlap
     c_bands:  1 eigenvalues not converged
     ethr =  3.10E-07,  avg # of iterations =  3.2

     Adding external electric field

     Computed dipole along edir(3) : 
        Dipole                0.0054 Ry au,          0.0138 Debye
        Dipole field          0.0000 Ry au, 

        Potential amp.       -0.0016 Ry
        Total length         44.7310 bohr


     Adding external electric field

     Computed dipole along edir(3) : 
        Dipole                0.0054 Ry au,          0.0138 Debye
        Dipole field          0.0000 Ry au, 

        Potential amp.       -0.0016 Ry
        Total length         44.7310 bohr


     total cpu time spent up to now is    17723.5 secs

     total energy              =   -2833.00029104 Ry
     estimated scf accuracy    <       0.00025683 Ry

     total magnetization       =     4.29 Bohr mag/cell
     absolute magnetization    =     5.59 Bohr mag/cell

     iteration # 34     ecut=    55.12 Ry     beta= 0.10
     Davidson diagonalization with overlap
     ethr =  1.34E-07,  avg # of iterations =  6.2

     Adding external electric field

     Computed dipole along edir(3) : 
        Dipole                0.0042 Ry au,          0.0107 Debye
        Dipole field          0.0000 Ry au, 

        Potential amp.       -0.0012 Ry
        Total length         44.7310 bohr


     Adding external electric field

     Computed dipole along edir(3) : 
        Dipole                0.0042 Ry au,          0.0107 Debye
        Dipole field          0.0000 Ry au, 

        Potential amp.       -0.0012 Ry
        Total length         44.7310 bohr


     total cpu time spent up to now is    18356.6 secs

     total energy              =   -2832.86184722 Ry
     estimated scf accuracy    <       0.00015540 Ry

     total magnetization       =     4.23 Bohr mag/cell
     absolute magnetization    =     5.46 Bohr mag/cell

     iteration # 35     ecut=    55.12 Ry     beta= 0.10
     Davidson diagonalization with overlap
     ethr =  8.09E-08,  avg # of iterations =  5.0

     Adding external electric field

     Computed dipole along edir(3) : 
        Dipole                0.0053 Ry au,          0.0134 Debye
        Dipole field          0.0000 Ry au, 

        Potential amp.       -0.0015 Ry
        Total length         44.7310 bohr


     Adding external electric field

     Computed dipole along edir(3) : 
        Dipole                0.0053 Ry au,          0.0134 Debye
        Dipole field          0.0000 Ry au, 

        Potential amp.       -0.0015 Ry
        Total length         44.7310 bohr


     total cpu time spent up to now is    18847.2 secs

     total energy              =   -2832.72084920 Ry
     estimated scf accuracy    <       0.00010205 Ry

     total magnetization       =     4.21 Bohr mag/cell
     absolute magnetization    =     5.43 Bohr mag/cell

     iteration # 36     ecut=    55.12 Ry     beta= 0.10
     Davidson diagonalization with overlap
     ethr =  5.32E-08,  avg # of iterations =  2.1

     Adding external electric field

     Computed dipole along edir(3) : 
        Dipole                0.0047 Ry au,          0.0120 Debye
        Dipole field          0.0000 Ry au, 

        Potential amp.       -0.0014 Ry
        Total length         44.7310 bohr


     Adding external electric field

     Computed dipole along edir(3) : 
        Dipole                0.0047 Ry au,          0.0120 Debye
        Dipole field          0.0000 Ry au, 

        Potential amp.       -0.0014 Ry
        Total length         44.7310 bohr


     total cpu time spent up to now is    19372.3 secs

     total energy              =   -2832.58820764 Ry
     estimated scf accuracy    <       0.00008275 Ry

     total magnetization       =     4.19 Bohr mag/cell
     absolute magnetization    =     5.39 Bohr mag/cell

     iteration # 37     ecut=    55.12 Ry     beta= 0.10
     Davidson diagonalization with overlap
     ethr =  4.31E-08,  avg # of iterations =  5.5

     Adding external electric field

     Computed dipole along edir(3) : 
        Dipole                0.0069 Ry au,          0.0174 Debye
        Dipole field          0.0000 Ry au, 

        Potential amp.       -0.0020 Ry
        Total length         44.7310 bohr


     Adding external electric field

     Computed dipole along edir(3) : 
        Dipole                0.0069 Ry au,          0.0174 Debye
        Dipole field          0.0000 Ry au, 

        Potential amp.       -0.0020 Ry
        Total length         44.7310 bohr


     total cpu time spent up to now is    20076.3 secs

     total energy              =   -2832.43718435 Ry
     estimated scf accuracy    <       0.00008224 Ry

     total magnetization       =     4.15 Bohr mag/cell
     absolute magnetization    =     5.30 Bohr mag/cell

     iteration # 38     ecut=    55.12 Ry     beta= 0.10
     Davidson diagonalization with overlap
     ethr =  4.28E-08,  avg # of iterations =  3.9

     Adding external electric field

     Computed dipole along edir(3) : 
        Dipole                0.0084 Ry au,          0.0214 Debye
        Dipole field          0.0000 Ry au, 

        Potential amp.       -0.0024 Ry
        Total length         44.7310 bohr


     Adding external electric field

     Computed dipole along edir(3) : 
        Dipole                0.0084 Ry au,          0.0214 Debye
        Dipole field          0.0000 Ry au, 

        Potential amp.       -0.0024 Ry
        Total length         44.7310 bohr


     total cpu time spent up to now is    20603.5 secs

     total energy              =   -2832.31166096 Ry
     estimated scf accuracy    <       0.00004218 Ry

     total magnetization       =     4.10 Bohr mag/cell
     absolute magnetization    =     5.21 Bohr mag/cell

     iteration # 39     ecut=    55.12 Ry     beta= 0.10
     Davidson diagonalization with overlap
     ethr =  2.20E-08,  avg # of iterations =  5.4

     Adding external electric field

     Computed dipole along edir(3) : 
        Dipole                0.0093 Ry au,          0.0236 Debye
        Dipole field          0.0000 Ry au, 

        Potential amp.       -0.0027 Ry
        Total length         44.7310 bohr


     Adding external electric field

     Computed dipole along edir(3) : 
        Dipole                0.0093 Ry au,          0.0236 Debye
        Dipole field          0.0000 Ry au, 

        Potential amp.       -0.0027 Ry
        Total length         44.7310 bohr


     total cpu time spent up to now is    21243.9 secs

     total energy              =   -2832.21926241 Ry
     estimated scf accuracy    <       0.00004242 Ry

     total magnetization       =     4.05 Bohr mag/cell
     absolute magnetization    =     5.13 Bohr mag/cell

     iteration # 40     ecut=    55.12 Ry     beta= 0.10
     Davidson diagonalization with overlap
     ethr =  2.20E-08,  avg # of iterations =  2.2

     Adding external electric field

     Computed dipole along edir(3) : 
        Dipole                0.0099 Ry au,          0.0251 Debye
        Dipole field          0.0000 Ry au, 

        Potential amp.       -0.0028 Ry
        Total length         44.7310 bohr


     Adding external electric field

     Computed dipole along edir(3) : 
        Dipole                0.0099 Ry au,          0.0251 Debye
        Dipole field          0.0000 Ry au, 

        Potential amp.       -0.0028 Ry
        Total length         44.7310 bohr


     total cpu time spent up to now is    21694.0 secs

     total energy              =   -2832.13862199 Ry
     estimated scf accuracy    <       0.00002452 Ry

     total magnetization       =     4.03 Bohr mag/cell
     absolute magnetization    =     5.10 Bohr mag/cell

     iteration # 41     ecut=    55.12 Ry     beta= 0.10
     Davidson diagonalization with overlap
     ethr =  1.28E-08,  avg # of iterations =  4.5

     Adding external electric field

     Computed dipole along edir(3) : 
        Dipole                0.0100 Ry au,          0.0254 Debye
        Dipole field          0.0000 Ry au, 

        Potential amp.       -0.0029 Ry
        Total length         44.7310 bohr


     Adding external electric field

     Computed dipole along edir(3) : 
        Dipole                0.0100 Ry au,          0.0254 Debye
        Dipole field          0.0000 Ry au, 

        Potential amp.       -0.0029 Ry
        Total length         44.7310 bohr


     total cpu time spent up to now is    22228.1 secs

     total energy              =   -2832.07439499 Ry
     estimated scf accuracy    <       0.00001265 Ry

     total magnetization       =     4.01 Bohr mag/cell
     absolute magnetization    =     5.06 Bohr mag/cell

     iteration # 42     ecut=    55.12 Ry     beta= 0.10
     Davidson diagonalization with overlap
     ethr =  6.59E-09,  avg # of iterations =  5.3

     Adding external electric field

     Computed dipole along edir(3) : 
        Dipole                0.0105 Ry au,          0.0268 Debye
        Dipole field          0.0000 Ry au, 

        Potential amp.       -0.0030 Ry
        Total length         44.7310 bohr


     Adding external electric field

     Computed dipole along edir(3) : 
        Dipole                0.0105 Ry au,          0.0268 Debye
        Dipole field          0.0000 Ry au, 

        Potential amp.       -0.0030 Ry
        Total length         44.7310 bohr


     total cpu time spent up to now is    22690.3 secs

     total energy              =   -2831.99063836 Ry
     estimated scf accuracy    <       0.00001837 Ry

     total magnetization       =     4.00 Bohr mag/cell
     absolute magnetization    =     5.04 Bohr mag/cell

     iteration # 43     ecut=    55.12 Ry     beta= 0.10
     Davidson diagonalization with overlap
     ethr =  6.59E-09,  avg # of iterations =  5.1

     Adding external electric field

     Computed dipole along edir(3) : 
        Dipole                0.0103 Ry au,          0.0262 Debye
        Dipole field          0.0000 Ry au, 

        Potential amp.       -0.0030 Ry
        Total length         44.7310 bohr


     Adding external electric field

     Computed dipole along edir(3) : 
        Dipole                0.0103 Ry au,          0.0262 Debye
        Dipole field          0.0000 Ry au, 

        Potential amp.       -0.0030 Ry
        Total length         44.7310 bohr


     Magnetic moment per site:
     atom:    1    charge:   15.7101    magn:    1.0311    constr:    0.0000
     atom:    2    charge:   15.7100    magn:    1.0250    constr:    0.0000
     atom:    3    charge:   11.8951    magn:    0.0139    constr:    0.0000
     atom:    4    charge:   11.8951    magn:    0.0139    constr:    0.0000
     atom:    5    charge:   15.8576    magn:    0.8370    constr:    0.0000
     atom:    6    charge:   15.8570    magn:    0.8381    constr:    0.0000
     atom:    7    charge:   11.9574    magn:   -0.0400    constr:    0.0000
     atom:    8    charge:   11.9574    magn:   -0.0400    constr:    0.0000
     atom:    9    charge:   15.7637    magn:    0.2226    constr:    0.0000
     atom:   10    charge:   15.7636    magn:    0.2859    constr:    0.0000
     atom:   11    charge:   11.9103    magn:    0.0247    constr:    0.0000
     atom:   12    charge:   11.9103    magn:    0.0247    constr:    0.0000

     total cpu time spent up to now is    23323.7 secs

     End of self-consistent calculation

     Number of k-points >= 100: set verbosity='high' to print the bands.

     the Fermi energy is     1.8842 ev

!    total energy              =   -2831.64979455 Ry
     estimated scf accuracy    <       0.00000752 Ry
     smearing contrib. (-TS)   =      -0.07140880 Ry
     internal energy E=F+TS    =   -2831.57838575 Ry

     The total energy is F=E-TS. E is the sum of the following terms:
     one-electron contribution =  -24498.35612536 Ry
     hartree contribution      =   12241.86880373 Ry
     xc contribution           =    -436.58039188 Ry
     ewald contribution        =    9861.48932741 Ry
     electric field correction =       0.00000034 Ry

     total magnetization       =     3.97 Bohr mag/cell
     absolute magnetization    =     4.99 Bohr mag/cell

     convergence has been achieved in  43 iterations

     Forces acting on atoms (cartesian axes, Ry/au):

     atom    1 type  1   force =     0.00000286   -0.00223029    0.01187731
     atom    2 type  1   force =     0.00000331   -0.00225113    0.01197611
     atom    3 type  2   force =    -0.00000076   -0.00156233    0.01594731
     atom    4 type  2   force =     0.00000137   -0.00156837    0.01594754
     atom    5 type  1   force =    -0.00000019    0.00013715   -0.01048808
     atom    6 type  1   force =    -0.00000624    0.00038888   -0.01031270
     atom    7 type  2   force =     0.00005401   -0.00164704   -0.01607416
     atom    8 type  2   force =    -0.00005082   -0.00165010   -0.01607583
     atom    9 type  1   force =     0.00000111    0.00280304    0.00059208
     atom   10 type  1   force =    -0.00000367    0.00288552    0.00081685
     atom   11 type  2   force =     0.00000506    0.00234431   -0.00210414
     atom   12 type  2   force =    -0.00000604    0.00235036   -0.00210229

     Total force =     0.039799     Total SCF correction =     0.003237

     Writing output data file ./Co2Re2/Co2Re2_beef.save/

     init_run     :    125.74s CPU    207.15s WALL (       1 calls)
     electrons    :  13261.51s CPU  23112.12s WALL (       1 calls)
     forces       :     84.60s CPU    101.10s WALL (       1 calls)

     Called by init_run:
     wfcinit      :    112.43s CPU    192.65s WALL (       1 calls)
     potinit      :      9.09s CPU      9.80s WALL (       1 calls)
     hinit0       :      1.77s CPU      1.83s WALL (       1 calls)

     Called by electrons:
     c_bands      :  11864.05s CPU  20150.23s WALL (      43 calls)
     sum_band     :   1249.31s CPU   2751.62s WALL (      43 calls)
     v_of_rho     :     89.23s CPU    126.28s WALL (      44 calls)
     newd         :     64.53s CPU     81.96s WALL (      44 calls)
     mix_rho      :      2.79s CPU      9.10s WALL (      43 calls)
     vdW_kernel   :      6.29s CPU      6.36s WALL (       1 calls)

     Called by c_bands:
     init_us_2    :     20.11s CPU     25.93s WALL (   13024 calls)
     cegterg      :  11750.19s CPU  19765.97s WALL (    6364 calls)

     Called by *egterg:
     cdiaghg      :   1510.51s CPU   1578.98s WALL (   27077 calls)
     h_psi        :   5182.76s CPU  10215.81s WALL (   27225 calls)
     s_psi        :    945.76s CPU    959.27s WALL (   27225 calls)
     g_psi        :      5.45s CPU      6.38s WALL (   20713 calls)

     Called by h_psi:
     h_psi:calbec :   1268.37s CPU   2788.30s WALL (   27225 calls)
     vloc_psi     :   2954.72s CPU   6438.45s WALL (   27225 calls)
     add_vuspsi   :    946.33s CPU    970.69s WALL (   27225 calls)

     General routines
     calbec       :   1872.78s CPU   4094.83s WALL (   34181 calls)
     fft          :     48.99s CPU     95.28s WALL (    3993 calls)
     ffts         :      0.37s CPU      1.62s WALL (     174 calls)
     fftw         :   3379.37s CPU   7534.41s WALL ( 4108578 calls)
     interpolate  :      0.75s CPU      2.07s WALL (      88 calls)

     Parallel routines
     fft_scatt_xy :    220.46s CPU    347.32s WALL ( 4112745 calls)
     fft_scatt_yz :   1865.83s CPU   5272.19s WALL ( 4112745 calls)

     PWSCF        :      3h45m CPU      6h34m WALL


   This run was terminated on:  16:58: 7  30Jun2022            

=------------------------------------------------------------------------------=
   JOB DONE.
=------------------------------------------------------------------------------=
