
     Program PWSCF v.6.6 starts on  1Jul2022 at  5: 7:23 

     This program is part of the open-source Quantum ESPRESSO suite
     for quantum simulation of materials; please cite
         "P. Giannozzi et al., J. Phys.:Condens. Matter 21 395502 (2009);
         "P. Giannozzi et al., J. Phys.:Condens. Matter 29 465901 (2017);
          URL http://www.quantum-espresso.org", 
     in publications or presentations arising from this work. More details at
     http://www.quantum-espresso.org/quote

     Parallel version (MPI), running on    37 processors

     MPI processes distributed on     4 nodes
     R & G space division:  proc/nbgrp/npool/nimage =      37
     Fft bands division:     nmany     =       1
     Reading input from Co2Sc2.in
Warning: card &CELL ignored
Warning: card / ignored

     Current dimensions of program PWSCF are:
     Max number of different atomic species (ntypx) = 10
     Max number of k-points (npk) =  40000
     Max angular momentum in pseudopotentials (lmaxx) =  3
     Presently stress not available with electric field and gates

     Message from routine cell_base_init:
     DEPRECATED: use true lattice parameter, not A to a.u. conversion factor
     file Co.pbe-spn-rrkjus_psl.0.3.1.UPF: wavefunction(s)  3P renormalized
     file Sc.pbe-spn-rrkjus_psl.1.0.0.UPF: wavefunction(s)  3S 3P renormalized

     **************************************************************************
     Initializing libbeef V0.1.2 with the BEEF-vdW functional.
     Citation: Wellendorff et al., PRB 85, 235149 (2012).
     **************************************************************************


     IMPORTANT: XC functional enforced from input :
     Exchange-correlation= BEEF-VDW
                           (   1   4  43  14   2   0   0)
     Any further DFT definition will be discarded
     Please, verify this is what you really want


     Subspace diagonalization in iterative solution of the eigenvalue problem:
     a serial algorithm will be used


     Parallelization info
     --------------------
     sticks:   dense  smooth     PW     G-vecs:    dense   smooth      PW
     Min         117      46     13                26821     6782    1019
     Max         118      47     14                26831     6797    1032
     Sum        4335    1733    483               992567   251211   37963



     bravais-lattice index     =            0
     lattice parameter (alat)  =       1.8897  a.u.
     unit-cell volume          =    4542.3404 (a.u.)^3
     number of atoms/cell      =           12
     number of atomic types    =            2
     number of electrons       =       168.00
     number of Kohn-Sham states=          101
     kinetic-energy cutoff     =      55.1240  Ry
     charge density cutoff     =     551.2396  Ry
     convergence threshold     =      1.0E-05
     mixing beta               =       0.1000
     number of iterations used =           10  plain     mixing
     Exchange-correlation= BEEF-VDW
                           (   1   4  43  14   2   0   0)

     celldm(1)=   1.889726  celldm(2)=   0.000000  celldm(3)=   0.000000
     celldm(4)=   0.000000  celldm(5)=   0.000000  celldm(6)=   0.000000

     crystal axes: (cart. coord. in units of alat)
               a(1) = (   5.406905   0.000000   0.000000 )  
               a(2) = (   1.797819   5.099261   0.000000 )  
               a(3) = (   0.000000   0.000000  24.413339 )  

     reciprocal axes: (cart. coord. in units 2 pi/alat)
               b(1) = (  0.184949 -0.065206  0.000000 )  
               b(2) = (  0.000000  0.196107  0.000000 )  
               b(3) = (  0.000000  0.000000  0.040961 )  


     PseudoPot. # 1 for Co read from file:
     ../pseudo/Co.pbe-spn-rrkjus_psl.0.3.1.UPF
     MD5 check sum: 99b21b1f85602741a4c0ed67614a7280
     Pseudo is Ultrasoft + core correction, Zval = 17.0
     Generated using "atomic" code by A. Dal Corso v.6.2.2
     Using radial grid of 1193 points,  6 beta functions with: 
                l(1) =   0
                l(2) =   0
                l(3) =   1
                l(4) =   1
                l(5) =   2
                l(6) =   2
     Q(r) pseudized with 0 coefficients 


     PseudoPot. # 2 for Sc read from file:
     ../pseudo/Sc.pbe-spn-rrkjus_psl.1.0.0.UPF
     MD5 check sum: f739f74c200e509e5c24cbe053202ee5
     Pseudo is Ultrasoft + core correction, Zval = 11.0
     Generated using "atomic" code by A. Dal Corso v.6.2.2
     Using radial grid of 1173 points,  6 beta functions with: 
                l(1) =   0
                l(2) =   0
                l(3) =   1
                l(4) =   1
                l(5) =   2
                l(6) =   2
     Q(r) pseudized with 0 coefficients 


     atomic species   valence    mass     pseudopotential
        Co            17.00    58.93319     Co( 1.00)
        Sc            11.00    44.95591     Sc( 1.00)

     Starting magnetic structure 
     atomic species   magnetization
        Co           1.000
        Sc           0.000

     No symmetry found



   Cartesian axes

     site n.     atom                  positions (alat units)
         1           Co  tau(   1) = (   0.0000000   0.0000000  10.0000000  )
         2           Co  tau(   2) = (   3.6023622   2.5496307  10.0000000  )
         3           Sc  tau(   3) = (   2.7034525   0.0000000  10.0000000  )
         4           Sc  tau(   4) = (   0.8989097   2.5496307  10.0000000  )
         5           Co  tau(   5) = (   5.4069050   3.8268253  12.2066696  )
         6           Co  tau(   6) = (   1.8045428   1.2771946  12.2066696  )
         7           Sc  tau(   7) = (   2.7034525   3.8268253  12.2066696  )
         8           Sc  tau(   8) = (   4.5079953   1.2771946  12.2066696  )
         9           Co  tau(   9) = (   3.6082376   2.5537941  14.2651990  )
        10           Co  tau(  10) = (   0.0060128   0.0042542  14.2651766  )
        11           Sc  tau(  11) = (   0.9035773   2.5528529  14.4659707  )
        12           Sc  tau(  12) = (   2.7080414   0.0033316  14.4659720  )

     number of k points=    74  Fermi-Dirac smearing, width (Ry)=  0.0100
                       cart. coord. in units 2pi/alat
        k(    1) = (   0.0000000   0.0000000   0.0000000), wk =   0.0069444
        k(    2) = (   0.0000000   0.0163422   0.0000000), wk =   0.0138889
        k(    3) = (   0.0000000   0.0326845   0.0000000), wk =   0.0138889
        k(    4) = (   0.0000000   0.0490267   0.0000000), wk =   0.0138889
        k(    5) = (   0.0000000   0.0653689   0.0000000), wk =   0.0138889
        k(    6) = (   0.0000000   0.0817112   0.0000000), wk =   0.0138889
        k(    7) = (   0.0000000  -0.0980534   0.0000000), wk =   0.0069444
        k(    8) = (   0.0154124  -0.0054339   0.0000000), wk =   0.0138889
        k(    9) = (   0.0154124   0.0109084   0.0000000), wk =   0.0138889
        k(   10) = (   0.0154124   0.0272506   0.0000000), wk =   0.0138889
        k(   11) = (   0.0154124   0.0435928   0.0000000), wk =   0.0138889
        k(   12) = (   0.0154124   0.0599351   0.0000000), wk =   0.0138889
        k(   13) = (   0.0154124   0.0762773   0.0000000), wk =   0.0138889
        k(   14) = (   0.0154124  -0.1034873   0.0000000), wk =   0.0138889
        k(   15) = (   0.0154124  -0.0871451   0.0000000), wk =   0.0138889
        k(   16) = (   0.0154124  -0.0708028   0.0000000), wk =   0.0138889
        k(   17) = (   0.0154124  -0.0544606   0.0000000), wk =   0.0138889
        k(   18) = (   0.0154124  -0.0381183   0.0000000), wk =   0.0138889
        k(   19) = (   0.0154124  -0.0217761   0.0000000), wk =   0.0138889
        k(   20) = (   0.0308248  -0.0108677   0.0000000), wk =   0.0138889
        k(   21) = (   0.0308248   0.0054745   0.0000000), wk =   0.0138889
        k(   22) = (   0.0308248   0.0218167   0.0000000), wk =   0.0138889
        k(   23) = (   0.0308248   0.0381590   0.0000000), wk =   0.0138889
        k(   24) = (   0.0308248   0.0545012   0.0000000), wk =   0.0138889
        k(   25) = (   0.0308248   0.0708435   0.0000000), wk =   0.0138889
        k(   26) = (   0.0308248  -0.1089212   0.0000000), wk =   0.0138889
        k(   27) = (   0.0308248  -0.0925789   0.0000000), wk =   0.0138889
        k(   28) = (   0.0308248  -0.0762367   0.0000000), wk =   0.0138889
        k(   29) = (   0.0308248  -0.0598944   0.0000000), wk =   0.0138889
        k(   30) = (   0.0308248  -0.0435522   0.0000000), wk =   0.0138889
        k(   31) = (   0.0308248  -0.0272100   0.0000000), wk =   0.0138889
        k(   32) = (   0.0462372  -0.0163016   0.0000000), wk =   0.0138889
        k(   33) = (   0.0462372   0.0000406   0.0000000), wk =   0.0138889
        k(   34) = (   0.0462372   0.0163829   0.0000000), wk =   0.0138889
        k(   35) = (   0.0462372   0.0327251   0.0000000), wk =   0.0138889
        k(   36) = (   0.0462372   0.0490674   0.0000000), wk =   0.0138889
        k(   37) = (   0.0462372   0.0654096   0.0000000), wk =   0.0138889
        k(   38) = (   0.0462372  -0.1143550   0.0000000), wk =   0.0138889
        k(   39) = (   0.0462372  -0.0980128   0.0000000), wk =   0.0138889
        k(   40) = (   0.0462372  -0.0816705   0.0000000), wk =   0.0138889
        k(   41) = (   0.0462372  -0.0653283   0.0000000), wk =   0.0138889
        k(   42) = (   0.0462372  -0.0489861   0.0000000), wk =   0.0138889
        k(   43) = (   0.0462372  -0.0326438   0.0000000), wk =   0.0138889
        k(   44) = (   0.0616496  -0.0217355   0.0000000), wk =   0.0138889
        k(   45) = (   0.0616496  -0.0053932   0.0000000), wk =   0.0138889
        k(   46) = (   0.0616496   0.0109490   0.0000000), wk =   0.0138889
        k(   47) = (   0.0616496   0.0272913   0.0000000), wk =   0.0138889
        k(   48) = (   0.0616496   0.0436335   0.0000000), wk =   0.0138889
        k(   49) = (   0.0616496   0.0599757   0.0000000), wk =   0.0138889
        k(   50) = (   0.0616496  -0.1197889   0.0000000), wk =   0.0138889
        k(   51) = (   0.0616496  -0.1034466   0.0000000), wk =   0.0138889
        k(   52) = (   0.0616496  -0.0871044   0.0000000), wk =   0.0138889
        k(   53) = (   0.0616496  -0.0707622   0.0000000), wk =   0.0138889
        k(   54) = (   0.0616496  -0.0544199   0.0000000), wk =   0.0138889
        k(   55) = (   0.0616496  -0.0380777   0.0000000), wk =   0.0138889
        k(   56) = (   0.0770620  -0.0271693   0.0000000), wk =   0.0138889
        k(   57) = (   0.0770620  -0.0108271   0.0000000), wk =   0.0138889
        k(   58) = (   0.0770620   0.0055152   0.0000000), wk =   0.0138889
        k(   59) = (   0.0770620   0.0218574   0.0000000), wk =   0.0138889
        k(   60) = (   0.0770620   0.0381996   0.0000000), wk =   0.0138889
        k(   61) = (   0.0770620   0.0545419   0.0000000), wk =   0.0138889
        k(   62) = (   0.0770620  -0.1252227   0.0000000), wk =   0.0138889
        k(   63) = (   0.0770620  -0.1088805   0.0000000), wk =   0.0138889
        k(   64) = (   0.0770620  -0.0925383   0.0000000), wk =   0.0138889
        k(   65) = (   0.0770620  -0.0761960   0.0000000), wk =   0.0138889
        k(   66) = (   0.0770620  -0.0598538   0.0000000), wk =   0.0138889
        k(   67) = (   0.0770620  -0.0435116   0.0000000), wk =   0.0138889
        k(   68) = (  -0.0924743   0.0326032   0.0000000), wk =   0.0069444
        k(   69) = (  -0.0924743   0.0489454   0.0000000), wk =   0.0138889
        k(   70) = (  -0.0924743   0.0652877   0.0000000), wk =   0.0138889
        k(   71) = (  -0.0924743   0.0816299   0.0000000), wk =   0.0138889
        k(   72) = (  -0.0924743   0.0979721   0.0000000), wk =   0.0138889
        k(   73) = (  -0.0924743   0.1143144   0.0000000), wk =   0.0138889
        k(   74) = (  -0.0924743  -0.0654502   0.0000000), wk =   0.0069444

     Dense  grid:   992567 G-vectors     FFT dimensions: (  80,  80, 360)

     Smooth grid:   251211 G-vectors     FFT dimensions: (  50,  50, 225)

     Estimated max dynamical RAM per process >     314.56 MB

     Estimated total dynamical RAM >      11.37 GB

     Check: negative core charge=   -0.000007
     Generating pointlists ...
     new r_m :   1.0659 (alat units)  2.0142 (a.u.) for type    1
     new r_m :   1.0659 (alat units)  2.0142 (a.u.) for type    2

     Initial potential from superposition of free atoms

     starting charge  167.98293, renormalised to  168.00000


     %%%%%%%%%%%%%%%%%%%%%%%%%%%%%%%%%%%%%%%%%%%%%%%%%%%%%%%%%%%%%%%%%%%%%%%%
     %                                                                      %
     % You are using vdW-DF, which was implemented by the Thonhauser group. %
     % Please cite the following two papers that made this development      %
     % possible and the two reviews that describe the various versions:     %
     %                                                                      %
     %   T. Thonhauser et al., PRL 115, 136402 (2015).                      %
     %   T. Thonhauser et al., PRB 76, 125112 (2007).                       %
     %   K. Berland et al., Rep. Prog. Phys. 78, 066501 (2015).             %
     %   D.C. Langreth et al., J. Phys.: Condens. Matter 21, 084203 (2009). %
     %                                                                      %
     %                                                                      %
     % If you are calculating the stress with vdW-DF, please also cite:     %
     %                                                                      %
     %   R. Sabatini et al., J. Phys.: Condens. Matter 24, 424209 (2012).   %
     %                                                                      %
     %%%%%%%%%%%%%%%%%%%%%%%%%%%%%%%%%%%%%%%%%%%%%%%%%%%%%%%%%%%%%%%%%%%%%%%%



     Adding external electric field

     Computed dipole along edir(3) : 
        Dipole                0.0011 Ry au,          0.0028 Debye
        Dipole field          0.0000 Ry au, 

        Potential amp.       -0.0003 Ry
        Total length         44.9812 bohr


     Adding external electric field

     Computed dipole along edir(3) : 
        Dipole                0.0011 Ry au,          0.0028 Debye
        Dipole field          0.0000 Ry au, 

        Potential amp.       -0.0003 Ry
        Total length         44.9812 bohr

     Starting wfcs are  120 randomized atomic wfcs

     total cpu time spent up to now is      192.4 secs

     Self-consistent Calculation

     iteration #  1     ecut=    55.12 Ry     beta= 0.10
     Davidson diagonalization with overlap
     ethr =  1.00E-02,  avg # of iterations =  8.0

     Adding external electric field

     Computed dipole along edir(3) : 
        Dipole                0.0108 Ry au,          0.0274 Debye
        Dipole field          0.0000 Ry au, 

        Potential amp.       -0.0027 Ry
        Total length         44.9812 bohr


     Adding external electric field

     Computed dipole along edir(3) : 
        Dipole                0.0108 Ry au,          0.0274 Debye
        Dipole field          0.0000 Ry au, 

        Potential amp.       -0.0027 Ry
        Total length         44.9812 bohr


     total cpu time spent up to now is      837.5 secs

     total energy              =   -2323.91940249 Ry
     estimated scf accuracy    <      51.90862893 Ry

     total magnetization       =    31.15 Bohr mag/cell
     absolute magnetization    =    32.50 Bohr mag/cell

     iteration #  2     ecut=    55.12 Ry     beta= 0.10
     Davidson diagonalization with overlap
     ethr =  1.00E-02,  avg # of iterations =  2.9

     Adding external electric field

     Computed dipole along edir(3) : 
        Dipole               -0.5633 Ry au,         -1.4319 Debye
        Dipole field         -0.0016 Ry au, 

        Potential amp.        0.1402 Ry
        Total length         44.9812 bohr


     Adding external electric field

     Computed dipole along edir(3) : 
        Dipole               -0.5633 Ry au,         -1.4319 Debye
        Dipole field         -0.0016 Ry au, 

        Potential amp.        0.1402 Ry
        Total length         44.9812 bohr


     total cpu time spent up to now is     1285.2 secs

     total energy              =   -2331.21317690 Ry
     estimated scf accuracy    <      32.71480722 Ry

     total magnetization       =    28.47 Bohr mag/cell
     absolute magnetization    =    34.29 Bohr mag/cell

     iteration #  3     ecut=    55.12 Ry     beta= 0.10
     Davidson diagonalization with overlap
     ethr =  1.00E-02,  avg # of iterations =  5.7

     Adding external electric field

     Computed dipole along edir(3) : 
        Dipole                0.5915 Ry au,          1.5035 Debye
        Dipole field          0.0016 Ry au, 

        Potential amp.       -0.1472 Ry
        Total length         44.9812 bohr


     Adding external electric field

     Computed dipole along edir(3) : 
        Dipole                0.5915 Ry au,          1.5035 Debye
        Dipole field          0.0016 Ry au, 

        Potential amp.       -0.1472 Ry
        Total length         44.9812 bohr


     total cpu time spent up to now is     1866.8 secs

     total energy              =   -2336.11225558 Ry
     estimated scf accuracy    <      25.57691140 Ry

     total magnetization       =    20.38 Bohr mag/cell
     absolute magnetization    =    24.46 Bohr mag/cell

     iteration #  4     ecut=    55.12 Ry     beta= 0.10
     Davidson diagonalization with overlap
     ethr =  1.00E-02,  avg # of iterations =  2.2

     Adding external electric field

     Computed dipole along edir(3) : 
        Dipole               -0.1611 Ry au,         -0.4094 Debye
        Dipole field         -0.0004 Ry au, 

        Potential amp.        0.0401 Ry
        Total length         44.9812 bohr


     Adding external electric field

     Computed dipole along edir(3) : 
        Dipole               -0.1611 Ry au,         -0.4094 Debye
        Dipole field         -0.0004 Ry au, 

        Potential amp.        0.0401 Ry
        Total length         44.9812 bohr


     total cpu time spent up to now is     2294.5 secs

     total energy              =   -2335.95655879 Ry
     estimated scf accuracy    <      23.90577332 Ry

     total magnetization       =    19.52 Bohr mag/cell
     absolute magnetization    =    22.77 Bohr mag/cell

     iteration #  5     ecut=    55.12 Ry     beta= 0.10
     Davidson diagonalization with overlap
     ethr =  1.00E-02,  avg # of iterations =  2.5

     Adding external electric field

     Computed dipole along edir(3) : 
        Dipole                0.3311 Ry au,          0.8416 Debye
        Dipole field          0.0009 Ry au, 

        Potential amp.       -0.0824 Ry
        Total length         44.9812 bohr


     Adding external electric field

     Computed dipole along edir(3) : 
        Dipole                0.3311 Ry au,          0.8416 Debye
        Dipole field          0.0009 Ry au, 

        Potential amp.       -0.0824 Ry
        Total length         44.9812 bohr


     total cpu time spent up to now is     2706.0 secs

     total energy              =   -2349.18537171 Ry
     estimated scf accuracy    <      19.74488410 Ry

     total magnetization       =    19.27 Bohr mag/cell
     absolute magnetization    =    21.93 Bohr mag/cell

     iteration #  6     ecut=    55.12 Ry     beta= 0.10
     Davidson diagonalization with overlap
     ethr =  1.00E-02,  avg # of iterations =  1.2

     Adding external electric field

     Computed dipole along edir(3) : 
        Dipole                0.1106 Ry au,          0.2812 Debye
        Dipole field          0.0003 Ry au, 

        Potential amp.       -0.0275 Ry
        Total length         44.9812 bohr


     Adding external electric field

     Computed dipole along edir(3) : 
        Dipole                0.1106 Ry au,          0.2812 Debye
        Dipole field          0.0003 Ry au, 

        Potential amp.       -0.0275 Ry
        Total length         44.9812 bohr


     total cpu time spent up to now is     3075.8 secs

     total energy              =   -2366.99490831 Ry
     estimated scf accuracy    <       9.07752674 Ry

     total magnetization       =    20.75 Bohr mag/cell
     absolute magnetization    =    29.01 Bohr mag/cell

     iteration #  7     ecut=    55.12 Ry     beta= 0.10
     Davidson diagonalization with overlap
     ethr =  5.40E-03,  avg # of iterations =  2.9

     Adding external electric field

     Computed dipole along edir(3) : 
        Dipole                0.4484 Ry au,          1.1397 Debye
        Dipole field          0.0012 Ry au, 

        Potential amp.       -0.1116 Ry
        Total length         44.9812 bohr


     Adding external electric field

     Computed dipole along edir(3) : 
        Dipole                0.4484 Ry au,          1.1397 Debye
        Dipole field          0.0012 Ry au, 

        Potential amp.       -0.1116 Ry
        Total length         44.9812 bohr


     total cpu time spent up to now is     3520.0 secs

     total energy              =   -2368.71376580 Ry
     estimated scf accuracy    <       7.13590075 Ry

     total magnetization       =    13.19 Bohr mag/cell
     absolute magnetization    =    26.42 Bohr mag/cell

     iteration #  8     ecut=    55.12 Ry     beta= 0.10
     Davidson diagonalization with overlap
     c_bands:  1 eigenvalues not converged
     ethr =  4.25E-03,  avg # of iterations =  5.4

     Adding external electric field

     Computed dipole along edir(3) : 
        Dipole                0.1934 Ry au,          0.4916 Debye
        Dipole field          0.0005 Ry au, 

        Potential amp.       -0.0481 Ry
        Total length         44.9812 bohr


     Adding external electric field

     Computed dipole along edir(3) : 
        Dipole                0.1934 Ry au,          0.4916 Debye
        Dipole field          0.0005 Ry au, 

        Potential amp.       -0.0481 Ry
        Total length         44.9812 bohr


     total cpu time spent up to now is     4019.3 secs

     total energy              =   -2369.43251012 Ry
     estimated scf accuracy    <       2.60228376 Ry

     total magnetization       =     7.75 Bohr mag/cell
     absolute magnetization    =    19.84 Bohr mag/cell

     iteration #  9     ecut=    55.12 Ry     beta= 0.10
     Davidson diagonalization with overlap
     c_bands:  1 eigenvalues not converged
     c_bands:  2 eigenvalues not converged
     c_bands:  1 eigenvalues not converged
     c_bands:  2 eigenvalues not converged
     c_bands:  1 eigenvalues not converged
     c_bands:  2 eigenvalues not converged
     c_bands:  2 eigenvalues not converged
     c_bands:  1 eigenvalues not converged
     c_bands:  1 eigenvalues not converged
     c_bands:  4 eigenvalues not converged
     c_bands:  1 eigenvalues not converged
     c_bands:  1 eigenvalues not converged
     c_bands:  2 eigenvalues not converged
     c_bands:  1 eigenvalues not converged
     c_bands:  3 eigenvalues not converged
     c_bands:  1 eigenvalues not converged
     c_bands:  2 eigenvalues not converged
     c_bands:  2 eigenvalues not converged
     c_bands:  1 eigenvalues not converged
     c_bands:  1 eigenvalues not converged
     c_bands:  1 eigenvalues not converged
     c_bands:  4 eigenvalues not converged
     c_bands:  5 eigenvalues not converged
     c_bands:  1 eigenvalues not converged
     c_bands:  2 eigenvalues not converged
     c_bands:  2 eigenvalues not converged
     c_bands:  3 eigenvalues not converged
     c_bands:  4 eigenvalues not converged
     c_bands:  2 eigenvalues not converged
     c_bands:  2 eigenvalues not converged
     c_bands:  1 eigenvalues not converged
     c_bands:  2 eigenvalues not converged
     c_bands:  2 eigenvalues not converged
     c_bands:  1 eigenvalues not converged
     c_bands:  4 eigenvalues not converged
     c_bands:  3 eigenvalues not converged
     c_bands:  1 eigenvalues not converged
     ethr =  1.55E-03,  avg # of iterations = 10.2

     Adding external electric field

     Computed dipole along edir(3) : 
        Dipole                0.1127 Ry au,          0.2865 Debye
        Dipole field          0.0003 Ry au, 

        Potential amp.       -0.0281 Ry
        Total length         44.9812 bohr


     Adding external electric field

     Computed dipole along edir(3) : 
        Dipole                0.1127 Ry au,          0.2865 Debye
        Dipole field          0.0003 Ry au, 

        Potential amp.       -0.0281 Ry
        Total length         44.9812 bohr


     total cpu time spent up to now is     4716.8 secs

     total energy              =   -2370.25772824 Ry
     estimated scf accuracy    <       6.20138942 Ry

     total magnetization       =     3.14 Bohr mag/cell
     absolute magnetization    =    12.16 Bohr mag/cell

     iteration # 10     ecut=    55.12 Ry     beta= 0.10
     Davidson diagonalization with overlap
     c_bands:  3 eigenvalues not converged
     ethr =  1.55E-03,  avg # of iterations =  3.0

     Adding external electric field

     Computed dipole along edir(3) : 
        Dipole                0.1127 Ry au,          0.2865 Debye
        Dipole field          0.0003 Ry au, 

        Potential amp.       -0.0281 Ry
        Total length         44.9812 bohr


     Adding external electric field

     Computed dipole along edir(3) : 
        Dipole                0.1127 Ry au,          0.2865 Debye
        Dipole field          0.0003 Ry au, 

        Potential amp.       -0.0281 Ry
        Total length         44.9812 bohr


     total cpu time spent up to now is     5134.3 secs

     total energy              =   -2369.40026549 Ry
     estimated scf accuracy    <      10.19175091 Ry

     total magnetization       =     2.41 Bohr mag/cell
     absolute magnetization    =    10.31 Bohr mag/cell

     iteration # 11     ecut=    55.12 Ry     beta= 0.10
     Davidson diagonalization with overlap
     ethr =  1.55E-03,  avg # of iterations =  1.4

     Adding external electric field

     Computed dipole along edir(3) : 
        Dipole                0.0944 Ry au,          0.2400 Debye
        Dipole field          0.0003 Ry au, 

        Potential amp.       -0.0235 Ry
        Total length         44.9812 bohr


     Adding external electric field

     Computed dipole along edir(3) : 
        Dipole                0.0944 Ry au,          0.2400 Debye
        Dipole field          0.0003 Ry au, 

        Potential amp.       -0.0235 Ry
        Total length         44.9812 bohr


     total cpu time spent up to now is     5534.5 secs

     total energy              =   -2368.17925275 Ry
     estimated scf accuracy    <      11.55119097 Ry

     total magnetization       =     2.51 Bohr mag/cell
     absolute magnetization    =    10.15 Bohr mag/cell

     iteration # 12     ecut=    55.12 Ry     beta= 0.10
     Davidson diagonalization with overlap
     ethr =  1.55E-03,  avg # of iterations =  1.4

     Adding external electric field

     Computed dipole along edir(3) : 
        Dipole               -0.1436 Ry au,         -0.3651 Debye
        Dipole field         -0.0004 Ry au, 

        Potential amp.        0.0357 Ry
        Total length         44.9812 bohr


     Adding external electric field

     Computed dipole along edir(3) : 
        Dipole               -0.1436 Ry au,         -0.3651 Debye
        Dipole field         -0.0004 Ry au, 

        Potential amp.        0.0357 Ry
        Total length         44.9812 bohr


     total cpu time spent up to now is     5907.5 secs

     total energy              =   -2364.50448827 Ry
     estimated scf accuracy    <       9.16080606 Ry

     total magnetization       =     2.69 Bohr mag/cell
     absolute magnetization    =    10.68 Bohr mag/cell

     iteration # 13     ecut=    55.12 Ry     beta= 0.10
     Davidson diagonalization with overlap
     ethr =  1.55E-03,  avg # of iterations =  9.0

     Adding external electric field

     Computed dipole along edir(3) : 
        Dipole               -0.0180 Ry au,         -0.0457 Debye
        Dipole field         -0.0000 Ry au, 

        Potential amp.        0.0045 Ry
        Total length         44.9812 bohr


     Adding external electric field

     Computed dipole along edir(3) : 
        Dipole               -0.0180 Ry au,         -0.0457 Debye
        Dipole field         -0.0000 Ry au, 

        Potential amp.        0.0045 Ry
        Total length         44.9812 bohr


     total cpu time spent up to now is     6514.9 secs

     total energy              =   -2366.37344381 Ry
     estimated scf accuracy    <      29.75945473 Ry

     total magnetization       =     8.63 Bohr mag/cell
     absolute magnetization    =    18.12 Bohr mag/cell

     iteration # 14     ecut=    55.12 Ry     beta= 0.10
     Davidson diagonalization with overlap
     ethr =  1.55E-03,  avg # of iterations =  2.0

     Adding external electric field

     Computed dipole along edir(3) : 
        Dipole                0.0913 Ry au,          0.2320 Debye
        Dipole field          0.0003 Ry au, 

        Potential amp.       -0.0227 Ry
        Total length         44.9812 bohr


     Adding external electric field

     Computed dipole along edir(3) : 
        Dipole                0.0913 Ry au,          0.2320 Debye
        Dipole field          0.0003 Ry au, 

        Potential amp.       -0.0227 Ry
        Total length         44.9812 bohr


     total cpu time spent up to now is     6941.3 secs

     total energy              =   -2364.95212087 Ry
     estimated scf accuracy    <      20.84344439 Ry

     total magnetization       =     9.71 Bohr mag/cell
     absolute magnetization    =    19.10 Bohr mag/cell

     iteration # 15     ecut=    55.12 Ry     beta= 0.10
     Davidson diagonalization with overlap
     ethr =  1.55E-03,  avg # of iterations =  1.9

     Adding external electric field

     Computed dipole along edir(3) : 
        Dipole                0.0496 Ry au,          0.1262 Debye
        Dipole field          0.0001 Ry au, 

        Potential amp.       -0.0124 Ry
        Total length         44.9812 bohr


     Adding external electric field

     Computed dipole along edir(3) : 
        Dipole                0.0496 Ry au,          0.1262 Debye
        Dipole field          0.0001 Ry au, 

        Potential amp.       -0.0124 Ry
        Total length         44.9812 bohr


     total cpu time spent up to now is     7369.9 secs

     total energy              =   -2363.60923737 Ry
     estimated scf accuracy    <       8.99827949 Ry

     total magnetization       =     8.38 Bohr mag/cell
     absolute magnetization    =    18.76 Bohr mag/cell

     iteration # 16     ecut=    55.12 Ry     beta= 0.10
     Davidson diagonalization with overlap
     ethr =  1.55E-03,  avg # of iterations =  1.0

     Adding external electric field

     Computed dipole along edir(3) : 
        Dipole                0.0371 Ry au,          0.0942 Debye
        Dipole field          0.0001 Ry au, 

        Potential amp.       -0.0092 Ry
        Total length         44.9812 bohr


     Adding external electric field

     Computed dipole along edir(3) : 
        Dipole                0.0371 Ry au,          0.0942 Debye
        Dipole field          0.0001 Ry au, 

        Potential amp.       -0.0092 Ry
        Total length         44.9812 bohr


     total cpu time spent up to now is     7736.0 secs

     total energy              =   -2361.97186697 Ry
     estimated scf accuracy    <       7.27156330 Ry

     total magnetization       =     7.61 Bohr mag/cell
     absolute magnetization    =    18.50 Bohr mag/cell

     iteration # 17     ecut=    55.12 Ry     beta= 0.10
     Davidson diagonalization with overlap
     ethr =  1.55E-03,  avg # of iterations =  1.0

     Adding external electric field

     Computed dipole along edir(3) : 
        Dipole                0.1495 Ry au,          0.3800 Debye
        Dipole field          0.0004 Ry au, 

        Potential amp.       -0.0372 Ry
        Total length         44.9812 bohr


     Adding external electric field

     Computed dipole along edir(3) : 
        Dipole                0.1495 Ry au,          0.3800 Debye
        Dipole field          0.0004 Ry au, 

        Potential amp.       -0.0372 Ry
        Total length         44.9812 bohr


     total cpu time spent up to now is     8119.7 secs

     total energy              =   -2360.58636883 Ry
     estimated scf accuracy    <       5.07346912 Ry

     total magnetization       =     6.56 Bohr mag/cell
     absolute magnetization    =    17.85 Bohr mag/cell

     iteration # 18     ecut=    55.12 Ry     beta= 0.10
     Davidson diagonalization with overlap
     ethr =  1.55E-03,  avg # of iterations =  1.2

     Adding external electric field

     Computed dipole along edir(3) : 
        Dipole                0.0674 Ry au,          0.1713 Debye
        Dipole field          0.0002 Ry au, 

        Potential amp.       -0.0168 Ry
        Total length         44.9812 bohr


     Adding external electric field

     Computed dipole along edir(3) : 
        Dipole                0.0674 Ry au,          0.1713 Debye
        Dipole field          0.0002 Ry au, 

        Potential amp.       -0.0168 Ry
        Total length         44.9812 bohr


     total cpu time spent up to now is     8497.4 secs

     total energy              =   -2357.77100117 Ry
     estimated scf accuracy    <       1.20919915 Ry

     total magnetization       =     3.94 Bohr mag/cell
     absolute magnetization    =    15.04 Bohr mag/cell

     iteration # 19     ecut=    55.12 Ry     beta= 0.10
     Davidson diagonalization with overlap
     c_bands:  3 eigenvalues not converged
     c_bands:  3 eigenvalues not converged
     c_bands:  2 eigenvalues not converged
     c_bands:  2 eigenvalues not converged
     c_bands:  1 eigenvalues not converged
     c_bands:  1 eigenvalues not converged
     ethr =  7.20E-04,  avg # of iterations =  6.7

     Adding external electric field

     Computed dipole along edir(3) : 
        Dipole                0.0634 Ry au,          0.1612 Debye
        Dipole field          0.0002 Ry au, 

        Potential amp.       -0.0158 Ry
        Total length         44.9812 bohr


     Adding external electric field

     Computed dipole along edir(3) : 
        Dipole                0.0634 Ry au,          0.1612 Debye
        Dipole field          0.0002 Ry au, 

        Potential amp.       -0.0158 Ry
        Total length         44.9812 bohr


     total cpu time spent up to now is     9027.5 secs

     total energy              =   -2357.51138705 Ry
     estimated scf accuracy    <       1.21006789 Ry

     total magnetization       =     1.77 Bohr mag/cell
     absolute magnetization    =    10.53 Bohr mag/cell

     iteration # 20     ecut=    55.12 Ry     beta= 0.10
     Davidson diagonalization with overlap
     ethr =  7.20E-04,  avg # of iterations =  1.3

     Adding external electric field

     Computed dipole along edir(3) : 
        Dipole                0.0456 Ry au,          0.1159 Debye
        Dipole field          0.0001 Ry au, 

        Potential amp.       -0.0113 Ry
        Total length         44.9812 bohr


     Adding external electric field

     Computed dipole along edir(3) : 
        Dipole                0.0456 Ry au,          0.1159 Debye
        Dipole field          0.0001 Ry au, 

        Potential amp.       -0.0113 Ry
        Total length         44.9812 bohr


     total cpu time spent up to now is     9410.2 secs

     total energy              =   -2356.56101452 Ry
     estimated scf accuracy    <       0.99348512 Ry

     total magnetization       =     1.82 Bohr mag/cell
     absolute magnetization    =    10.61 Bohr mag/cell

     iteration # 21     ecut=    55.12 Ry     beta= 0.10
     Davidson diagonalization with overlap
     ethr =  5.91E-04,  avg # of iterations =  1.1

     Adding external electric field

     Computed dipole along edir(3) : 
        Dipole                0.0468 Ry au,          0.1190 Debye
        Dipole field          0.0001 Ry au, 

        Potential amp.       -0.0117 Ry
        Total length         44.9812 bohr


     Adding external electric field

     Computed dipole along edir(3) : 
        Dipole                0.0468 Ry au,          0.1190 Debye
        Dipole field          0.0001 Ry au, 

        Potential amp.       -0.0117 Ry
        Total length         44.9812 bohr


     total cpu time spent up to now is     9797.6 secs

     total energy              =   -2356.26882949 Ry
     estimated scf accuracy    <       0.43054588 Ry

     total magnetization       =     2.09 Bohr mag/cell
     absolute magnetization    =    11.16 Bohr mag/cell

     iteration # 22     ecut=    55.12 Ry     beta= 0.10
     Davidson diagonalization with overlap
     c_bands:  5 eigenvalues not converged
     c_bands:  5 eigenvalues not converged
     ethr =  2.56E-04,  avg # of iterations =  2.3

     Adding external electric field

     Computed dipole along edir(3) : 
        Dipole                0.0523 Ry au,          0.1330 Debye
        Dipole field          0.0001 Ry au, 

        Potential amp.       -0.0130 Ry
        Total length         44.9812 bohr


     Adding external electric field

     Computed dipole along edir(3) : 
        Dipole                0.0523 Ry au,          0.1330 Debye
        Dipole field          0.0001 Ry au, 

        Potential amp.       -0.0130 Ry
        Total length         44.9812 bohr


     total cpu time spent up to now is    10196.4 secs

     total energy              =   -2355.88651492 Ry
     estimated scf accuracy    <       0.26365608 Ry

     total magnetization       =     2.17 Bohr mag/cell
     absolute magnetization    =    11.30 Bohr mag/cell

     iteration # 23     ecut=    55.12 Ry     beta= 0.10
     Davidson diagonalization with overlap
     c_bands:  2 eigenvalues not converged
     c_bands:  1 eigenvalues not converged
     c_bands:  1 eigenvalues not converged
     ethr =  1.57E-04,  avg # of iterations =  3.0

     Adding external electric field

     Computed dipole along edir(3) : 
        Dipole                0.0530 Ry au,          0.1347 Debye
        Dipole field          0.0001 Ry au, 

        Potential amp.       -0.0132 Ry
        Total length         44.9812 bohr


     Adding external electric field

     Computed dipole along edir(3) : 
        Dipole                0.0530 Ry au,          0.1347 Debye
        Dipole field          0.0001 Ry au, 

        Potential amp.       -0.0132 Ry
        Total length         44.9812 bohr


     total cpu time spent up to now is    10623.1 secs

     total energy              =   -2355.36368762 Ry
     estimated scf accuracy    <       0.01501673 Ry

     total magnetization       =     2.54 Bohr mag/cell
     absolute magnetization    =    11.89 Bohr mag/cell

     iteration # 24     ecut=    55.12 Ry     beta= 0.10
     Davidson diagonalization with overlap
     c_bands:  4 eigenvalues not converged
     c_bands:  1 eigenvalues not converged
     c_bands:  4 eigenvalues not converged
     c_bands:  1 eigenvalues not converged
     c_bands:  1 eigenvalues not converged
     c_bands:  3 eigenvalues not converged
     c_bands:  4 eigenvalues not converged
     c_bands:  2 eigenvalues not converged
     c_bands:  4 eigenvalues not converged
     c_bands:  3 eigenvalues not converged
     c_bands:  5 eigenvalues not converged
     c_bands:  2 eigenvalues not converged
     c_bands:  1 eigenvalues not converged
     c_bands:  4 eigenvalues not converged
     c_bands:  1 eigenvalues not converged
     c_bands:  1 eigenvalues not converged
     c_bands:  4 eigenvalues not converged
     c_bands:  3 eigenvalues not converged
     c_bands:  3 eigenvalues not converged
     c_bands:  4 eigenvalues not converged
     c_bands:  4 eigenvalues not converged
     c_bands:  2 eigenvalues not converged
     c_bands:  4 eigenvalues not converged
     c_bands:  5 eigenvalues not converged
     c_bands:  5 eigenvalues not converged
     c_bands:  4 eigenvalues not converged
     c_bands:  1 eigenvalues not converged
     c_bands:  5 eigenvalues not converged
     c_bands:  5 eigenvalues not converged
     c_bands:  1 eigenvalues not converged
     c_bands:  1 eigenvalues not converged
     c_bands:  2 eigenvalues not converged
     c_bands:  4 eigenvalues not converged
     c_bands:  4 eigenvalues not converged
     c_bands:  3 eigenvalues not converged
     c_bands:  5 eigenvalues not converged
     c_bands:  1 eigenvalues not converged
     c_bands:  5 eigenvalues not converged
     c_bands:  2 eigenvalues not converged
     c_bands:  4 eigenvalues not converged
     c_bands:  3 eigenvalues not converged
     c_bands:  3 eigenvalues not converged
     c_bands:  4 eigenvalues not converged
     c_bands:  4 eigenvalues not converged
     c_bands:  5 eigenvalues not converged
     c_bands:  2 eigenvalues not converged
     c_bands:  2 eigenvalues not converged
     c_bands:  4 eigenvalues not converged
     c_bands:  3 eigenvalues not converged
     c_bands:  2 eigenvalues not converged
     c_bands:  5 eigenvalues not converged
     c_bands:  3 eigenvalues not converged
     c_bands:  4 eigenvalues not converged
     c_bands:  2 eigenvalues not converged
     c_bands:  4 eigenvalues not converged
     c_bands:  1 eigenvalues not converged
     c_bands:  4 eigenvalues not converged
     c_bands:  3 eigenvalues not converged
     c_bands:  1 eigenvalues not converged
     c_bands:  3 eigenvalues not converged
     c_bands:  3 eigenvalues not converged
     c_bands:  3 eigenvalues not converged
     c_bands:  4 eigenvalues not converged
     c_bands:  2 eigenvalues not converged
     c_bands:  3 eigenvalues not converged
     c_bands:  3 eigenvalues not converged
     c_bands:  3 eigenvalues not converged
     c_bands:  1 eigenvalues not converged
     c_bands:  1 eigenvalues not converged
     c_bands:  5 eigenvalues not converged
     c_bands:  1 eigenvalues not converged
     c_bands:  1 eigenvalues not converged
     c_bands:  5 eigenvalues not converged
     c_bands:  4 eigenvalues not converged
     c_bands:  2 eigenvalues not converged
     c_bands:  2 eigenvalues not converged
     c_bands:  1 eigenvalues not converged
     c_bands:  3 eigenvalues not converged
     c_bands:  2 eigenvalues not converged
     c_bands:  1 eigenvalues not converged
     c_bands:  1 eigenvalues not converged
     c_bands:  2 eigenvalues not converged
     c_bands:  2 eigenvalues not converged
     c_bands:  5 eigenvalues not converged
     c_bands:  2 eigenvalues not converged
     c_bands:  2 eigenvalues not converged
     c_bands:  5 eigenvalues not converged
     c_bands:  2 eigenvalues not converged
     c_bands:  1 eigenvalues not converged
     c_bands:  3 eigenvalues not converged
     c_bands:  2 eigenvalues not converged
     c_bands:  4 eigenvalues not converged
     c_bands:  4 eigenvalues not converged
     c_bands:  5 eigenvalues not converged
     c_bands:  3 eigenvalues not converged
     c_bands:  1 eigenvalues not converged
     c_bands:  4 eigenvalues not converged
     c_bands:  2 eigenvalues not converged
     c_bands:  5 eigenvalues not converged
     c_bands:  1 eigenvalues not converged
     c_bands:  2 eigenvalues not converged
     c_bands:  1 eigenvalues not converged
     c_bands:  3 eigenvalues not converged
     c_bands:  1 eigenvalues not converged
     c_bands:  2 eigenvalues not converged
     c_bands:  3 eigenvalues not converged
     c_bands:  4 eigenvalues not converged
     c_bands:  1 eigenvalues not converged
     c_bands:  4 eigenvalues not converged
     c_bands:  4 eigenvalues not converged
     c_bands:  1 eigenvalues not converged
     c_bands:  1 eigenvalues not converged
     c_bands:  2 eigenvalues not converged
     c_bands:  2 eigenvalues not converged
     c_bands:  5 eigenvalues not converged
     c_bands:  3 eigenvalues not converged
     c_bands:  5 eigenvalues not converged
     c_bands:  5 eigenvalues not converged
     c_bands:  4 eigenvalues not converged
     c_bands:  3 eigenvalues not converged
     c_bands:  4 eigenvalues not converged
     c_bands:  2 eigenvalues not converged
     c_bands:  3 eigenvalues not converged
     c_bands:  1 eigenvalues not converged
     ethr =  8.94E-06,  avg # of iterations = 31.6

     Adding external electric field

     Computed dipole along edir(3) : 
        Dipole                0.0509 Ry au,          0.1295 Debye
        Dipole field          0.0001 Ry au, 

        Potential amp.       -0.0127 Ry
        Total length         44.9812 bohr


     Adding external electric field

     Computed dipole along edir(3) : 
        Dipole                0.0509 Ry au,          0.1295 Debye
        Dipole field          0.0001 Ry au, 

        Potential amp.       -0.0127 Ry
        Total length         44.9812 bohr


     total cpu time spent up to now is    12377.4 secs

     total energy              =   -2354.88178408 Ry
     estimated scf accuracy    <       0.03483641 Ry

     total magnetization       =     2.47 Bohr mag/cell
     absolute magnetization    =    11.57 Bohr mag/cell

     iteration # 25     ecut=    55.12 Ry     beta= 0.10
     Davidson diagonalization with overlap
     c_bands:  3 eigenvalues not converged
     c_bands:  1 eigenvalues not converged
     c_bands:  3 eigenvalues not converged
     c_bands:  4 eigenvalues not converged
     c_bands:  1 eigenvalues not converged
     c_bands:  1 eigenvalues not converged
     c_bands:  1 eigenvalues not converged
     c_bands:  3 eigenvalues not converged
     c_bands:  1 eigenvalues not converged
     c_bands:  1 eigenvalues not converged
     c_bands:  2 eigenvalues not converged
     c_bands:  1 eigenvalues not converged
     c_bands:  1 eigenvalues not converged
     c_bands:  1 eigenvalues not converged
     c_bands:  1 eigenvalues not converged
     c_bands:  3 eigenvalues not converged
     c_bands:  3 eigenvalues not converged
     c_bands:  1 eigenvalues not converged
     c_bands:  3 eigenvalues not converged
     c_bands:  2 eigenvalues not converged
     c_bands:  1 eigenvalues not converged
     c_bands:  3 eigenvalues not converged
     c_bands:  3 eigenvalues not converged
     c_bands:  3 eigenvalues not converged
     c_bands:  2 eigenvalues not converged
     c_bands:  2 eigenvalues not converged
     c_bands:  1 eigenvalues not converged
     c_bands:  1 eigenvalues not converged
     c_bands:  3 eigenvalues not converged
     c_bands:  2 eigenvalues not converged
     c_bands:  2 eigenvalues not converged
     c_bands:  3 eigenvalues not converged
     c_bands:  1 eigenvalues not converged
     c_bands:  1 eigenvalues not converged
     c_bands:  1 eigenvalues not converged
     c_bands:  1 eigenvalues not converged
     c_bands:  4 eigenvalues not converged
     c_bands:  1 eigenvalues not converged
     c_bands:  2 eigenvalues not converged
     c_bands:  2 eigenvalues not converged
     c_bands:  1 eigenvalues not converged
     c_bands:  1 eigenvalues not converged
     ethr =  8.94E-06,  avg # of iterations = 10.0

     Adding external electric field

     Computed dipole along edir(3) : 
        Dipole                0.0526 Ry au,          0.1338 Debye
        Dipole field          0.0001 Ry au, 

        Potential amp.       -0.0131 Ry
        Total length         44.9812 bohr


     Adding external electric field

     Computed dipole along edir(3) : 
        Dipole                0.0526 Ry au,          0.1338 Debye
        Dipole field          0.0001 Ry au, 

        Potential amp.       -0.0131 Ry
        Total length         44.9812 bohr


     total cpu time spent up to now is    12859.5 secs

     total energy              =   -2353.72088446 Ry
     estimated scf accuracy    <       0.02581546 Ry

     total magnetization       =     2.39 Bohr mag/cell
     absolute magnetization    =    11.40 Bohr mag/cell

     iteration # 26     ecut=    55.12 Ry     beta= 0.10
     Davidson diagonalization with overlap
     c_bands:  1 eigenvalues not converged
     c_bands:  1 eigenvalues not converged
     c_bands:  1 eigenvalues not converged
     c_bands:  1 eigenvalues not converged
     c_bands:  1 eigenvalues not converged
     c_bands:  2 eigenvalues not converged
     c_bands:  1 eigenvalues not converged
     c_bands:  1 eigenvalues not converged
     c_bands:  1 eigenvalues not converged
     c_bands:  1 eigenvalues not converged
     c_bands:  1 eigenvalues not converged
     c_bands:  1 eigenvalues not converged
     c_bands:  3 eigenvalues not converged
     c_bands:  1 eigenvalues not converged
     c_bands:  1 eigenvalues not converged
     c_bands:  1 eigenvalues not converged
     c_bands:  3 eigenvalues not converged
     c_bands:  1 eigenvalues not converged
     c_bands:  1 eigenvalues not converged
     c_bands:  1 eigenvalues not converged
     c_bands:  1 eigenvalues not converged
     c_bands:  3 eigenvalues not converged
     c_bands:  3 eigenvalues not converged
     ethr =  8.94E-06,  avg # of iterations =  8.6

     Adding external electric field

     Computed dipole along edir(3) : 
        Dipole                0.0592 Ry au,          0.1504 Debye
        Dipole field          0.0002 Ry au, 

        Potential amp.       -0.0147 Ry
        Total length         44.9812 bohr


     Adding external electric field

     Computed dipole along edir(3) : 
        Dipole                0.0592 Ry au,          0.1504 Debye
        Dipole field          0.0002 Ry au, 

        Potential amp.       -0.0147 Ry
        Total length         44.9812 bohr


     total cpu time spent up to now is    13376.9 secs

     total energy              =   -2353.10821729 Ry
     estimated scf accuracy    <       0.04185371 Ry

     total magnetization       =     1.87 Bohr mag/cell
     absolute magnetization    =    10.34 Bohr mag/cell

     iteration # 27     ecut=    55.12 Ry     beta= 0.10
     Davidson diagonalization with overlap
     c_bands:  1 eigenvalues not converged
     c_bands:  1 eigenvalues not converged
     c_bands:  1 eigenvalues not converged
     ethr =  8.94E-06,  avg # of iterations =  2.5

     Adding external electric field

     Computed dipole along edir(3) : 
        Dipole                0.0556 Ry au,          0.1413 Debye
        Dipole field          0.0002 Ry au, 

        Potential amp.       -0.0138 Ry
        Total length         44.9812 bohr


     Adding external electric field

     Computed dipole along edir(3) : 
        Dipole                0.0556 Ry au,          0.1413 Debye
        Dipole field          0.0002 Ry au, 

        Potential amp.       -0.0138 Ry
        Total length         44.9812 bohr


     total cpu time spent up to now is    13785.4 secs

     total energy              =   -2352.43420232 Ry
     estimated scf accuracy    <       0.01097103 Ry

     total magnetization       =     1.95 Bohr mag/cell
     absolute magnetization    =    10.32 Bohr mag/cell

     iteration # 28     ecut=    55.12 Ry     beta= 0.10
     Davidson diagonalization with overlap
     ethr =  6.53E-06,  avg # of iterations =  2.3

     Adding external electric field

     Computed dipole along edir(3) : 
        Dipole                0.0445 Ry au,          0.1131 Debye
        Dipole field          0.0001 Ry au, 

        Potential amp.       -0.0111 Ry
        Total length         44.9812 bohr


     Adding external electric field

     Computed dipole along edir(3) : 
        Dipole                0.0445 Ry au,          0.1131 Debye
        Dipole field          0.0001 Ry au, 

        Potential amp.       -0.0111 Ry
        Total length         44.9812 bohr


     total cpu time spent up to now is    14205.5 secs

     total energy              =   -2350.56664295 Ry
     estimated scf accuracy    <       0.01211079 Ry

     total magnetization       =     2.01 Bohr mag/cell
     absolute magnetization    =    10.19 Bohr mag/cell

     iteration # 29     ecut=    55.12 Ry     beta= 0.10
     Davidson diagonalization with overlap
     ethr =  6.53E-06,  avg # of iterations =  2.0

     Adding external electric field

     Computed dipole along edir(3) : 
        Dipole                0.0549 Ry au,          0.1396 Debye
        Dipole field          0.0002 Ry au, 

        Potential amp.       -0.0137 Ry
        Total length         44.9812 bohr


     Adding external electric field

     Computed dipole along edir(3) : 
        Dipole                0.0549 Ry au,          0.1396 Debye
        Dipole field          0.0002 Ry au, 

        Potential amp.       -0.0137 Ry
        Total length         44.9812 bohr


     total cpu time spent up to now is    14591.2 secs

     total energy              =   -2349.74641717 Ry
     estimated scf accuracy    <       0.01342780 Ry

     total magnetization       =     2.29 Bohr mag/cell
     absolute magnetization    =    10.11 Bohr mag/cell

     iteration # 30     ecut=    55.12 Ry     beta= 0.10
     Davidson diagonalization with overlap
     ethr =  6.53E-06,  avg # of iterations =  1.9

     Adding external electric field

     Computed dipole along edir(3) : 
        Dipole                0.0535 Ry au,          0.1361 Debye
        Dipole field          0.0001 Ry au, 

        Potential amp.       -0.0133 Ry
        Total length         44.9812 bohr


     Adding external electric field

     Computed dipole along edir(3) : 
        Dipole                0.0535 Ry au,          0.1361 Debye
        Dipole field          0.0001 Ry au, 

        Potential amp.       -0.0133 Ry
        Total length         44.9812 bohr


     total cpu time spent up to now is    15003.9 secs

     total energy              =   -2349.28764658 Ry
     estimated scf accuracy    <       0.01163042 Ry

     total magnetization       =     2.28 Bohr mag/cell
     absolute magnetization    =     9.82 Bohr mag/cell

     iteration # 31     ecut=    55.12 Ry     beta= 0.10
     Davidson diagonalization with overlap
     ethr =  6.53E-06,  avg # of iterations =  1.5

     Adding external electric field

     Computed dipole along edir(3) : 
        Dipole                0.0542 Ry au,          0.1378 Debye
        Dipole field          0.0001 Ry au, 

        Potential amp.       -0.0135 Ry
        Total length         44.9812 bohr


     Adding external electric field

     Computed dipole along edir(3) : 
        Dipole                0.0542 Ry au,          0.1378 Debye
        Dipole field          0.0001 Ry au, 

        Potential amp.       -0.0135 Ry
        Total length         44.9812 bohr


     total cpu time spent up to now is    15399.2 secs

     total energy              =   -2348.97961493 Ry
     estimated scf accuracy    <       0.00781627 Ry

     total magnetization       =     2.30 Bohr mag/cell
     absolute magnetization    =     9.67 Bohr mag/cell

     iteration # 32     ecut=    55.12 Ry     beta= 0.10
     Davidson diagonalization with overlap
     ethr =  4.65E-06,  avg # of iterations =  2.4

     Adding external electric field

     Computed dipole along edir(3) : 
        Dipole                0.0519 Ry au,          0.1320 Debye
        Dipole field          0.0001 Ry au, 

        Potential amp.       -0.0129 Ry
        Total length         44.9812 bohr


     Adding external electric field

     Computed dipole along edir(3) : 
        Dipole                0.0519 Ry au,          0.1320 Debye
        Dipole field          0.0001 Ry au, 

        Potential amp.       -0.0129 Ry
        Total length         44.9812 bohr


     total cpu time spent up to now is    15812.2 secs

     total energy              =   -2348.68234161 Ry
     estimated scf accuracy    <       0.00247054 Ry

     total magnetization       =     2.40 Bohr mag/cell
     absolute magnetization    =     9.69 Bohr mag/cell

     iteration # 33     ecut=    55.12 Ry     beta= 0.10
     Davidson diagonalization with overlap
     c_bands:  1 eigenvalues not converged
     c_bands:  3 eigenvalues not converged
     c_bands:  1 eigenvalues not converged
     c_bands:  2 eigenvalues not converged
     c_bands:  1 eigenvalues not converged
     c_bands:  1 eigenvalues not converged
     c_bands:  1 eigenvalues not converged
     c_bands:  1 eigenvalues not converged
     c_bands:  1 eigenvalues not converged
     c_bands:  1 eigenvalues not converged
     c_bands:  1 eigenvalues not converged
     c_bands:  2 eigenvalues not converged
     c_bands:  2 eigenvalues not converged
     c_bands:  2 eigenvalues not converged
     c_bands:  1 eigenvalues not converged
     c_bands:  1 eigenvalues not converged
     c_bands:  1 eigenvalues not converged
     c_bands:  1 eigenvalues not converged
     c_bands:  1 eigenvalues not converged
     c_bands:  1 eigenvalues not converged
     c_bands:  3 eigenvalues not converged
     c_bands:  2 eigenvalues not converged
     c_bands:  1 eigenvalues not converged
     c_bands:  1 eigenvalues not converged
     c_bands:  2 eigenvalues not converged
     c_bands:  1 eigenvalues not converged
     c_bands:  1 eigenvalues not converged
     c_bands:  2 eigenvalues not converged
     c_bands:  3 eigenvalues not converged
     c_bands:  2 eigenvalues not converged
     c_bands:  1 eigenvalues not converged
     c_bands:  3 eigenvalues not converged
     c_bands:  1 eigenvalues not converged
     c_bands:  2 eigenvalues not converged
     c_bands:  1 eigenvalues not converged
     c_bands:  2 eigenvalues not converged
     c_bands:  1 eigenvalues not converged
     c_bands:  1 eigenvalues not converged
     c_bands:  3 eigenvalues not converged
     c_bands:  1 eigenvalues not converged
     c_bands:  1 eigenvalues not converged
     c_bands:  1 eigenvalues not converged
     c_bands:  4 eigenvalues not converged
     c_bands:  1 eigenvalues not converged
     c_bands:  2 eigenvalues not converged
     c_bands:  4 eigenvalues not converged
     c_bands:  1 eigenvalues not converged
     c_bands:  1 eigenvalues not converged
     c_bands:  1 eigenvalues not converged
     c_bands:  1 eigenvalues not converged
     c_bands:  1 eigenvalues not converged
     c_bands:  1 eigenvalues not converged
     c_bands:  3 eigenvalues not converged
     c_bands:  1 eigenvalues not converged
     c_bands:  1 eigenvalues not converged
     c_bands:  1 eigenvalues not converged
     c_bands:  2 eigenvalues not converged
     c_bands:  1 eigenvalues not converged
     c_bands:  1 eigenvalues not converged
     c_bands:  2 eigenvalues not converged
     c_bands:  1 eigenvalues not converged
     c_bands:  1 eigenvalues not converged
     c_bands:  1 eigenvalues not converged
     c_bands:  2 eigenvalues not converged
     c_bands:  1 eigenvalues not converged
     c_bands:  2 eigenvalues not converged
     c_bands:  1 eigenvalues not converged
     c_bands:  3 eigenvalues not converged
     c_bands:  3 eigenvalues not converged
     c_bands:  2 eigenvalues not converged
     c_bands:  1 eigenvalues not converged
     ethr =  1.47E-06,  avg # of iterations = 15.8

     Adding external electric field

     Computed dipole along edir(3) : 
        Dipole                0.0555 Ry au,          0.1411 Debye
        Dipole field          0.0002 Ry au, 

        Potential amp.       -0.0138 Ry
        Total length         44.9812 bohr


     Adding external electric field

     Computed dipole along edir(3) : 
        Dipole                0.0555 Ry au,          0.1411 Debye
        Dipole field          0.0002 Ry au, 

        Potential amp.       -0.0138 Ry
        Total length         44.9812 bohr


     total cpu time spent up to now is    16560.1 secs

     total energy              =   -2348.45919773 Ry
     estimated scf accuracy    <       0.00686736 Ry

     total magnetization       =     2.38 Bohr mag/cell
     absolute magnetization    =     9.41 Bohr mag/cell

     iteration # 34     ecut=    55.12 Ry     beta= 0.10
     Davidson diagonalization with overlap
     c_bands:  2 eigenvalues not converged
     c_bands:  1 eigenvalues not converged
     c_bands:  2 eigenvalues not converged
     c_bands:  1 eigenvalues not converged
     c_bands:  1 eigenvalues not converged
     c_bands:  1 eigenvalues not converged
     c_bands:  1 eigenvalues not converged
     c_bands:  1 eigenvalues not converged
     c_bands:  1 eigenvalues not converged
     c_bands:  1 eigenvalues not converged
     c_bands:  1 eigenvalues not converged
     c_bands:  1 eigenvalues not converged
     c_bands:  1 eigenvalues not converged
     c_bands:  2 eigenvalues not converged
     c_bands:  1 eigenvalues not converged
     c_bands:  1 eigenvalues not converged
     c_bands:  1 eigenvalues not converged
     c_bands:  2 eigenvalues not converged
     c_bands:  1 eigenvalues not converged
     c_bands:  2 eigenvalues not converged
     c_bands:  2 eigenvalues not converged
     c_bands:  2 eigenvalues not converged
     c_bands:  1 eigenvalues not converged
     c_bands:  2 eigenvalues not converged
     c_bands:  1 eigenvalues not converged
     c_bands:  2 eigenvalues not converged
     c_bands:  1 eigenvalues not converged
     c_bands:  2 eigenvalues not converged
     c_bands:  1 eigenvalues not converged
     c_bands:  1 eigenvalues not converged
     c_bands:  4 eigenvalues not converged
     c_bands:  1 eigenvalues not converged
     c_bands:  1 eigenvalues not converged
     c_bands:  1 eigenvalues not converged
     ethr =  1.47E-06,  avg # of iterations =  9.2

     Adding external electric field

     Computed dipole along edir(3) : 
        Dipole                0.0567 Ry au,          0.1440 Debye
        Dipole field          0.0002 Ry au, 

        Potential amp.       -0.0141 Ry
        Total length         44.9812 bohr


     Adding external electric field

     Computed dipole along edir(3) : 
        Dipole                0.0567 Ry au,          0.1440 Debye
        Dipole field          0.0002 Ry au, 

        Potential amp.       -0.0141 Ry
        Total length         44.9812 bohr


     total cpu time spent up to now is    17065.7 secs

     total energy              =   -2348.34614159 Ry
     estimated scf accuracy    <       0.00119304 Ry

     total magnetization       =     2.45 Bohr mag/cell
     absolute magnetization    =     9.30 Bohr mag/cell

     iteration # 35     ecut=    55.12 Ry     beta= 0.10
     Davidson diagonalization with overlap
     c_bands:  1 eigenvalues not converged
     c_bands:  1 eigenvalues not converged
     c_bands:  1 eigenvalues not converged
     c_bands:  1 eigenvalues not converged
     c_bands:  1 eigenvalues not converged
     c_bands:  1 eigenvalues not converged
     c_bands:  1 eigenvalues not converged
     c_bands:  2 eigenvalues not converged
     c_bands:  2 eigenvalues not converged
     c_bands:  1 eigenvalues not converged
     c_bands:  1 eigenvalues not converged
     c_bands:  1 eigenvalues not converged
     c_bands:  2 eigenvalues not converged
     c_bands:  1 eigenvalues not converged
     c_bands:  1 eigenvalues not converged
     c_bands:  2 eigenvalues not converged
     c_bands:  1 eigenvalues not converged
     ethr =  7.10E-07,  avg # of iterations =  7.3

     Adding external electric field

     Computed dipole along edir(3) : 
        Dipole                0.0547 Ry au,          0.1389 Debye
        Dipole field          0.0002 Ry au, 

        Potential amp.       -0.0136 Ry
        Total length         44.9812 bohr


     Adding external electric field

     Computed dipole along edir(3) : 
        Dipole                0.0547 Ry au,          0.1389 Debye
        Dipole field          0.0002 Ry au, 

        Potential amp.       -0.0136 Ry
        Total length         44.9812 bohr


     total cpu time spent up to now is    17631.1 secs

     total energy              =   -2348.32475545 Ry
     estimated scf accuracy    <       0.00052139 Ry

     total magnetization       =     2.54 Bohr mag/cell
     absolute magnetization    =     9.24 Bohr mag/cell

     iteration # 36     ecut=    55.12 Ry     beta= 0.10
     Davidson diagonalization with overlap
     c_bands:  1 eigenvalues not converged
     c_bands:  1 eigenvalues not converged
     c_bands:  2 eigenvalues not converged
     c_bands:  2 eigenvalues not converged
     c_bands:  1 eigenvalues not converged
     c_bands:  1 eigenvalues not converged
     c_bands:  1 eigenvalues not converged
     c_bands:  1 eigenvalues not converged
     c_bands:  1 eigenvalues not converged
     c_bands:  1 eigenvalues not converged
     c_bands:  1 eigenvalues not converged
     c_bands:  4 eigenvalues not converged
     ethr =  3.10E-07,  avg # of iterations = 10.2

     Adding external electric field

     Computed dipole along edir(3) : 
        Dipole                0.0544 Ry au,          0.1383 Debye
        Dipole field          0.0002 Ry au, 

        Potential amp.       -0.0135 Ry
        Total length         44.9812 bohr


     Adding external electric field

     Computed dipole along edir(3) : 
        Dipole                0.0544 Ry au,          0.1383 Debye
        Dipole field          0.0002 Ry au, 

        Potential amp.       -0.0135 Ry
        Total length         44.9812 bohr


     total cpu time spent up to now is    18258.9 secs

     total energy              =   -2348.27117011 Ry
     estimated scf accuracy    <       0.00022243 Ry

     total magnetization       =     2.51 Bohr mag/cell
     absolute magnetization    =     9.16 Bohr mag/cell

     iteration # 37     ecut=    55.12 Ry     beta= 0.10
     Davidson diagonalization with overlap
     c_bands:  1 eigenvalues not converged
     c_bands:  1 eigenvalues not converged
     c_bands:  1 eigenvalues not converged
     c_bands:  1 eigenvalues not converged
     c_bands:  1 eigenvalues not converged
     c_bands:  1 eigenvalues not converged
     c_bands:  3 eigenvalues not converged
     c_bands:  1 eigenvalues not converged
     c_bands:  1 eigenvalues not converged
     c_bands:  1 eigenvalues not converged
     c_bands:  1 eigenvalues not converged
     c_bands:  1 eigenvalues not converged
     ethr =  1.32E-07,  avg # of iterations =  9.6

     Adding external electric field

     Computed dipole along edir(3) : 
        Dipole                0.0532 Ry au,          0.1353 Debye
        Dipole field          0.0001 Ry au, 

        Potential amp.       -0.0132 Ry
        Total length         44.9812 bohr


     Adding external electric field

     Computed dipole along edir(3) : 
        Dipole                0.0532 Ry au,          0.1353 Debye
        Dipole field          0.0001 Ry au, 

        Potential amp.       -0.0132 Ry
        Total length         44.9812 bohr


     total cpu time spent up to now is    18877.7 secs

     total energy              =   -2348.25320338 Ry
     estimated scf accuracy    <       0.00016141 Ry

     total magnetization       =     2.54 Bohr mag/cell
     absolute magnetization    =     9.12 Bohr mag/cell

     iteration # 38     ecut=    55.12 Ry     beta= 0.10
     Davidson diagonalization with overlap
     c_bands:  1 eigenvalues not converged
     c_bands:  1 eigenvalues not converged
     c_bands:  1 eigenvalues not converged
     c_bands:  1 eigenvalues not converged
     c_bands:  2 eigenvalues not converged
     c_bands:  1 eigenvalues not converged
     ethr =  9.61E-08,  avg # of iterations =  4.5

     Adding external electric field

     Computed dipole along edir(3) : 
        Dipole                0.0522 Ry au,          0.1326 Debye
        Dipole field          0.0001 Ry au, 

        Potential amp.       -0.0130 Ry
        Total length         44.9812 bohr


     Adding external electric field

     Computed dipole along edir(3) : 
        Dipole                0.0522 Ry au,          0.1326 Debye
        Dipole field          0.0001 Ry au, 

        Potential amp.       -0.0130 Ry
        Total length         44.9812 bohr


     total cpu time spent up to now is    19337.2 secs

     total energy              =   -2348.23943726 Ry
     estimated scf accuracy    <       0.00009501 Ry

     total magnetization       =     2.57 Bohr mag/cell
     absolute magnetization    =     9.12 Bohr mag/cell

     iteration # 39     ecut=    55.12 Ry     beta= 0.10
     Davidson diagonalization with overlap
     c_bands:  2 eigenvalues not converged
     c_bands:  1 eigenvalues not converged
     c_bands:  2 eigenvalues not converged
     ethr =  5.66E-08,  avg # of iterations =  6.7

     Adding external electric field

     Computed dipole along edir(3) : 
        Dipole                0.0521 Ry au,          0.1324 Debye
        Dipole field          0.0001 Ry au, 

        Potential amp.       -0.0130 Ry
        Total length         44.9812 bohr


     Adding external electric field

     Computed dipole along edir(3) : 
        Dipole                0.0521 Ry au,          0.1324 Debye
        Dipole field          0.0001 Ry au, 

        Potential amp.       -0.0130 Ry
        Total length         44.9812 bohr


     total cpu time spent up to now is    19909.3 secs

     total energy              =   -2348.24195454 Ry
     estimated scf accuracy    <       0.00005924 Ry

     total magnetization       =     2.60 Bohr mag/cell
     absolute magnetization    =     9.11 Bohr mag/cell

     iteration # 40     ecut=    55.12 Ry     beta= 0.10
     Davidson diagonalization with overlap
     c_bands:  1 eigenvalues not converged
     c_bands:  2 eigenvalues not converged
     ethr =  3.53E-08,  avg # of iterations =  7.4

     Adding external electric field

     Computed dipole along edir(3) : 
        Dipole                0.0525 Ry au,          0.1335 Debye
        Dipole field          0.0001 Ry au, 

        Potential amp.       -0.0131 Ry
        Total length         44.9812 bohr


     Adding external electric field

     Computed dipole along edir(3) : 
        Dipole                0.0525 Ry au,          0.1335 Debye
        Dipole field          0.0001 Ry au, 

        Potential amp.       -0.0131 Ry
        Total length         44.9812 bohr


     total cpu time spent up to now is    20392.6 secs

     total energy              =   -2348.22962584 Ry
     estimated scf accuracy    <       0.00004815 Ry

     total magnetization       =     2.60 Bohr mag/cell
     absolute magnetization    =     9.10 Bohr mag/cell

     iteration # 41     ecut=    55.12 Ry     beta= 0.10
     Davidson diagonalization with overlap
     ethr =  2.87E-08,  avg # of iterations =  4.6

     Adding external electric field

     Computed dipole along edir(3) : 
        Dipole                0.0522 Ry au,          0.1327 Debye
        Dipole field          0.0001 Ry au, 

        Potential amp.       -0.0130 Ry
        Total length         44.9812 bohr


     Adding external electric field

     Computed dipole along edir(3) : 
        Dipole                0.0522 Ry au,          0.1327 Debye
        Dipole field          0.0001 Ry au, 

        Potential amp.       -0.0130 Ry
        Total length         44.9812 bohr


     total cpu time spent up to now is    20854.4 secs

     total energy              =   -2348.24334196 Ry
     estimated scf accuracy    <       0.00003935 Ry

     total magnetization       =     2.61 Bohr mag/cell
     absolute magnetization    =     9.08 Bohr mag/cell

     iteration # 42     ecut=    55.12 Ry     beta= 0.10
     Davidson diagonalization with overlap
     c_bands:  1 eigenvalues not converged
     c_bands:  1 eigenvalues not converged
     c_bands:  1 eigenvalues not converged
     c_bands:  1 eigenvalues not converged
     c_bands:  1 eigenvalues not converged
     ethr =  2.34E-08,  avg # of iterations =  9.3

     Adding external electric field

     Computed dipole along edir(3) : 
        Dipole                0.0530 Ry au,          0.1348 Debye
        Dipole field          0.0001 Ry au, 

        Potential amp.       -0.0132 Ry
        Total length         44.9812 bohr


     Adding external electric field

     Computed dipole along edir(3) : 
        Dipole                0.0530 Ry au,          0.1348 Debye
        Dipole field          0.0001 Ry au, 

        Potential amp.       -0.0132 Ry
        Total length         44.9812 bohr


     total cpu time spent up to now is    21464.8 secs

     total energy              =   -2348.22658305 Ry
     estimated scf accuracy    <       0.00002465 Ry

     total magnetization       =     2.61 Bohr mag/cell
     absolute magnetization    =     9.05 Bohr mag/cell

     iteration # 43     ecut=    55.12 Ry     beta= 0.10
     Davidson diagonalization with overlap
     c_bands:  1 eigenvalues not converged
     c_bands:  1 eigenvalues not converged
     c_bands:  1 eigenvalues not converged
     c_bands:  1 eigenvalues not converged
     ethr =  1.47E-08,  avg # of iterations =  7.5

     Adding external electric field

     Computed dipole along edir(3) : 
        Dipole                0.0528 Ry au,          0.1343 Debye
        Dipole field          0.0001 Ry au, 

        Potential amp.       -0.0131 Ry
        Total length         44.9812 bohr


     Adding external electric field

     Computed dipole along edir(3) : 
        Dipole                0.0528 Ry au,          0.1343 Debye
        Dipole field          0.0001 Ry au, 

        Potential amp.       -0.0131 Ry
        Total length         44.9812 bohr


     total cpu time spent up to now is    21972.4 secs

     total energy              =   -2348.20507173 Ry
     estimated scf accuracy    <       0.00002421 Ry

     total magnetization       =     2.61 Bohr mag/cell
     absolute magnetization    =     9.04 Bohr mag/cell

     iteration # 44     ecut=    55.12 Ry     beta= 0.10
     Davidson diagonalization with overlap
     c_bands:  1 eigenvalues not converged
     ethr =  1.44E-08,  avg # of iterations =  3.6

     Adding external electric field

     Computed dipole along edir(3) : 
        Dipole                0.0529 Ry au,          0.1345 Debye
        Dipole field          0.0001 Ry au, 

        Potential amp.       -0.0132 Ry
        Total length         44.9812 bohr


     Adding external electric field

     Computed dipole along edir(3) : 
        Dipole                0.0529 Ry au,          0.1345 Debye
        Dipole field          0.0001 Ry au, 

        Potential amp.       -0.0132 Ry
        Total length         44.9812 bohr


     total cpu time spent up to now is    22442.5 secs

     total energy              =   -2348.17870240 Ry
     estimated scf accuracy    <       0.00001394 Ry

     total magnetization       =     2.61 Bohr mag/cell
     absolute magnetization    =     9.03 Bohr mag/cell

     iteration # 45     ecut=    55.12 Ry     beta= 0.10
     Davidson diagonalization with overlap
     c_bands:  2 eigenvalues not converged
     c_bands:  1 eigenvalues not converged
     ethr =  8.30E-09,  avg # of iterations =  9.1

     Adding external electric field

     Computed dipole along edir(3) : 
        Dipole                0.0528 Ry au,          0.1343 Debye
        Dipole field          0.0001 Ry au, 

        Potential amp.       -0.0132 Ry
        Total length         44.9812 bohr


     Adding external electric field

     Computed dipole along edir(3) : 
        Dipole                0.0528 Ry au,          0.1343 Debye
        Dipole field          0.0001 Ry au, 

        Potential amp.       -0.0132 Ry
        Total length         44.9812 bohr


     total cpu time spent up to now is    23054.6 secs

     total energy              =   -2348.15508533 Ry
     estimated scf accuracy    <       0.00001204 Ry

     total magnetization       =     2.61 Bohr mag/cell
     absolute magnetization    =     9.02 Bohr mag/cell

     iteration # 46     ecut=    55.12 Ry     beta= 0.10
     Davidson diagonalization with overlap
     ethr =  7.16E-09,  avg # of iterations =  6.2

     Adding external electric field

     Computed dipole along edir(3) : 
        Dipole                0.0462 Ry au,          0.1175 Debye
        Dipole field          0.0001 Ry au, 

        Potential amp.       -0.0115 Ry
        Total length         44.9812 bohr


     Adding external electric field

     Computed dipole along edir(3) : 
        Dipole                0.0462 Ry au,          0.1175 Debye
        Dipole field          0.0001 Ry au, 

        Potential amp.       -0.0115 Ry
        Total length         44.9812 bohr


     Magnetic moment per site:
     atom:    1    charge:   15.7544    magn:    1.0955    constr:    0.0000
     atom:    2    charge:   15.7544    magn:    1.0965    constr:    0.0000
     atom:    3    charge:    8.8994    magn:   -0.2613    constr:    0.0000
     atom:    4    charge:    8.8994    magn:   -0.2613    constr:    0.0000
     atom:    5    charge:   15.8076    magn:    0.8590    constr:    0.0000
     atom:    6    charge:   15.8080    magn:    0.8590    constr:    0.0000
     atom:    7    charge:    8.9694    magn:   -0.2009    constr:    0.0000
     atom:    8    charge:    8.9693    magn:   -0.2009    constr:    0.0000
     atom:    9    charge:   15.7953    magn:    0.9039    constr:    0.0000
     atom:   10    charge:   15.7956    magn:    0.9014    constr:    0.0000
     atom:   11    charge:    8.8861    magn:   -0.2491    constr:    0.0000
     atom:   12    charge:    8.8861    magn:   -0.2491    constr:    0.0000

     total cpu time spent up to now is    23531.1 secs

     End of self-consistent calculation

     Number of k-points >= 100: set verbosity='high' to print the bands.

     the Fermi energy is     0.8782 ev

!    total energy              =   -2348.00358333 Ry
     estimated scf accuracy    <       0.00000994 Ry
     smearing contrib. (-TS)   =      -0.06077725 Ry
     internal energy E=F+TS    =   -2347.94280608 Ry

     The total energy is F=E-TS. E is the sum of the following terms:
     one-electron contribution =  -16590.14656321 Ry
     hartree contribution      =    8291.97351026 Ry
     xc contribution           =    -301.18245803 Ry
     ewald contribution        =    6251.41269899 Ry
     electric field correction =       0.00000591 Ry

     total magnetization       =     2.62 Bohr mag/cell
     absolute magnetization    =     9.01 Bohr mag/cell

     convergence has been achieved in  46 iterations

     Forces acting on atoms (cartesian axes, Ry/au):

     atom    1 type  1   force =    -0.00000011    0.00002671    0.01439484
     atom    2 type  1   force =     0.00003131   -0.00000383    0.01434914
     atom    3 type  2   force =     0.00031991    0.00026102   -0.01051565
     atom    4 type  2   force =     0.00037900    0.00024401   -0.01051217
     atom    5 type  1   force =    -0.00009519   -0.00005724    0.00268767
     atom    6 type  1   force =    -0.00005678   -0.00004460    0.00269699
     atom    7 type  2   force =    -0.00016279   -0.00009464   -0.00848634
     atom    8 type  2   force =    -0.00013511   -0.00012741   -0.00850758
     atom    9 type  1   force =    -0.00009072   -0.00007696    0.00206488
     atom   10 type  1   force =    -0.00014032   -0.00008711    0.00199758
     atom   11 type  2   force =    -0.00001387   -0.00000131   -0.00008668
     atom   12 type  2   force =    -0.00003532   -0.00003865   -0.00008268

     Total force =     0.028317     Total SCF correction =     0.007718
     SCF correction compared to forces is large: reduce conv_thr to get better values

     Writing output data file ./Co2Sc2/Co2Sc2_beef.save/

     init_run     :    148.59s CPU    189.04s WALL (       1 calls)
     electrons    :  18685.50s CPU  23339.47s WALL (       1 calls)
     forces       :     99.13s CPU    106.46s WALL (       1 calls)

     Called by init_run:
     wfcinit      :    135.40s CPU    171.80s WALL (       1 calls)
     potinit      :      8.22s CPU     10.00s WALL (       1 calls)
     hinit0       :      2.30s CPU      3.86s WALL (       1 calls)

     Called by electrons:
     c_bands      :  16540.97s CPU  20531.73s WALL (      46 calls)
     sum_band     :   2007.78s CPU   2633.95s WALL (      46 calls)
     v_of_rho     :     77.22s CPU    104.38s WALL (      47 calls)
     newd         :     63.54s CPU     72.03s WALL (      47 calls)
     mix_rho      :      3.09s CPU      5.02s WALL (      46 calls)
     vdW_kernel   :      5.62s CPU      6.67s WALL (       1 calls)

     Called by c_bands:
     init_us_2    :     43.50s CPU     46.46s WALL (   13912 calls)
     cegterg      :  16405.93s CPU  20332.87s WALL (    6910 calls)

     Called by *egterg:
     cdiaghg      :   1667.30s CPU   1922.43s WALL (   44053 calls)
     h_psi        :   8571.83s CPU  11250.37s WALL (   44201 calls)
     s_psi        :   1888.48s CPU   1912.48s WALL (   44201 calls)
     g_psi        :      8.38s CPU      9.19s WALL (   37143 calls)

     Called by h_psi:
     h_psi:calbec :   2723.16s CPU   3032.38s WALL (   44201 calls)
     vloc_psi     :   3880.94s CPU   6218.63s WALL (   44201 calls)
     add_vuspsi   :   1949.18s CPU   1978.01s WALL (   44201 calls)

     General routines
     calbec       :   3897.30s CPU   4315.74s WALL (   51601 calls)
     fft          :     40.26s CPU     69.16s WALL (    4260 calls)
     ffts         :      0.41s CPU      0.90s WALL (     186 calls)
     fftw         :   4271.65s CPU   7039.49s WALL ( 4059604 calls)
     interpolate  :      1.06s CPU      1.87s WALL (      94 calls)

     Parallel routines
     fft_scatt_xy :    327.15s CPU    457.74s WALL ( 4064050 calls)
     fft_scatt_yz :   1821.57s CPU   3995.21s WALL ( 4064050 calls)

     PWSCF        :      5h16m CPU      6h38m WALL


   This run was terminated on:  11:45:39   1Jul2022            

=------------------------------------------------------------------------------=
   JOB DONE.
=------------------------------------------------------------------------------=
