
     Program PWSCF v.6.6 starts on  1Jul2022 at 11:45:50 

     This program is part of the open-source Quantum ESPRESSO suite
     for quantum simulation of materials; please cite
         "P. Giannozzi et al., J. Phys.:Condens. Matter 21 395502 (2009);
         "P. Giannozzi et al., J. Phys.:Condens. Matter 29 465901 (2017);
          URL http://www.quantum-espresso.org", 
     in publications or presentations arising from this work. More details at
     http://www.quantum-espresso.org/quote

     Parallel version (MPI), running on    37 processors

     MPI processes distributed on     4 nodes
     R & G space division:  proc/nbgrp/npool/nimage =      37
     Fft bands division:     nmany     =       1
     Reading input from Co2Ti2.in
Warning: card &CELL ignored
Warning: card / ignored

     Current dimensions of program PWSCF are:
     Max number of different atomic species (ntypx) = 10
     Max number of k-points (npk) =  40000
     Max angular momentum in pseudopotentials (lmaxx) =  3
     Presently stress not available with electric field and gates

     Message from routine cell_base_init:
     DEPRECATED: use true lattice parameter, not A to a.u. conversion factor
     file Co.pbe-spn-rrkjus_psl.0.3.1.UPF: wavefunction(s)  3P renormalized
     file Ti.pbe-spn-rrkjus_psl.1.0.0.UPF: wavefunction(s)  3S 3D renormalized

     **************************************************************************
     Initializing libbeef V0.1.2 with the BEEF-vdW functional.
     Citation: Wellendorff et al., PRB 85, 235149 (2012).
     **************************************************************************


     IMPORTANT: XC functional enforced from input :
     Exchange-correlation= BEEF-VDW
                           (   1   4  43  14   2   0   0)
     Any further DFT definition will be discarded
     Please, verify this is what you really want


     Subspace diagonalization in iterative solution of the eigenvalue problem:
     a serial algorithm will be used


     Parallelization info
     --------------------
     sticks:   dense  smooth     PW     G-vecs:    dense   smooth      PW
     Min         107      43     12                24417     6173     938
     Max         108      43     13                24429     6185     957
     Sum        3965    1591    455               903735   228683   34905



     bravais-lattice index     =            0
     lattice parameter (alat)  =       1.8897  a.u.
     unit-cell volume          =    4135.0920 (a.u.)^3
     number of atoms/cell      =           12
     number of atomic types    =            2
     number of electrons       =       174.00
     number of Kohn-Sham states=          104
     kinetic-energy cutoff     =      55.1240  Ry
     charge density cutoff     =     551.2396  Ry
     convergence threshold     =      1.0E-05
     mixing beta               =       0.1000
     number of iterations used =           10  plain     mixing
     Exchange-correlation= BEEF-VDW
                           (   1   4  43  14   2   0   0)

     celldm(1)=   1.889726  celldm(2)=   0.000000  celldm(3)=   0.000000
     celldm(4)=   0.000000  celldm(5)=   0.000000  celldm(6)=   0.000000

     crystal axes: (cart. coord. in units of alat)
               a(1) = (   5.177983   0.000000   0.000000 )  
               a(2) = (   1.717092   4.884987   0.000000 )  
               a(3) = (   0.000000   0.000000  24.225047 )  

     reciprocal axes: (cart. coord. in units 2 pi/alat)
               b(1) = (  0.193125 -0.067884  0.000000 )  
               b(2) = (  0.000000  0.204709  0.000000 )  
               b(3) = (  0.000000  0.000000  0.041280 )  


     PseudoPot. # 1 for Co read from file:
     ../pseudo/Co.pbe-spn-rrkjus_psl.0.3.1.UPF
     MD5 check sum: 99b21b1f85602741a4c0ed67614a7280
     Pseudo is Ultrasoft + core correction, Zval = 17.0
     Generated using "atomic" code by A. Dal Corso v.6.2.2
     Using radial grid of 1193 points,  6 beta functions with: 
                l(1) =   0
                l(2) =   0
                l(3) =   1
                l(4) =   1
                l(5) =   2
                l(6) =   2
     Q(r) pseudized with 0 coefficients 


     PseudoPot. # 2 for Ti read from file:
     ../pseudo/Ti.pbe-spn-rrkjus_psl.1.0.0.UPF
     MD5 check sum: e281089c08e14b8efcf92e44a67ada65
     Pseudo is Ultrasoft + core correction, Zval = 12.0
     Generated using "atomic" code by A. Dal Corso v.6.2.2
     Using radial grid of 1177 points,  6 beta functions with: 
                l(1) =   0
                l(2) =   0
                l(3) =   1
                l(4) =   1
                l(5) =   2
                l(6) =   2
     Q(r) pseudized with 0 coefficients 


     atomic species   valence    mass     pseudopotential
        Co            17.00    58.93319     Co( 1.00)
        Ti            12.00    47.86700     Ti( 1.00)

     Starting magnetic structure 
     atomic species   magnetization
        Co           1.000
        Ti           0.000

     No symmetry found



   Cartesian axes

     site n.     atom                  positions (alat units)
         1           Co  tau(   1) = (   0.0000000   0.0000000  10.0000000  )
         2           Co  tau(   2) = (   3.4475373   2.4424936  10.0000000  )
         3           Ti  tau(   3) = (   2.5889913   0.0000000  10.0000000  )
         4           Ti  tau(   4) = (   0.8585459   2.4424936  10.0000000  )
         5           Co  tau(   5) = (   5.1779827   3.6684707  12.1125234  )
         6           Co  tau(   6) = (   1.7304454   1.2259771  12.1125234  )
         7           Ti  tau(   7) = (   2.5889913   3.6684707  12.1125234  )
         8           Ti  tau(   8) = (   4.3194367   1.2259771  12.1125234  )
         9           Co  tau(   9) = (   3.4570891   2.4492618  13.9928040  )
        10           Co  tau(  10) = (   0.0098277   0.0069616  13.9929184  )
        11           Ti  tau(  11) = (   0.8672334   2.4486108  14.2592213  )
        12           Ti  tau(  12) = (   2.5976436   0.0061676  14.2592200  )

     number of k points=    74  Fermi-Dirac smearing, width (Ry)=  0.0100
                       cart. coord. in units 2pi/alat
        k(    1) = (   0.0000000   0.0000000   0.0000000), wk =   0.0069444
        k(    2) = (   0.0000000   0.0170591   0.0000000), wk =   0.0138889
        k(    3) = (   0.0000000   0.0341181   0.0000000), wk =   0.0138889
        k(    4) = (   0.0000000   0.0511772   0.0000000), wk =   0.0138889
        k(    5) = (   0.0000000   0.0682363   0.0000000), wk =   0.0138889
        k(    6) = (   0.0000000   0.0852953   0.0000000), wk =   0.0138889
        k(    7) = (   0.0000000  -0.1023544   0.0000000), wk =   0.0069444
        k(    8) = (   0.0160938  -0.0056570   0.0000000), wk =   0.0138889
        k(    9) = (   0.0160938   0.0114020   0.0000000), wk =   0.0138889
        k(   10) = (   0.0160938   0.0284611   0.0000000), wk =   0.0138889
        k(   11) = (   0.0160938   0.0455202   0.0000000), wk =   0.0138889
        k(   12) = (   0.0160938   0.0625793   0.0000000), wk =   0.0138889
        k(   13) = (   0.0160938   0.0796383   0.0000000), wk =   0.0138889
        k(   14) = (   0.0160938  -0.1080114   0.0000000), wk =   0.0138889
        k(   15) = (   0.0160938  -0.0909524   0.0000000), wk =   0.0138889
        k(   16) = (   0.0160938  -0.0738933   0.0000000), wk =   0.0138889
        k(   17) = (   0.0160938  -0.0568342   0.0000000), wk =   0.0138889
        k(   18) = (   0.0160938  -0.0397752   0.0000000), wk =   0.0138889
        k(   19) = (   0.0160938  -0.0227161   0.0000000), wk =   0.0138889
        k(   20) = (   0.0321876  -0.0113141   0.0000000), wk =   0.0138889
        k(   21) = (   0.0321876   0.0057450   0.0000000), wk =   0.0138889
        k(   22) = (   0.0321876   0.0228041   0.0000000), wk =   0.0138889
        k(   23) = (   0.0321876   0.0398632   0.0000000), wk =   0.0138889
        k(   24) = (   0.0321876   0.0569222   0.0000000), wk =   0.0138889
        k(   25) = (   0.0321876   0.0739813   0.0000000), wk =   0.0138889
        k(   26) = (   0.0321876  -0.1136685   0.0000000), wk =   0.0138889
        k(   27) = (   0.0321876  -0.0966094   0.0000000), wk =   0.0138889
        k(   28) = (   0.0321876  -0.0795503   0.0000000), wk =   0.0138889
        k(   29) = (   0.0321876  -0.0624913   0.0000000), wk =   0.0138889
        k(   30) = (   0.0321876  -0.0454322   0.0000000), wk =   0.0138889
        k(   31) = (   0.0321876  -0.0283731   0.0000000), wk =   0.0138889
        k(   32) = (   0.0482813  -0.0169711   0.0000000), wk =   0.0138889
        k(   33) = (   0.0482813   0.0000880   0.0000000), wk =   0.0138889
        k(   34) = (   0.0482813   0.0171471   0.0000000), wk =   0.0138889
        k(   35) = (   0.0482813   0.0342061   0.0000000), wk =   0.0138889
        k(   36) = (   0.0482813   0.0512652   0.0000000), wk =   0.0138889
        k(   37) = (   0.0482813   0.0683243   0.0000000), wk =   0.0138889
        k(   38) = (   0.0482813  -0.1193255   0.0000000), wk =   0.0138889
        k(   39) = (   0.0482813  -0.1022664   0.0000000), wk =   0.0138889
        k(   40) = (   0.0482813  -0.0852074   0.0000000), wk =   0.0138889
        k(   41) = (   0.0482813  -0.0681483   0.0000000), wk =   0.0138889
        k(   42) = (   0.0482813  -0.0510892   0.0000000), wk =   0.0138889
        k(   43) = (   0.0482813  -0.0340302   0.0000000), wk =   0.0138889
        k(   44) = (   0.0643751  -0.0226281   0.0000000), wk =   0.0138889
        k(   45) = (   0.0643751  -0.0055690   0.0000000), wk =   0.0138889
        k(   46) = (   0.0643751   0.0114900   0.0000000), wk =   0.0138889
        k(   47) = (   0.0643751   0.0285491   0.0000000), wk =   0.0138889
        k(   48) = (   0.0643751   0.0456082   0.0000000), wk =   0.0138889
        k(   49) = (   0.0643751   0.0626672   0.0000000), wk =   0.0138889
        k(   50) = (   0.0643751  -0.1249825   0.0000000), wk =   0.0138889
        k(   51) = (   0.0643751  -0.1079235   0.0000000), wk =   0.0138889
        k(   52) = (   0.0643751  -0.0908644   0.0000000), wk =   0.0138889
        k(   53) = (   0.0643751  -0.0738053   0.0000000), wk =   0.0138889
        k(   54) = (   0.0643751  -0.0567462   0.0000000), wk =   0.0138889
        k(   55) = (   0.0643751  -0.0396872   0.0000000), wk =   0.0138889
        k(   56) = (   0.0804689  -0.0282851   0.0000000), wk =   0.0138889
        k(   57) = (   0.0804689  -0.0112261   0.0000000), wk =   0.0138889
        k(   58) = (   0.0804689   0.0058330   0.0000000), wk =   0.0138889
        k(   59) = (   0.0804689   0.0228921   0.0000000), wk =   0.0138889
        k(   60) = (   0.0804689   0.0399511   0.0000000), wk =   0.0138889
        k(   61) = (   0.0804689   0.0570102   0.0000000), wk =   0.0138889
        k(   62) = (   0.0804689  -0.1306396   0.0000000), wk =   0.0138889
        k(   63) = (   0.0804689  -0.1135805   0.0000000), wk =   0.0138889
        k(   64) = (   0.0804689  -0.0965214   0.0000000), wk =   0.0138889
        k(   65) = (   0.0804689  -0.0794623   0.0000000), wk =   0.0138889
        k(   66) = (   0.0804689  -0.0624033   0.0000000), wk =   0.0138889
        k(   67) = (   0.0804689  -0.0453442   0.0000000), wk =   0.0138889
        k(   68) = (  -0.0965627   0.0339422   0.0000000), wk =   0.0069444
        k(   69) = (  -0.0965627   0.0510012   0.0000000), wk =   0.0138889
        k(   70) = (  -0.0965627   0.0680603   0.0000000), wk =   0.0138889
        k(   71) = (  -0.0965627   0.0851194   0.0000000), wk =   0.0138889
        k(   72) = (  -0.0965627   0.1021784   0.0000000), wk =   0.0138889
        k(   73) = (  -0.0965627   0.1192375   0.0000000), wk =   0.0138889
        k(   74) = (  -0.0965627  -0.0684123   0.0000000), wk =   0.0069444

     Dense  grid:   903735 G-vectors     FFT dimensions: (  75,  75, 360)

     Smooth grid:   228683 G-vectors     FFT dimensions: (  48,  48, 225)

     Estimated max dynamical RAM per process >     291.74 MB

     Estimated total dynamical RAM >      10.54 GB

     Check: negative core charge=   -0.000008
     Generating pointlists ...
     new r_m :   0.9913 (alat units)  1.8733 (a.u.) for type    1
     new r_m :   0.9913 (alat units)  1.8733 (a.u.) for type    2

     Initial potential from superposition of free atoms

     starting charge  173.98942, renormalised to  174.00000


     %%%%%%%%%%%%%%%%%%%%%%%%%%%%%%%%%%%%%%%%%%%%%%%%%%%%%%%%%%%%%%%%%%%%%%%%
     %                                                                      %
     % You are using vdW-DF, which was implemented by the Thonhauser group. %
     % Please cite the following two papers that made this development      %
     % possible and the two reviews that describe the various versions:     %
     %                                                                      %
     %   T. Thonhauser et al., PRL 115, 136402 (2015).                      %
     %   T. Thonhauser et al., PRB 76, 125112 (2007).                       %
     %   K. Berland et al., Rep. Prog. Phys. 78, 066501 (2015).             %
     %   D.C. Langreth et al., J. Phys.: Condens. Matter 21, 084203 (2009). %
     %                                                                      %
     %                                                                      %
     % If you are calculating the stress with vdW-DF, please also cite:     %
     %                                                                      %
     %   R. Sabatini et al., J. Phys.: Condens. Matter 24, 424209 (2012).   %
     %                                                                      %
     %%%%%%%%%%%%%%%%%%%%%%%%%%%%%%%%%%%%%%%%%%%%%%%%%%%%%%%%%%%%%%%%%%%%%%%%



     Adding external electric field

     Computed dipole along edir(3) : 
        Dipole                0.0008 Ry au,          0.0019 Debye
        Dipole field          0.0000 Ry au, 

        Potential amp.       -0.0002 Ry
        Total length         44.6342 bohr


     Adding external electric field

     Computed dipole along edir(3) : 
        Dipole                0.0008 Ry au,          0.0019 Debye
        Dipole field          0.0000 Ry au, 

        Potential amp.       -0.0002 Ry
        Total length         44.6342 bohr

     Starting wfcs are  120 randomized atomic wfcs

     total cpu time spent up to now is      177.2 secs

     Self-consistent Calculation

     iteration #  1     ecut=    55.12 Ry     beta= 0.10
     Davidson diagonalization with overlap
     ethr =  1.00E-02,  avg # of iterations =  4.8

     Adding external electric field

     Computed dipole along edir(3) : 
        Dipole               -0.0068 Ry au,         -0.0173 Debye
        Dipole field         -0.0000 Ry au, 

        Potential amp.        0.0019 Ry
        Total length         44.6342 bohr


     Adding external electric field

     Computed dipole along edir(3) : 
        Dipole               -0.0068 Ry au,         -0.0173 Debye
        Dipole field         -0.0000 Ry au, 

        Potential amp.        0.0019 Ry
        Total length         44.6342 bohr


     total cpu time spent up to now is      740.9 secs

     total energy              =   -2454.45944273 Ry
     estimated scf accuracy    <      54.92116309 Ry

     total magnetization       =    31.10 Bohr mag/cell
     absolute magnetization    =    32.25 Bohr mag/cell

     iteration #  2     ecut=    55.12 Ry     beta= 0.10
     Davidson diagonalization with overlap
     ethr =  1.00E-02,  avg # of iterations =  2.3

     Adding external electric field

     Computed dipole along edir(3) : 
        Dipole               -0.4491 Ry au,         -1.1415 Debye
        Dipole field         -0.0014 Ry au, 

        Potential amp.        0.1218 Ry
        Total length         44.6342 bohr


     Adding external electric field

     Computed dipole along edir(3) : 
        Dipole               -0.4491 Ry au,         -1.1415 Debye
        Dipole field         -0.0014 Ry au, 

        Potential amp.        0.1218 Ry
        Total length         44.6342 bohr


     total cpu time spent up to now is     1142.9 secs

     total energy              =   -2458.62113751 Ry
     estimated scf accuracy    <      34.35997652 Ry

     total magnetization       =    27.87 Bohr mag/cell
     absolute magnetization    =    35.00 Bohr mag/cell

     iteration #  3     ecut=    55.12 Ry     beta= 0.10
     Davidson diagonalization with overlap
     ethr =  1.00E-02,  avg # of iterations =  2.3

     Adding external electric field

     Computed dipole along edir(3) : 
        Dipole                1.0747 Ry au,          2.7315 Debye
        Dipole field          0.0033 Ry au, 

        Potential amp.       -0.2915 Ry
        Total length         44.6342 bohr


     Adding external electric field

     Computed dipole along edir(3) : 
        Dipole                1.0747 Ry au,          2.7315 Debye
        Dipole field          0.0033 Ry au, 

        Potential amp.       -0.2915 Ry
        Total length         44.6342 bohr


     total cpu time spent up to now is     1545.0 secs

     total energy              =   -2463.57838803 Ry
     estimated scf accuracy    <      27.36994333 Ry

     total magnetization       =    25.45 Bohr mag/cell
     absolute magnetization    =    29.54 Bohr mag/cell

     iteration #  4     ecut=    55.12 Ry     beta= 0.10
     Davidson diagonalization with overlap
     ethr =  1.00E-02,  avg # of iterations =  3.3

     Adding external electric field

     Computed dipole along edir(3) : 
        Dipole               -0.0188 Ry au,         -0.0477 Debye
        Dipole field         -0.0001 Ry au, 

        Potential amp.        0.0051 Ry
        Total length         44.6342 bohr


     Adding external electric field

     Computed dipole along edir(3) : 
        Dipole               -0.0188 Ry au,         -0.0477 Debye
        Dipole field         -0.0001 Ry au, 

        Potential amp.        0.0051 Ry
        Total length         44.6342 bohr


     total cpu time spent up to now is     1961.5 secs

     total energy              =   -2466.23768045 Ry
     estimated scf accuracy    <      61.62075388 Ry

     total magnetization       =    19.98 Bohr mag/cell
     absolute magnetization    =    25.91 Bohr mag/cell

     iteration #  5     ecut=    55.12 Ry     beta= 0.10
     Davidson diagonalization with overlap
     ethr =  1.00E-02,  avg # of iterations =  3.1

     Adding external electric field

     Computed dipole along edir(3) : 
        Dipole               -0.0177 Ry au,         -0.0450 Debye
        Dipole field         -0.0001 Ry au, 

        Potential amp.        0.0048 Ry
        Total length         44.6342 bohr


     Adding external electric field

     Computed dipole along edir(3) : 
        Dipole               -0.0177 Ry au,         -0.0450 Debye
        Dipole field         -0.0001 Ry au, 

        Potential amp.        0.0048 Ry
        Total length         44.6342 bohr


     total cpu time spent up to now is     2353.7 secs

     total energy              =   -2470.55162801 Ry
     estimated scf accuracy    <      23.07729049 Ry

     total magnetization       =    17.39 Bohr mag/cell
     absolute magnetization    =    21.72 Bohr mag/cell

     iteration #  6     ecut=    55.12 Ry     beta= 0.10
     Davidson diagonalization with overlap
     ethr =  1.00E-02,  avg # of iterations =  1.9

     Adding external electric field

     Computed dipole along edir(3) : 
        Dipole               -0.6962 Ry au,         -1.7697 Debye
        Dipole field         -0.0021 Ry au, 

        Potential amp.        0.1889 Ry
        Total length         44.6342 bohr


     Adding external electric field

     Computed dipole along edir(3) : 
        Dipole               -0.6962 Ry au,         -1.7697 Debye
        Dipole field         -0.0021 Ry au, 

        Potential amp.        0.1889 Ry
        Total length         44.6342 bohr


     total cpu time spent up to now is     2735.9 secs

     total energy              =   -2490.64045997 Ry
     estimated scf accuracy    <      27.12813470 Ry

     total magnetization       =    16.42 Bohr mag/cell
     absolute magnetization    =    20.33 Bohr mag/cell

     iteration #  7     ecut=    55.12 Ry     beta= 0.10
     Davidson diagonalization with overlap
     ethr =  1.00E-02,  avg # of iterations =  4.8

     Adding external electric field

     Computed dipole along edir(3) : 
        Dipole               -0.3810 Ry au,         -0.9683 Debye
        Dipole field         -0.0012 Ry au, 

        Potential amp.        0.1033 Ry
        Total length         44.6342 bohr


     Adding external electric field

     Computed dipole along edir(3) : 
        Dipole               -0.3810 Ry au,         -0.9683 Debye
        Dipole field         -0.0012 Ry au, 

        Potential amp.        0.1033 Ry
        Total length         44.6342 bohr


     total cpu time spent up to now is     3271.6 secs

     total energy              =   -2496.48377251 Ry
     estimated scf accuracy    <     153.24938253 Ry

     total magnetization       =    11.88 Bohr mag/cell
     absolute magnetization    =    22.81 Bohr mag/cell

     iteration #  8     ecut=    55.12 Ry     beta= 0.10
     Davidson diagonalization with overlap
     ethr =  1.00E-02,  avg # of iterations =  1.5

     Adding external electric field

     Computed dipole along edir(3) : 
        Dipole                0.1987 Ry au,          0.5050 Debye
        Dipole field          0.0006 Ry au, 

        Potential amp.       -0.0539 Ry
        Total length         44.6342 bohr


     Adding external electric field

     Computed dipole along edir(3) : 
        Dipole                0.1987 Ry au,          0.5050 Debye
        Dipole field          0.0006 Ry au, 

        Potential amp.       -0.0539 Ry
        Total length         44.6342 bohr


     total cpu time spent up to now is     3645.4 secs

     total energy              =   -2493.47788328 Ry
     estimated scf accuracy    <      75.73869968 Ry

     total magnetization       =    15.79 Bohr mag/cell
     absolute magnetization    =    25.62 Bohr mag/cell

     iteration #  9     ecut=    55.12 Ry     beta= 0.10
     Davidson diagonalization with overlap
     ethr =  1.00E-02,  avg # of iterations =  5.4

     Adding external electric field

     Computed dipole along edir(3) : 
        Dipole                0.1408 Ry au,          0.3579 Debye
        Dipole field          0.0004 Ry au, 

        Potential amp.       -0.0382 Ry
        Total length         44.6342 bohr


     Adding external electric field

     Computed dipole along edir(3) : 
        Dipole                0.1408 Ry au,          0.3579 Debye
        Dipole field          0.0004 Ry au, 

        Potential amp.       -0.0382 Ry
        Total length         44.6342 bohr


     total cpu time spent up to now is     4128.4 secs

     total energy              =   -2498.00525932 Ry
     estimated scf accuracy    <      17.72409633 Ry

     total magnetization       =     4.00 Bohr mag/cell
     absolute magnetization    =    10.69 Bohr mag/cell

     iteration # 10     ecut=    55.12 Ry     beta= 0.10
     Davidson diagonalization with overlap
     ethr =  1.00E-02,  avg # of iterations =  1.2

     Adding external electric field

     Computed dipole along edir(3) : 
        Dipole                0.1341 Ry au,          0.3409 Debye
        Dipole field          0.0004 Ry au, 

        Potential amp.       -0.0364 Ry
        Total length         44.6342 bohr


     Adding external electric field

     Computed dipole along edir(3) : 
        Dipole                0.1341 Ry au,          0.3409 Debye
        Dipole field          0.0004 Ry au, 

        Potential amp.       -0.0364 Ry
        Total length         44.6342 bohr


     total cpu time spent up to now is     4454.1 secs

     total energy              =   -2495.49560907 Ry
     estimated scf accuracy    <      13.24091204 Ry

     total magnetization       =     4.23 Bohr mag/cell
     absolute magnetization    =    11.70 Bohr mag/cell

     iteration # 11     ecut=    55.12 Ry     beta= 0.10
     Davidson diagonalization with overlap
     ethr =  7.61E-03,  avg # of iterations =  1.0

     Adding external electric field

     Computed dipole along edir(3) : 
        Dipole                0.1832 Ry au,          0.4656 Debye
        Dipole field          0.0006 Ry au, 

        Potential amp.       -0.0497 Ry
        Total length         44.6342 bohr


     Adding external electric field

     Computed dipole along edir(3) : 
        Dipole                0.1832 Ry au,          0.4656 Debye
        Dipole field          0.0006 Ry au, 

        Potential amp.       -0.0497 Ry
        Total length         44.6342 bohr


     total cpu time spent up to now is     4793.7 secs

     total energy              =   -2495.40669287 Ry
     estimated scf accuracy    <       4.05350754 Ry

     total magnetization       =     7.23 Bohr mag/cell
     absolute magnetization    =    15.51 Bohr mag/cell

     iteration # 12     ecut=    55.12 Ry     beta= 0.10
     Davidson diagonalization with overlap
     ethr =  2.33E-03,  avg # of iterations =  3.0

     Adding external electric field

     Computed dipole along edir(3) : 
        Dipole               -0.0297 Ry au,         -0.0756 Debye
        Dipole field         -0.0001 Ry au, 

        Potential amp.        0.0081 Ry
        Total length         44.6342 bohr


     Adding external electric field

     Computed dipole along edir(3) : 
        Dipole               -0.0297 Ry au,         -0.0756 Debye
        Dipole field         -0.0001 Ry au, 

        Potential amp.        0.0081 Ry
        Total length         44.6342 bohr


     total cpu time spent up to now is     5175.2 secs

     total energy              =   -2494.22531457 Ry
     estimated scf accuracy    <       7.32818482 Ry

     total magnetization       =     4.35 Bohr mag/cell
     absolute magnetization    =    13.02 Bohr mag/cell

     iteration # 13     ecut=    55.12 Ry     beta= 0.10
     Davidson diagonalization with overlap
     ethr =  2.33E-03,  avg # of iterations =  7.8

     Adding external electric field

     Computed dipole along edir(3) : 
        Dipole                0.0303 Ry au,          0.0771 Debye
        Dipole field          0.0001 Ry au, 

        Potential amp.       -0.0082 Ry
        Total length         44.6342 bohr


     Adding external electric field

     Computed dipole along edir(3) : 
        Dipole                0.0303 Ry au,          0.0771 Debye
        Dipole field          0.0001 Ry au, 

        Potential amp.       -0.0082 Ry
        Total length         44.6342 bohr


     total cpu time spent up to now is     5781.6 secs

     total energy              =   -2498.90738813 Ry
     estimated scf accuracy    <      55.15105372 Ry

     total magnetization       =    11.53 Bohr mag/cell
     absolute magnetization    =    22.68 Bohr mag/cell

     iteration # 14     ecut=    55.12 Ry     beta= 0.10
     Davidson diagonalization with overlap
     ethr =  2.33E-03,  avg # of iterations =  2.1

     Adding external electric field

     Computed dipole along edir(3) : 
        Dipole                0.1300 Ry au,          0.3303 Debye
        Dipole field          0.0004 Ry au, 

        Potential amp.       -0.0353 Ry
        Total length         44.6342 bohr


     Adding external electric field

     Computed dipole along edir(3) : 
        Dipole                0.1300 Ry au,          0.3303 Debye
        Dipole field          0.0004 Ry au, 

        Potential amp.       -0.0353 Ry
        Total length         44.6342 bohr


     total cpu time spent up to now is     6172.3 secs

     total energy              =   -2495.48459425 Ry
     estimated scf accuracy    <     105.93638093 Ry

     total magnetization       =     7.48 Bohr mag/cell
     absolute magnetization    =    18.37 Bohr mag/cell

     iteration # 15     ecut=    55.12 Ry     beta= 0.10
     Davidson diagonalization with overlap
     ethr =  2.33E-03,  avg # of iterations =  1.0

     Adding external electric field

     Computed dipole along edir(3) : 
        Dipole                0.1404 Ry au,          0.3568 Debye
        Dipole field          0.0004 Ry au, 

        Potential amp.       -0.0381 Ry
        Total length         44.6342 bohr


     Adding external electric field

     Computed dipole along edir(3) : 
        Dipole                0.1404 Ry au,          0.3568 Debye
        Dipole field          0.0004 Ry au, 

        Potential amp.       -0.0381 Ry
        Total length         44.6342 bohr


     total cpu time spent up to now is     6508.4 secs

     total energy              =   -2493.13188351 Ry
     estimated scf accuracy    <      69.87898097 Ry

     total magnetization       =    10.49 Bohr mag/cell
     absolute magnetization    =    20.28 Bohr mag/cell

     iteration # 16     ecut=    55.12 Ry     beta= 0.10
     Davidson diagonalization with overlap
     ethr =  2.33E-03,  avg # of iterations =  1.0

     Adding external electric field

     Computed dipole along edir(3) : 
        Dipole                0.1469 Ry au,          0.3734 Debye
        Dipole field          0.0004 Ry au, 

        Potential amp.       -0.0399 Ry
        Total length         44.6342 bohr


     Adding external electric field

     Computed dipole along edir(3) : 
        Dipole                0.1469 Ry au,          0.3734 Debye
        Dipole field          0.0004 Ry au, 

        Potential amp.       -0.0399 Ry
        Total length         44.6342 bohr


     total cpu time spent up to now is     6857.3 secs

     total energy              =   -2491.16215760 Ry
     estimated scf accuracy    <      36.08283685 Ry

     total magnetization       =    12.58 Bohr mag/cell
     absolute magnetization    =    22.96 Bohr mag/cell

     iteration # 17     ecut=    55.12 Ry     beta= 0.10
     Davidson diagonalization with overlap
     ethr =  2.33E-03,  avg # of iterations =  1.1

     Adding external electric field

     Computed dipole along edir(3) : 
        Dipole                0.1100 Ry au,          0.2795 Debye
        Dipole field          0.0003 Ry au, 

        Potential amp.       -0.0298 Ry
        Total length         44.6342 bohr


     Adding external electric field

     Computed dipole along edir(3) : 
        Dipole                0.1100 Ry au,          0.2795 Debye
        Dipole field          0.0003 Ry au, 

        Potential amp.       -0.0298 Ry
        Total length         44.6342 bohr


     total cpu time spent up to now is     7164.9 secs

     total energy              =   -2490.65621438 Ry
     estimated scf accuracy    <      31.30553625 Ry

     total magnetization       =    11.54 Bohr mag/cell
     absolute magnetization    =    21.94 Bohr mag/cell

     iteration # 18     ecut=    55.12 Ry     beta= 0.10
     Davidson diagonalization with overlap
     ethr =  2.33E-03,  avg # of iterations =  1.0

     Adding external electric field

     Computed dipole along edir(3) : 
        Dipole                0.1407 Ry au,          0.3575 Debye
        Dipole field          0.0004 Ry au, 

        Potential amp.       -0.0382 Ry
        Total length         44.6342 bohr


     Adding external electric field

     Computed dipole along edir(3) : 
        Dipole                0.1407 Ry au,          0.3575 Debye
        Dipole field          0.0004 Ry au, 

        Potential amp.       -0.0382 Ry
        Total length         44.6342 bohr


     total cpu time spent up to now is     7380.8 secs

     total energy              =   -2489.64424292 Ry
     estimated scf accuracy    <      26.66882260 Ry

     total magnetization       =    11.68 Bohr mag/cell
     absolute magnetization    =    22.82 Bohr mag/cell

     iteration # 19     ecut=    55.12 Ry     beta= 0.10
     Davidson diagonalization with overlap
     ethr =  2.33E-03,  avg # of iterations =  1.0

     Adding external electric field

     Computed dipole along edir(3) : 
        Dipole                0.1435 Ry au,          0.3648 Debye
        Dipole field          0.0004 Ry au, 

        Potential amp.       -0.0389 Ry
        Total length         44.6342 bohr


     Adding external electric field

     Computed dipole along edir(3) : 
        Dipole                0.1435 Ry au,          0.3648 Debye
        Dipole field          0.0004 Ry au, 

        Potential amp.       -0.0389 Ry
        Total length         44.6342 bohr


     total cpu time spent up to now is     7602.6 secs

     total energy              =   -2489.07942618 Ry
     estimated scf accuracy    <      23.10424869 Ry

     total magnetization       =    11.64 Bohr mag/cell
     absolute magnetization    =    23.00 Bohr mag/cell

     iteration # 20     ecut=    55.12 Ry     beta= 0.10
     Davidson diagonalization with overlap
     ethr =  2.33E-03,  avg # of iterations =  1.0

     Adding external electric field

     Computed dipole along edir(3) : 
        Dipole                0.2042 Ry au,          0.5191 Debye
        Dipole field          0.0006 Ry au, 

        Potential amp.       -0.0554 Ry
        Total length         44.6342 bohr


     Adding external electric field

     Computed dipole along edir(3) : 
        Dipole                0.2042 Ry au,          0.5191 Debye
        Dipole field          0.0006 Ry au, 

        Potential amp.       -0.0554 Ry
        Total length         44.6342 bohr


     total cpu time spent up to now is     7820.5 secs

     total energy              =   -2487.64955390 Ry
     estimated scf accuracy    <      20.60986173 Ry

     total magnetization       =    11.53 Bohr mag/cell
     absolute magnetization    =    23.11 Bohr mag/cell

     iteration # 21     ecut=    55.12 Ry     beta= 0.10
     Davidson diagonalization with overlap
     ethr =  2.33E-03,  avg # of iterations =  1.1

     Adding external electric field

     Computed dipole along edir(3) : 
        Dipole                0.0704 Ry au,          0.1788 Debye
        Dipole field          0.0002 Ry au, 

        Potential amp.       -0.0191 Ry
        Total length         44.6342 bohr


     Adding external electric field

     Computed dipole along edir(3) : 
        Dipole                0.0704 Ry au,          0.1788 Debye
        Dipole field          0.0002 Ry au, 

        Potential amp.       -0.0191 Ry
        Total length         44.6342 bohr


     total cpu time spent up to now is     8042.2 secs

     total energy              =   -2487.77309472 Ry
     estimated scf accuracy    <      19.25121004 Ry

     total magnetization       =    11.15 Bohr mag/cell
     absolute magnetization    =    21.87 Bohr mag/cell

     iteration # 22     ecut=    55.12 Ry     beta= 0.10
     Davidson diagonalization with overlap
     ethr =  2.33E-03,  avg # of iterations =  2.3

     Adding external electric field

     Computed dipole along edir(3) : 
        Dipole               -0.0066 Ry au,         -0.0167 Debye
        Dipole field         -0.0000 Ry au, 

        Potential amp.        0.0018 Ry
        Total length         44.6342 bohr


     Adding external electric field

     Computed dipole along edir(3) : 
        Dipole               -0.0066 Ry au,         -0.0167 Debye
        Dipole field         -0.0000 Ry au, 

        Potential amp.        0.0018 Ry
        Total length         44.6342 bohr


     total cpu time spent up to now is     8287.7 secs

     total energy              =   -2489.84584410 Ry
     estimated scf accuracy    <      12.14177867 Ry

     total magnetization       =     9.18 Bohr mag/cell
     absolute magnetization    =    21.33 Bohr mag/cell

     iteration # 23     ecut=    55.12 Ry     beta= 0.10
     Davidson diagonalization with overlap
     ethr =  2.33E-03,  avg # of iterations =  1.7

     Adding external electric field

     Computed dipole along edir(3) : 
        Dipole               -0.0247 Ry au,         -0.0629 Debye
        Dipole field         -0.0001 Ry au, 

        Potential amp.        0.0067 Ry
        Total length         44.6342 bohr


     Adding external electric field

     Computed dipole along edir(3) : 
        Dipole               -0.0247 Ry au,         -0.0629 Debye
        Dipole field         -0.0001 Ry au, 

        Potential amp.        0.0067 Ry
        Total length         44.6342 bohr


     total cpu time spent up to now is     8523.8 secs

     total energy              =   -2489.75091752 Ry
     estimated scf accuracy    <      11.57740207 Ry

     total magnetization       =     8.11 Bohr mag/cell
     absolute magnetization    =    21.79 Bohr mag/cell

     iteration # 24     ecut=    55.12 Ry     beta= 0.10
     Davidson diagonalization with overlap
     ethr =  2.33E-03,  avg # of iterations =  1.4

     Adding external electric field

     Computed dipole along edir(3) : 
        Dipole                0.0165 Ry au,          0.0420 Debye
        Dipole field          0.0001 Ry au, 

        Potential amp.       -0.0045 Ry
        Total length         44.6342 bohr


     Adding external electric field

     Computed dipole along edir(3) : 
        Dipole                0.0165 Ry au,          0.0420 Debye
        Dipole field          0.0001 Ry au, 

        Potential amp.       -0.0045 Ry
        Total length         44.6342 bohr


     total cpu time spent up to now is     8754.4 secs

     total energy              =   -2489.44242486 Ry
     estimated scf accuracy    <      10.62016272 Ry

     total magnetization       =     7.67 Bohr mag/cell
     absolute magnetization    =    21.71 Bohr mag/cell

     iteration # 25     ecut=    55.12 Ry     beta= 0.10
     Davidson diagonalization with overlap
     ethr =  2.33E-03,  avg # of iterations =  1.3

     Adding external electric field

     Computed dipole along edir(3) : 
        Dipole                0.0069 Ry au,          0.0177 Debye
        Dipole field          0.0000 Ry au, 

        Potential amp.       -0.0019 Ry
        Total length         44.6342 bohr


     Adding external electric field

     Computed dipole along edir(3) : 
        Dipole                0.0069 Ry au,          0.0177 Debye
        Dipole field          0.0000 Ry au, 

        Potential amp.       -0.0019 Ry
        Total length         44.6342 bohr


     total cpu time spent up to now is     8980.9 secs

     total energy              =   -2489.54083162 Ry
     estimated scf accuracy    <       9.61732929 Ry

     total magnetization       =     6.76 Bohr mag/cell
     absolute magnetization    =    21.18 Bohr mag/cell

     iteration # 26     ecut=    55.12 Ry     beta= 0.10
     Davidson diagonalization with overlap
     ethr =  2.33E-03,  avg # of iterations =  1.3

     Adding external electric field

     Computed dipole along edir(3) : 
        Dipole                0.1262 Ry au,          0.3208 Debye
        Dipole field          0.0004 Ry au, 

        Potential amp.       -0.0342 Ry
        Total length         44.6342 bohr


     Adding external electric field

     Computed dipole along edir(3) : 
        Dipole                0.1262 Ry au,          0.3208 Debye
        Dipole field          0.0004 Ry au, 

        Potential amp.       -0.0342 Ry
        Total length         44.6342 bohr


     total cpu time spent up to now is     9209.4 secs

     total energy              =   -2488.12094338 Ry
     estimated scf accuracy    <       8.32997019 Ry

     total magnetization       =     6.26 Bohr mag/cell
     absolute magnetization    =    21.14 Bohr mag/cell

     iteration # 27     ecut=    55.12 Ry     beta= 0.10
     Davidson diagonalization with overlap
     ethr =  2.33E-03,  avg # of iterations =  1.8

     Adding external electric field

     Computed dipole along edir(3) : 
        Dipole                0.1165 Ry au,          0.2962 Debye
        Dipole field          0.0004 Ry au, 

        Potential amp.       -0.0316 Ry
        Total length         44.6342 bohr


     Adding external electric field

     Computed dipole along edir(3) : 
        Dipole                0.1165 Ry au,          0.2962 Debye
        Dipole field          0.0004 Ry au, 

        Potential amp.       -0.0316 Ry
        Total length         44.6342 bohr


     total cpu time spent up to now is     9451.1 secs

     total energy              =   -2487.51948220 Ry
     estimated scf accuracy    <       0.91128141 Ry

     total magnetization       =     2.03 Bohr mag/cell
     absolute magnetization    =    17.42 Bohr mag/cell

     iteration # 28     ecut=    55.12 Ry     beta= 0.10
     Davidson diagonalization with overlap
     c_bands:  1 eigenvalues not converged
     c_bands:  1 eigenvalues not converged
     c_bands:  1 eigenvalues not converged
     c_bands:  2 eigenvalues not converged
     c_bands:  1 eigenvalues not converged
     c_bands:  2 eigenvalues not converged
     c_bands:  1 eigenvalues not converged
     c_bands:  2 eigenvalues not converged
     ethr =  5.24E-04,  avg # of iterations =  7.8

     Adding external electric field

     Computed dipole along edir(3) : 
        Dipole                0.1109 Ry au,          0.2819 Debye
        Dipole field          0.0003 Ry au, 

        Potential amp.       -0.0301 Ry
        Total length         44.6342 bohr


     Adding external electric field

     Computed dipole along edir(3) : 
        Dipole                0.1109 Ry au,          0.2819 Debye
        Dipole field          0.0003 Ry au, 

        Potential amp.       -0.0301 Ry
        Total length         44.6342 bohr


     total cpu time spent up to now is     9850.6 secs

     total energy              =   -2488.25013358 Ry
     estimated scf accuracy    <       3.07122151 Ry

     total magnetization       =     1.30 Bohr mag/cell
     absolute magnetization    =    13.96 Bohr mag/cell

     iteration # 29     ecut=    55.12 Ry     beta= 0.10
     Davidson diagonalization with overlap
     ethr =  5.24E-04,  avg # of iterations =  1.8

     Adding external electric field

     Computed dipole along edir(3) : 
        Dipole                0.1042 Ry au,          0.2649 Debye
        Dipole field          0.0003 Ry au, 

        Potential amp.       -0.0283 Ry
        Total length         44.6342 bohr


     Adding external electric field

     Computed dipole along edir(3) : 
        Dipole                0.1042 Ry au,          0.2649 Debye
        Dipole field          0.0003 Ry au, 

        Potential amp.       -0.0283 Ry
        Total length         44.6342 bohr


     total cpu time spent up to now is    10092.9 secs

     total energy              =   -2488.33185948 Ry
     estimated scf accuracy    <       4.00905901 Ry

     total magnetization       =     0.91 Bohr mag/cell
     absolute magnetization    =    13.45 Bohr mag/cell

     iteration # 30     ecut=    55.12 Ry     beta= 0.10
     Davidson diagonalization with overlap
     ethr =  5.24E-04,  avg # of iterations =  1.5

     Adding external electric field

     Computed dipole along edir(3) : 
        Dipole                0.0634 Ry au,          0.1612 Debye
        Dipole field          0.0002 Ry au, 

        Potential amp.       -0.0172 Ry
        Total length         44.6342 bohr


     Adding external electric field

     Computed dipole along edir(3) : 
        Dipole                0.0634 Ry au,          0.1612 Debye
        Dipole field          0.0002 Ry au, 

        Potential amp.       -0.0172 Ry
        Total length         44.6342 bohr


     total cpu time spent up to now is    10330.3 secs

     total energy              =   -2487.90058704 Ry
     estimated scf accuracy    <       4.03641964 Ry

     total magnetization       =     0.72 Bohr mag/cell
     absolute magnetization    =    13.33 Bohr mag/cell

     iteration # 31     ecut=    55.12 Ry     beta= 0.10
     Davidson diagonalization with overlap
     ethr =  5.24E-04,  avg # of iterations =  1.2

     Adding external electric field

     Computed dipole along edir(3) : 
        Dipole                0.0668 Ry au,          0.1698 Debye
        Dipole field          0.0002 Ry au, 

        Potential amp.       -0.0181 Ry
        Total length         44.6342 bohr


     Adding external electric field

     Computed dipole along edir(3) : 
        Dipole                0.0668 Ry au,          0.1698 Debye
        Dipole field          0.0002 Ry au, 

        Potential amp.       -0.0181 Ry
        Total length         44.6342 bohr


     total cpu time spent up to now is    10560.9 secs

     total energy              =   -2487.91700195 Ry
     estimated scf accuracy    <       3.21050688 Ry

     total magnetization       =     1.21 Bohr mag/cell
     absolute magnetization    =    13.36 Bohr mag/cell

     iteration # 32     ecut=    55.12 Ry     beta= 0.10
     Davidson diagonalization with overlap
     ethr =  5.24E-04,  avg # of iterations =  1.0

     Adding external electric field

     Computed dipole along edir(3) : 
        Dipole                0.0698 Ry au,          0.1773 Debye
        Dipole field          0.0002 Ry au, 

        Potential amp.       -0.0189 Ry
        Total length         44.6342 bohr


     Adding external electric field

     Computed dipole along edir(3) : 
        Dipole                0.0698 Ry au,          0.1773 Debye
        Dipole field          0.0002 Ry au, 

        Potential amp.       -0.0189 Ry
        Total length         44.6342 bohr


     total cpu time spent up to now is    10787.8 secs

     total energy              =   -2487.59377995 Ry
     estimated scf accuracy    <       3.12212041 Ry

     total magnetization       =     1.24 Bohr mag/cell
     absolute magnetization    =    13.32 Bohr mag/cell

     iteration # 33     ecut=    55.12 Ry     beta= 0.10
     Davidson diagonalization with overlap
     ethr =  5.24E-04,  avg # of iterations =  1.0

     Adding external electric field

     Computed dipole along edir(3) : 
        Dipole                0.1628 Ry au,          0.4139 Debye
        Dipole field          0.0005 Ry au, 

        Potential amp.       -0.0442 Ry
        Total length         44.6342 bohr


     Adding external electric field

     Computed dipole along edir(3) : 
        Dipole                0.1628 Ry au,          0.4139 Debye
        Dipole field          0.0005 Ry au, 

        Potential amp.       -0.0442 Ry
        Total length         44.6342 bohr


     total cpu time spent up to now is    11015.4 secs

     total energy              =   -2486.77962329 Ry
     estimated scf accuracy    <       2.42536747 Ry

     total magnetization       =     1.57 Bohr mag/cell
     absolute magnetization    =    13.56 Bohr mag/cell

     iteration # 34     ecut=    55.12 Ry     beta= 0.10
     Davidson diagonalization with overlap
     ethr =  5.24E-04,  avg # of iterations =  1.0

     Adding external electric field

     Computed dipole along edir(3) : 
        Dipole                0.1654 Ry au,          0.4205 Debye
        Dipole field          0.0005 Ry au, 

        Potential amp.       -0.0449 Ry
        Total length         44.6342 bohr


     Adding external electric field

     Computed dipole along edir(3) : 
        Dipole                0.1654 Ry au,          0.4205 Debye
        Dipole field          0.0005 Ry au, 

        Potential amp.       -0.0449 Ry
        Total length         44.6342 bohr


     total cpu time spent up to now is    11241.8 secs

     total energy              =   -2486.04616177 Ry
     estimated scf accuracy    <       2.32456580 Ry

     total magnetization       =     1.41 Bohr mag/cell
     absolute magnetization    =    13.67 Bohr mag/cell

     iteration # 35     ecut=    55.12 Ry     beta= 0.10
     Davidson diagonalization with overlap
     ethr =  5.24E-04,  avg # of iterations =  1.2

     Adding external electric field

     Computed dipole along edir(3) : 
        Dipole                0.1912 Ry au,          0.4861 Debye
        Dipole field          0.0006 Ry au, 

        Potential amp.       -0.0519 Ry
        Total length         44.6342 bohr


     Adding external electric field

     Computed dipole along edir(3) : 
        Dipole                0.1912 Ry au,          0.4861 Debye
        Dipole field          0.0006 Ry au, 

        Potential amp.       -0.0519 Ry
        Total length         44.6342 bohr


     total cpu time spent up to now is    11472.8 secs

     total energy              =   -2485.44257750 Ry
     estimated scf accuracy    <       2.85604639 Ry

     total magnetization       =     1.48 Bohr mag/cell
     absolute magnetization    =    13.77 Bohr mag/cell

     iteration # 36     ecut=    55.12 Ry     beta= 0.10
     Davidson diagonalization with overlap
     ethr =  5.24E-04,  avg # of iterations =  1.0

     Adding external electric field

     Computed dipole along edir(3) : 
        Dipole                0.1718 Ry au,          0.4366 Debye
        Dipole field          0.0005 Ry au, 

        Potential amp.       -0.0466 Ry
        Total length         44.6342 bohr


     Adding external electric field

     Computed dipole along edir(3) : 
        Dipole                0.1718 Ry au,          0.4366 Debye
        Dipole field          0.0005 Ry au, 

        Potential amp.       -0.0466 Ry
        Total length         44.6342 bohr


     total cpu time spent up to now is    11701.2 secs

     total energy              =   -2484.87643924 Ry
     estimated scf accuracy    <       1.09124674 Ry

     total magnetization       =     1.89 Bohr mag/cell
     absolute magnetization    =    14.12 Bohr mag/cell

     iteration # 37     ecut=    55.12 Ry     beta= 0.10
     Davidson diagonalization with overlap
     ethr =  5.24E-04,  avg # of iterations =  1.0

     Adding external electric field

     Computed dipole along edir(3) : 
        Dipole                0.1257 Ry au,          0.3195 Debye
        Dipole field          0.0004 Ry au, 

        Potential amp.       -0.0341 Ry
        Total length         44.6342 bohr


     Adding external electric field

     Computed dipole along edir(3) : 
        Dipole                0.1257 Ry au,          0.3195 Debye
        Dipole field          0.0004 Ry au, 

        Potential amp.       -0.0341 Ry
        Total length         44.6342 bohr


     total cpu time spent up to now is    11925.8 secs

     total energy              =   -2485.30385452 Ry
     estimated scf accuracy    <       0.46506638 Ry

     total magnetization       =     2.34 Bohr mag/cell
     absolute magnetization    =    14.38 Bohr mag/cell

     iteration # 38     ecut=    55.12 Ry     beta= 0.10
     Davidson diagonalization with overlap
     ethr =  2.67E-04,  avg # of iterations =  1.7

     Adding external electric field

     Computed dipole along edir(3) : 
        Dipole                0.1491 Ry au,          0.3789 Debye
        Dipole field          0.0005 Ry au, 

        Potential amp.       -0.0404 Ry
        Total length         44.6342 bohr


     Adding external electric field

     Computed dipole along edir(3) : 
        Dipole                0.1491 Ry au,          0.3789 Debye
        Dipole field          0.0005 Ry au, 

        Potential amp.       -0.0404 Ry
        Total length         44.6342 bohr


     total cpu time spent up to now is    12176.1 secs

     total energy              =   -2485.36778838 Ry
     estimated scf accuracy    <       0.15278049 Ry

     total magnetization       =     2.23 Bohr mag/cell
     absolute magnetization    =    14.55 Bohr mag/cell

     iteration # 39     ecut=    55.12 Ry     beta= 0.10
     Davidson diagonalization with overlap
     c_bands:  1 eigenvalues not converged
     ethr =  8.78E-05,  avg # of iterations =  3.4

     Adding external electric field

     Computed dipole along edir(3) : 
        Dipole                0.0948 Ry au,          0.2410 Debye
        Dipole field          0.0003 Ry au, 

        Potential amp.       -0.0257 Ry
        Total length         44.6342 bohr


     Adding external electric field

     Computed dipole along edir(3) : 
        Dipole                0.0948 Ry au,          0.2410 Debye
        Dipole field          0.0003 Ry au, 

        Potential amp.       -0.0257 Ry
        Total length         44.6342 bohr


     total cpu time spent up to now is    12444.5 secs

     total energy              =   -2484.40369282 Ry
     estimated scf accuracy    <       0.08138773 Ry

     total magnetization       =     1.89 Bohr mag/cell
     absolute magnetization    =    14.18 Bohr mag/cell

     iteration # 40     ecut=    55.12 Ry     beta= 0.10
     Davidson diagonalization with overlap
     c_bands:  1 eigenvalues not converged
     c_bands:  2 eigenvalues not converged
     c_bands:  2 eigenvalues not converged
     c_bands:  1 eigenvalues not converged
     c_bands:  2 eigenvalues not converged
     c_bands:  3 eigenvalues not converged
     c_bands:  2 eigenvalues not converged
     c_bands:  2 eigenvalues not converged
     c_bands:  1 eigenvalues not converged
     c_bands:  1 eigenvalues not converged
     c_bands:  2 eigenvalues not converged
     ethr =  4.68E-05,  avg # of iterations = 10.3

     Adding external electric field

     Computed dipole along edir(3) : 
        Dipole                0.0822 Ry au,          0.2088 Debye
        Dipole field          0.0002 Ry au, 

        Potential amp.       -0.0223 Ry
        Total length         44.6342 bohr


     Adding external electric field

     Computed dipole along edir(3) : 
        Dipole                0.0822 Ry au,          0.2088 Debye
        Dipole field          0.0002 Ry au, 

        Potential amp.       -0.0223 Ry
        Total length         44.6342 bohr


     total cpu time spent up to now is    12826.8 secs

     total energy              =   -2483.40175333 Ry
     estimated scf accuracy    <       0.05118236 Ry

     total magnetization       =     1.50 Bohr mag/cell
     absolute magnetization    =    13.59 Bohr mag/cell

     iteration # 41     ecut=    55.12 Ry     beta= 0.10
     Davidson diagonalization with overlap
     c_bands:  3 eigenvalues not converged
     c_bands:  1 eigenvalues not converged
     c_bands:  2 eigenvalues not converged
     c_bands:  3 eigenvalues not converged
     c_bands:  2 eigenvalues not converged
     c_bands:  1 eigenvalues not converged
     c_bands:  1 eigenvalues not converged
     c_bands:  1 eigenvalues not converged
     c_bands:  3 eigenvalues not converged
     c_bands:  3 eigenvalues not converged
     c_bands:  3 eigenvalues not converged
     c_bands:  5 eigenvalues not converged
     c_bands:  2 eigenvalues not converged
     c_bands:  1 eigenvalues not converged
     c_bands:  1 eigenvalues not converged
     c_bands:  4 eigenvalues not converged
     c_bands:  2 eigenvalues not converged
     c_bands:  2 eigenvalues not converged
     c_bands:  1 eigenvalues not converged
     c_bands:  5 eigenvalues not converged
     ethr =  2.94E-05,  avg # of iterations =  6.6

     Adding external electric field

     Computed dipole along edir(3) : 
        Dipole                0.0998 Ry au,          0.2536 Debye
        Dipole field          0.0003 Ry au, 

        Potential amp.       -0.0271 Ry
        Total length         44.6342 bohr


     Adding external electric field

     Computed dipole along edir(3) : 
        Dipole                0.0998 Ry au,          0.2536 Debye
        Dipole field          0.0003 Ry au, 

        Potential amp.       -0.0271 Ry
        Total length         44.6342 bohr


     total cpu time spent up to now is    13162.7 secs

     total energy              =   -2484.06610730 Ry
     estimated scf accuracy    <       0.03241310 Ry

     total magnetization       =     1.11 Bohr mag/cell
     absolute magnetization    =    12.84 Bohr mag/cell

     iteration # 42     ecut=    55.12 Ry     beta= 0.10
     Davidson diagonalization with overlap
     c_bands:  4 eigenvalues not converged
     c_bands:  2 eigenvalues not converged
     c_bands:  1 eigenvalues not converged
     c_bands:  1 eigenvalues not converged
     c_bands:  1 eigenvalues not converged
     c_bands:  2 eigenvalues not converged
     c_bands:  2 eigenvalues not converged
     c_bands:  1 eigenvalues not converged
     c_bands:  3 eigenvalues not converged
     ethr =  1.86E-05,  avg # of iterations =  6.0

     Adding external electric field

     Computed dipole along edir(3) : 
        Dipole                0.0870 Ry au,          0.2210 Debye
        Dipole field          0.0003 Ry au, 

        Potential amp.       -0.0236 Ry
        Total length         44.6342 bohr


     Adding external electric field

     Computed dipole along edir(3) : 
        Dipole                0.0870 Ry au,          0.2210 Debye
        Dipole field          0.0003 Ry au, 

        Potential amp.       -0.0236 Ry
        Total length         44.6342 bohr


     total cpu time spent up to now is    13463.4 secs

     total energy              =   -2483.90475219 Ry
     estimated scf accuracy    <       0.01581220 Ry

     total magnetization       =     0.97 Bohr mag/cell
     absolute magnetization    =    12.61 Bohr mag/cell

     iteration # 43     ecut=    55.12 Ry     beta= 0.10
     Davidson diagonalization with overlap
     c_bands:  1 eigenvalues not converged
     c_bands:  1 eigenvalues not converged
     c_bands:  1 eigenvalues not converged
     c_bands:  1 eigenvalues not converged
     c_bands:  1 eigenvalues not converged
     c_bands:  2 eigenvalues not converged
     c_bands:  2 eigenvalues not converged
     c_bands:  1 eigenvalues not converged
     c_bands:  1 eigenvalues not converged
     c_bands:  2 eigenvalues not converged
     c_bands:  1 eigenvalues not converged
     c_bands:  2 eigenvalues not converged
     c_bands:  2 eigenvalues not converged
     c_bands:  1 eigenvalues not converged
     c_bands:  5 eigenvalues not converged
     c_bands:  2 eigenvalues not converged
     c_bands:  1 eigenvalues not converged
     c_bands:  1 eigenvalues not converged
     c_bands:  2 eigenvalues not converged
     c_bands:  1 eigenvalues not converged
     ethr =  9.09E-06,  avg # of iterations = 11.3

     Adding external electric field

     Computed dipole along edir(3) : 
        Dipole                0.0988 Ry au,          0.2511 Debye
        Dipole field          0.0003 Ry au, 

        Potential amp.       -0.0268 Ry
        Total length         44.6342 bohr


     Adding external electric field

     Computed dipole along edir(3) : 
        Dipole                0.0988 Ry au,          0.2511 Debye
        Dipole field          0.0003 Ry au, 

        Potential amp.       -0.0268 Ry
        Total length         44.6342 bohr


     total cpu time spent up to now is    13882.0 secs

     total energy              =   -2483.83779608 Ry
     estimated scf accuracy    <       0.00795543 Ry

     total magnetization       =     0.89 Bohr mag/cell
     absolute magnetization    =    11.96 Bohr mag/cell

     iteration # 44     ecut=    55.12 Ry     beta= 0.10
     Davidson diagonalization with overlap
     c_bands:  1 eigenvalues not converged
     c_bands:  2 eigenvalues not converged
     c_bands:  3 eigenvalues not converged
     c_bands:  1 eigenvalues not converged
     c_bands:  2 eigenvalues not converged
     c_bands:  1 eigenvalues not converged
     c_bands:  2 eigenvalues not converged
     c_bands:  2 eigenvalues not converged
     c_bands:  2 eigenvalues not converged
     c_bands:  1 eigenvalues not converged
     c_bands:  2 eigenvalues not converged
     c_bands:  2 eigenvalues not converged
     c_bands:  2 eigenvalues not converged
     c_bands:  4 eigenvalues not converged
     c_bands:  1 eigenvalues not converged
     ethr =  4.57E-06,  avg # of iterations =  8.8

     Adding external electric field

     Computed dipole along edir(3) : 
        Dipole                0.1077 Ry au,          0.2738 Debye
        Dipole field          0.0003 Ry au, 

        Potential amp.       -0.0292 Ry
        Total length         44.6342 bohr


     Adding external electric field

     Computed dipole along edir(3) : 
        Dipole                0.1077 Ry au,          0.2738 Debye
        Dipole field          0.0003 Ry au, 

        Potential amp.       -0.0292 Ry
        Total length         44.6342 bohr


     total cpu time spent up to now is    14251.6 secs

     total energy              =   -2483.24585756 Ry
     estimated scf accuracy    <       0.00420530 Ry

     total magnetization       =     0.81 Bohr mag/cell
     absolute magnetization    =    11.60 Bohr mag/cell

     iteration # 45     ecut=    55.12 Ry     beta= 0.10
     Davidson diagonalization with overlap
     c_bands:  1 eigenvalues not converged
     c_bands:  3 eigenvalues not converged
     c_bands:  1 eigenvalues not converged
     c_bands:  3 eigenvalues not converged
     c_bands:  1 eigenvalues not converged
     c_bands:  1 eigenvalues not converged
     c_bands:  2 eigenvalues not converged
     c_bands:  1 eigenvalues not converged
     c_bands:  1 eigenvalues not converged
     c_bands:  3 eigenvalues not converged
     c_bands:  2 eigenvalues not converged
     c_bands:  1 eigenvalues not converged
     c_bands:  1 eigenvalues not converged
     c_bands:  4 eigenvalues not converged
     c_bands:  2 eigenvalues not converged
     c_bands:  2 eigenvalues not converged
     c_bands:  1 eigenvalues not converged
     c_bands:  3 eigenvalues not converged
     c_bands:  2 eigenvalues not converged
     c_bands:  3 eigenvalues not converged
     c_bands:  2 eigenvalues not converged
     ethr =  2.42E-06,  avg # of iterations = 10.2

     Adding external electric field

     Computed dipole along edir(3) : 
        Dipole                0.1045 Ry au,          0.2655 Debye
        Dipole field          0.0003 Ry au, 

        Potential amp.       -0.0283 Ry
        Total length         44.6342 bohr


     Adding external electric field

     Computed dipole along edir(3) : 
        Dipole                0.1045 Ry au,          0.2655 Debye
        Dipole field          0.0003 Ry au, 

        Potential amp.       -0.0283 Ry
        Total length         44.6342 bohr


     total cpu time spent up to now is    14661.6 secs

     total energy              =   -2482.81212881 Ry
     estimated scf accuracy    <       0.00227031 Ry

     total magnetization       =     0.87 Bohr mag/cell
     absolute magnetization    =    11.09 Bohr mag/cell

     iteration # 46     ecut=    55.12 Ry     beta= 0.10
     Davidson diagonalization with overlap
     c_bands:  1 eigenvalues not converged
     c_bands:  1 eigenvalues not converged
     c_bands:  3 eigenvalues not converged
     c_bands:  1 eigenvalues not converged
     c_bands:  2 eigenvalues not converged
     c_bands:  2 eigenvalues not converged
     c_bands:  2 eigenvalues not converged
     c_bands:  1 eigenvalues not converged
     c_bands:  1 eigenvalues not converged
     c_bands:  1 eigenvalues not converged
     c_bands:  3 eigenvalues not converged
     c_bands:  1 eigenvalues not converged
     c_bands:  2 eigenvalues not converged
     c_bands:  1 eigenvalues not converged
     c_bands:  1 eigenvalues not converged
     ethr =  1.30E-06,  avg # of iterations =  8.5

     Adding external electric field

     Computed dipole along edir(3) : 
        Dipole                0.0985 Ry au,          0.2504 Debye
        Dipole field          0.0003 Ry au, 

        Potential amp.       -0.0267 Ry
        Total length         44.6342 bohr


     Adding external electric field

     Computed dipole along edir(3) : 
        Dipole                0.0985 Ry au,          0.2504 Debye
        Dipole field          0.0003 Ry au, 

        Potential amp.       -0.0267 Ry
        Total length         44.6342 bohr


     total cpu time spent up to now is    15026.8 secs

     total energy              =   -2482.34950169 Ry
     estimated scf accuracy    <       0.00165611 Ry

     total magnetization       =     0.90 Bohr mag/cell
     absolute magnetization    =    10.80 Bohr mag/cell

     iteration # 47     ecut=    55.12 Ry     beta= 0.10
     Davidson diagonalization with overlap
     c_bands:  1 eigenvalues not converged
     c_bands:  1 eigenvalues not converged
     c_bands:  1 eigenvalues not converged
     c_bands:  1 eigenvalues not converged
     ethr =  9.52E-07,  avg # of iterations =  4.3

     Adding external electric field

     Computed dipole along edir(3) : 
        Dipole                0.0949 Ry au,          0.2413 Debye
        Dipole field          0.0003 Ry au, 

        Potential amp.       -0.0258 Ry
        Total length         44.6342 bohr


     Adding external electric field

     Computed dipole along edir(3) : 
        Dipole                0.0949 Ry au,          0.2413 Debye
        Dipole field          0.0003 Ry au, 

        Potential amp.       -0.0258 Ry
        Total length         44.6342 bohr


     total cpu time spent up to now is    15304.6 secs

     total energy              =   -2481.90810364 Ry
     estimated scf accuracy    <       0.00107097 Ry

     total magnetization       =     0.95 Bohr mag/cell
     absolute magnetization    =    10.63 Bohr mag/cell

     iteration # 48     ecut=    55.12 Ry     beta= 0.10
     Davidson diagonalization with overlap
     c_bands:  1 eigenvalues not converged
     c_bands:  1 eigenvalues not converged
     c_bands:  1 eigenvalues not converged
     ethr =  6.15E-07,  avg # of iterations =  8.2

     Adding external electric field

     Computed dipole along edir(3) : 
        Dipole                0.0863 Ry au,          0.2194 Debye
        Dipole field          0.0003 Ry au, 

        Potential amp.       -0.0234 Ry
        Total length         44.6342 bohr


     Adding external electric field

     Computed dipole along edir(3) : 
        Dipole                0.0863 Ry au,          0.2194 Debye
        Dipole field          0.0003 Ry au, 

        Potential amp.       -0.0234 Ry
        Total length         44.6342 bohr


     total cpu time spent up to now is    15725.6 secs

     total energy              =   -2481.58755680 Ry
     estimated scf accuracy    <       0.00253163 Ry

     total magnetization       =     1.01 Bohr mag/cell
     absolute magnetization    =    10.30 Bohr mag/cell

     iteration # 49     ecut=    55.12 Ry     beta= 0.10
     Davidson diagonalization with overlap
     ethr =  6.15E-07,  avg # of iterations =  2.0

     Adding external electric field

     Computed dipole along edir(3) : 
        Dipole                0.0863 Ry au,          0.2193 Debye
        Dipole field          0.0003 Ry au, 

        Potential amp.       -0.0234 Ry
        Total length         44.6342 bohr


     Adding external electric field

     Computed dipole along edir(3) : 
        Dipole                0.0863 Ry au,          0.2193 Debye
        Dipole field          0.0003 Ry au, 

        Potential amp.       -0.0234 Ry
        Total length         44.6342 bohr


     total cpu time spent up to now is    15978.8 secs

     total energy              =   -2481.32779709 Ry
     estimated scf accuracy    <       0.00069450 Ry

     total magnetization       =     1.03 Bohr mag/cell
     absolute magnetization    =    10.21 Bohr mag/cell

     iteration # 50     ecut=    55.12 Ry     beta= 0.10
     Davidson diagonalization with overlap
     ethr =  3.99E-07,  avg # of iterations =  3.4

     Adding external electric field

     Computed dipole along edir(3) : 
        Dipole                0.0862 Ry au,          0.2192 Debye
        Dipole field          0.0003 Ry au, 

        Potential amp.       -0.0234 Ry
        Total length         44.6342 bohr


     Adding external electric field

     Computed dipole along edir(3) : 
        Dipole                0.0862 Ry au,          0.2192 Debye
        Dipole field          0.0003 Ry au, 

        Potential amp.       -0.0234 Ry
        Total length         44.6342 bohr


     total cpu time spent up to now is    16247.1 secs

     total energy              =   -2481.14262668 Ry
     estimated scf accuracy    <       0.00054023 Ry

     total magnetization       =     1.04 Bohr mag/cell
     absolute magnetization    =    10.13 Bohr mag/cell

     iteration # 51     ecut=    55.12 Ry     beta= 0.10
     Davidson diagonalization with overlap
     c_bands:  1 eigenvalues not converged
     c_bands:  1 eigenvalues not converged
     c_bands:  1 eigenvalues not converged
     ethr =  3.10E-07,  avg # of iterations =  5.6

     Adding external electric field

     Computed dipole along edir(3) : 
        Dipole                0.0895 Ry au,          0.2275 Debye
        Dipole field          0.0003 Ry au, 

        Potential amp.       -0.0243 Ry
        Total length         44.6342 bohr


     Adding external electric field

     Computed dipole along edir(3) : 
        Dipole                0.0895 Ry au,          0.2275 Debye
        Dipole field          0.0003 Ry au, 

        Potential amp.       -0.0243 Ry
        Total length         44.6342 bohr


     total cpu time spent up to now is    16544.3 secs

     total energy              =   -2481.12172685 Ry
     estimated scf accuracy    <       0.00048028 Ry

     total magnetization       =     1.05 Bohr mag/cell
     absolute magnetization    =    10.01 Bohr mag/cell

     iteration # 52     ecut=    55.12 Ry     beta= 0.10
     Davidson diagonalization with overlap
     c_bands:  1 eigenvalues not converged
     c_bands:  1 eigenvalues not converged
     c_bands:  2 eigenvalues not converged
     ethr =  2.76E-07,  avg # of iterations =  8.2

     Adding external electric field

     Computed dipole along edir(3) : 
        Dipole                0.0901 Ry au,          0.2291 Debye
        Dipole field          0.0003 Ry au, 

        Potential amp.       -0.0244 Ry
        Total length         44.6342 bohr


     Adding external electric field

     Computed dipole along edir(3) : 
        Dipole                0.0901 Ry au,          0.2291 Debye
        Dipole field          0.0003 Ry au, 

        Potential amp.       -0.0244 Ry
        Total length         44.6342 bohr


     total cpu time spent up to now is    16988.5 secs

     total energy              =   -2480.97433800 Ry
     estimated scf accuracy    <       0.00040945 Ry

     total magnetization       =     1.12 Bohr mag/cell
     absolute magnetization    =     9.64 Bohr mag/cell

     iteration # 53     ecut=    55.12 Ry     beta= 0.10
     Davidson diagonalization with overlap
     ethr =  2.35E-07,  avg # of iterations =  3.6

     Adding external electric field

     Computed dipole along edir(3) : 
        Dipole                0.0885 Ry au,          0.2248 Debye
        Dipole field          0.0003 Ry au, 

        Potential amp.       -0.0240 Ry
        Total length         44.6342 bohr


     Adding external electric field

     Computed dipole along edir(3) : 
        Dipole                0.0885 Ry au,          0.2248 Debye
        Dipole field          0.0003 Ry au, 

        Potential amp.       -0.0240 Ry
        Total length         44.6342 bohr


     total cpu time spent up to now is    17255.1 secs

     total energy              =   -2480.90142500 Ry
     estimated scf accuracy    <       0.00028719 Ry

     total magnetization       =     1.14 Bohr mag/cell
     absolute magnetization    =     9.53 Bohr mag/cell

     iteration # 54     ecut=    55.12 Ry     beta= 0.10
     Davidson diagonalization with overlap
     c_bands:  1 eigenvalues not converged
     ethr =  1.65E-07,  avg # of iterations =  7.3

     Adding external electric field

     Computed dipole along edir(3) : 
        Dipole                0.0875 Ry au,          0.2224 Debye
        Dipole field          0.0003 Ry au, 

        Potential amp.       -0.0237 Ry
        Total length         44.6342 bohr


     Adding external electric field

     Computed dipole along edir(3) : 
        Dipole                0.0875 Ry au,          0.2224 Debye
        Dipole field          0.0003 Ry au, 

        Potential amp.       -0.0237 Ry
        Total length         44.6342 bohr


     total cpu time spent up to now is    17669.6 secs

     total energy              =   -2480.84586187 Ry
     estimated scf accuracy    <       0.00031522 Ry

     total magnetization       =     1.17 Bohr mag/cell
     absolute magnetization    =     9.29 Bohr mag/cell

     iteration # 55     ecut=    55.12 Ry     beta= 0.10
     Davidson diagonalization with overlap
     c_bands:  1 eigenvalues not converged
     ethr =  1.65E-07,  avg # of iterations =  5.5

     Adding external electric field

     Computed dipole along edir(3) : 
        Dipole                0.0848 Ry au,          0.2156 Debye
        Dipole field          0.0003 Ry au, 

        Potential amp.       -0.0230 Ry
        Total length         44.6342 bohr


     Adding external electric field

     Computed dipole along edir(3) : 
        Dipole                0.0848 Ry au,          0.2156 Debye
        Dipole field          0.0003 Ry au, 

        Potential amp.       -0.0230 Ry
        Total length         44.6342 bohr


     total cpu time spent up to now is    17979.4 secs

     total energy              =   -2481.05289933 Ry
     estimated scf accuracy    <       0.00024993 Ry

     total magnetization       =     1.18 Bohr mag/cell
     absolute magnetization    =     9.13 Bohr mag/cell

     iteration # 56     ecut=    55.12 Ry     beta= 0.10
     Davidson diagonalization with overlap
     ethr =  1.44E-07,  avg # of iterations = 11.1

     Adding external electric field

     Computed dipole along edir(3) : 
        Dipole                0.0849 Ry au,          0.2159 Debye
        Dipole field          0.0003 Ry au, 

        Potential amp.       -0.0230 Ry
        Total length         44.6342 bohr


     Adding external electric field

     Computed dipole along edir(3) : 
        Dipole                0.0849 Ry au,          0.2159 Debye
        Dipole field          0.0003 Ry au, 

        Potential amp.       -0.0230 Ry
        Total length         44.6342 bohr


     total cpu time spent up to now is    18532.3 secs

     total energy              =   -2480.94689846 Ry
     estimated scf accuracy    <       0.00023075 Ry

     total magnetization       =     1.22 Bohr mag/cell
     absolute magnetization    =     8.67 Bohr mag/cell

     iteration # 57     ecut=    55.12 Ry     beta= 0.10
     Davidson diagonalization with overlap
     ethr =  1.33E-07,  avg # of iterations =  4.0

     Adding external electric field

     Computed dipole along edir(3) : 
        Dipole                0.0875 Ry au,          0.2223 Debye
        Dipole field          0.0003 Ry au, 

        Potential amp.       -0.0237 Ry
        Total length         44.6342 bohr


     Adding external electric field

     Computed dipole along edir(3) : 
        Dipole                0.0875 Ry au,          0.2223 Debye
        Dipole field          0.0003 Ry au, 

        Potential amp.       -0.0237 Ry
        Total length         44.6342 bohr


     total cpu time spent up to now is    18819.3 secs

     total energy              =   -2480.87559290 Ry
     estimated scf accuracy    <       0.00014260 Ry

     total magnetization       =     1.23 Bohr mag/cell
     absolute magnetization    =     8.55 Bohr mag/cell

     iteration # 58     ecut=    55.12 Ry     beta= 0.10
     Davidson diagonalization with overlap
     c_bands:  3 eigenvalues not converged
     ethr =  8.20E-08,  avg # of iterations =  9.3

     Adding external electric field

     Computed dipole along edir(3) : 
        Dipole                0.0892 Ry au,          0.2267 Debye
        Dipole field          0.0003 Ry au, 

        Potential amp.       -0.0242 Ry
        Total length         44.6342 bohr


     Adding external electric field

     Computed dipole along edir(3) : 
        Dipole                0.0892 Ry au,          0.2267 Debye
        Dipole field          0.0003 Ry au, 

        Potential amp.       -0.0242 Ry
        Total length         44.6342 bohr


     total cpu time spent up to now is    19307.0 secs

     total energy              =   -2480.89261546 Ry
     estimated scf accuracy    <       0.00013899 Ry

     total magnetization       =     1.24 Bohr mag/cell
     absolute magnetization    =     8.31 Bohr mag/cell

     iteration # 59     ecut=    55.12 Ry     beta= 0.10
     Davidson diagonalization with overlap
     c_bands:  1 eigenvalues not converged
     c_bands:  1 eigenvalues not converged
     c_bands:  1 eigenvalues not converged
     c_bands:  2 eigenvalues not converged
     ethr =  7.99E-08,  avg # of iterations =  9.0

     Adding external electric field

     Computed dipole along edir(3) : 
        Dipole                0.0882 Ry au,          0.2241 Debye
        Dipole field          0.0003 Ry au, 

        Potential amp.       -0.0239 Ry
        Total length         44.6342 bohr


     Adding external electric field

     Computed dipole along edir(3) : 
        Dipole                0.0882 Ry au,          0.2241 Debye
        Dipole field          0.0003 Ry au, 

        Potential amp.       -0.0239 Ry
        Total length         44.6342 bohr


     total cpu time spent up to now is    19781.4 secs

     total energy              =   -2480.76279088 Ry
     estimated scf accuracy    <       0.00010459 Ry

     total magnetization       =     1.25 Bohr mag/cell
     absolute magnetization    =     8.04 Bohr mag/cell

     iteration # 60     ecut=    55.12 Ry     beta= 0.10
     Davidson diagonalization with overlap
     c_bands:  1 eigenvalues not converged
     c_bands:  1 eigenvalues not converged
     c_bands:  1 eigenvalues not converged
     ethr =  6.01E-08,  avg # of iterations =  6.3

     Adding external electric field

     Computed dipole along edir(3) : 
        Dipole                0.0857 Ry au,          0.2177 Debye
        Dipole field          0.0003 Ry au, 

        Potential amp.       -0.0232 Ry
        Total length         44.6342 bohr


     Adding external electric field

     Computed dipole along edir(3) : 
        Dipole                0.0857 Ry au,          0.2177 Debye
        Dipole field          0.0003 Ry au, 

        Potential amp.       -0.0232 Ry
        Total length         44.6342 bohr


     total cpu time spent up to now is    20104.7 secs

     total energy              =   -2480.72129885 Ry
     estimated scf accuracy    <       0.00008721 Ry

     total magnetization       =     1.25 Bohr mag/cell
     absolute magnetization    =     7.95 Bohr mag/cell

     iteration # 61     ecut=    55.12 Ry     beta= 0.10
     Davidson diagonalization with overlap
     c_bands:  1 eigenvalues not converged
     c_bands:  1 eigenvalues not converged
     c_bands:  2 eigenvalues not converged
     c_bands:  2 eigenvalues not converged
     c_bands:  1 eigenvalues not converged
     c_bands:  1 eigenvalues not converged
     ethr =  5.01E-08,  avg # of iterations = 12.5

     Adding external electric field

     Computed dipole along edir(3) : 
        Dipole                0.0894 Ry au,          0.2273 Debye
        Dipole field          0.0003 Ry au, 

        Potential amp.       -0.0243 Ry
        Total length         44.6342 bohr


     Adding external electric field

     Computed dipole along edir(3) : 
        Dipole                0.0894 Ry au,          0.2273 Debye
        Dipole field          0.0003 Ry au, 

        Potential amp.       -0.0243 Ry
        Total length         44.6342 bohr


     total cpu time spent up to now is    20697.2 secs

     total energy              =   -2480.65484436 Ry
     estimated scf accuracy    <       0.00019352 Ry

     total magnetization       =     1.26 Bohr mag/cell
     absolute magnetization    =     7.64 Bohr mag/cell

[...]

     iteration # 65     ecut=    55.12 Ry     beta= 0.10
     Davidson diagonalization with overlap
     ethr =  1.86E-08,  avg # of iterations =  8.5

     Adding external electric field

     Computed dipole along edir(3) : 
        Dipole                0.0867 Ry au,          0.2203 Debye
        Dipole field          0.0003 Ry au, 

        Potential amp.       -0.0235 Ry
        Total length         44.6342 bohr


     Adding external electric field

     Computed dipole along edir(3) : 
        Dipole                0.0867 Ry au,          0.2203 Debye
        Dipole field          0.0003 Ry au, 

        Potential amp.       -0.0235 Ry
        Total length         44.6342 bohr


     total cpu time spent up to now is    22292.8 secs

     total energy              =   -2480.04239677 Ry
     estimated scf accuracy    <       0.00002730 Ry

     total magnetization       =     1.27 Bohr mag/cell
     absolute magnetization    =     7.17 Bohr mag/cell

     iteration # 66     ecut=    55.12 Ry     beta= 0.10
     Davidson diagonalization with overlap
     ethr =  1.57E-08,  avg # of iterations = 11.0

     Adding external electric field

     Computed dipole along edir(3) : 
        Dipole                0.0865 Ry au,          0.2199 Debye
        Dipole field          0.0003 Ry au, 

        Potential amp.       -0.0235 Ry
        Total length         44.6342 bohr


     Adding external electric field

     Computed dipole along edir(3) : 
        Dipole                0.0865 Ry au,          0.2199 Debye
        Dipole field          0.0003 Ry au, 

        Potential amp.       -0.0235 Ry
        Total length         44.6342 bohr


     total cpu time spent up to now is    22841.7 secs

     total energy              =   -2479.96742587 Ry
     estimated scf accuracy    <       0.00001814 Ry

     total magnetization       =     1.27 Bohr mag/cell
     absolute magnetization    =     7.03 Bohr mag/cell

     iteration # 67     ecut=    55.12 Ry     beta= 0.10
     Davidson diagonalization with overlap
     ethr =  1.04E-08,  avg # of iterations =  9.2

     Adding external electric field

     Computed dipole along edir(3) : 
        Dipole                0.0865 Ry au,          0.2199 Debye
        Dipole field          0.0003 Ry au, 

        Potential amp.       -0.0235 Ry
        Total length         44.6342 bohr


     Adding external electric field

     Computed dipole along edir(3) : 
        Dipole                0.0865 Ry au,          0.2199 Debye
        Dipole field          0.0003 Ry au, 

        Potential amp.       -0.0235 Ry
        Total length         44.6342 bohr


     total cpu time spent up to now is    23338.7 secs

     total energy              =   -2479.84008467 Ry
     estimated scf accuracy    <       0.00001644 Ry

     total magnetization       =     1.27 Bohr mag/cell
     absolute magnetization    =     6.94 Bohr mag/cell

     iteration # 68     ecut=    55.12 Ry     beta= 0.10
     Davidson diagonalization with overlap
     ethr =  9.45E-09,  avg # of iterations =  2.5

     Adding external electric field

     Computed dipole along edir(3) : 
        Dipole                0.0866 Ry au,          0.2202 Debye
        Dipole field          0.0003 Ry au, 

        Potential amp.       -0.0235 Ry
        Total length         44.6342 bohr


     Adding external electric field

     Computed dipole along edir(3) : 
        Dipole                0.0866 Ry au,          0.2202 Debye
        Dipole field          0.0003 Ry au, 

        Potential amp.       -0.0235 Ry
        Total length         44.6342 bohr


     total cpu time spent up to now is    23600.3 secs

     total energy              =   -2479.69255328 Ry
     estimated scf accuracy    <       0.00001432 Ry

     total magnetization       =     1.27 Bohr mag/cell
     absolute magnetization    =     6.92 Bohr mag/cell

     iteration # 69     ecut=    55.12 Ry     beta= 0.10
     Davidson diagonalization with overlap
     ethr =  8.23E-09,  avg # of iterations =  9.7

     Adding external electric field

     Computed dipole along edir(3) : 
        Dipole                0.0867 Ry au,          0.2204 Debye
        Dipole field          0.0003 Ry au, 

        Potential amp.       -0.0235 Ry
        Total length         44.6342 bohr


     Adding external electric field

     Computed dipole along edir(3) : 
        Dipole                0.0867 Ry au,          0.2204 Debye
        Dipole field          0.0003 Ry au, 

        Potential amp.       -0.0235 Ry
        Total length         44.6342 bohr


     total cpu time spent up to now is    24074.4 secs

     total energy              =   -2479.54056501 Ry
     estimated scf accuracy    <       0.00001499 Ry

     total magnetization       =     1.26 Bohr mag/cell
     absolute magnetization    =     6.85 Bohr mag/cell

     iteration # 70     ecut=    55.12 Ry     beta= 0.10
     Davidson diagonalization with overlap
     ethr =  8.23E-09,  avg # of iterations =  2.0

     Adding external electric field

     Computed dipole along edir(3) : 
        Dipole                0.0867 Ry au,          0.2203 Debye
        Dipole field          0.0003 Ry au, 

        Potential amp.       -0.0235 Ry
        Total length         44.6342 bohr


     Adding external electric field

     Computed dipole along edir(3) : 
        Dipole                0.0867 Ry au,          0.2203 Debye
        Dipole field          0.0003 Ry au, 

        Potential amp.       -0.0235 Ry
        Total length         44.6342 bohr


     total cpu time spent up to now is    24325.9 secs

     total energy              =   -2479.43603928 Ry
     estimated scf accuracy    <       0.00001293 Ry

     total magnetization       =     1.26 Bohr mag/cell
     absolute magnetization    =     6.86 Bohr mag/cell

     iteration # 71     ecut=    55.12 Ry     beta= 0.10
     Davidson diagonalization with overlap
     ethr =  7.43E-09,  avg # of iterations =  2.0

     Adding external electric field

     Computed dipole along edir(3) : 
        Dipole                0.0865 Ry au,          0.2198 Debye
        Dipole field          0.0003 Ry au, 

        Potential amp.       -0.0235 Ry
        Total length         44.6342 bohr


     Adding external electric field

     Computed dipole along edir(3) : 
        Dipole                0.0865 Ry au,          0.2198 Debye
        Dipole field          0.0003 Ry au, 

        Potential amp.       -0.0235 Ry
        Total length         44.6342 bohr


     total cpu time spent up to now is    24579.5 secs

     total energy              =   -2479.45754072 Ry
     estimated scf accuracy    <       0.00001400 Ry

     total magnetization       =     1.26 Bohr mag/cell
     absolute magnetization    =     6.88 Bohr mag/cell

     iteration # 72     ecut=    55.12 Ry     beta= 0.10
     Davidson diagonalization with overlap
     c_bands:  1 eigenvalues not converged
     c_bands:  1 eigenvalues not converged
     c_bands:  1 eigenvalues not converged
     ethr =  7.43E-09,  avg # of iterations =  9.1

     Adding external electric field

     Computed dipole along edir(3) : 
        Dipole                0.0866 Ry au,          0.2202 Debye
        Dipole field          0.0003 Ry au, 

        Potential amp.       -0.0235 Ry
        Total length         44.6342 bohr


     Adding external electric field

     Computed dipole along edir(3) : 
        Dipole                0.0866 Ry au,          0.2202 Debye
        Dipole field          0.0003 Ry au, 

        Potential amp.       -0.0235 Ry
        Total length         44.6342 bohr


     total cpu time spent up to now is    25041.3 secs

     total energy              =   -2479.39114194 Ry
     estimated scf accuracy    <       0.00001671 Ry

     total magnetization       =     1.26 Bohr mag/cell
     absolute magnetization    =     6.78 Bohr mag/cell

     iteration # 73     ecut=    55.12 Ry     beta= 0.10
     Davidson diagonalization with overlap
     c_bands:  1 eigenvalues not converged
     ethr =  7.43E-09,  avg # of iterations =  7.4

     Adding external electric field

     Computed dipole along edir(3) : 
        Dipole                0.0864 Ry au,          0.2195 Debye
        Dipole field          0.0003 Ry au, 

        Potential amp.       -0.0234 Ry
        Total length         44.6342 bohr


     Adding external electric field

     Computed dipole along edir(3) : 
        Dipole                0.0864 Ry au,          0.2195 Debye
        Dipole field          0.0003 Ry au, 

        Potential amp.       -0.0234 Ry
        Total length         44.6342 bohr


     total cpu time spent up to now is    25387.2 secs

     total energy              =   -2479.35360663 Ry
     estimated scf accuracy    <       0.00001146 Ry

     total magnetization       =     1.26 Bohr mag/cell
     absolute magnetization    =     6.74 Bohr mag/cell

     iteration # 74     ecut=    55.12 Ry     beta= 0.10
     Davidson diagonalization with overlap
     ethr =  6.59E-09,  avg # of iterations =  8.5

     Adding external electric field

     Computed dipole along edir(3) : 
        Dipole                0.0863 Ry au,          0.2193 Debye
        Dipole field          0.0003 Ry au, 

        Potential amp.       -0.0234 Ry
        Total length         44.6342 bohr


     Adding external electric field

     Computed dipole along edir(3) : 
        Dipole                0.0863 Ry au,          0.2193 Debye
        Dipole field          0.0003 Ry au, 

        Potential amp.       -0.0234 Ry
        Total length         44.6342 bohr


     total cpu time spent up to now is    25849.8 secs

     total energy              =   -2479.29205812 Ry
     estimated scf accuracy    <       0.00001319 Ry

     total magnetization       =     1.26 Bohr mag/cell
     absolute magnetization    =     6.68 Bohr mag/cell

     iteration # 75     ecut=    55.12 Ry     beta= 0.10
     Davidson diagonalization with overlap
     ethr =  6.59E-09,  avg # of iterations =  1.9

     Adding external electric field

     Computed dipole along edir(3) : 
        Dipole                0.0860 Ry au,          0.2186 Debye
        Dipole field          0.0003 Ry au, 

        Potential amp.       -0.0233 Ry
        Total length         44.6342 bohr


     Adding external electric field

     Computed dipole along edir(3) : 
        Dipole                0.0860 Ry au,          0.2186 Debye
        Dipole field          0.0003 Ry au, 

        Potential amp.       -0.0233 Ry
        Total length         44.6342 bohr


     total cpu time spent up to now is    26104.1 secs

     total energy              =   -2479.25318070 Ry
     estimated scf accuracy    <       0.00001148 Ry

     total magnetization       =     1.26 Bohr mag/cell
     absolute magnetization    =     6.67 Bohr mag/cell

     iteration # 76     ecut=    55.12 Ry     beta= 0.10
     Davidson diagonalization with overlap
     c_bands:  1 eigenvalues not converged
     c_bands:  1 eigenvalues not converged
     ethr =  6.59E-09,  avg # of iterations =  8.7

     Adding external electric field

     Computed dipole along edir(3) : 
        Dipole                0.0860 Ry au,          0.2186 Debye
        Dipole field          0.0003 Ry au, 

        Potential amp.       -0.0233 Ry
        Total length         44.6342 bohr


     Adding external electric field

     Computed dipole along edir(3) : 
        Dipole                0.0860 Ry au,          0.2186 Debye
        Dipole field          0.0003 Ry au, 

        Potential amp.       -0.0233 Ry
        Total length         44.6342 bohr


     total cpu time spent up to now is    26485.7 secs

     total energy              =   -2479.21715958 Ry
     estimated scf accuracy    <       0.00001183 Ry

     total magnetization       =     1.26 Bohr mag/cell
     absolute magnetization    =     6.63 Bohr mag/cell

     iteration # 77     ecut=    55.12 Ry     beta= 0.10
     Davidson diagonalization with overlap
     ethr =  6.59E-09,  avg # of iterations =  6.0

     Adding external electric field

     Computed dipole along edir(3) : 
        Dipole                0.0863 Ry au,          0.2192 Debye
        Dipole field          0.0003 Ry au, 

        Potential amp.       -0.0234 Ry
        Total length         44.6342 bohr


     Adding external electric field

     Computed dipole along edir(3) : 
        Dipole                0.0863 Ry au,          0.2192 Debye
        Dipole field          0.0003 Ry au, 

        Potential amp.       -0.0234 Ry
        Total length         44.6342 bohr


     total cpu time spent up to now is    26804.4 secs

     total energy              =   -2479.18778389 Ry
     estimated scf accuracy    <       0.00001006 Ry

     total magnetization       =     1.26 Bohr mag/cell
     absolute magnetization    =     6.62 Bohr mag/cell

     iteration # 78     ecut=    55.12 Ry     beta= 0.10
     Davidson diagonalization with overlap
     ethr =  5.78E-09,  avg # of iterations =  6.8

     Adding external electric field

     Computed dipole along edir(3) : 
        Dipole                0.0863 Ry au,          0.2193 Debye
        Dipole field          0.0003 Ry au, 

        Potential amp.       -0.0234 Ry
        Total length         44.6342 bohr


     Adding external electric field

     Computed dipole along edir(3) : 
        Dipole                0.0863 Ry au,          0.2193 Debye
        Dipole field          0.0003 Ry au, 

        Potential amp.       -0.0234 Ry
        Total length         44.6342 bohr


     total cpu time spent up to now is    27149.1 secs

     total energy              =   -2479.14902066 Ry
     estimated scf accuracy    <       0.00001100 Ry

     total magnetization       =     1.26 Bohr mag/cell
     absolute magnetization    =     6.60 Bohr mag/cell

     iteration # 79     ecut=    55.12 Ry     beta= 0.10
     Davidson diagonalization with overlap
     ethr =  5.78E-09,  avg # of iterations =  2.9

     Adding external electric field

     Computed dipole along edir(3) : 
        Dipole                0.0941 Ry au,          0.2392 Debye
        Dipole field          0.0003 Ry au, 

        Potential amp.       -0.0255 Ry
        Total length         44.6342 bohr


     Adding external electric field

     Computed dipole along edir(3) : 
        Dipole                0.0941 Ry au,          0.2392 Debye
        Dipole field          0.0003 Ry au, 

        Potential amp.       -0.0255 Ry
        Total length         44.6342 bohr


     Magnetic moment per site:
     atom:    1    charge:   15.4172    magn:    0.8343    constr:    0.0000
     atom:    2    charge:   15.4169    magn:    0.8335    constr:    0.0000
     atom:    3    charge:    9.6423    magn:   -0.3930    constr:    0.0000
     atom:    4    charge:    9.6423    magn:   -0.3932    constr:    0.0000
     atom:    5    charge:   15.4579    magn:    0.8381    constr:    0.0000
     atom:    6    charge:   15.4578    magn:    0.8385    constr:    0.0000
     atom:    7    charge:    9.7023    magn:   -0.1364    constr:    0.0000
     atom:    8    charge:    9.7023    magn:   -0.1364    constr:    0.0000
     atom:    9    charge:   15.4752    magn:    0.2724    constr:    0.0000
     atom:   10    charge:   15.4758    magn:    0.2755    constr:    0.0000
     atom:   11    charge:    9.6297    magn:   -0.1924    constr:    0.0000
     atom:   12    charge:    9.6297    magn:   -0.1924    constr:    0.0000

     total cpu time spent up to now is    27414.8 secs

     End of self-consistent calculation

     Number of k-points >= 100: set verbosity='high' to print the bands.

     the Fermi energy is     1.0266 ev

!    total energy              =   -2478.82120598 Ry
     estimated scf accuracy    <       0.00000979 Ry
     smearing contrib. (-TS)   =      -0.05497957 Ry
     internal energy E=F+TS    =   -2478.76622641 Ry

     The total energy is F=E-TS. E is the sum of the following terms:
     one-electron contribution =  -19556.94438257 Ry
     hartree contribution      =    9772.32118325 Ry
     xc contribution           =    -306.72056790 Ry
     ewald contribution        =    7612.57751387 Ry
     electric field correction =       0.00002693 Ry

     total magnetization       =     1.26 Bohr mag/cell
     absolute magnetization    =     6.59 Bohr mag/cell

     convergence has been achieved in  79 iterations

     Forces acting on atoms (cartesian axes, Ry/au):

     atom    1 type  1   force =     0.00010945    0.00007366    0.04013712
     atom    2 type  1   force =     0.00010556    0.00008002    0.04003875
     atom    3 type  2   force =     0.00070109    0.00049864   -0.02049941
     atom    4 type  2   force =     0.00070248    0.00049663   -0.02051251
     atom    5 type  1   force =    -0.00009077   -0.00005803   -0.00100707
     atom    6 type  1   force =     0.00013565    0.00009435   -0.00098913
     atom    7 type  2   force =    -0.00045931   -0.00028717   -0.02163215
     atom    8 type  2   force =    -0.00042005   -0.00033693   -0.02162961
     atom    9 type  1   force =    -0.00022111   -0.00015265    0.00042916
     atom   10 type  1   force =    -0.00036600   -0.00026588    0.00037852
     atom   11 type  2   force =    -0.00010048   -0.00007078    0.00264014
     atom   12 type  2   force =    -0.00009651   -0.00007185    0.00264620

     Total force =     0.070779     Total SCF correction =     0.012233
     SCF correction compared to forces is large: reduce conv_thr to get better values

     Writing output data file ./Co2Ti2/Co2Ti2_beef.save/

     init_run     :    127.56s CPU    159.07s WALL (       1 calls)
     electrons    :  20738.83s CPU  27237.99s WALL (       1 calls)
     forces       :     38.86s CPU     49.71s WALL (       1 calls)

     Called by init_run:
     wfcinit      :    114.90s CPU    144.90s WALL (       1 calls)
     potinit      :      8.48s CPU      9.39s WALL (       1 calls)
     hinit0       :      1.77s CPU      1.83s WALL (       1 calls)

     Called by electrons:
     c_bands      :  18653.59s CPU  24286.56s WALL (      79 calls)
     sum_band     :   1921.69s CPU   2730.19s WALL (      79 calls)
     v_of_rho     :     93.68s CPU    135.04s WALL (      80 calls)
     newd         :     73.14s CPU     84.88s WALL (      80 calls)
     mix_rho      :      3.93s CPU      7.60s WALL (      79 calls)
     vdW_kernel   :      6.14s CPU      6.54s WALL (       1 calls)

     Called by c_bands:
     init_us_2    :     45.92s CPU     51.91s WALL (   23680 calls)
     cegterg      :  18469.69s CPU  23999.65s WALL (   11696 calls)

     Called by *egterg:
     cdiaghg      :   2699.76s CPU   3103.02s WALL (   66028 calls)
     h_psi        :   8787.18s CPU  12498.85s WALL (   66176 calls)
     s_psi        :   1702.38s CPU   1741.14s WALL (   66176 calls)
     g_psi        :     10.76s CPU     12.00s WALL (   54332 calls)

     Called by h_psi:
     h_psi:calbec :   2297.51s CPU   2811.20s WALL (   66176 calls)
     vloc_psi     :   4726.19s CPU   7870.43s WALL (   66176 calls)
     add_vuspsi   :   1743.34s CPU   1792.57s WALL (   66176 calls)

     General routines
     calbec       :   3219.50s CPU   3914.07s WALL (   78460 calls)
     fft          :     46.64s CPU     96.49s WALL (    7197 calls)
     ffts         :      0.51s CPU      1.28s WALL (     318 calls)
     fftw         :   5256.58s CPU   8877.62s WALL ( 7209720 calls)
     interpolate  :      1.28s CPU      2.44s WALL (     160 calls)

     Parallel routines
     fft_scatt_xy :    315.96s CPU    460.80s WALL ( 7217235 calls)
     fft_scatt_yz :   2418.69s CPU   4954.65s WALL ( 7217235 calls)

     PWSCF        :      5h48m CPU      7h41m WALL


   This run was terminated on:  19:27: 7   1Jul2022            

=------------------------------------------------------------------------------=
   JOB DONE.
=------------------------------------------------------------------------------=
