
     Program PWSCF v.6.6 starts on  1Jul2022 at 19:27:33 

     This program is part of the open-source Quantum ESPRESSO suite
     for quantum simulation of materials; please cite
         "P. Giannozzi et al., J. Phys.:Condens. Matter 21 395502 (2009);
         "P. Giannozzi et al., J. Phys.:Condens. Matter 29 465901 (2017);
          URL http://www.quantum-espresso.org", 
     in publications or presentations arising from this work. More details at
     http://www.quantum-espresso.org/quote

     Parallel version (MPI), running on    37 processors

     MPI processes distributed on     4 nodes
     R & G space division:  proc/nbgrp/npool/nimage =      37
     Fft bands division:     nmany     =       1
     Reading input from Co2V2.in
Warning: card &CELL ignored
Warning: card / ignored

     Current dimensions of program PWSCF are:
     Max number of different atomic species (ntypx) = 10
     Max number of k-points (npk) =  40000
     Max angular momentum in pseudopotentials (lmaxx) =  3
     Presently stress not available with electric field and gates

     Message from routine cell_base_init:
     DEPRECATED: use true lattice parameter, not A to a.u. conversion factor
     file Co.pbe-spn-rrkjus_psl.0.3.1.UPF: wavefunction(s)  3P renormalized
     file V.pbe-spnl-rrkjus_psl.1.0.0.UPF: wavefunction(s)  3P 3D renormalized

     **************************************************************************
     Initializing libbeef V0.1.2 with the BEEF-vdW functional.
     Citation: Wellendorff et al., PRB 85, 235149 (2012).
     **************************************************************************


     IMPORTANT: XC functional enforced from input :
     Exchange-correlation= BEEF-VDW
                           (   1   4  43  14   2   0   0)
     Any further DFT definition will be discarded
     Please, verify this is what you really want


     Subspace diagonalization in iterative solution of the eigenvalue problem:
     a serial algorithm will be used


     Parallelization info
     --------------------
     sticks:   dense  smooth     PW     G-vecs:    dense   smooth      PW
     Min          95      38     11                21759     5502     859
     Max          96      39     12                21792     5513     873
     Sum        3533    1421    417               805333   203795   32045



     bravais-lattice index     =            0
     lattice parameter (alat)  =       1.8897  a.u.
     unit-cell volume          =    3685.0586 (a.u.)^3
     number of atoms/cell      =           12
     number of atomic types    =            2
     number of electrons       =       180.00
     number of Kohn-Sham states=          108
     kinetic-energy cutoff     =      55.1240  Ry
     charge density cutoff     =     551.2396  Ry
     convergence threshold     =      1.0E-05
     mixing beta               =       0.1000
     number of iterations used =           10  plain     mixing
     Exchange-correlation= BEEF-VDW
                           (   1   4  43  14   2   0   0)

     celldm(1)=   1.889726  celldm(2)=   0.000000  celldm(3)=   0.000000
     celldm(4)=   0.000000  celldm(5)=   0.000000  celldm(6)=   0.000000

     crystal axes: (cart. coord. in units of alat)
               a(1) = (   5.064328   0.000000   0.000000 )  
               a(2) = (   2.395766   4.461808   0.000000 )  
               a(3) = (   0.000000   0.000000  24.166579 )  

     reciprocal axes: (cart. coord. in units 2 pi/alat)
               b(1) = (  0.197460 -0.106026  0.000000 )  
               b(2) = (  0.000000  0.224124  0.000000 )  
               b(3) = (  0.000000  0.000000  0.041379 )  


     PseudoPot. # 1 for Co read from file:
     ../pseudo/Co.pbe-spn-rrkjus_psl.0.3.1.UPF
     MD5 check sum: 99b21b1f85602741a4c0ed67614a7280
     Pseudo is Ultrasoft + core correction, Zval = 17.0
     Generated using "atomic" code by A. Dal Corso v.6.2.2
     Using radial grid of 1193 points,  6 beta functions with: 
                l(1) =   0
                l(2) =   0
                l(3) =   1
                l(4) =   1
                l(5) =   2
                l(6) =   2
     Q(r) pseudized with 0 coefficients 


     PseudoPot. # 2 for V  read from file:
     ../pseudo/V.pbe-spnl-rrkjus_psl.1.0.0.UPF
     MD5 check sum: 79b3eb63147daf0b665d9f1bcc691206
     Pseudo is Ultrasoft + core correction, Zval = 13.0
     Generated using "atomic" code by A. Dal Corso v.6.2.2
     Using radial grid of 1181 points,  6 beta functions with: 
                l(1) =   0
                l(2) =   0
                l(3) =   1
                l(4) =   1
                l(5) =   2
                l(6) =   2
     Q(r) pseudized with 0 coefficients 


     atomic species   valence    mass     pseudopotential
        Co            17.00    58.93319     Co( 1.00)
        V             13.00    50.94150     V ( 1.00)

     Starting magnetic structure 
     atomic species   magnetization
        Co           1.000
        V            0.000

     No symmetry found



   Cartesian axes

     site n.     atom                  positions (alat units)
         1           Co  tau(   1) = (   0.0000000   0.0000000  10.0000000  )
         2           Co  tau(   2) = (   3.7300473   2.2309038  10.0000000  )
         3           V   tau(   3) = (   2.5321642   0.0000000  10.0000000  )
         4           V   tau(   4) = (   1.1978831   2.2309038  10.0000000  )
         5           Co  tau(   5) = (   5.0643285   3.0289239  12.0832896  )
         6           Co  tau(   6) = (   1.3342811   0.7980201  12.0832896  )
         7           V   tau(   7) = (   2.5321642   3.0289239  12.0832896  )
         8           V   tau(   8) = (   3.8664453   0.7980201  12.0832896  )
         9           Co  tau(   9) = (   2.8656215   1.7139074  14.0785937  )
        10           Co  tau(  10) = (   6.5955655   3.9447299  14.0785663  )
        11           V   tau(  11) = (   5.4194183   1.7267614  14.1564261  )
        12           V   tau(  12) = (   4.0848626   3.9576515  14.1564291  )

     number of k points=    74  Fermi-Dirac smearing, width (Ry)=  0.0100
                       cart. coord. in units 2pi/alat
        k(    1) = (   0.0000000   0.0000000   0.0000000), wk =   0.0069444
        k(    2) = (   0.0000000   0.0186770   0.0000000), wk =   0.0138889
        k(    3) = (   0.0000000   0.0373541   0.0000000), wk =   0.0138889
        k(    4) = (   0.0000000   0.0560311   0.0000000), wk =   0.0138889
        k(    5) = (   0.0000000   0.0747081   0.0000000), wk =   0.0138889
        k(    6) = (   0.0000000   0.0933852   0.0000000), wk =   0.0138889
        k(    7) = (   0.0000000  -0.1120622   0.0000000), wk =   0.0069444
        k(    8) = (   0.0164550  -0.0088355   0.0000000), wk =   0.0138889
        k(    9) = (   0.0164550   0.0098415   0.0000000), wk =   0.0138889
        k(   10) = (   0.0164550   0.0285186   0.0000000), wk =   0.0138889
        k(   11) = (   0.0164550   0.0471956   0.0000000), wk =   0.0138889
        k(   12) = (   0.0164550   0.0658726   0.0000000), wk =   0.0138889
        k(   13) = (   0.0164550   0.0845497   0.0000000), wk =   0.0138889
        k(   14) = (   0.0164550  -0.1208977   0.0000000), wk =   0.0138889
        k(   15) = (   0.0164550  -0.1022206   0.0000000), wk =   0.0138889
        k(   16) = (   0.0164550  -0.0835436   0.0000000), wk =   0.0138889
        k(   17) = (   0.0164550  -0.0648666   0.0000000), wk =   0.0138889
        k(   18) = (   0.0164550  -0.0461896   0.0000000), wk =   0.0138889
        k(   19) = (   0.0164550  -0.0275125   0.0000000), wk =   0.0138889
        k(   20) = (   0.0329099  -0.0176710   0.0000000), wk =   0.0138889
        k(   21) = (   0.0329099   0.0010061   0.0000000), wk =   0.0138889
        k(   22) = (   0.0329099   0.0196831   0.0000000), wk =   0.0138889
        k(   23) = (   0.0329099   0.0383601   0.0000000), wk =   0.0138889
        k(   24) = (   0.0329099   0.0570372   0.0000000), wk =   0.0138889
        k(   25) = (   0.0329099   0.0757142   0.0000000), wk =   0.0138889
        k(   26) = (   0.0329099  -0.1297332   0.0000000), wk =   0.0138889
        k(   27) = (   0.0329099  -0.1110561   0.0000000), wk =   0.0138889
        k(   28) = (   0.0329099  -0.0923791   0.0000000), wk =   0.0138889
        k(   29) = (   0.0329099  -0.0737021   0.0000000), wk =   0.0138889
        k(   30) = (   0.0329099  -0.0550250   0.0000000), wk =   0.0138889
        k(   31) = (   0.0329099  -0.0363480   0.0000000), wk =   0.0138889
        k(   32) = (   0.0493649  -0.0265065   0.0000000), wk =   0.0138889
        k(   33) = (   0.0493649  -0.0078294   0.0000000), wk =   0.0138889
        k(   34) = (   0.0493649   0.0108476   0.0000000), wk =   0.0138889
        k(   35) = (   0.0493649   0.0295246   0.0000000), wk =   0.0138889
        k(   36) = (   0.0493649   0.0482017   0.0000000), wk =   0.0138889
        k(   37) = (   0.0493649   0.0668787   0.0000000), wk =   0.0138889
        k(   38) = (   0.0493649  -0.1385687   0.0000000), wk =   0.0138889
        k(   39) = (   0.0493649  -0.1198916   0.0000000), wk =   0.0138889
        k(   40) = (   0.0493649  -0.1012146   0.0000000), wk =   0.0138889
        k(   41) = (   0.0493649  -0.0825376   0.0000000), wk =   0.0138889
        k(   42) = (   0.0493649  -0.0638605   0.0000000), wk =   0.0138889
        k(   43) = (   0.0493649  -0.0451835   0.0000000), wk =   0.0138889
        k(   44) = (   0.0658199  -0.0353419   0.0000000), wk =   0.0138889
        k(   45) = (   0.0658199  -0.0166649   0.0000000), wk =   0.0138889
        k(   46) = (   0.0658199   0.0020121   0.0000000), wk =   0.0138889
        k(   47) = (   0.0658199   0.0206892   0.0000000), wk =   0.0138889
        k(   48) = (   0.0658199   0.0393662   0.0000000), wk =   0.0138889
        k(   49) = (   0.0658199   0.0580432   0.0000000), wk =   0.0138889
        k(   50) = (   0.0658199  -0.1474041   0.0000000), wk =   0.0138889
        k(   51) = (   0.0658199  -0.1287271   0.0000000), wk =   0.0138889
        k(   52) = (   0.0658199  -0.1100501   0.0000000), wk =   0.0138889
        k(   53) = (   0.0658199  -0.0913730   0.0000000), wk =   0.0138889
        k(   54) = (   0.0658199  -0.0726960   0.0000000), wk =   0.0138889
        k(   55) = (   0.0658199  -0.0540190   0.0000000), wk =   0.0138889
        k(   56) = (   0.0822748  -0.0441774   0.0000000), wk =   0.0138889
        k(   57) = (   0.0822748  -0.0255004   0.0000000), wk =   0.0138889
        k(   58) = (   0.0822748  -0.0068234   0.0000000), wk =   0.0138889
        k(   59) = (   0.0822748   0.0118537   0.0000000), wk =   0.0138889
        k(   60) = (   0.0822748   0.0305307   0.0000000), wk =   0.0138889
        k(   61) = (   0.0822748   0.0492077   0.0000000), wk =   0.0138889
        k(   62) = (   0.0822748  -0.1562396   0.0000000), wk =   0.0138889
        k(   63) = (   0.0822748  -0.1375626   0.0000000), wk =   0.0138889
        k(   64) = (   0.0822748  -0.1188856   0.0000000), wk =   0.0138889
        k(   65) = (   0.0822748  -0.1002085   0.0000000), wk =   0.0138889
        k(   66) = (   0.0822748  -0.0815315   0.0000000), wk =   0.0138889
        k(   67) = (   0.0822748  -0.0628545   0.0000000), wk =   0.0138889
        k(   68) = (  -0.0987298   0.0530129   0.0000000), wk =   0.0069444
        k(   69) = (  -0.0987298   0.0716899   0.0000000), wk =   0.0138889
        k(   70) = (  -0.0987298   0.0903670   0.0000000), wk =   0.0138889
        k(   71) = (  -0.0987298   0.1090440   0.0000000), wk =   0.0138889
        k(   72) = (  -0.0987298   0.1277210   0.0000000), wk =   0.0138889
        k(   73) = (  -0.0987298   0.1463981   0.0000000), wk =   0.0138889
        k(   74) = (  -0.0987298  -0.0590493   0.0000000), wk =   0.0069444

     Dense  grid:   805333 G-vectors     FFT dimensions: (  72,  72, 360)

     Smooth grid:   203795 G-vectors     FFT dimensions: (  45,  45, 216)

     Estimated max dynamical RAM per process >     266.84 MB

     Estimated total dynamical RAM >       9.64 GB

     Check: negative core charge=   -0.000008
     Generating pointlists ...
     new r_m :   0.9953 (alat units)  1.8808 (a.u.) for type    1
     new r_m :   0.9953 (alat units)  1.8808 (a.u.) for type    2

     Initial potential from superposition of free atoms

     starting charge  179.99284, renormalised to  180.00000


     %%%%%%%%%%%%%%%%%%%%%%%%%%%%%%%%%%%%%%%%%%%%%%%%%%%%%%%%%%%%%%%%%%%%%%%%
     %                                                                      %
     % You are using vdW-DF, which was implemented by the Thonhauser group. %
     % Please cite the following two papers that made this development      %
     % possible and the two reviews that describe the various versions:     %
     %                                                                      %
     %   T. Thonhauser et al., PRL 115, 136402 (2015).                      %
     %   T. Thonhauser et al., PRB 76, 125112 (2007).                       %
     %   K. Berland et al., Rep. Prog. Phys. 78, 066501 (2015).             %
     %   D.C. Langreth et al., J. Phys.: Condens. Matter 21, 084203 (2009). %
     %                                                                      %
     %                                                                      %
     % If you are calculating the stress with vdW-DF, please also cite:     %
     %                                                                      %
     %   R. Sabatini et al., J. Phys.: Condens. Matter 24, 424209 (2012).   %
     %                                                                      %
     %%%%%%%%%%%%%%%%%%%%%%%%%%%%%%%%%%%%%%%%%%%%%%%%%%%%%%%%%%%%%%%%%%%%%%%%



     Adding external electric field

     Computed dipole along edir(3) : 
        Dipole                0.0001 Ry au,          0.0003 Debye
        Dipole field          0.0000 Ry au, 

        Potential amp.       -0.0000 Ry
        Total length         44.5265 bohr


     Adding external electric field

     Computed dipole along edir(3) : 
        Dipole                0.0001 Ry au,          0.0003 Debye
        Dipole field          0.0000 Ry au, 

        Potential amp.       -0.0000 Ry
        Total length         44.5265 bohr

     Starting wfcs are  120 randomized atomic wfcs

     total cpu time spent up to now is      105.6 secs

     Self-consistent Calculation

     iteration #  1     ecut=    55.12 Ry     beta= 0.10
     Davidson diagonalization with overlap
     ethr =  1.00E-02,  avg # of iterations =  4.8

     Adding external electric field

     Computed dipole along edir(3) : 
        Dipole               -0.1074 Ry au,         -0.2730 Debye
        Dipole field         -0.0004 Ry au, 

        Potential amp.        0.0326 Ry
        Total length         44.5265 bohr


     Adding external electric field

     Computed dipole along edir(3) : 
        Dipole               -0.1074 Ry au,         -0.2730 Debye
        Dipole field         -0.0004 Ry au, 

        Potential amp.        0.0326 Ry
        Total length         44.5265 bohr


     total cpu time spent up to now is      452.2 secs

     total energy              =   -2609.75222137 Ry
     estimated scf accuracy    <      60.56517443 Ry

     total magnetization       =    30.36 Bohr mag/cell
     absolute magnetization    =    32.10 Bohr mag/cell

     iteration #  2     ecut=    55.12 Ry     beta= 0.10
     Davidson diagonalization with overlap
     ethr =  1.00E-02,  avg # of iterations =  2.4

     Adding external electric field

     Computed dipole along edir(3) : 
        Dipole                0.1607 Ry au,          0.4085 Debye
        Dipole field          0.0005 Ry au, 

        Potential amp.       -0.0488 Ry
        Total length         44.5265 bohr


     Adding external electric field

     Computed dipole along edir(3) : 
        Dipole                0.1607 Ry au,          0.4085 Debye
        Dipole field          0.0005 Ry au, 

        Potential amp.       -0.0488 Ry
        Total length         44.5265 bohr


     total cpu time spent up to now is      683.9 secs

     total energy              =   -2614.60055598 Ry
     estimated scf accuracy    <      34.59067124 Ry

     total magnetization       =    27.94 Bohr mag/cell
     absolute magnetization    =    32.88 Bohr mag/cell

     iteration #  3     ecut=    55.12 Ry     beta= 0.10
     Davidson diagonalization with overlap
     ethr =  1.00E-02,  avg # of iterations =  2.6

     Adding external electric field

     Computed dipole along edir(3) : 
        Dipole               -0.7810 Ry au,         -1.9850 Debye
        Dipole field         -0.0027 Ry au, 

        Potential amp.        0.2372 Ry
        Total length         44.5265 bohr


     Adding external electric field

     Computed dipole along edir(3) : 
        Dipole               -0.7810 Ry au,         -1.9850 Debye
        Dipole field         -0.0027 Ry au, 

        Potential amp.        0.2372 Ry
        Total length         44.5265 bohr


     total cpu time spent up to now is      921.8 secs

     total energy              =   -2620.29420696 Ry
     estimated scf accuracy    <      28.67320258 Ry

     total magnetization       =    21.48 Bohr mag/cell
     absolute magnetization    =    26.27 Bohr mag/cell

     iteration #  4     ecut=    55.12 Ry     beta= 0.10
     Davidson diagonalization with overlap
     ethr =  1.00E-02,  avg # of iterations =  2.1

     Adding external electric field

     Computed dipole along edir(3) : 
        Dipole                0.0180 Ry au,          0.0458 Debye
        Dipole field          0.0001 Ry au, 

        Potential amp.       -0.0055 Ry
        Total length         44.5265 bohr


     Adding external electric field

     Computed dipole along edir(3) : 
        Dipole                0.0180 Ry au,          0.0458 Debye
        Dipole field          0.0001 Ry au, 

        Potential amp.       -0.0055 Ry
        Total length         44.5265 bohr


     total cpu time spent up to now is     1137.7 secs

     total energy              =   -2624.07214145 Ry
     estimated scf accuracy    <      51.77041735 Ry

     total magnetization       =    19.60 Bohr mag/cell
     absolute magnetization    =    24.70 Bohr mag/cell

     iteration #  5     ecut=    55.12 Ry     beta= 0.10
     Davidson diagonalization with overlap
     ethr =  1.00E-02,  avg # of iterations =  1.5

     Adding external electric field

     Computed dipole along edir(3) : 
        Dipole                0.0947 Ry au,          0.2406 Debye
        Dipole field          0.0003 Ry au, 

        Potential amp.       -0.0287 Ry
        Total length         44.5265 bohr


     Adding external electric field

     Computed dipole along edir(3) : 
        Dipole                0.0947 Ry au,          0.2406 Debye
        Dipole field          0.0003 Ry au, 

        Potential amp.       -0.0287 Ry
        Total length         44.5265 bohr


     total cpu time spent up to now is     1348.7 secs

     total energy              =   -2626.20431099 Ry
     estimated scf accuracy    <      23.17356099 Ry

     total magnetization       =    19.02 Bohr mag/cell
     absolute magnetization    =    22.98 Bohr mag/cell

     iteration #  6     ecut=    55.12 Ry     beta= 0.10
     Davidson diagonalization with overlap
     ethr =  1.00E-02,  avg # of iterations =  1.0

     Adding external electric field

     Computed dipole along edir(3) : 
        Dipole                0.2214 Ry au,          0.5627 Debye
        Dipole field          0.0008 Ry au, 

        Potential amp.       -0.0672 Ry
        Total length         44.5265 bohr


     Adding external electric field

     Computed dipole along edir(3) : 
        Dipole                0.2214 Ry au,          0.5627 Debye
        Dipole field          0.0008 Ry au, 

        Potential amp.       -0.0672 Ry
        Total length         44.5265 bohr


     total cpu time spent up to now is     1545.0 secs

     total energy              =   -2639.99231467 Ry
     estimated scf accuracy    <      14.92830630 Ry

     total magnetization       =    22.51 Bohr mag/cell
     absolute magnetization    =    27.45 Bohr mag/cell

     iteration #  7     ecut=    55.12 Ry     beta= 0.10
     Davidson diagonalization with overlap
     ethr =  8.29E-03,  avg # of iterations =  2.6

     Adding external electric field

     Computed dipole along edir(3) : 
        Dipole                0.1943 Ry au,          0.4940 Debye
        Dipole field          0.0007 Ry au, 

        Potential amp.       -0.0590 Ry
        Total length         44.5265 bohr


     Adding external electric field

     Computed dipole along edir(3) : 
        Dipole                0.1943 Ry au,          0.4940 Debye
        Dipole field          0.0007 Ry au, 

        Potential amp.       -0.0590 Ry
        Total length         44.5265 bohr


     total cpu time spent up to now is     1795.6 secs

     total energy              =   -2641.20248513 Ry
     estimated scf accuracy    <      14.43062466 Ry

     total magnetization       =    16.32 Bohr mag/cell
     absolute magnetization    =    27.37 Bohr mag/cell

     iteration #  8     ecut=    55.12 Ry     beta= 0.10
     Davidson diagonalization with overlap
     ethr =  8.02E-03,  avg # of iterations =  1.4

     Adding external electric field

     Computed dipole along edir(3) : 
        Dipole                0.1714 Ry au,          0.4357 Debye
        Dipole field          0.0006 Ry au, 

        Potential amp.       -0.0521 Ry
        Total length         44.5265 bohr


     Adding external electric field

     Computed dipole along edir(3) : 
        Dipole                0.1714 Ry au,          0.4357 Debye
        Dipole field          0.0006 Ry au, 

        Potential amp.       -0.0521 Ry
        Total length         44.5265 bohr


     total cpu time spent up to now is     2001.0 secs

     total energy              =   -2640.82294981 Ry
     estimated scf accuracy    <       7.01281487 Ry

     total magnetization       =    13.08 Bohr mag/cell
     absolute magnetization    =    23.17 Bohr mag/cell

     iteration #  9     ecut=    55.12 Ry     beta= 0.10
     Davidson diagonalization with overlap
     ethr =  3.90E-03,  avg # of iterations =  1.8

     Adding external electric field

     Computed dipole along edir(3) : 
        Dipole                0.1721 Ry au,          0.4375 Debye
        Dipole field          0.0006 Ry au, 

        Potential amp.       -0.0523 Ry
        Total length         44.5265 bohr


     Adding external electric field

     Computed dipole along edir(3) : 
        Dipole                0.1721 Ry au,          0.4375 Debye
        Dipole field          0.0006 Ry au, 

        Potential amp.       -0.0523 Ry
        Total length         44.5265 bohr


     total cpu time spent up to now is     2224.0 secs

     total energy              =   -2640.69801677 Ry
     estimated scf accuracy    <       6.04365753 Ry

     total magnetization       =    12.07 Bohr mag/cell
     absolute magnetization    =    21.18 Bohr mag/cell

     iteration # 10     ecut=    55.12 Ry     beta= 0.10
     Davidson diagonalization with overlap
     ethr =  3.36E-03,  avg # of iterations =  1.3

     Adding external electric field

     Computed dipole along edir(3) : 
        Dipole                0.1652 Ry au,          0.4199 Debye
        Dipole field          0.0006 Ry au, 

        Potential amp.       -0.0502 Ry
        Total length         44.5265 bohr


     Adding external electric field

     Computed dipole along edir(3) : 
        Dipole                0.1652 Ry au,          0.4199 Debye
        Dipole field          0.0006 Ry au, 

        Potential amp.       -0.0502 Ry
        Total length         44.5265 bohr


     total cpu time spent up to now is     2428.9 secs

     total energy              =   -2641.12083858 Ry
     estimated scf accuracy    <       6.15934316 Ry

     total magnetization       =    12.06 Bohr mag/cell
     absolute magnetization    =    20.59 Bohr mag/cell

     iteration # 11     ecut=    55.12 Ry     beta= 0.10
     Davidson diagonalization with overlap
     ethr =  3.36E-03,  avg # of iterations =  1.6

     Adding external electric field

     Computed dipole along edir(3) : 
        Dipole                0.0857 Ry au,          0.2179 Debye
        Dipole field          0.0003 Ry au, 

        Potential amp.       -0.0260 Ry
        Total length         44.5265 bohr


     Adding external electric field

     Computed dipole along edir(3) : 
        Dipole                0.0857 Ry au,          0.2179 Debye
        Dipole field          0.0003 Ry au, 

        Potential amp.       -0.0260 Ry
        Total length         44.5265 bohr


     total cpu time spent up to now is     2635.8 secs

     total energy              =   -2640.84715132 Ry
     estimated scf accuracy    <       9.84921765 Ry

     total magnetization       =    13.96 Bohr mag/cell
     absolute magnetization    =    22.91 Bohr mag/cell

     iteration # 12     ecut=    55.12 Ry     beta= 0.10
     Davidson diagonalization with overlap
     ethr =  3.36E-03,  avg # of iterations =  7.1

     Adding external electric field

     Computed dipole along edir(3) : 
        Dipole                0.1779 Ry au,          0.4522 Debye
        Dipole field          0.0006 Ry au, 

        Potential amp.       -0.0540 Ry
        Total length         44.5265 bohr


     Adding external electric field

     Computed dipole along edir(3) : 
        Dipole                0.1779 Ry au,          0.4522 Debye
        Dipole field          0.0006 Ry au, 

        Potential amp.       -0.0540 Ry
        Total length         44.5265 bohr


     total cpu time spent up to now is     2935.9 secs

     total energy              =   -2642.95847504 Ry
     estimated scf accuracy    <      20.46870775 Ry

     total magnetization       =     3.57 Bohr mag/cell
     absolute magnetization    =     8.88 Bohr mag/cell

     iteration # 13     ecut=    55.12 Ry     beta= 0.10
     Davidson diagonalization with overlap
     ethr =  3.36E-03,  avg # of iterations =  1.2

     Adding external electric field

     Computed dipole along edir(3) : 
        Dipole                0.0462 Ry au,          0.1175 Debye
        Dipole field          0.0002 Ry au, 

        Potential amp.       -0.0140 Ry
        Total length         44.5265 bohr


     Adding external electric field

     Computed dipole along edir(3) : 
        Dipole                0.0462 Ry au,          0.1175 Debye
        Dipole field          0.0002 Ry au, 

        Potential amp.       -0.0140 Ry
        Total length         44.5265 bohr


     total cpu time spent up to now is     3137.0 secs

     total energy              =   -2645.06527656 Ry
     estimated scf accuracy    <       5.29880998 Ry

     total magnetization       =    10.22 Bohr mag/cell
     absolute magnetization    =    16.44 Bohr mag/cell

     iteration # 14     ecut=    55.12 Ry     beta= 0.10
     Davidson diagonalization with overlap
     ethr =  2.94E-03,  avg # of iterations =  1.6

     Adding external electric field

     Computed dipole along edir(3) : 
        Dipole                0.0310 Ry au,          0.0788 Debye
        Dipole field          0.0001 Ry au, 

        Potential amp.       -0.0094 Ry
        Total length         44.5265 bohr


     Adding external electric field

     Computed dipole along edir(3) : 
        Dipole                0.0310 Ry au,          0.0788 Debye
        Dipole field          0.0001 Ry au, 

        Potential amp.       -0.0094 Ry
        Total length         44.5265 bohr


     total cpu time spent up to now is     3337.7 secs

     total energy              =   -2647.61025951 Ry
     estimated scf accuracy    <      15.51217146 Ry

     total magnetization       =     2.93 Bohr mag/cell
     absolute magnetization    =    10.44 Bohr mag/cell

     iteration # 15     ecut=    55.12 Ry     beta= 0.10
     Davidson diagonalization with overlap
     ethr =  2.94E-03,  avg # of iterations =  1.1

     Adding external electric field

     Computed dipole along edir(3) : 
        Dipole                0.0283 Ry au,          0.0720 Debye
        Dipole field          0.0001 Ry au, 

        Potential amp.       -0.0086 Ry
        Total length         44.5265 bohr


     Adding external electric field

     Computed dipole along edir(3) : 
        Dipole                0.0283 Ry au,          0.0720 Debye
        Dipole field          0.0001 Ry au, 

        Potential amp.       -0.0086 Ry
        Total length         44.5265 bohr


     total cpu time spent up to now is     3536.5 secs

     total energy              =   -2648.20095115 Ry
     estimated scf accuracy    <      19.32580643 Ry

     total magnetization       =     2.21 Bohr mag/cell
     absolute magnetization    =    10.12 Bohr mag/cell

     iteration # 16     ecut=    55.12 Ry     beta= 0.10
     Davidson diagonalization with overlap
     c_bands:  1 eigenvalues not converged
     ethr =  2.94E-03,  avg # of iterations =  1.2

     Adding external electric field

     Computed dipole along edir(3) : 
        Dipole                0.1187 Ry au,          0.3018 Debye
        Dipole field          0.0004 Ry au, 

        Potential amp.       -0.0361 Ry
        Total length         44.5265 bohr


     Adding external electric field

     Computed dipole along edir(3) : 
        Dipole                0.1187 Ry au,          0.3018 Debye
        Dipole field          0.0004 Ry au, 

        Potential amp.       -0.0361 Ry
        Total length         44.5265 bohr


     total cpu time spent up to now is     3737.7 secs

     total energy              =   -2644.49236497 Ry
     estimated scf accuracy    <      19.98086461 Ry

     total magnetization       =     2.16 Bohr mag/cell
     absolute magnetization    =     9.70 Bohr mag/cell

     iteration # 17     ecut=    55.12 Ry     beta= 0.10
     Davidson diagonalization with overlap
     ethr =  2.94E-03,  avg # of iterations =  1.0

     Adding external electric field

     Computed dipole along edir(3) : 
        Dipole                0.1166 Ry au,          0.2964 Debye
        Dipole field          0.0004 Ry au, 

        Potential amp.       -0.0354 Ry
        Total length         44.5265 bohr


     Adding external electric field

     Computed dipole along edir(3) : 
        Dipole                0.1166 Ry au,          0.2964 Debye
        Dipole field          0.0004 Ry au, 

        Potential amp.       -0.0354 Ry
        Total length         44.5265 bohr


     total cpu time spent up to now is     3931.9 secs

     total energy              =   -2645.82774968 Ry
     estimated scf accuracy    <       6.15781232 Ry

     total magnetization       =     7.43 Bohr mag/cell
     absolute magnetization    =    13.85 Bohr mag/cell

     iteration # 18     ecut=    55.12 Ry     beta= 0.10
     Davidson diagonalization with overlap
     ethr =  2.94E-03,  avg # of iterations =  1.0

     Adding external electric field

     Computed dipole along edir(3) : 
        Dipole                0.0301 Ry au,          0.0766 Debye
        Dipole field          0.0001 Ry au, 

        Potential amp.       -0.0092 Ry
        Total length         44.5265 bohr


     Adding external electric field

     Computed dipole along edir(3) : 
        Dipole                0.0301 Ry au,          0.0766 Debye
        Dipole field          0.0001 Ry au, 

        Potential amp.       -0.0092 Ry
        Total length         44.5265 bohr


     total cpu time spent up to now is     4124.0 secs

     total energy              =   -2650.31343418 Ry
     estimated scf accuracy    <       7.87706880 Ry

     total magnetization       =     6.67 Bohr mag/cell
     absolute magnetization    =    13.16 Bohr mag/cell

     iteration # 19     ecut=    55.12 Ry     beta= 0.10
     Davidson diagonalization with overlap
     ethr =  2.94E-03,  avg # of iterations =  1.0

     Adding external electric field

     Computed dipole along edir(3) : 
        Dipole                0.0551 Ry au,          0.1399 Debye
        Dipole field          0.0002 Ry au, 

        Potential amp.       -0.0167 Ry
        Total length         44.5265 bohr


     Adding external electric field

     Computed dipole along edir(3) : 
        Dipole                0.0551 Ry au,          0.1399 Debye
        Dipole field          0.0002 Ry au, 

        Potential amp.       -0.0167 Ry
        Total length         44.5265 bohr


     total cpu time spent up to now is     4319.2 secs

     total energy              =   -2650.19114942 Ry
     estimated scf accuracy    <      10.42863686 Ry

     total magnetization       =     4.81 Bohr mag/cell
     absolute magnetization    =    14.83 Bohr mag/cell

     iteration # 20     ecut=    55.12 Ry     beta= 0.10
     Davidson diagonalization with overlap
     ethr =  2.94E-03,  avg # of iterations =  1.0

     Adding external electric field

     Computed dipole along edir(3) : 
        Dipole                0.0330 Ry au,          0.0839 Debye
        Dipole field          0.0001 Ry au, 

        Potential amp.       -0.0100 Ry
        Total length         44.5265 bohr


     Adding external electric field

     Computed dipole along edir(3) : 
        Dipole                0.0330 Ry au,          0.0839 Debye
        Dipole field          0.0001 Ry au, 

        Potential amp.       -0.0100 Ry
        Total length         44.5265 bohr


     total cpu time spent up to now is     4516.8 secs

     total energy              =   -2645.31181954 Ry
     estimated scf accuracy    <      10.17083789 Ry

     total magnetization       =     4.62 Bohr mag/cell
     absolute magnetization    =    14.05 Bohr mag/cell

     iteration # 21     ecut=    55.12 Ry     beta= 0.10
     Davidson diagonalization with overlap
     ethr =  2.94E-03,  avg # of iterations =  1.0

     Adding external electric field

     Computed dipole along edir(3) : 
        Dipole               -0.0554 Ry au,         -0.1409 Debye
        Dipole field         -0.0002 Ry au, 

        Potential amp.        0.0168 Ry
        Total length         44.5265 bohr


     Adding external electric field

     Computed dipole along edir(3) : 
        Dipole               -0.0554 Ry au,         -0.1409 Debye
        Dipole field         -0.0002 Ry au, 

        Potential amp.        0.0168 Ry
        Total length         44.5265 bohr


     total cpu time spent up to now is     4710.4 secs

     total energy              =   -2649.24031497 Ry
     estimated scf accuracy    <       4.65934160 Ry

     total magnetization       =     5.29 Bohr mag/cell
     absolute magnetization    =    14.50 Bohr mag/cell

     iteration # 22     ecut=    55.12 Ry     beta= 0.10
     Davidson diagonalization with overlap
     ethr =  2.59E-03,  avg # of iterations =  2.0

     Adding external electric field

     Computed dipole along edir(3) : 
        Dipole               -0.0137 Ry au,         -0.0349 Debye
        Dipole field         -0.0000 Ry au, 

        Potential amp.        0.0042 Ry
        Total length         44.5265 bohr


     Adding external electric field

     Computed dipole along edir(3) : 
        Dipole               -0.0137 Ry au,         -0.0349 Debye
        Dipole field         -0.0000 Ry au, 

        Potential amp.        0.0042 Ry
        Total length         44.5265 bohr


     total cpu time spent up to now is     4942.1 secs

     total energy              =   -2644.76257580 Ry
     estimated scf accuracy    <       6.83076584 Ry

     total magnetization       =     3.46 Bohr mag/cell
     absolute magnetization    =    17.45 Bohr mag/cell

     iteration # 23     ecut=    55.12 Ry     beta= 0.10
     Davidson diagonalization with overlap
     ethr =  2.59E-03,  avg # of iterations =  1.0

     Adding external electric field

     Computed dipole along edir(3) : 
        Dipole                0.0309 Ry au,          0.0786 Debye
        Dipole field          0.0001 Ry au, 

        Potential amp.       -0.0094 Ry
        Total length         44.5265 bohr


     Adding external electric field

     Computed dipole along edir(3) : 
        Dipole                0.0309 Ry au,          0.0786 Debye
        Dipole field          0.0001 Ry au, 

        Potential amp.       -0.0094 Ry
        Total length         44.5265 bohr


     total cpu time spent up to now is     5138.8 secs

     total energy              =   -2639.68006973 Ry
     estimated scf accuracy    <       5.81047621 Ry

     total magnetization       =     1.08 Bohr mag/cell
     absolute magnetization    =    15.16 Bohr mag/cell

     iteration # 24     ecut=    55.12 Ry     beta= 0.10
     Davidson diagonalization with overlap
     ethr =  2.59E-03,  avg # of iterations =  1.0

     Adding external electric field

     Computed dipole along edir(3) : 
        Dipole                0.0173 Ry au,          0.0440 Debye
        Dipole field          0.0001 Ry au, 

        Potential amp.       -0.0053 Ry
        Total length         44.5265 bohr


     Adding external electric field

     Computed dipole along edir(3) : 
        Dipole                0.0173 Ry au,          0.0440 Debye
        Dipole field          0.0001 Ry au, 

        Potential amp.       -0.0053 Ry
        Total length         44.5265 bohr


     total cpu time spent up to now is     5336.9 secs

     total energy              =   -2640.15571847 Ry
     estimated scf accuracy    <       1.71518376 Ry

     total magnetization       =     2.35 Bohr mag/cell
     absolute magnetization    =    14.22 Bohr mag/cell

     iteration # 25     ecut=    55.12 Ry     beta= 0.10
     Davidson diagonalization with overlap
     ethr =  9.53E-04,  avg # of iterations =  1.4

     Adding external electric field

     Computed dipole along edir(3) : 
        Dipole                0.0278 Ry au,          0.0706 Debye
        Dipole field          0.0001 Ry au, 

        Potential amp.       -0.0084 Ry
        Total length         44.5265 bohr


     Adding external electric field

     Computed dipole along edir(3) : 
        Dipole                0.0278 Ry au,          0.0706 Debye
        Dipole field          0.0001 Ry au, 

        Potential amp.       -0.0084 Ry
        Total length         44.5265 bohr


     total cpu time spent up to now is     5537.7 secs

     total energy              =   -2639.96143079 Ry
     estimated scf accuracy    <       1.10446243 Ry

     total magnetization       =     2.82 Bohr mag/cell
     absolute magnetization    =    13.59 Bohr mag/cell

     iteration # 26     ecut=    55.12 Ry     beta= 0.10
     Davidson diagonalization with overlap
     ethr =  6.14E-04,  avg # of iterations =  1.1

     Adding external electric field

     Computed dipole along edir(3) : 
        Dipole               -0.0045 Ry au,         -0.0116 Debye
        Dipole field         -0.0000 Ry au, 

        Potential amp.        0.0014 Ry
        Total length         44.5265 bohr


     Adding external electric field

     Computed dipole along edir(3) : 
        Dipole               -0.0045 Ry au,         -0.0116 Debye
        Dipole field         -0.0000 Ry au, 

        Potential amp.        0.0014 Ry
        Total length         44.5265 bohr


     total cpu time spent up to now is     5732.0 secs

     total energy              =   -2640.17807441 Ry
     estimated scf accuracy    <       0.62750441 Ry

     total magnetization       =     3.22 Bohr mag/cell
     absolute magnetization    =    13.10 Bohr mag/cell

     iteration # 27     ecut=    55.12 Ry     beta= 0.10
     Davidson diagonalization with overlap
     ethr =  3.49E-04,  avg # of iterations =  2.6

     Adding external electric field

     Computed dipole along edir(3) : 
        Dipole                0.0056 Ry au,          0.0141 Debye
        Dipole field          0.0000 Ry au, 

        Potential amp.       -0.0017 Ry
        Total length         44.5265 bohr


     Adding external electric field

     Computed dipole along edir(3) : 
        Dipole                0.0056 Ry au,          0.0141 Debye
        Dipole field          0.0000 Ry au, 

        Potential amp.       -0.0017 Ry
        Total length         44.5265 bohr


     total cpu time spent up to now is     5955.0 secs

     total energy              =   -2639.29523728 Ry
     estimated scf accuracy    <       0.51704054 Ry

     total magnetization       =     3.45 Bohr mag/cell
     absolute magnetization    =    12.01 Bohr mag/cell

     iteration # 28     ecut=    55.12 Ry     beta= 0.10
     Davidson diagonalization with overlap
     ethr =  2.87E-04,  avg # of iterations =  1.9

     Adding external electric field

     Computed dipole along edir(3) : 
        Dipole                0.0280 Ry au,          0.0711 Debye
        Dipole field          0.0001 Ry au, 

        Potential amp.       -0.0085 Ry
        Total length         44.5265 bohr


     Adding external electric field

     Computed dipole along edir(3) : 
        Dipole                0.0280 Ry au,          0.0711 Debye
        Dipole field          0.0001 Ry au, 

        Potential amp.       -0.0085 Ry
        Total length         44.5265 bohr


     total cpu time spent up to now is     6168.9 secs

     total energy              =   -2638.96704810 Ry
     estimated scf accuracy    <       0.09701167 Ry

     total magnetization       =     3.09 Bohr mag/cell
     absolute magnetization    =    11.47 Bohr mag/cell

     iteration # 29     ecut=    55.12 Ry     beta= 0.10
     Davidson diagonalization with overlap
     c_bands:  1 eigenvalues not converged
     c_bands:  1 eigenvalues not converged
     c_bands:  1 eigenvalues not converged
     c_bands:  1 eigenvalues not converged
     c_bands:  4 eigenvalues not converged
     c_bands:  2 eigenvalues not converged
     ethr =  5.39E-05,  avg # of iterations = 11.8

     Adding external electric field

     Computed dipole along edir(3) : 
        Dipole                0.0317 Ry au,          0.0805 Debye
        Dipole field          0.0001 Ry au, 

        Potential amp.       -0.0096 Ry
        Total length         44.5265 bohr


     Adding external electric field

     Computed dipole along edir(3) : 
        Dipole                0.0317 Ry au,          0.0805 Debye
        Dipole field          0.0001 Ry au, 

        Potential amp.       -0.0096 Ry
        Total length         44.5265 bohr


     total cpu time spent up to now is     6571.7 secs

     total energy              =   -2638.42061999 Ry
     estimated scf accuracy    <       0.09507047 Ry

     total magnetization       =     2.77 Bohr mag/cell
     absolute magnetization    =    11.64 Bohr mag/cell

     iteration # 30     ecut=    55.12 Ry     beta= 0.10
     Davidson diagonalization with overlap
     ethr =  5.28E-05,  avg # of iterations =  1.8

     Adding external electric field

     Computed dipole along edir(3) : 
        Dipole                0.0165 Ry au,          0.0418 Debye
        Dipole field          0.0001 Ry au, 

        Potential amp.       -0.0050 Ry
        Total length         44.5265 bohr


     Adding external electric field

     Computed dipole along edir(3) : 
        Dipole                0.0165 Ry au,          0.0418 Debye
        Dipole field          0.0001 Ry au, 

        Potential amp.       -0.0050 Ry
        Total length         44.5265 bohr


     total cpu time spent up to now is     6788.6 secs

     total energy              =   -2637.81394570 Ry
     estimated scf accuracy    <       0.05987511 Ry

     total magnetization       =     1.93 Bohr mag/cell
     absolute magnetization    =    10.78 Bohr mag/cell

     iteration # 31     ecut=    55.12 Ry     beta= 0.10
     Davidson diagonalization with overlap
     ethr =  3.33E-05,  avg # of iterations =  1.4

     Adding external electric field

     Computed dipole along edir(3) : 
        Dipole                0.0304 Ry au,          0.0772 Debye
        Dipole field          0.0001 Ry au, 

        Potential amp.       -0.0092 Ry
        Total length         44.5265 bohr


     Adding external electric field

     Computed dipole along edir(3) : 
        Dipole                0.0304 Ry au,          0.0772 Debye
        Dipole field          0.0001 Ry au, 

        Potential amp.       -0.0092 Ry
        Total length         44.5265 bohr


     total cpu time spent up to now is     6996.6 secs

     total energy              =   -2637.29468495 Ry
     estimated scf accuracy    <       0.02670553 Ry

     total magnetization       =     1.98 Bohr mag/cell
     absolute magnetization    =    10.62 Bohr mag/cell

     iteration # 32     ecut=    55.12 Ry     beta= 0.10
     Davidson diagonalization with overlap
     c_bands:  1 eigenvalues not converged
     c_bands:  1 eigenvalues not converged
     c_bands:  1 eigenvalues not converged
     c_bands:  1 eigenvalues not converged
     c_bands:  2 eigenvalues not converged
     c_bands:  3 eigenvalues not converged
     c_bands:  1 eigenvalues not converged
     c_bands:  1 eigenvalues not converged
     c_bands:  2 eigenvalues not converged
     c_bands:  1 eigenvalues not converged
     c_bands:  2 eigenvalues not converged
     ethr =  1.48E-05,  avg # of iterations =  4.0

     Adding external electric field

     Computed dipole along edir(3) : 
        Dipole                0.0368 Ry au,          0.0935 Debye
        Dipole field          0.0001 Ry au, 

        Potential amp.       -0.0112 Ry
        Total length         44.5265 bohr


     Adding external electric field

     Computed dipole along edir(3) : 
        Dipole                0.0368 Ry au,          0.0935 Debye
        Dipole field          0.0001 Ry au, 

        Potential amp.       -0.0112 Ry
        Total length         44.5265 bohr


     total cpu time spent up to now is     7237.1 secs

     total energy              =   -2637.19239390 Ry
     estimated scf accuracy    <       0.04643510 Ry

     total magnetization       =     2.14 Bohr mag/cell
     absolute magnetization    =    10.67 Bohr mag/cell

     iteration # 33     ecut=    55.12 Ry     beta= 0.10
     Davidson diagonalization with overlap
     c_bands:  1 eigenvalues not converged
     c_bands:  1 eigenvalues not converged
     c_bands:  1 eigenvalues not converged
     c_bands:  1 eigenvalues not converged
     c_bands:  1 eigenvalues not converged
     c_bands:  1 eigenvalues not converged
     c_bands:  1 eigenvalues not converged
     c_bands:  1 eigenvalues not converged
     ethr =  1.48E-05,  avg # of iterations =  3.6

     Adding external electric field

     Computed dipole along edir(3) : 
        Dipole                0.0371 Ry au,          0.0943 Debye
        Dipole field          0.0001 Ry au, 

        Potential amp.       -0.0113 Ry
        Total length         44.5265 bohr


     Adding external electric field

     Computed dipole along edir(3) : 
        Dipole                0.0371 Ry au,          0.0943 Debye
        Dipole field          0.0001 Ry au, 

        Potential amp.       -0.0113 Ry
        Total length         44.5265 bohr


     total cpu time spent up to now is     7472.1 secs

     total energy              =   -2637.25455523 Ry
     estimated scf accuracy    <       0.00677671 Ry

     total magnetization       =     1.79 Bohr mag/cell
     absolute magnetization    =    10.73 Bohr mag/cell

     iteration # 34     ecut=    55.12 Ry     beta= 0.10
     Davidson diagonalization with overlap
     c_bands:  2 eigenvalues not converged
     c_bands:  2 eigenvalues not converged
     c_bands:  1 eigenvalues not converged
     c_bands:  1 eigenvalues not converged
     c_bands:  1 eigenvalues not converged
     c_bands:  1 eigenvalues not converged
     c_bands:  2 eigenvalues not converged
     c_bands:  4 eigenvalues not converged
     c_bands:  2 eigenvalues not converged
     c_bands:  1 eigenvalues not converged
     c_bands:  1 eigenvalues not converged
     c_bands:  2 eigenvalues not converged
     c_bands:  2 eigenvalues not converged
     c_bands:  1 eigenvalues not converged
     c_bands:  1 eigenvalues not converged
     c_bands:  2 eigenvalues not converged
     c_bands:  1 eigenvalues not converged
     c_bands:  1 eigenvalues not converged
     c_bands:  3 eigenvalues not converged
     c_bands:  3 eigenvalues not converged
     c_bands:  2 eigenvalues not converged
     c_bands:  2 eigenvalues not converged
     c_bands:  3 eigenvalues not converged
     c_bands:  1 eigenvalues not converged
     c_bands:  3 eigenvalues not converged
     c_bands:  3 eigenvalues not converged
     c_bands:  1 eigenvalues not converged
     c_bands:  1 eigenvalues not converged
     ethr =  3.76E-06,  avg # of iterations = 11.5

     Adding external electric field

     Computed dipole along edir(3) : 
        Dipole                0.0380 Ry au,          0.0966 Debye
        Dipole field          0.0001 Ry au, 

        Potential amp.       -0.0115 Ry
        Total length         44.5265 bohr


     Adding external electric field

     Computed dipole along edir(3) : 
        Dipole                0.0380 Ry au,          0.0966 Debye
        Dipole field          0.0001 Ry au, 

        Potential amp.       -0.0115 Ry
        Total length         44.5265 bohr


     total cpu time spent up to now is     7816.6 secs

     total energy              =   -2637.19866371 Ry
     estimated scf accuracy    <       0.00483200 Ry

     total magnetization       =     1.77 Bohr mag/cell
     absolute magnetization    =    10.65 Bohr mag/cell

     iteration # 35     ecut=    55.12 Ry     beta= 0.10
     Davidson diagonalization with overlap
     c_bands:  1 eigenvalues not converged
     c_bands:  1 eigenvalues not converged
     c_bands:  1 eigenvalues not converged
     c_bands:  1 eigenvalues not converged
     c_bands:  2 eigenvalues not converged
     c_bands:  1 eigenvalues not converged
     c_bands:  1 eigenvalues not converged
     c_bands:  1 eigenvalues not converged
     c_bands:  1 eigenvalues not converged
     c_bands:  1 eigenvalues not converged
     c_bands:  1 eigenvalues not converged
     c_bands:  2 eigenvalues not converged
     c_bands:  3 eigenvalues not converged
     c_bands:  2 eigenvalues not converged
     c_bands:  2 eigenvalues not converged
     c_bands:  1 eigenvalues not converged
     c_bands:  2 eigenvalues not converged
     c_bands:  2 eigenvalues not converged
     c_bands:  2 eigenvalues not converged
     c_bands:  1 eigenvalues not converged
     c_bands:  3 eigenvalues not converged
     c_bands:  1 eigenvalues not converged
     ethr =  2.68E-06,  avg # of iterations =  5.6

     Adding external electric field

     Computed dipole along edir(3) : 
        Dipole                0.0366 Ry au,          0.0930 Debye
        Dipole field          0.0001 Ry au, 

        Potential amp.       -0.0111 Ry
        Total length         44.5265 bohr


     Adding external electric field

     Computed dipole along edir(3) : 
        Dipole                0.0366 Ry au,          0.0930 Debye
        Dipole field          0.0001 Ry au, 

        Potential amp.       -0.0111 Ry
        Total length         44.5265 bohr


     total cpu time spent up to now is     8053.3 secs

     total energy              =   -2638.74652143 Ry
     estimated scf accuracy    <       0.00354149 Ry

     total magnetization       =     1.75 Bohr mag/cell
     absolute magnetization    =    10.62 Bohr mag/cell

     iteration # 36     ecut=    55.12 Ry     beta= 0.10
     Davidson diagonalization with overlap
     c_bands:  1 eigenvalues not converged
     c_bands:  1 eigenvalues not converged
     c_bands:  1 eigenvalues not converged
     c_bands:  1 eigenvalues not converged
     c_bands:  1 eigenvalues not converged
     c_bands:  2 eigenvalues not converged
     c_bands:  1 eigenvalues not converged
     c_bands:  1 eigenvalues not converged
     c_bands:  1 eigenvalues not converged
     c_bands:  1 eigenvalues not converged
     c_bands:  1 eigenvalues not converged
     c_bands:  1 eigenvalues not converged
     c_bands:  1 eigenvalues not converged
     ethr =  1.97E-06,  avg # of iterations =  4.9

     Adding external electric field

     Computed dipole along edir(3) : 
        Dipole                0.0351 Ry au,          0.0893 Debye
        Dipole field          0.0001 Ry au, 

        Potential amp.       -0.0107 Ry
        Total length         44.5265 bohr


     Adding external electric field

     Computed dipole along edir(3) : 
        Dipole                0.0351 Ry au,          0.0893 Debye
        Dipole field          0.0001 Ry au, 

        Potential amp.       -0.0107 Ry
        Total length         44.5265 bohr


     total cpu time spent up to now is     8296.4 secs

     total energy              =   -2639.58363286 Ry
     estimated scf accuracy    <       0.00321847 Ry

     total magnetization       =     1.63 Bohr mag/cell
     absolute magnetization    =    10.52 Bohr mag/cell

     iteration # 37     ecut=    55.12 Ry     beta= 0.10
     Davidson diagonalization with overlap
     c_bands:  1 eigenvalues not converged
     c_bands:  1 eigenvalues not converged
     c_bands:  2 eigenvalues not converged
     c_bands:  1 eigenvalues not converged
     ethr =  1.79E-06,  avg # of iterations =  3.8

     Adding external electric field

     Computed dipole along edir(3) : 
        Dipole                0.0359 Ry au,          0.0912 Debye
        Dipole field          0.0001 Ry au, 

        Potential amp.       -0.0109 Ry
        Total length         44.5265 bohr


     Adding external electric field

     Computed dipole along edir(3) : 
        Dipole                0.0359 Ry au,          0.0912 Debye
        Dipole field          0.0001 Ry au, 

        Potential amp.       -0.0109 Ry
        Total length         44.5265 bohr


     total cpu time spent up to now is     8531.3 secs

     total energy              =   -2640.26605336 Ry
     estimated scf accuracy    <       0.00186729 Ry

     total magnetization       =     1.51 Bohr mag/cell
     absolute magnetization    =    10.32 Bohr mag/cell

     iteration # 38     ecut=    55.12 Ry     beta= 0.10
     Davidson diagonalization with overlap
     c_bands:  1 eigenvalues not converged
     c_bands:  1 eigenvalues not converged
     c_bands:  1 eigenvalues not converged
     c_bands:  1 eigenvalues not converged
     c_bands:  1 eigenvalues not converged
     ethr =  1.04E-06,  avg # of iterations =  7.7

     Adding external electric field

     Computed dipole along edir(3) : 
        Dipole                0.0325 Ry au,          0.0827 Debye
        Dipole field          0.0001 Ry au, 

        Potential amp.       -0.0099 Ry
        Total length         44.5265 bohr


     Adding external electric field

     Computed dipole along edir(3) : 
        Dipole                0.0325 Ry au,          0.0827 Debye
        Dipole field          0.0001 Ry au, 

        Potential amp.       -0.0099 Ry
        Total length         44.5265 bohr


     total cpu time spent up to now is     8817.7 secs

     total energy              =   -2641.97500617 Ry
     estimated scf accuracy    <       0.00210510 Ry

     total magnetization       =     1.38 Bohr mag/cell
     absolute magnetization    =    10.15 Bohr mag/cell

     iteration # 39     ecut=    55.12 Ry     beta= 0.10
     Davidson diagonalization with overlap
     c_bands:  1 eigenvalues not converged
     c_bands:  1 eigenvalues not converged
     c_bands:  1 eigenvalues not converged
     c_bands:  1 eigenvalues not converged
     ethr =  1.04E-06,  avg # of iterations =  6.7

     Adding external electric field

     Computed dipole along edir(3) : 
        Dipole                0.0320 Ry au,          0.0814 Debye
        Dipole field          0.0001 Ry au, 

        Potential amp.       -0.0097 Ry
        Total length         44.5265 bohr


     Adding external electric field

     Computed dipole along edir(3) : 
        Dipole                0.0320 Ry au,          0.0814 Debye
        Dipole field          0.0001 Ry au, 

        Potential amp.       -0.0097 Ry
        Total length         44.5265 bohr


     total cpu time spent up to now is     9116.1 secs

     total energy              =   -2642.50114212 Ry
     estimated scf accuracy    <       0.00126920 Ry

     total magnetization       =     1.19 Bohr mag/cell
     absolute magnetization    =     9.89 Bohr mag/cell

     iteration # 40     ecut=    55.12 Ry     beta= 0.10
     Davidson diagonalization with overlap
     c_bands:  1 eigenvalues not converged
     c_bands:  1 eigenvalues not converged
     ethr =  7.05E-07,  avg # of iterations =  6.3

     Adding external electric field

     Computed dipole along edir(3) : 
        Dipole                0.0309 Ry au,          0.0786 Debye
        Dipole field          0.0001 Ry au, 

        Potential amp.       -0.0094 Ry
        Total length         44.5265 bohr


     Adding external electric field

     Computed dipole along edir(3) : 
        Dipole                0.0309 Ry au,          0.0786 Debye
        Dipole field          0.0001 Ry au, 

        Potential amp.       -0.0094 Ry
        Total length         44.5265 bohr


     total cpu time spent up to now is     9397.4 secs

     total energy              =   -2642.32752979 Ry
     estimated scf accuracy    <       0.00102240 Ry

     total magnetization       =     1.08 Bohr mag/cell
     absolute magnetization    =     9.72 Bohr mag/cell

     iteration # 41     ecut=    55.12 Ry     beta= 0.10
     Davidson diagonalization with overlap
     c_bands:  1 eigenvalues not converged
     ethr =  5.68E-07,  avg # of iterations =  4.8

     Adding external electric field

     Computed dipole along edir(3) : 
        Dipole                0.0301 Ry au,          0.0764 Debye
        Dipole field          0.0001 Ry au, 

        Potential amp.       -0.0091 Ry
        Total length         44.5265 bohr


     Adding external electric field

     Computed dipole along edir(3) : 
        Dipole                0.0301 Ry au,          0.0764 Debye
        Dipole field          0.0001 Ry au, 

        Potential amp.       -0.0091 Ry
        Total length         44.5265 bohr


     total cpu time spent up to now is     9662.5 secs

     total energy              =   -2642.39385413 Ry
     estimated scf accuracy    <       0.00080027 Ry

     total magnetization       =     1.02 Bohr mag/cell
     absolute magnetization    =     9.59 Bohr mag/cell

     iteration # 42     ecut=    55.12 Ry     beta= 0.10
     Davidson diagonalization with overlap
     c_bands:  1 eigenvalues not converged
     ethr =  4.45E-07,  avg # of iterations =  4.8

     Adding external electric field

     Computed dipole along edir(3) : 
        Dipole                0.0304 Ry au,          0.0773 Debye
        Dipole field          0.0001 Ry au, 

        Potential amp.       -0.0092 Ry
        Total length         44.5265 bohr


     Adding external electric field

     Computed dipole along edir(3) : 
        Dipole                0.0304 Ry au,          0.0773 Debye
        Dipole field          0.0001 Ry au, 

        Potential amp.       -0.0092 Ry
        Total length         44.5265 bohr


     total cpu time spent up to now is     9918.7 secs

     total energy              =   -2644.37543679 Ry
     estimated scf accuracy    <       0.00070211 Ry

     total magnetization       =     0.95 Bohr mag/cell
     absolute magnetization    =     9.48 Bohr mag/cell

     iteration # 43     ecut=    55.12 Ry     beta= 0.10
     Davidson diagonalization with overlap
     c_bands:  1 eigenvalues not converged
     ethr =  3.90E-07,  avg # of iterations =  8.5

     Adding external electric field

     Computed dipole along edir(3) : 
        Dipole                0.0281 Ry au,          0.0714 Debye
        Dipole field          0.0001 Ry au, 

        Potential amp.       -0.0085 Ry
        Total length         44.5265 bohr


     Adding external electric field

     Computed dipole along edir(3) : 
        Dipole                0.0281 Ry au,          0.0714 Debye
        Dipole field          0.0001 Ry au, 

        Potential amp.       -0.0085 Ry
        Total length         44.5265 bohr


     total cpu time spent up to now is    10327.6 secs

     total energy              =   -2644.05228792 Ry
     estimated scf accuracy    <       0.00100484 Ry

     total magnetization       =     0.77 Bohr mag/cell
     absolute magnetization    =     9.14 Bohr mag/cell

     iteration # 44     ecut=    55.12 Ry     beta= 0.10
     Davidson diagonalization with overlap
     ethr =  3.90E-07,  avg # of iterations =  2.7

     Adding external electric field

     Computed dipole along edir(3) : 
        Dipole                0.0295 Ry au,          0.0750 Debye
        Dipole field          0.0001 Ry au, 

        Potential amp.       -0.0090 Ry
        Total length         44.5265 bohr


     Adding external electric field

     Computed dipole along edir(3) : 
        Dipole                0.0295 Ry au,          0.0750 Debye
        Dipole field          0.0001 Ry au, 

        Potential amp.       -0.0090 Ry
        Total length         44.5265 bohr


     total cpu time spent up to now is    10551.9 secs

     total energy              =   -2644.17391193 Ry
     estimated scf accuracy    <       0.00055345 Ry

     total magnetization       =     0.71 Bohr mag/cell
     absolute magnetization    =     9.04 Bohr mag/cell

     iteration # 45     ecut=    55.12 Ry     beta= 0.10
     Davidson diagonalization with overlap
     ethr =  3.07E-07,  avg # of iterations =  5.8

     Adding external electric field

     Computed dipole along edir(3) : 
        Dipole                0.0295 Ry au,          0.0751 Debye
        Dipole field          0.0001 Ry au, 

        Potential amp.       -0.0090 Ry
        Total length         44.5265 bohr


     Adding external electric field

     Computed dipole along edir(3) : 
        Dipole                0.0295 Ry au,          0.0751 Debye
        Dipole field          0.0001 Ry au, 

        Potential amp.       -0.0090 Ry
        Total length         44.5265 bohr


     total cpu time spent up to now is    10826.2 secs

     total energy              =   -2644.79595440 Ry
     estimated scf accuracy    <       0.00070711 Ry

     total magnetization       =     0.64 Bohr mag/cell
     absolute magnetization    =     8.92 Bohr mag/cell

     iteration # 46     ecut=    55.12 Ry     beta= 0.10
     Davidson diagonalization with overlap
     c_bands:  1 eigenvalues not converged
     ethr =  3.07E-07,  avg # of iterations =  6.6

     Adding external electric field

     Computed dipole along edir(3) : 
        Dipole                0.0295 Ry au,          0.0749 Debye
        Dipole field          0.0001 Ry au, 

        Potential amp.       -0.0089 Ry
        Total length         44.5265 bohr


     Adding external electric field

     Computed dipole along edir(3) : 
        Dipole                0.0295 Ry au,          0.0749 Debye
        Dipole field          0.0001 Ry au, 

        Potential amp.       -0.0089 Ry
        Total length         44.5265 bohr


     total cpu time spent up to now is    11138.8 secs

     total energy              =   -2644.96064585 Ry
     estimated scf accuracy    <       0.00047954 Ry

     total magnetization       =     0.54 Bohr mag/cell
     absolute magnetization    =     8.74 Bohr mag/cell

     iteration # 47     ecut=    55.12 Ry     beta= 0.10
     Davidson diagonalization with overlap
     c_bands:  1 eigenvalues not converged
     ethr =  2.66E-07,  avg # of iterations =  5.5

     Adding external electric field

     Computed dipole along edir(3) : 
        Dipole                0.0291 Ry au,          0.0741 Debye
        Dipole field          0.0001 Ry au, 

        Potential amp.       -0.0089 Ry
        Total length         44.5265 bohr


     Adding external electric field

     Computed dipole along edir(3) : 
        Dipole                0.0291 Ry au,          0.0741 Debye
        Dipole field          0.0001 Ry au, 

        Potential amp.       -0.0089 Ry
        Total length         44.5265 bohr


     total cpu time spent up to now is    11425.1 secs

     total energy              =   -2644.95558527 Ry
     estimated scf accuracy    <       0.00042422 Ry

     total magnetization       =     0.46 Bohr mag/cell
     absolute magnetization    =     8.58 Bohr mag/cell

     iteration # 48     ecut=    55.12 Ry     beta= 0.10
     Davidson diagonalization with overlap
     c_bands:  1 eigenvalues not converged
     ethr =  2.36E-07,  avg # of iterations =  6.1

     Adding external electric field

     Computed dipole along edir(3) : 
        Dipole                0.0292 Ry au,          0.0742 Debye
        Dipole field          0.0001 Ry au, 

        Potential amp.       -0.0089 Ry
        Total length         44.5265 bohr


     Adding external electric field

     Computed dipole along edir(3) : 
        Dipole                0.0292 Ry au,          0.0742 Debye
        Dipole field          0.0001 Ry au, 

        Potential amp.       -0.0089 Ry
        Total length         44.5265 bohr


     total cpu time spent up to now is    11729.7 secs

     total energy              =   -2645.32937474 Ry
     estimated scf accuracy    <       0.00034290 Ry

     total magnetization       =     0.40 Bohr mag/cell
     absolute magnetization    =     8.46 Bohr mag/cell

     iteration # 49     ecut=    55.12 Ry     beta= 0.10
     Davidson diagonalization with overlap
     c_bands:  1 eigenvalues not converged
     c_bands:  1 eigenvalues not converged
     ethr =  1.90E-07,  avg # of iterations =  6.8

     Adding external electric field

     Computed dipole along edir(3) : 
        Dipole                0.0301 Ry au,          0.0766 Debye
        Dipole field          0.0001 Ry au, 

        Potential amp.       -0.0091 Ry
        Total length         44.5265 bohr


     Adding external electric field

     Computed dipole along edir(3) : 
        Dipole                0.0301 Ry au,          0.0766 Debye
        Dipole field          0.0001 Ry au, 

        Potential amp.       -0.0091 Ry
        Total length         44.5265 bohr


     total cpu time spent up to now is    12058.2 secs

     total energy              =   -2645.09353477 Ry
     estimated scf accuracy    <       0.00034449 Ry

     total magnetization       =     0.32 Bohr mag/cell
     absolute magnetization    =     8.31 Bohr mag/cell

     iteration # 50     ecut=    55.12 Ry     beta= 0.10
     Davidson diagonalization with overlap
     ethr =  1.90E-07,  avg # of iterations =  3.9

     Adding external electric field

     Computed dipole along edir(3) : 
        Dipole                0.0302 Ry au,          0.0767 Debye
        Dipole field          0.0001 Ry au, 

        Potential amp.       -0.0092 Ry
        Total length         44.5265 bohr


     Adding external electric field

     Computed dipole along edir(3) : 
        Dipole                0.0302 Ry au,          0.0767 Debye
        Dipole field          0.0001 Ry au, 

        Potential amp.       -0.0092 Ry
        Total length         44.5265 bohr


     total cpu time spent up to now is    12303.1 secs

     total energy              =   -2644.61712409 Ry
     estimated scf accuracy    <       0.00030518 Ry

     total magnetization       =     0.28 Bohr mag/cell
     absolute magnetization    =     8.23 Bohr mag/cell

     iteration # 51     ecut=    55.12 Ry     beta= 0.10
     Davidson diagonalization with overlap
     ethr =  1.70E-07,  avg # of iterations =  4.3

     Adding external electric field

     Computed dipole along edir(3) : 
        Dipole                0.0297 Ry au,          0.0754 Debye
        Dipole field          0.0001 Ry au, 

        Potential amp.       -0.0090 Ry
        Total length         44.5265 bohr


     Adding external electric field

     Computed dipole along edir(3) : 
        Dipole                0.0297 Ry au,          0.0754 Debye
        Dipole field          0.0001 Ry au, 

        Potential amp.       -0.0090 Ry
        Total length         44.5265 bohr


     total cpu time spent up to now is    12544.9 secs

     total energy              =   -2644.68576123 Ry
     estimated scf accuracy    <       0.00019293 Ry

     total magnetization       =     0.23 Bohr mag/cell
     absolute magnetization    =     8.17 Bohr mag/cell

     iteration # 52     ecut=    55.12 Ry     beta= 0.10
     Davidson diagonalization with overlap
     ethr =  1.07E-07,  avg # of iterations =  8.5

     Adding external electric field

     Computed dipole along edir(3) : 
        Dipole                0.0290 Ry au,          0.0736 Debye
        Dipole field          0.0001 Ry au, 

        Potential amp.       -0.0088 Ry
        Total length         44.5265 bohr


     Adding external electric field

     Computed dipole along edir(3) : 
        Dipole                0.0290 Ry au,          0.0736 Debye
        Dipole field          0.0001 Ry au, 

        Potential amp.       -0.0088 Ry
        Total length         44.5265 bohr


     total cpu time spent up to now is    12939.2 secs

     total energy              =   -2645.29538184 Ry
     estimated scf accuracy    <       0.00019866 Ry

     total magnetization       =     0.15 Bohr mag/cell
     absolute magnetization    =     8.01 Bohr mag/cell

     iteration # 53     ecut=    55.12 Ry     beta= 0.10
     Davidson diagonalization with overlap
     ethr =  1.07E-07,  avg # of iterations =  8.5

     Adding external electric field

     Computed dipole along edir(3) : 
        Dipole                0.0294 Ry au,          0.0748 Debye
        Dipole field          0.0001 Ry au, 

        Potential amp.       -0.0089 Ry
        Total length         44.5265 bohr


     Adding external electric field

     Computed dipole along edir(3) : 
        Dipole                0.0294 Ry au,          0.0748 Debye
        Dipole field          0.0001 Ry au, 

        Potential amp.       -0.0089 Ry
        Total length         44.5265 bohr


     total cpu time spent up to now is    13384.6 secs

     total energy              =   -2643.97031445 Ry
     estimated scf accuracy    <       0.00014728 Ry

     total magnetization       =     0.03 Bohr mag/cell
     absolute magnetization    =     7.80 Bohr mag/cell

     iteration # 54     ecut=    55.12 Ry     beta= 0.10
     Davidson diagonalization with overlap
     ethr =  8.18E-08,  avg # of iterations =  2.0

     Adding external electric field

     Computed dipole along edir(3) : 
        Dipole                0.0289 Ry au,          0.0733 Debye
        Dipole field          0.0001 Ry au, 

        Potential amp.       -0.0088 Ry
        Total length         44.5265 bohr


     Adding external electric field

     Computed dipole along edir(3) : 
        Dipole                0.0289 Ry au,          0.0733 Debye
        Dipole field          0.0001 Ry au, 

        Potential amp.       -0.0088 Ry
        Total length         44.5265 bohr


     total cpu time spent up to now is    13705.9 secs

     total energy              =   -2643.99905241 Ry
     estimated scf accuracy    <       0.00017307 Ry

     total magnetization       =     0.06 Bohr mag/cell
     absolute magnetization    =     7.85 Bohr mag/cell

     iteration # 55     ecut=    55.12 Ry     beta= 0.10
     Davidson diagonalization with overlap
     ethr =  8.18E-08,  avg # of iterations =  6.3

     Adding external electric field

     Computed dipole along edir(3) : 
        Dipole                0.0292 Ry au,          0.0741 Debye
        Dipole field          0.0001 Ry au, 

        Potential amp.       -0.0089 Ry
        Total length         44.5265 bohr


     Adding external electric field

     Computed dipole along edir(3) : 
        Dipole                0.0292 Ry au,          0.0741 Debye
        Dipole field          0.0001 Ry au, 

        Potential amp.       -0.0089 Ry
        Total length         44.5265 bohr


     total cpu time spent up to now is    14097.4 secs

     total energy              =   -2643.51881614 Ry
     estimated scf accuracy    <       0.00014767 Ry

     total magnetization       =    -0.01 Bohr mag/cell
     absolute magnetization    =     7.74 Bohr mag/cell

     iteration # 56     ecut=    55.12 Ry     beta= 0.10
     Davidson diagonalization with overlap
     ethr =  8.18E-08,  avg # of iterations =  6.6

     Adding external electric field

     Computed dipole along edir(3) : 
        Dipole                0.0278 Ry au,          0.0707 Debye
        Dipole field          0.0001 Ry au, 

        Potential amp.       -0.0084 Ry
        Total length         44.5265 bohr


     Adding external electric field

     Computed dipole along edir(3) : 
        Dipole                0.0278 Ry au,          0.0707 Debye
        Dipole field          0.0001 Ry au, 

        Potential amp.       -0.0084 Ry
        Total length         44.5265 bohr


     total cpu time spent up to now is    14509.5 secs

     total energy              =   -2643.67512498 Ry
     estimated scf accuracy    <       0.00018677 Ry

     total magnetization       =    -0.05 Bohr mag/cell
     absolute magnetization    =     7.67 Bohr mag/cell

     iteration # 57     ecut=    55.12 Ry     beta= 0.10
     Davidson diagonalization with overlap
     ethr =  8.18E-08,  avg # of iterations =  8.4

     Adding external electric field

     Computed dipole along edir(3) : 
        Dipole                0.0279 Ry au,          0.0710 Debye
        Dipole field          0.0001 Ry au, 

        Potential amp.       -0.0085 Ry
        Total length         44.5265 bohr


     Adding external electric field

     Computed dipole along edir(3) : 
        Dipole                0.0279 Ry au,          0.0710 Debye
        Dipole field          0.0001 Ry au, 

        Potential amp.       -0.0085 Ry
        Total length         44.5265 bohr


     total cpu time spent up to now is    15080.5 secs

     total energy              =   -2643.51210644 Ry
     estimated scf accuracy    <       0.00012397 Ry

     total magnetization       =    -0.16 Bohr mag/cell
     absolute magnetization    =     7.51 Bohr mag/cell

     iteration # 58     ecut=    55.12 Ry     beta= 0.10
     Davidson diagonalization with overlap
     c_bands:  1 eigenvalues not converged
     ethr =  6.89E-08,  avg # of iterations =  7.3

     Adding external electric field

     Computed dipole along edir(3) : 
        Dipole                0.0281 Ry au,          0.0713 Debye
        Dipole field          0.0001 Ry au, 

        Potential amp.       -0.0085 Ry
        Total length         44.5265 bohr


     Adding external electric field

     Computed dipole along edir(3) : 
        Dipole                0.0281 Ry au,          0.0713 Debye
        Dipole field          0.0001 Ry au, 

        Potential amp.       -0.0085 Ry
        Total length         44.5265 bohr


     total cpu time spent up to now is    15515.5 secs

     total energy              =   -2642.83640099 Ry
     estimated scf accuracy    <       0.00009669 Ry

     total magnetization       =    -0.21 Bohr mag/cell
     absolute magnetization    =     7.43 Bohr mag/cell

     iteration # 59     ecut=    55.12 Ry     beta= 0.10
     Davidson diagonalization with overlap
     ethr =  5.37E-08,  avg # of iterations =  5.6

     Adding external electric field

     Computed dipole along edir(3) : 
        Dipole                0.0279 Ry au,          0.0709 Debye
        Dipole field          0.0001 Ry au, 

        Potential amp.       -0.0085 Ry
        Total length         44.5265 bohr


     Adding external electric field

     Computed dipole along edir(3) : 
        Dipole                0.0279 Ry au,          0.0709 Debye
        Dipole field          0.0001 Ry au, 

        Potential amp.       -0.0085 Ry
        Total length         44.5265 bohr


     total cpu time spent up to now is    15829.4 secs

     total energy              =   -2642.90637367 Ry
     estimated scf accuracy    <       0.00008225 Ry

     total magnetization       =    -0.23 Bohr mag/cell
     absolute magnetization    =     7.40 Bohr mag/cell

     iteration # 60     ecut=    55.12 Ry     beta= 0.10
     Davidson diagonalization with overlap
     ethr =  4.57E-08,  avg # of iterations =  8.1

     Adding external electric field

     Computed dipole along edir(3) : 
        Dipole                0.0279 Ry au,          0.0709 Debye
        Dipole field          0.0001 Ry au, 

        Potential amp.       -0.0085 Ry
        Total length         44.5265 bohr


     Adding external electric field

     Computed dipole along edir(3) : 
        Dipole                0.0279 Ry au,          0.0709 Debye
        Dipole field          0.0001 Ry au, 

        Potential amp.       -0.0085 Ry
        Total length         44.5265 bohr


     total cpu time spent up to now is    16305.2 secs

     total energy              =   -2642.44297435 Ry
     estimated scf accuracy    <       0.00008243 Ry

     total magnetization       =    -0.29 Bohr mag/cell
     absolute magnetization    =     7.30 Bohr mag/cell

     iteration # 61     ecut=    55.12 Ry     beta= 0.10
     Davidson diagonalization with overlap
     ethr =  4.57E-08,  avg # of iterations =  3.7

     Adding external electric field

     Computed dipole along edir(3) : 
        Dipole                0.0273 Ry au,          0.0694 Debye
        Dipole field          0.0001 Ry au, 

        Potential amp.       -0.0083 Ry
        Total length         44.5265 bohr


     Adding external electric field

     Computed dipole along edir(3) : 
        Dipole                0.0273 Ry au,          0.0694 Debye
        Dipole field          0.0001 Ry au, 

        Potential amp.       -0.0083 Ry
        Total length         44.5265 bohr


     total cpu time spent up to now is    16630.4 secs

     total energy              =   -2641.44688701 Ry
     estimated scf accuracy    <       0.00007563 Ry

     total magnetization       =    -0.32 Bohr mag/cell
     absolute magnetization    =     7.27 Bohr mag/cell

     iteration # 62     ecut=    55.12 Ry     beta= 0.10
     Davidson diagonalization with overlap
     ethr =  4.20E-08,  avg # of iterations =  4.6

     Adding external electric field

     Computed dipole along edir(3) : 
        Dipole                0.0267 Ry au,          0.0680 Debye
        Dipole field          0.0001 Ry au, 

        Potential amp.       -0.0081 Ry
        Total length         44.5265 bohr


     Adding external electric field

     Computed dipole along edir(3) : 
        Dipole                0.0267 Ry au,          0.0680 Debye
        Dipole field          0.0001 Ry au, 

        Potential amp.       -0.0081 Ry
        Total length         44.5265 bohr


     total cpu time spent up to now is    16984.6 secs

     total energy              =   -2642.98558816 Ry
     estimated scf accuracy    <       0.00009537 Ry

     total magnetization       =    -0.33 Bohr mag/cell
     absolute magnetization    =     7.30 Bohr mag/cell

     iteration # 63     ecut=    55.12 Ry     beta= 0.10
     Davidson diagonalization with overlap
     ethr =  4.20E-08,  avg # of iterations = 15.0

     Adding external electric field

     Computed dipole along edir(3) : 
        Dipole                0.0266 Ry au,          0.0676 Debye
        Dipole field          0.0001 Ry au, 

        Potential amp.       -0.0081 Ry
        Total length         44.5265 bohr


     Adding external electric field

     Computed dipole along edir(3) : 
        Dipole                0.0266 Ry au,          0.0676 Debye
        Dipole field          0.0001 Ry au, 

        Potential amp.       -0.0081 Ry
        Total length         44.5265 bohr


     total cpu time spent up to now is    17798.6 secs

     total energy              =   -2642.23040940 Ry
     estimated scf accuracy    <       0.00006460 Ry

     total magnetization       =    -0.50 Bohr mag/cell
     absolute magnetization    =     7.12 Bohr mag/cell

     iteration # 64     ecut=    55.12 Ry     beta= 0.10
     Davidson diagonalization with overlap
     ethr =  3.59E-08,  avg # of iterations =  2.7

     Adding external electric field

     Computed dipole along edir(3) : 
        Dipole                0.0264 Ry au,          0.0671 Debye
        Dipole field          0.0001 Ry au, 

        Potential amp.       -0.0080 Ry
        Total length         44.5265 bohr


     Adding external electric field

     Computed dipole along edir(3) : 
        Dipole                0.0264 Ry au,          0.0671 Debye
        Dipole field          0.0001 Ry au, 

        Potential amp.       -0.0080 Ry
        Total length         44.5265 bohr


     total cpu time spent up to now is    18125.1 secs

     total energy              =   -2641.89913660 Ry
     estimated scf accuracy    <       0.00005253 Ry

     total magnetization       =    -0.51 Bohr mag/cell
     absolute magnetization    =     7.13 Bohr mag/cell

     iteration # 65     ecut=    55.12 Ry     beta= 0.10
     Davidson diagonalization with overlap
     ethr =  2.92E-08,  avg # of iterations =  7.9

     Adding external electric field

     Computed dipole along edir(3) : 
        Dipole                0.0263 Ry au,          0.0668 Debye
        Dipole field          0.0001 Ry au, 

        Potential amp.       -0.0080 Ry
        Total length         44.5265 bohr


     Adding external electric field

     Computed dipole along edir(3) : 
        Dipole                0.0263 Ry au,          0.0668 Debye
        Dipole field          0.0001 Ry au, 

        Potential amp.       -0.0080 Ry
        Total length         44.5265 bohr


     total cpu time spent up to now is    18596.8 secs

     total energy              =   -2641.61315850 Ry
     estimated scf accuracy    <       0.00004954 Ry

     total magnetization       =    -0.55 Bohr mag/cell
     absolute magnetization    =     7.11 Bohr mag/cell

     iteration # 66     ecut=    55.12 Ry     beta= 0.10
     Davidson diagonalization with overlap
     ethr =  2.75E-08,  avg # of iterations =  6.5

     Adding external electric field

     Computed dipole along edir(3) : 
        Dipole                0.0260 Ry au,          0.0660 Debye
        Dipole field          0.0001 Ry au, 

        Potential amp.       -0.0079 Ry
        Total length         44.5265 bohr


     Adding external electric field

     Computed dipole along edir(3) : 
        Dipole                0.0260 Ry au,          0.0660 Debye
        Dipole field          0.0001 Ry au, 

        Potential amp.       -0.0079 Ry
        Total length         44.5265 bohr


     total cpu time spent up to now is    19017.6 secs

     total energy              =   -2641.59255479 Ry
     estimated scf accuracy    <       0.00004533 Ry

     total magnetization       =    -0.60 Bohr mag/cell
     absolute magnetization    =     7.09 Bohr mag/cell

     iteration # 67     ecut=    55.12 Ry     beta= 0.10
     Davidson diagonalization with overlap
     ethr =  2.52E-08,  avg # of iterations = 10.3

     Adding external electric field

     Computed dipole along edir(3) : 
        Dipole                0.0258 Ry au,          0.0656 Debye
        Dipole field          0.0001 Ry au, 

        Potential amp.       -0.0078 Ry
        Total length         44.5265 bohr


     Adding external electric field

     Computed dipole along edir(3) : 
        Dipole                0.0258 Ry au,          0.0656 Debye
        Dipole field          0.0001 Ry au, 

        Potential amp.       -0.0078 Ry
        Total length         44.5265 bohr


     total cpu time spent up to now is    19629.0 secs

     total energy              =   -2640.86653343 Ry
     estimated scf accuracy    <       0.00004193 Ry

     total magnetization       =    -0.66 Bohr mag/cell
     absolute magnetization    =     7.10 Bohr mag/cell

     iteration # 68     ecut=    55.12 Ry     beta= 0.10
     Davidson diagonalization with overlap
     ethr =  2.33E-08,  avg # of iterations =  3.1

     Adding external electric field

     Computed dipole along edir(3) : 
        Dipole                0.0261 Ry au,          0.0662 Debye
        Dipole field          0.0001 Ry au, 

        Potential amp.       -0.0079 Ry
        Total length         44.5265 bohr


     Adding external electric field

     Computed dipole along edir(3) : 
        Dipole                0.0261 Ry au,          0.0662 Debye
        Dipole field          0.0001 Ry au, 

        Potential amp.       -0.0079 Ry
        Total length         44.5265 bohr


     total cpu time spent up to now is    19920.9 secs

     total energy              =   -2641.08685590 Ry
     estimated scf accuracy    <       0.00003528 Ry

     total magnetization       =    -0.67 Bohr mag/cell
     absolute magnetization    =     7.11 Bohr mag/cell

     iteration # 69     ecut=    55.12 Ry     beta= 0.10
     Davidson diagonalization with overlap
     ethr =  1.96E-08,  avg # of iterations = 11.0

     Adding external electric field

     Computed dipole along edir(3) : 
        Dipole                0.0256 Ry au,          0.0650 Debye
        Dipole field          0.0001 Ry au, 

        Potential amp.       -0.0078 Ry
        Total length         44.5265 bohr


     Adding external electric field

     Computed dipole along edir(3) : 
        Dipole                0.0256 Ry au,          0.0650 Debye
        Dipole field          0.0001 Ry au, 

        Potential amp.       -0.0078 Ry
        Total length         44.5265 bohr


     total cpu time spent up to now is    20578.4 secs

     total energy              =   -2642.11586458 Ry
     estimated scf accuracy    <       0.00004463 Ry

     total magnetization       =    -0.73 Bohr mag/cell
     absolute magnetization    =     7.12 Bohr mag/cell

     iteration # 70     ecut=    55.12 Ry     beta= 0.10
     Davidson diagonalization with overlap
     c_bands:  1 eigenvalues not converged
     c_bands:  1 eigenvalues not converged
     c_bands:  1 eigenvalues not converged
     ethr =  1.96E-08,  avg # of iterations = 15.0

     Adding external electric field

     Computed dipole along edir(3) : 
        Dipole                0.0258 Ry au,          0.0655 Debye
        Dipole field          0.0001 Ry au, 

        Potential amp.       -0.0078 Ry
        Total length         44.5265 bohr


     Adding external electric field

     Computed dipole along edir(3) : 
        Dipole                0.0258 Ry au,          0.0655 Debye
        Dipole field          0.0001 Ry au, 

        Potential amp.       -0.0078 Ry
        Total length         44.5265 bohr


     total cpu time spent up to now is    21351.6 secs

     total energy              =   -2640.79140526 Ry
     estimated scf accuracy    <       0.00003735 Ry

     total magnetization       =    -0.85 Bohr mag/cell
     absolute magnetization    =     7.20 Bohr mag/cell

     iteration # 71     ecut=    55.12 Ry     beta= 0.10
     Davidson diagonalization with overlap
     ethr =  1.96E-08,  avg # of iterations =  3.4

     Adding external electric field

     Computed dipole along edir(3) : 
        Dipole                0.0254 Ry au,          0.0646 Debye
        Dipole field          0.0001 Ry au, 

        Potential amp.       -0.0077 Ry
        Total length         44.5265 bohr


     Adding external electric field

     Computed dipole along edir(3) : 
        Dipole                0.0254 Ry au,          0.0646 Debye
        Dipole field          0.0001 Ry au, 

        Potential amp.       -0.0077 Ry
        Total length         44.5265 bohr


     total cpu time spent up to now is    21704.1 secs

     total energy              =   -2641.10658771 Ry
     estimated scf accuracy    <       0.00003132 Ry

     total magnetization       =    -0.82 Bohr mag/cell
     absolute magnetization    =     7.20 Bohr mag/cell

     iteration # 72     ecut=    55.12 Ry     beta= 0.10
     Davidson diagonalization with overlap
     ethr =  1.74E-08,  avg # of iterations =  8.7

     Adding external electric field

     Computed dipole along edir(3) : 
        Dipole                0.0254 Ry au,          0.0647 Debye
        Dipole field          0.0001 Ry au, 

        Potential amp.       -0.0077 Ry
        Total length         44.5265 bohr


     Adding external electric field

     Computed dipole along edir(3) : 
        Dipole                0.0254 Ry au,          0.0647 Debye
        Dipole field          0.0001 Ry au, 

        Potential amp.       -0.0077 Ry
        Total length         44.5265 bohr


     total cpu time spent up to now is    22237.9 secs

     total energy              =   -2641.12657923 Ry
     estimated scf accuracy    <       0.00001807 Ry

     total magnetization       =    -0.89 Bohr mag/cell
     absolute magnetization    =     7.27 Bohr mag/cell

     iteration # 73     ecut=    55.12 Ry     beta= 0.10
     Davidson diagonalization with overlap
     c_bands:  1 eigenvalues not converged
     ethr =  1.00E-08,  avg # of iterations = 12.1

     Adding external electric field

     Computed dipole along edir(3) : 
        Dipole                0.0252 Ry au,          0.0641 Debye
        Dipole field          0.0001 Ry au, 

        Potential amp.       -0.0077 Ry
        Total length         44.5265 bohr


     Adding external electric field

     Computed dipole along edir(3) : 
        Dipole                0.0252 Ry au,          0.0641 Debye
        Dipole field          0.0001 Ry au, 

        Potential amp.       -0.0077 Ry
        Total length         44.5265 bohr


     total cpu time spent up to now is    22903.1 secs

     total energy              =   -2640.56952753 Ry
     estimated scf accuracy    <       0.00001630 Ry

     total magnetization       =    -0.93 Bohr mag/cell
     absolute magnetization    =     7.31 Bohr mag/cell

     iteration # 74     ecut=    55.12 Ry     beta= 0.10
     Davidson diagonalization with overlap
     ethr =  9.06E-09,  avg # of iterations =  2.0

     Adding external electric field

     Computed dipole along edir(3) : 
        Dipole                0.0253 Ry au,          0.0643 Debye
        Dipole field          0.0001 Ry au, 

        Potential amp.       -0.0077 Ry
        Total length         44.5265 bohr


     Adding external electric field

     Computed dipole along edir(3) : 
        Dipole                0.0253 Ry au,          0.0643 Debye
        Dipole field          0.0001 Ry au, 

        Potential amp.       -0.0077 Ry
        Total length         44.5265 bohr


     total cpu time spent up to now is    23226.7 secs

     total energy              =   -2639.90445071 Ry
     estimated scf accuracy    <       0.00001150 Ry

     total magnetization       =    -0.94 Bohr mag/cell
     absolute magnetization    =     7.32 Bohr mag/cell

     iteration # 75     ecut=    55.12 Ry     beta= 0.10
     Davidson diagonalization with overlap
     ethr =  6.39E-09,  avg # of iterations =  7.5

     Adding external electric field

     Computed dipole along edir(3) : 
        Dipole                0.0251 Ry au,          0.0638 Debye
        Dipole field          0.0001 Ry au, 

        Potential amp.       -0.0076 Ry
        Total length         44.5265 bohr


     Adding external electric field

     Computed dipole along edir(3) : 
        Dipole                0.0251 Ry au,          0.0638 Debye
        Dipole field          0.0001 Ry au, 

        Potential amp.       -0.0076 Ry
        Total length         44.5265 bohr


     total cpu time spent up to now is    23717.6 secs

     total energy              =   -2639.74941503 Ry
     estimated scf accuracy    <       0.00001970 Ry

     total magnetization       =    -0.94 Bohr mag/cell
     absolute magnetization    =     7.36 Bohr mag/cell

     iteration # 76     ecut=    55.12 Ry     beta= 0.10
     Davidson diagonalization with overlap
     ethr =  6.39E-09,  avg # of iterations =  6.7

     Adding external electric field

     Computed dipole along edir(3) : 
        Dipole                0.0257 Ry au,          0.0653 Debye
        Dipole field          0.0001 Ry au, 

        Potential amp.       -0.0078 Ry
        Total length         44.5265 bohr


     Adding external electric field

     Computed dipole along edir(3) : 
        Dipole                0.0257 Ry au,          0.0653 Debye
        Dipole field          0.0001 Ry au, 

        Potential amp.       -0.0078 Ry
        Total length         44.5265 bohr


     Magnetic moment per site:
     atom:    1    charge:   15.4570    magn:    0.9583    constr:    0.0000
     atom:    2    charge:   15.4573    magn:    0.9589    constr:    0.0000
     atom:    3    charge:   10.8560    magn:   -0.7146    constr:    0.0000
     atom:    4    charge:   10.8559    magn:   -0.7147    constr:    0.0000
     atom:    5    charge:   15.5479    magn:   -0.1271    constr:    0.0000
     atom:    6    charge:   15.5484    magn:   -0.1281    constr:    0.0000
     atom:    7    charge:   10.9043    magn:   -0.1377    constr:    0.0000
     atom:    8    charge:   10.9043    magn:   -0.1380    constr:    0.0000
     atom:    9    charge:   15.4962    magn:    0.5982    constr:    0.0000
     atom:   10    charge:   15.4961    magn:    0.5980    constr:    0.0000
     atom:   11    charge:   10.8469    magn:   -0.5125    constr:    0.0000
     atom:   12    charge:   10.8470    magn:   -0.5129    constr:    0.0000

     total cpu time spent up to now is    24282.5 secs

     End of self-consistent calculation

     Number of k-points >= 100: set verbosity='high' to print the bands.

     the Fermi energy is     1.1455 ev

!    total energy              =   -2634.09104756 Ry
     estimated scf accuracy    <       0.00000787 Ry
     smearing contrib. (-TS)   =      -0.08929057 Ry
     internal energy E=F+TS    =   -2634.00175699 Ry

     The total energy is F=E-TS. E is the sum of the following terms:
     one-electron contribution =  -23064.82217783 Ry
     hartree contribution      =   11528.02920765 Ry
     xc contribution           =    -318.24850044 Ry
     ewald contribution        =    9221.03971139 Ry
     electric field correction =       0.00000225 Ry

     total magnetization       =    -0.97 Bohr mag/cell
     absolute magnetization    =     7.38 Bohr mag/cell

     convergence has been achieved in  76 iterations

     Forces acting on atoms (cartesian axes, Ry/au):

     atom    1 type  1   force =     0.00028589    0.00016718    0.00881002
     atom    2 type  1   force =     0.00031679    0.00020096    0.00884028
     atom    3 type  2   force =    -0.00816184   -0.00484805   -0.00203611
     atom    4 type  2   force =    -0.00814654   -0.00490248   -0.00203914
     atom    5 type  1   force =     0.00236835    0.00139540   -0.00078903
     atom    6 type  1   force =     0.00231523    0.00140497   -0.00081155
     atom    7 type  2   force =     0.00516996    0.00306384   -0.00873687
     atom    8 type  2   force =     0.00514496    0.00310104   -0.00873583
     atom    9 type  1   force =     0.00007047    0.00002368    0.00276225
     atom   10 type  1   force =     0.00002001    0.00003478    0.00274851
     atom   11 type  2   force =     0.00030431    0.00015403   -0.00000172
     atom   12 type  2   force =     0.00031241    0.00020465   -0.00001081

     Total force =     0.024522     Total SCF correction =     0.005222
     SCF correction compared to forces is large: reduce conv_thr to get better values

     Writing output data file ./Co2V2/Co2V2_beef.save/

     init_run     :     73.51s CPU     98.81s WALL (       1 calls)
     electrons    :  18769.33s CPU  24177.42s WALL (       1 calls)
     forces       :     83.26s CPU    106.74s WALL (       1 calls)

     Called by init_run:
     wfcinit      :     63.65s CPU     87.32s WALL (       1 calls)
     potinit      :      7.19s CPU      8.09s WALL (       1 calls)
     hinit0       :      1.57s CPU      1.64s WALL (       1 calls)

     Called by electrons:
     c_bands      :  17001.81s CPU  21665.74s WALL (      76 calls)
     sum_band     :   1639.54s CPU   2331.74s WALL (      76 calls)
     v_of_rho     :     71.86s CPU    107.87s WALL (      77 calls)
     newd         :     58.73s CPU     70.84s WALL (      77 calls)
     mix_rho      :      2.92s CPU      6.15s WALL (      76 calls)
     vdW_kernel   :      5.63s CPU      5.96s WALL (       1 calls)

     Called by c_bands:
     init_us_2    :     36.46s CPU     39.68s WALL (   22792 calls)
     cegterg      :  16848.02s CPU  21448.06s WALL (   11249 calls)

     Called by *egterg:
     cdiaghg      :   2852.16s CPU   2958.53s WALL (   64762 calls)
     h_psi        :   7481.72s CPU  10775.91s WALL (   64910 calls)
     s_psi        :   1446.54s CPU   1453.61s WALL (   64910 calls)
     g_psi        :     11.83s CPU     12.75s WALL (   53513 calls)

     Called by h_psi:
     h_psi:calbec :   1936.96s CPU   2435.95s WALL (   64910 calls)
     vloc_psi     :   4060.12s CPU   6838.45s WALL (   64910 calls)
     add_vuspsi   :   1469.56s CPU   1483.63s WALL (   64910 calls)

     General routines
     calbec       :   2747.06s CPU   3429.16s WALL (   76750 calls)
     fft          :     35.05s CPU     78.64s WALL (    6930 calls)
     ffts         :      0.41s CPU      1.04s WALL (     306 calls)
     fftw         :   4608.22s CPU   7784.06s WALL ( 7230074 calls)
     interpolate  :      1.02s CPU      1.94s WALL (     154 calls)

     Parallel routines
     fft_scatt_xy :    278.93s CPU    410.96s WALL ( 7237310 calls)
     fft_scatt_yz :   2184.89s CPU   4385.14s WALL ( 7237310 calls)

     PWSCF        :      5h16m CPU      6h50m WALL


   This run was terminated on:   2:17:56   2Jul2022            

=------------------------------------------------------------------------------=
   JOB DONE.
=------------------------------------------------------------------------------=
