
     Program PWSCF v.6.6 starts on 10Jul2022 at 17:25:36 

     This program is part of the open-source Quantum ESPRESSO suite
     for quantum simulation of materials; please cite
         "P. Giannozzi et al., J. Phys.:Condens. Matter 21 395502 (2009);
         "P. Giannozzi et al., J. Phys.:Condens. Matter 29 465901 (2017);
          URL http://www.quantum-espresso.org", 
     in publications or presentations arising from this work. More details at
     http://www.quantum-espresso.org/quote

     Parallel version (MPI), running on    37 processors

     MPI processes distributed on     1 nodes
     R & G space division:  proc/nbgrp/npool/nimage =      37
     Fft bands division:     nmany     =       1
     Reading input from Cr2Ag2.in
Warning: card &CELL ignored
Warning: card / ignored

     Current dimensions of program PWSCF are:
     Max number of different atomic species (ntypx) = 10
     Max number of k-points (npk) =  40000
     Max angular momentum in pseudopotentials (lmaxx) =  3
     Presently stress not available with electric field and gates

     Message from routine cell_base_init:
     DEPRECATED: use true lattice parameter, not A to a.u. conversion factor
     file Cr.pbe-spn-rrkjus_psl.1.0.0.UPF: wavefunction(s)  3P renormalized

     **************************************************************************
     Initializing libbeef V0.1.2 with the BEEF-vdW functional.
     Citation: Wellendorff et al., PRB 85, 235149 (2012).
     **************************************************************************


     IMPORTANT: XC functional enforced from input :
     Exchange-correlation= BEEF-VDW
                           (   1   4  43  14   2   0   0)
     Any further DFT definition will be discarded
     Please, verify this is what you really want


     Subspace diagonalization in iterative solution of the eigenvalue problem:
     a serial algorithm will be used


     Parallelization info
     --------------------
     sticks:   dense  smooth     PW     G-vecs:    dense   smooth      PW
     Min         112      45     13                26050     6593    1031
     Max         113      46     14                26081     6610    1042
     Sum        4173    1675    485               964493   244189   38297



     bravais-lattice index     =            0
     lattice parameter (alat)  =       1.8897  a.u.
     unit-cell volume          =    4413.9180 (a.u.)^3
     number of atoms/cell      =           12
     number of atomic types    =            2
     number of electrons       =       150.00
     number of Kohn-Sham states=           90
     kinetic-energy cutoff     =      55.1240  Ry
     charge density cutoff     =     551.2396  Ry
     convergence threshold     =      1.0E-05
     mixing beta               =       0.1000
     number of iterations used =           10  plain     mixing
     Exchange-correlation= BEEF-VDW
                           (   1   4  43  14   2   0   0)

     celldm(1)=   1.889726  celldm(2)=   0.000000  celldm(3)=   0.000000
     celldm(4)=   0.000000  celldm(5)=   0.000000  celldm(6)=   0.000000

     crystal axes: (cart. coord. in units of alat)
               a(1) = (   5.221429   0.000000   0.000000 )  
               a(2) = (  -2.610715   5.115026   0.000000 )  
               a(3) = (   0.000000   0.000000  24.490098 )  

     reciprocal axes: (cart. coord. in units 2 pi/alat)
               b(1) = (  0.191518  0.097751 -0.000000 )  
               b(2) = (  0.000000  0.195502  0.000000 )  
               b(3) = (  0.000000 -0.000000  0.040833 )  


     PseudoPot. # 1 for Cr read from file:
     ../pseudo/Cr.pbe-spn-rrkjus_psl.1.0.0.UPF
     MD5 check sum: 793d051e4f89dd1e3290b85340a92c0a
     Pseudo is Ultrasoft + core correction, Zval = 14.0
     Generated using "atomic" code by A. Dal Corso v.6.2.2
     Using radial grid of 1183 points,  6 beta functions with: 
                l(1) =   0
                l(2) =   0
                l(3) =   1
                l(4) =   1
                l(5) =   2
                l(6) =   2
     Q(r) pseudized with 0 coefficients 


     PseudoPot. # 2 for Ag read from file:
     ../pseudo/Ag.pbe-n-rrkjus_psl.1.0.0.UPF
     MD5 check sum: d841cbfac2b0861aec33b46768a516bf
     Pseudo is Ultrasoft + core correction, Zval = 11.0
     Generated using "atomic" code by A. Dal Corso v.6.2.2
     Using radial grid of 1237 points,  6 beta functions with: 
                l(1) =   0
                l(2) =   0
                l(3) =   1
                l(4) =   1
                l(5) =   2
                l(6) =   2
     Q(r) pseudized with 0 coefficients 


     atomic species   valence    mass     pseudopotential
        Cr            14.00    51.99610     Cr( 1.00)
        Ag            11.00   107.86820     Ag( 1.00)

     No symmetry found



   Cartesian axes

     site n.     atom                  positions (alat units)
         1           Cr  tau(   1) = (   0.0000000   0.0000000  10.0000000  )
         2           Cr  tau(   2) = (   2.6107146   0.0000000  10.0000000  )
         3           Ag  tau(   3) = (   1.3053573   2.5575132  10.0000000  )
         4           Ag  tau(   4) = (  -1.3053573   2.5575132  10.0000000  )
         5           Cr  tau(   5) = (   2.6107146   1.3325114  12.2450488  )
         6           Cr  tau(   6) = (   0.0000000   1.3325114  12.2450488  )
         7           Ag  tau(   7) = (  -1.3053573   3.8900246  12.2450488  )
         8           Ag  tau(   8) = (   1.3053573   3.8900246  12.2450488  )
         9           Cr  tau(   9) = (  -0.0004089   1.8396794  14.0094613  )
        10           Cr  tau(  10) = (   2.6103067   1.8396727  14.0092681  )
        11           Ag  tau(  11) = (   1.3040572   4.5665381  14.9535846  )
        12           Ag  tau(  12) = (  -1.3052453   4.5665759  14.9535942  )

     number of k points=    74  Fermi-Dirac smearing, width (Ry)=  0.0100
                       cart. coord. in units 2pi/alat
        k(    1) = (   0.0000000   0.0000000   0.0000000), wk =   0.0138889
        k(    2) = (   0.0000000   0.0162919   0.0000000), wk =   0.0277778
        k(    3) = (   0.0000000   0.0325837   0.0000000), wk =   0.0277778
        k(    4) = (   0.0000000   0.0488756   0.0000000), wk =   0.0277778
        k(    5) = (   0.0000000   0.0651675   0.0000000), wk =   0.0277778
        k(    6) = (   0.0000000   0.0814593   0.0000000), wk =   0.0277778
        k(    7) = (   0.0000000  -0.0977512   0.0000000), wk =   0.0138889
        k(    8) = (   0.0159599   0.0081459   0.0000000), wk =   0.0277778
        k(    9) = (   0.0159599   0.0244378   0.0000000), wk =   0.0277778
        k(   10) = (   0.0159599   0.0407297   0.0000000), wk =   0.0277778
        k(   11) = (   0.0159599   0.0570215   0.0000000), wk =   0.0277778
        k(   12) = (   0.0159599   0.0733134   0.0000000), wk =   0.0277778
        k(   13) = (   0.0159599   0.0896053   0.0000000), wk =   0.0277778
        k(   14) = (   0.0159599  -0.0896053   0.0000000), wk =   0.0277778
        k(   15) = (   0.0159599  -0.0733134   0.0000000), wk =   0.0277778
        k(   16) = (   0.0159599  -0.0570215   0.0000000), wk =   0.0277778
        k(   17) = (   0.0159599  -0.0407297   0.0000000), wk =   0.0277778
        k(   18) = (   0.0159599  -0.0244378   0.0000000), wk =   0.0277778
        k(   19) = (   0.0159599  -0.0081459   0.0000000), wk =   0.0277778
        k(   20) = (   0.0319197   0.0162919   0.0000000), wk =   0.0277778
        k(   21) = (   0.0319197   0.0325837   0.0000000), wk =   0.0277778
        k(   22) = (   0.0319197   0.0488756   0.0000000), wk =   0.0277778
        k(   23) = (   0.0319197   0.0651675   0.0000000), wk =   0.0277778
        k(   24) = (   0.0319197   0.0814593   0.0000000), wk =   0.0277778
        k(   25) = (   0.0319197   0.0977512   0.0000000), wk =   0.0277778
        k(   26) = (   0.0319197  -0.0814593   0.0000000), wk =   0.0277778
        k(   27) = (   0.0319197  -0.0651675   0.0000000), wk =   0.0277778
        k(   28) = (   0.0319197  -0.0488756   0.0000000), wk =   0.0277778
        k(   29) = (   0.0319197  -0.0325837   0.0000000), wk =   0.0277778
        k(   30) = (   0.0319197  -0.0162919   0.0000000), wk =   0.0277778
        k(   31) = (   0.0319197   0.0000000   0.0000000), wk =   0.0277778
        k(   32) = (   0.0478796   0.0244378   0.0000000), wk =   0.0277778
        k(   33) = (   0.0478796   0.0407297   0.0000000), wk =   0.0277778
        k(   34) = (   0.0478796   0.0570215   0.0000000), wk =   0.0277778
        k(   35) = (   0.0478796   0.0733134   0.0000000), wk =   0.0277778
        k(   36) = (   0.0478796   0.0896053   0.0000000), wk =   0.0277778
        k(   37) = (   0.0478796   0.1058972   0.0000000), wk =   0.0277778
        k(   38) = (   0.0478796  -0.0733134   0.0000000), wk =   0.0277778
        k(   39) = (   0.0478796  -0.0570215   0.0000000), wk =   0.0277778
        k(   40) = (   0.0478796  -0.0407297   0.0000000), wk =   0.0277778
        k(   41) = (   0.0478796  -0.0244378   0.0000000), wk =   0.0277778
        k(   42) = (   0.0478796  -0.0081459   0.0000000), wk =   0.0277778
        k(   43) = (   0.0478796   0.0081459   0.0000000), wk =   0.0277778
        k(   44) = (   0.0638395   0.0325837   0.0000000), wk =   0.0277778
        k(   45) = (   0.0638395   0.0488756   0.0000000), wk =   0.0277778
        k(   46) = (   0.0638395   0.0651675   0.0000000), wk =   0.0277778
        k(   47) = (   0.0638395   0.0814594   0.0000000), wk =   0.0277778
        k(   48) = (   0.0638395   0.0977512   0.0000000), wk =   0.0277778
        k(   49) = (   0.0638395   0.1140431   0.0000000), wk =   0.0277778
        k(   50) = (   0.0638395  -0.0651675   0.0000000), wk =   0.0277778
        k(   51) = (   0.0638395  -0.0488756   0.0000000), wk =   0.0277778
        k(   52) = (   0.0638395  -0.0325837   0.0000000), wk =   0.0277778
        k(   53) = (   0.0638395  -0.0162919   0.0000000), wk =   0.0277778
        k(   54) = (   0.0638395   0.0000000   0.0000000), wk =   0.0277778
        k(   55) = (   0.0638395   0.0162919   0.0000000), wk =   0.0277778
        k(   56) = (   0.0797994   0.0407297   0.0000000), wk =   0.0277778
        k(   57) = (   0.0797994   0.0570215   0.0000000), wk =   0.0277778
        k(   58) = (   0.0797994   0.0733134   0.0000000), wk =   0.0277778
        k(   59) = (   0.0797994   0.0896053   0.0000000), wk =   0.0277778
        k(   60) = (   0.0797994   0.1058972   0.0000000), wk =   0.0277778
        k(   61) = (   0.0797994   0.1221890   0.0000000), wk =   0.0277778
        k(   62) = (   0.0797994  -0.0570215   0.0000000), wk =   0.0277778
        k(   63) = (   0.0797994  -0.0407297   0.0000000), wk =   0.0277778
        k(   64) = (   0.0797994  -0.0244378   0.0000000), wk =   0.0277778
        k(   65) = (   0.0797994  -0.0081459   0.0000000), wk =   0.0277778
        k(   66) = (   0.0797994   0.0081459   0.0000000), wk =   0.0277778
        k(   67) = (   0.0797994   0.0244378   0.0000000), wk =   0.0277778
        k(   68) = (  -0.0957592  -0.0488756   0.0000000), wk =   0.0138889
        k(   69) = (  -0.0957592  -0.0325837   0.0000000), wk =   0.0277778
        k(   70) = (  -0.0957592  -0.0162919   0.0000000), wk =   0.0277778
        k(   71) = (  -0.0957592  -0.0000000   0.0000000), wk =   0.0277778
        k(   72) = (  -0.0957592   0.0162919   0.0000000), wk =   0.0277778
        k(   73) = (  -0.0957592   0.0325837   0.0000000), wk =   0.0277778
        k(   74) = (  -0.0957592  -0.1466268   0.0000000), wk =   0.0138889

     Dense  grid:   964493 G-vectors     FFT dimensions: (  75,  81, 360)

     Smooth grid:   244189 G-vectors     FFT dimensions: (  48,  54, 225)

     Estimated max dynamical RAM per process >     189.18 MB

     Estimated total dynamical RAM >       6.84 GB

     Initial potential from superposition of free atoms

     starting charge  149.99297, renormalised to  150.00000

     negative rho (up, down):  3.351E-03 0.000E+00


     %%%%%%%%%%%%%%%%%%%%%%%%%%%%%%%%%%%%%%%%%%%%%%%%%%%%%%%%%%%%%%%%%%%%%%%%
     %                                                                      %
     % You are using vdW-DF, which was implemented by the Thonhauser group. %
     % Please cite the following two papers that made this development      %
     % possible and the two reviews that describe the various versions:     %
     %                                                                      %
     %   T. Thonhauser et al., PRL 115, 136402 (2015).                      %
     %   T. Thonhauser et al., PRB 76, 125112 (2007).                       %
     %   K. Berland et al., Rep. Prog. Phys. 78, 066501 (2015).             %
     %   D.C. Langreth et al., J. Phys.: Condens. Matter 21, 084203 (2009). %
     %                                                                      %
     %                                                                      %
     % If you are calculating the stress with vdW-DF, please also cite:     %
     %                                                                      %
     %   R. Sabatini et al., J. Phys.: Condens. Matter 24, 424209 (2012).   %
     %                                                                      %
     %%%%%%%%%%%%%%%%%%%%%%%%%%%%%%%%%%%%%%%%%%%%%%%%%%%%%%%%%%%%%%%%%%%%%%%%



     Adding external electric field

     Computed dipole along edir(3) : 
        Dipole               -0.0004 Ry au,         -0.0011 Debye
        Dipole field         -0.0000 Ry au, 

        Potential amp.        0.0001 Ry
        Total length         45.1226 bohr

     Starting wfcs are  114 randomized atomic wfcs

     total cpu time spent up to now is       91.2 secs

     Self-consistent Calculation

     iteration #  1     ecut=    55.12 Ry     beta= 0.10
     Davidson diagonalization with overlap
     ethr =  1.00E-02,  avg # of iterations =  2.1

     negative rho (up, down):  3.244E-03 0.000E+00

     Adding external electric field

     Computed dipole along edir(3) : 
        Dipole               -1.8751 Ry au,         -4.7659 Debye
        Dipole field         -0.0053 Ry au, 

        Potential amp.        0.4818 Ry
        Total length         45.1226 bohr


     total cpu time spent up to now is      274.3 secs

     total energy              =   -1561.65852212 Ry
     estimated scf accuracy    <      18.03563251 Ry

     iteration #  2     ecut=    55.12 Ry     beta= 0.10
     Davidson diagonalization with overlap
     ethr =  1.00E-02,  avg # of iterations =  4.0

     negative rho (up, down):  3.267E-03 0.000E+00

     Adding external electric field

     Computed dipole along edir(3) : 
        Dipole                0.3244 Ry au,          0.8245 Debye
        Dipole field          0.0009 Ry au, 

        Potential amp.       -0.0833 Ry
        Total length         45.1226 bohr


     total cpu time spent up to now is      465.7 secs

     total energy              =   -1562.24856807 Ry
     estimated scf accuracy    <     155.61570273 Ry

     iteration #  3     ecut=    55.12 Ry     beta= 0.10
     Davidson diagonalization with overlap
     ethr =  1.00E-02,  avg # of iterations =  1.2

     negative rho (up, down):  3.319E-03 0.000E+00

     Adding external electric field

     Computed dipole along edir(3) : 
        Dipole                0.1281 Ry au,          0.3255 Debye
        Dipole field          0.0004 Ry au, 

        Potential amp.       -0.0329 Ry
        Total length         45.1226 bohr


     total cpu time spent up to now is      615.6 secs

     total energy              =   -1564.02990509 Ry
     estimated scf accuracy    <       5.77560700 Ry

     iteration #  4     ecut=    55.12 Ry     beta= 0.10
     Davidson diagonalization with overlap
     ethr =  3.85E-03,  avg # of iterations =  1.4

     negative rho (up, down):  3.298E-03 0.000E+00

     Adding external electric field

     Computed dipole along edir(3) : 
        Dipole                0.2772 Ry au,          0.7047 Debye
        Dipole field          0.0008 Ry au, 

        Potential amp.       -0.0712 Ry
        Total length         45.1226 bohr


     total cpu time spent up to now is      768.7 secs

     total energy              =   -1564.26146028 Ry
     estimated scf accuracy    <       0.92706352 Ry

     iteration #  5     ecut=    55.12 Ry     beta= 0.10
     Davidson diagonalization with overlap
     ethr =  6.18E-04,  avg # of iterations =  3.4

     negative rho (up, down):  3.266E-03 0.000E+00

     Adding external electric field

     Computed dipole along edir(3) : 
        Dipole               -0.0740 Ry au,         -0.1880 Debye
        Dipole field         -0.0002 Ry au, 

        Potential amp.        0.0190 Ry
        Total length         45.1226 bohr


     total cpu time spent up to now is      948.3 secs

     total energy              =   -1564.16956931 Ry
     estimated scf accuracy    <       1.77807493 Ry

     iteration #  6     ecut=    55.12 Ry     beta= 0.10
     Davidson diagonalization with overlap
     ethr =  6.18E-04,  avg # of iterations =  1.6

     negative rho (up, down):  3.426E-03 0.000E+00

     Adding external electric field

     Computed dipole along edir(3) : 
        Dipole                0.0186 Ry au,          0.0474 Debye
        Dipole field          0.0001 Ry au, 

        Potential amp.       -0.0048 Ry
        Total length         45.1226 bohr


     total cpu time spent up to now is     1105.1 secs

     total energy              =   -1564.25573876 Ry
     estimated scf accuracy    <      11.73885015 Ry

     iteration #  7     ecut=    55.12 Ry     beta= 0.10
     Davidson diagonalization with overlap
     ethr =  6.18E-04,  avg # of iterations =  1.1

     negative rho (up, down):  3.560E-03 0.000E+00

     Adding external electric field

     Computed dipole along edir(3) : 
        Dipole                0.0502 Ry au,          0.1277 Debye
        Dipole field          0.0001 Ry au, 

        Potential amp.       -0.0129 Ry
        Total length         45.1226 bohr


     total cpu time spent up to now is     1255.6 secs

     total energy              =   -1564.27348235 Ry
     estimated scf accuracy    <       2.07068118 Ry

     iteration #  8     ecut=    55.12 Ry     beta= 0.10
     Davidson diagonalization with overlap
     ethr =  6.18E-04,  avg # of iterations =  1.0

     negative rho (up, down):  3.665E-03 0.000E+00

     Adding external electric field

     Computed dipole along edir(3) : 
        Dipole                0.0716 Ry au,          0.1821 Debye
        Dipole field          0.0002 Ry au, 

        Potential amp.       -0.0184 Ry
        Total length         45.1226 bohr


     total cpu time spent up to now is     1400.8 secs

     total energy              =   -1564.27434734 Ry
     estimated scf accuracy    <       0.42858105 Ry

     iteration #  9     ecut=    55.12 Ry     beta= 0.10
     Davidson diagonalization with overlap
     ethr =  2.86E-04,  avg # of iterations =  1.2

     negative rho (up, down):  3.958E-03 0.000E+00

     Adding external electric field

     Computed dipole along edir(3) : 
        Dipole                0.0816 Ry au,          0.2074 Debye
        Dipole field          0.0002 Ry au, 

        Potential amp.       -0.0210 Ry
        Total length         45.1226 bohr


     total cpu time spent up to now is     1549.1 secs

     total energy              =   -1564.27925372 Ry
     estimated scf accuracy    <       0.01996983 Ry

     iteration # 10     ecut=    55.12 Ry     beta= 0.10
     Davidson diagonalization with overlap
     c_bands:  1 eigenvalues not converged
     c_bands:  1 eigenvalues not converged
     c_bands:  1 eigenvalues not converged
     c_bands:  1 eigenvalues not converged
     c_bands:  1 eigenvalues not converged
     c_bands:  1 eigenvalues not converged
     c_bands:  1 eigenvalues not converged
     c_bands:  2 eigenvalues not converged
     c_bands:  2 eigenvalues not converged
     c_bands:  2 eigenvalues not converged
     ethr =  1.33E-05,  avg # of iterations = 15.3

     negative rho (up, down):  3.881E-03 0.000E+00

     Adding external electric field

     Computed dipole along edir(3) : 
        Dipole                0.0288 Ry au,          0.0731 Debye
        Dipole field          0.0001 Ry au, 

        Potential amp.       -0.0074 Ry
        Total length         45.1226 bohr


     total cpu time spent up to now is     1858.9 secs

     total energy              =   -1564.28379790 Ry
     estimated scf accuracy    <       0.01559959 Ry

     iteration # 11     ecut=    55.12 Ry     beta= 0.10
     Davidson diagonalization with overlap
     ethr =  1.04E-05,  avg # of iterations =  2.2

     negative rho (up, down):  3.887E-03 0.000E+00

     Adding external electric field

     Computed dipole along edir(3) : 
        Dipole                0.0273 Ry au,          0.0694 Debye
        Dipole field          0.0001 Ry au, 

        Potential amp.       -0.0070 Ry
        Total length         45.1226 bohr


     total cpu time spent up to now is     2037.5 secs

     total energy              =   -1564.28419474 Ry
     estimated scf accuracy    <       0.13688580 Ry

     iteration # 12     ecut=    55.12 Ry     beta= 0.10
     Davidson diagonalization with overlap
     ethr =  1.04E-05,  avg # of iterations =  1.0

     negative rho (up, down):  3.903E-03 0.000E+00

     Adding external electric field

     Computed dipole along edir(3) : 
        Dipole                0.0529 Ry au,          0.1345 Debye
        Dipole field          0.0002 Ry au, 

        Potential amp.       -0.0136 Ry
        Total length         45.1226 bohr


     total cpu time spent up to now is     2190.3 secs

     total energy              =   -1564.28302601 Ry
     estimated scf accuracy    <       0.04935850 Ry

     iteration # 13     ecut=    55.12 Ry     beta= 0.10
     Davidson diagonalization with overlap
     ethr =  1.04E-05,  avg # of iterations =  1.2

     negative rho (up, down):  3.856E-03 0.000E+00

     Adding external electric field

     Computed dipole along edir(3) : 
        Dipole                0.0427 Ry au,          0.1085 Debye
        Dipole field          0.0001 Ry au, 

        Potential amp.       -0.0110 Ry
        Total length         45.1226 bohr


     total cpu time spent up to now is     2346.7 secs

     total energy              =   -1564.28395194 Ry
     estimated scf accuracy    <       0.01358034 Ry

     iteration # 14     ecut=    55.12 Ry     beta= 0.10
     Davidson diagonalization with overlap
     ethr =  9.05E-06,  avg # of iterations =  1.1

     negative rho (up, down):  3.843E-03 0.000E+00

     Adding external electric field

     Computed dipole along edir(3) : 
        Dipole                0.0453 Ry au,          0.1151 Debye
        Dipole field          0.0001 Ry au, 

        Potential amp.       -0.0116 Ry
        Total length         45.1226 bohr


     total cpu time spent up to now is     2497.5 secs

     total energy              =   -1564.28421084 Ry
     estimated scf accuracy    <       0.00079252 Ry

     iteration # 15     ecut=    55.12 Ry     beta= 0.10
     Davidson diagonalization with overlap
     c_bands:  1 eigenvalues not converged
     ethr =  5.28E-07,  avg # of iterations =  3.5

     negative rho (up, down):  3.780E-03 0.000E+00

     Adding external electric field

     Computed dipole along edir(3) : 
        Dipole                0.0452 Ry au,          0.1150 Debye
        Dipole field          0.0001 Ry au, 

        Potential amp.       -0.0116 Ry
        Total length         45.1226 bohr


     total cpu time spent up to now is     2666.4 secs

     total energy              =   -1564.28425914 Ry
     estimated scf accuracy    <       0.00022217 Ry

     iteration # 16     ecut=    55.12 Ry     beta= 0.10
     Davidson diagonalization with overlap
     c_bands:  1 eigenvalues not converged
     c_bands:  1 eigenvalues not converged
     ethr =  1.48E-07,  avg # of iterations =  3.4

     negative rho (up, down):  3.699E-03 0.000E+00

     Adding external electric field

     Computed dipole along edir(3) : 
        Dipole                0.0450 Ry au,          0.1144 Debye
        Dipole field          0.0001 Ry au, 

        Potential amp.       -0.0116 Ry
        Total length         45.1226 bohr


     total cpu time spent up to now is     2841.1 secs

     total energy              =   -1564.28427350 Ry
     estimated scf accuracy    <       0.00018572 Ry

     iteration # 17     ecut=    55.12 Ry     beta= 0.10
     Davidson diagonalization with overlap
     ethr =  1.24E-07,  avg # of iterations =  1.7

     negative rho (up, down):  3.650E-03 0.000E+00

     Adding external electric field

     Computed dipole along edir(3) : 
        Dipole                0.0463 Ry au,          0.1178 Debye
        Dipole field          0.0001 Ry au, 

        Potential amp.       -0.0119 Ry
        Total length         45.1226 bohr


     total cpu time spent up to now is     3009.7 secs

     total energy              =   -1564.28428560 Ry
     estimated scf accuracy    <       0.00003268 Ry

     iteration # 18     ecut=    55.12 Ry     beta= 0.10
     Davidson diagonalization with overlap
     c_bands:  1 eigenvalues not converged
     ethr =  2.18E-08,  avg # of iterations =  7.5

     negative rho (up, down):  3.578E-03 0.000E+00

     Adding external electric field

     Computed dipole along edir(3) : 
        Dipole                0.0467 Ry au,          0.1186 Debye
        Dipole field          0.0001 Ry au, 

        Potential amp.       -0.0120 Ry
        Total length         45.1226 bohr


     total cpu time spent up to now is     3232.1 secs

     total energy              =   -1564.28429511 Ry
     estimated scf accuracy    <       0.00001133 Ry

     iteration # 19     ecut=    55.12 Ry     beta= 0.10
     Davidson diagonalization with overlap
     ethr =  7.55E-09,  avg # of iterations =  2.3

     negative rho (up, down):  3.211E-03 0.000E+00

     Adding external electric field

     Computed dipole along edir(3) : 
        Dipole                0.0444 Ry au,          0.1128 Debye
        Dipole field          0.0001 Ry au, 

        Potential amp.       -0.0114 Ry
        Total length         45.1226 bohr


     total cpu time spent up to now is     3405.7 secs

     End of self-consistent calculation

          k = 0.0000 0.0000 0.0000 ( 30485 PWs)   bands (ev):

   -71.4415 -71.3935 -71.0564 -71.0116 -70.6375 -70.5944 -43.8715 -43.8237
   -42.6823 -42.6021 -42.5585 -42.4613 -42.4285 -42.3902 -42.3409 -42.3019
   -42.2868 -42.1869 -42.1286 -42.1016 -42.0928 -41.8472 -40.9918 -40.9631
    -6.4365  -5.7977  -5.7784  -5.6429  -5.6080  -5.3724  -5.3247  -5.1991
    -5.1185  -4.7433  -4.6931  -4.6827  -4.6311  -4.5277  -4.3545  -4.0447
    -4.0436  -4.0047  -3.9125  -3.6886  -3.6131  -3.4509  -3.4351  -3.3482
    -3.3237  -3.2416  -3.0259  -2.8709  -2.7759  -2.7218  -2.5362  -2.3085
    -1.9945  -1.9356  -1.6506  -1.4234  -1.2408  -1.0973  -1.0199  -0.9637
    -0.6697  -0.5372  -0.1996  -0.1548  -0.0248  -0.0006   0.4114   0.4270
     0.6986   0.7643   1.0396   1.0754   1.1413   1.1600   1.3643   1.5544
     1.6098   1.6971   1.7619   1.8389   1.8693   1.8912   2.0611   2.1653
     2.2277   2.6008

          k = 0.0000 0.0163 0.0000 ( 30491 PWs)   bands (ev):

   -71.4415 -71.3935 -71.0564 -71.0116 -70.6375 -70.5944 -43.8715 -43.8237
   -42.6824 -42.6022 -42.5585 -42.4613 -42.4285 -42.3902 -42.3409 -42.3019
   -42.2868 -42.1869 -42.1286 -42.1016 -42.0928 -41.8473 -40.9918 -40.9631
    -6.4028  -5.7892  -5.7672  -5.6350  -5.5943  -5.3707  -5.3118  -5.1925
    -5.1078  -4.7398  -4.6830  -4.6826  -4.6297  -4.5162  -4.3401  -4.0451
    -4.0356  -3.9859  -3.8950  -3.6957  -3.6223  -3.4487  -3.4322  -3.3485
    -3.3207  -3.2384  -3.0230  -2.8717  -2.7763  -2.7209  -2.5363  -2.3212
    -1.9969  -1.9602  -1.6851  -1.4538  -1.2469  -1.1075  -1.0370  -0.9697
    -0.7501  -0.4976  -0.2303  -0.1561  -0.0867  -0.0441   0.2544   0.4577
     0.6760   0.7882   0.8860   1.0081   1.1438   1.1440   1.3551   1.5021
     1.5141   1.6984   1.7644   1.8301   1.8663   1.8874   2.1056   2.1624
     2.3926   2.6428

          k = 0.0000 0.0326 0.0000 ( 30509 PWs)   bands (ev):

   -71.4415 -71.3935 -71.0564 -71.0116 -70.6375 -70.5944 -43.8715 -43.8237
   -42.6824 -42.6023 -42.5586 -42.4613 -42.4285 -42.3902 -42.3410 -42.3020
   -42.2868 -42.1870 -42.1286 -42.1017 -42.0929 -41.8473 -40.9918 -40.9631
    -6.3106  -5.7667  -5.7304  -5.6131  -5.5549  -5.3662  -5.2750  -5.1724
    -5.0778  -4.7311  -4.6849  -4.6535  -4.6255  -4.4838  -4.2974  -4.0461
    -4.0319  -3.9149  -3.8472  -3.7104  -3.6427  -3.4430  -3.4303  -3.3487
    -3.3122  -3.2291  -3.0148  -2.8745  -2.7772  -2.7185  -2.5367  -2.3568
    -2.0797  -2.0028  -1.7607  -1.5536  -1.2674  -1.1344  -1.0918  -0.9653
    -0.8984  -0.4632  -0.3289  -0.1828  -0.1596  -0.1538  -0.0898   0.4362
     0.6001   0.6981   0.7861   0.8910   0.9475   1.1644   1.3305   1.3320
     1.4144   1.7016   1.7719   1.8061   1.8429   1.8895   2.1544   2.3247
     2.6921   2.7186

          k = 0.0000 0.0489 0.0000 ( 30513 PWs)   bands (ev):

   -71.4415 -71.3935 -71.0564 -71.0116 -70.6375 -70.5944 -43.8715 -43.8237
   -42.6825 -42.6024 -42.5586 -42.4614 -42.4285 -42.3902 -42.3412 -42.3021
   -42.2868 -42.1870 -42.1287 -42.1017 -42.0930 -41.8473 -40.9917 -40.9631
    -6.1911  -5.7380  -5.6654  -5.5711  -5.4959  -5.3595  -5.2201  -5.1397
    -5.0347  -4.7197  -4.6894  -4.6189  -4.6132  -4.4378  -4.2312  -4.0474
    -4.0302  -3.8438  -3.7819  -3.6861  -3.6624  -3.4356  -3.4353  -3.3445
    -3.3001  -3.2169  -3.0034  -2.8801  -2.7782  -2.7153  -2.5371  -2.4075
    -2.3774  -2.0099  -1.8265  -1.6890  -1.3093  -1.1678  -1.1542  -1.0579
    -0.9479  -0.4766  -0.4343  -0.4339  -0.3182  -0.2792  -0.1645   0.2691
     0.4499   0.4890   0.6439   0.8388   0.8487   1.2049   1.2215   1.2973
     1.4186   1.7053   1.7577   1.7734   1.7820   1.9692   2.1438   2.5167
     2.8257   3.0423

          k = 0.0000 0.0652 0.0000 ( 30541 PWs)   bands (ev):

   -71.4415 -71.3935 -71.0563 -71.0116 -70.6375 -70.5944 -43.8715 -43.8237
   -42.6825 -42.6026 -42.5587 -42.4614 -42.4285 -42.3902 -42.3414 -42.3022
   -42.2868 -42.1870 -42.1287 -42.1017 -42.0931 -41.8473 -40.9917 -40.9631
    -6.0911  -5.7112  -5.6153  -5.4687  -5.4303  -5.3481  -5.1488  -5.0926
    -4.9892  -4.7084  -4.6953  -4.6121  -4.5722  -4.4030  -4.1548  -4.0485
    -4.0184  -3.8521  -3.7208  -3.6703  -3.5840  -3.4452  -3.4285  -3.3209
    -3.2874  -3.2083  -2.9920  -2.8884  -2.7789  -2.7668  -2.7123  -2.5376
    -2.4601  -2.0162  -1.9366  -1.7698  -1.3756  -1.2272  -1.1969  -1.1953
    -0.9256  -0.6992  -0.5623  -0.5613  -0.4562  -0.3545  -0.1694   0.1025
     0.2074   0.3855   0.4551   0.8259   0.8692   1.1731   1.2471   1.2646
     1.4592   1.6783   1.7077   1.7416   1.7918   2.0881   2.1331   2.6376
     2.9739   3.4207

          k = 0.0000 0.0815 0.0000 ( 30549 PWs)   bands (ev):

   -71.4415 -71.3935 -71.0563 -71.0116 -70.6375 -70.5944 -43.8716 -43.8237
   -42.6826 -42.6027 -42.5587 -42.4615 -42.4285 -42.3902 -42.3415 -42.3023
   -42.2869 -42.1870 -42.1288 -42.1017 -42.0931 -41.8473 -40.9917 -40.9631
    -6.0352  -5.6926  -5.5963  -5.3844  -5.3775  -5.3124  -5.0948  -4.9661
    -4.9550  -4.7002  -4.6996  -4.6076  -4.5417  -4.4328  -4.0920  -4.0491
    -3.9976  -3.8561  -3.7021  -3.6401  -3.5657  -3.4601  -3.4235  -3.3182
    -3.2779  -3.2055  -2.9836  -2.9750  -2.8966  -2.7794  -2.7101  -2.5380
    -2.4992  -2.1088  -2.0204  -1.7876  -1.4450  -1.3155  -1.2860  -1.2173
    -0.9128  -0.8534  -0.6993  -0.6612  -0.4889  -0.3838  -0.1731  -0.0841
     0.1468   0.3180   0.3224   0.8175   0.8739   1.1513   1.2408   1.2770
     1.5079   1.6254   1.7056   1.7221   1.7986   2.1254   2.1971   2.7056
     3.0566   3.3067

          k = 0.0000-0.0978 0.0000 ( 30606 PWs)   bands (ev):

   -71.4415 -71.3935 -71.0563 -71.0116 -70.6375 -70.5944 -43.8716 -43.8238
   -42.6826 -42.6027 -42.5588 -42.4615 -42.4285 -42.3902 -42.3415 -42.3024
   -42.2869 -42.1871 -42.1288 -42.1017 -42.0931 -41.8473 -40.9917 -40.9632
    -6.0183  -5.6860  -5.5910  -5.3720  -5.3571  -5.2862  -5.0818  -4.9426
    -4.8332  -4.7012  -4.6971  -4.6061  -4.5304  -4.5045  -4.0677  -4.0494
    -3.9952  -3.8151  -3.7025  -3.6373  -3.6153  -3.4718  -3.4218  -3.3586
    -3.2744  -3.2055  -2.9806  -2.9409  -2.9001  -2.7795  -2.7094  -2.5381
    -2.5135  -2.2120  -2.0218  -1.7893  -1.4758  -1.3599  -1.3174  -1.2251
    -0.9137  -0.9016  -0.7357  -0.7024  -0.4910  -0.3926  -0.1745  -0.1593
     0.1336   0.2758   0.2951   0.8142   0.8724   1.1446   1.2321   1.2875
     1.5301   1.6072   1.7012   1.7184   1.8011   2.1226   2.2432   2.7277
     3.0106   3.3774

          k = 0.0160 0.0081 0.0000 ( 30502 PWs)   bands (ev):

   -71.4407 -71.3943 -71.0556 -71.0124 -70.6368 -70.5952 -43.8707 -43.8245
   -42.6757 -42.6014 -42.5592 -42.4552 -42.4279 -42.3909 -42.3402 -42.3026
   -42.2937 -42.1812 -42.1280 -42.1079 -42.0934 -41.8532 -40.9913 -40.9636
    -6.3762  -5.7715  -5.7441  -5.5902  -5.5814  -5.3220  -5.3066  -5.1862
    -5.0932  -4.7564  -4.7053  -4.6496  -4.6013  -4.5100  -4.3527  -4.0348
    -4.0241  -3.9956  -3.9095  -3.7112  -3.6234  -3.4826  -3.4388  -3.3875
    -3.3035  -3.2500  -3.0685  -2.8916  -2.8106  -2.7669  -2.5711  -2.2980
    -2.0508  -1.9152  -1.6450  -1.4150  -1.2536  -1.1207  -0.9954  -0.9324
    -0.7727  -0.5361  -0.2304  -0.1726  -0.1210  -0.0139   0.3681   0.4422
     0.6901   0.7660   0.9348   1.0189   1.1222   1.1290   1.3064   1.4778
     1.6012   1.6475   1.6953   1.8418   1.8618   2.0082   2.0881   2.1674
     2.2262   2.6654

          k = 0.0160 0.0244 0.0000 ( 30494 PWs)   bands (ev):

   -71.4407 -71.3943 -71.0556 -71.0124 -70.6368 -70.5952 -43.8707 -43.8245
   -42.6758 -42.6015 -42.5593 -42.4553 -42.4279 -42.3909 -42.3403 -42.3026
   -42.2937 -42.1813 -42.1280 -42.1079 -42.0934 -41.8532 -40.9913 -40.9636
    -6.3102  -5.7552  -5.7216  -5.5755  -5.5547  -5.3183  -5.2833  -5.1726
    -5.0725  -4.7523  -4.6902  -4.6434  -4.5993  -4.4887  -4.3256  -4.0291
    -4.0249  -3.9490  -3.8768  -3.7251  -3.6388  -3.4818  -3.4362  -3.3831
    -3.2993  -3.2434  -3.0640  -2.8937  -2.8117  -2.7652  -2.5713  -2.3230
    -2.0554  -1.9734  -1.7031  -1.4828  -1.2668  -1.1397  -1.0301  -0.9366
    -0.8695  -0.5313  -0.2560  -0.2131  -0.1914  -0.1001   0.0901   0.4857
     0.6295   0.7638   0.7990   0.9110   1.0159   1.1184   1.2864   1.3701
     1.5541   1.6117   1.6467   1.8278   1.8555   2.0375   2.1619   2.1632
     2.5360   2.7184

          k = 0.0160 0.0407 0.0000 ( 30522 PWs)   bands (ev):

   -71.4407 -71.3943 -71.0556 -71.0124 -70.6368 -70.5952 -43.8707 -43.8245
   -42.6758 -42.6016 -42.5594 -42.4553 -42.4278 -42.3909 -42.3404 -42.3027
   -42.2937 -42.1813 -42.1280 -42.1079 -42.0935 -41.8532 -40.9913 -40.9636
    -6.1975  -5.7284  -5.6691  -5.5493  -5.5045  -5.3137  -5.2381  -5.1458
    -5.0350  -4.7460  -4.6722  -4.6265  -4.5942  -4.4500  -4.2738  -4.0280
    -4.0261  -3.8632  -3.8200  -3.7374  -3.6592  -3.4817  -3.4385  -3.3754
    -3.2876  -3.2320  -3.0568  -2.8982  -2.8137  -2.7626  -2.5719  -2.3681
    -2.1729  -2.0626  -1.7708  -1.6060  -1.2989  -1.1715  -1.0926  -1.0041
    -0.9231  -0.6032  -0.3534  -0.3096  -0.2276  -0.2023  -0.1870   0.3727
     0.5294   0.6034   0.7114   0.8319   0.8573   1.0723   1.2594   1.3137
     1.5024   1.5774   1.6312   1.7945   1.8022   2.0276   2.1605   2.4001
     2.7999   2.9525

          k = 0.0160 0.0570 0.0000 ( 30515 PWs)   bands (ev):

   -71.4407 -71.3943 -71.0556 -71.0124 -70.6368 -70.5952 -43.8707 -43.8246
   -42.6759 -42.6018 -42.5594 -42.4554 -42.4278 -42.3909 -42.3406 -42.3028
   -42.2937 -42.1813 -42.1281 -42.1079 -42.0936 -41.8532 -40.9913 -40.9636
    -6.0811  -5.6996  -5.5926  -5.4951  -5.4399  -5.3079  -5.1763  -5.1067
    -4.9890  -4.7400  -4.6641  -4.5998  -4.5829  -4.4071  -4.2057  -4.0273
    -4.0220  -3.8405  -3.7552  -3.6746  -3.6679  -3.4858  -3.4466  -3.3656
    -3.2604  -3.2209  -3.0506  -2.9054  -2.8188  -2.7613  -2.5755  -2.5199
    -2.4227  -2.0703  -1.8405  -1.7169  -1.3597  -1.2075  -1.1611  -1.1332
    -0.8995  -0.7846  -0.4533  -0.4517  -0.3693  -0.3091  -0.2231   0.2215
     0.3248   0.3886   0.5353   0.8207   0.8694   1.0401   1.2326   1.3179
     1.4966   1.5644   1.6386   1.7300   1.7653   2.0694   2.1765   2.5594
     2.9325   3.2143

          k = 0.0160 0.0733 0.0000 ( 30542 PWs)   bands (ev):

   -71.4407 -71.3943 -71.0556 -71.0124 -70.6368 -70.5952 -43.8707 -43.8246
   -42.6759 -42.6019 -42.5594 -42.4554 -42.4278 -42.3909 -42.3408 -42.3029
   -42.2937 -42.1814 -42.1282 -42.1079 -42.0937 -41.8532 -40.9913 -40.9636
    -6.0030  -5.6762  -5.5531  -5.3834  -5.3775  -5.2989  -5.1058  -5.0306
    -4.9475  -4.7362  -4.6611  -4.5873  -4.5578  -4.3991  -4.1390  -4.0281
    -4.0019  -3.8657  -3.7111  -3.6678  -3.5785  -3.5013  -3.4591  -3.3588
    -3.2307  -3.2150  -3.0536  -2.9140  -2.8739  -2.7890  -2.7498  -2.5713
    -2.4718  -2.0768  -1.9843  -1.7512  -1.4436  -1.2580  -1.2467  -1.2110
    -0.9445  -0.8772  -0.6080  -0.5854  -0.4441  -0.3516  -0.2277   0.0412
     0.1997   0.2462   0.4199   0.8117   0.8850   1.0235   1.2119   1.3359
     1.5184   1.5445   1.6535   1.6960   1.7316   2.0901   2.2413   2.6575
     3.0812   3.2494

          k = 0.0160 0.0896 0.0000 ( 30592 PWs)   bands (ev):

   -71.4407 -71.3943 -71.0556 -71.0124 -70.6368 -70.5952 -43.8708 -43.8246
   -42.6760 -42.6020 -42.5595 -42.4555 -42.4278 -42.3909 -42.3409 -42.3030
   -42.2937 -42.1814 -42.1282 -42.1079 -42.0937 -41.8532 -40.9913 -40.9636
    -5.9685  -5.6632  -5.5408  -5.3383  -5.3269  -5.2789  -5.0766  -4.9233
    -4.8616  -4.7347  -4.6592  -4.5835  -4.5394  -4.4697  -4.0972  -4.0285
    -3.9910  -3.8405  -3.7068  -3.6334  -3.6118  -3.5085  -3.4744  -3.3708
    -3.2837  -3.2138  -3.0472  -2.9200  -2.8694  -2.8053  -2.7580  -2.5714
    -2.5004  -2.1399  -2.0806  -1.7527  -1.5082  -1.3229  -1.3052  -1.2345
    -1.0197  -0.8726  -0.6917  -0.6651  -0.4572  -0.3702  -0.2339  -0.0859
     0.1625   0.1705   0.3660   0.8059   0.8853   1.0158   1.1994   1.3478
     1.5272   1.5406   1.6648   1.6864   1.7143   2.0910   2.3048   2.7054
     3.0445   3.2618

          k = 0.0160-0.0896 0.0000 ( 30592 PWs)   bands (ev):

   -71.4407 -71.3943 -71.0556 -71.0124 -70.6368 -70.5952 -43.8708 -43.8246
   -42.6760 -42.6020 -42.5595 -42.4555 -42.4278 -42.3909 -42.3409 -42.3030
   -42.2937 -42.1814 -42.1282 -42.1079 -42.0937 -41.8532 -40.9913 -40.9636
    -5.9685  -5.6632  -5.5408  -5.3383  -5.3269  -5.2789  -5.0766  -4.9233
    -4.8616  -4.7347  -4.6592  -4.5834  -4.5394  -4.4697  -4.0971  -4.0285
    -3.9910  -3.8405  -3.7068  -3.6334  -3.6118  -3.5086  -3.4744  -3.3708
    -3.2837  -3.2138  -3.0472  -2.9200  -2.8694  -2.8053  -2.7580  -2.5714
    -2.5004  -2.1399  -2.0806  -1.7527  -1.5082  -1.3229  -1.3052  -1.2344
    -1.0196  -0.8726  -0.6917  -0.6651  -0.4572  -0.3702  -0.2339  -0.0859
     0.1625   0.1705   0.3660   0.8059   0.8853   1.0158   1.1994   1.3477
     1.5272   1.5406   1.6648   1.6864   1.7143   2.0910   2.3046   2.7054
     3.0446   3.2608

          k = 0.0160-0.0733 0.0000 ( 30542 PWs)   bands (ev):

   -71.4407 -71.3943 -71.0556 -71.0124 -70.6368 -70.5952 -43.8707 -43.8246
   -42.6759 -42.6019 -42.5594 -42.4554 -42.4278 -42.3909 -42.3408 -42.3029
   -42.2937 -42.1814 -42.1282 -42.1079 -42.0937 -41.8532 -40.9913 -40.9636
    -6.0030  -5.6762  -5.5531  -5.3834  -5.3775  -5.2989  -5.1058  -5.0306
    -4.9475  -4.7362  -4.6611  -4.5872  -4.5579  -4.3991  -4.1389  -4.0281
    -4.0019  -3.8657  -3.7111  -3.6678  -3.5785  -3.5013  -3.4591  -3.3588
    -3.2307  -3.2150  -3.0536  -2.9140  -2.8739  -2.7890  -2.7499  -2.5713
    -2.4718  -2.0768  -1.9843  -1.7512  -1.4436  -1.2581  -1.2467  -1.2110
    -0.9445  -0.8772  -0.6081  -0.5854  -0.4441  -0.3516  -0.2277   0.0412
     0.1997   0.2462   0.4199   0.8117   0.8850   1.0235   1.2119   1.3359
     1.5185   1.5445   1.6535   1.6960   1.7316   2.0901   2.2412   2.6575
     3.0783   3.2492

          k = 0.0160-0.0570 0.0000 ( 30515 PWs)   bands (ev):

   -71.4407 -71.3943 -71.0556 -71.0124 -70.6368 -70.5952 -43.8707 -43.8246
   -42.6759 -42.6018 -42.5594 -42.4554 -42.4278 -42.3909 -42.3406 -42.3028
   -42.2937 -42.1813 -42.1281 -42.1079 -42.0936 -41.8532 -40.9913 -40.9636
    -6.0811  -5.6996  -5.5926  -5.4951  -5.4399  -5.3079  -5.1763  -5.1067
    -4.9890  -4.7400  -4.6642  -4.5996  -4.5830  -4.4071  -4.2057  -4.0273
    -4.0220  -3.8405  -3.7552  -3.6746  -3.6680  -3.4858  -3.4466  -3.3655
    -3.2604  -3.2209  -3.0506  -2.9054  -2.8188  -2.7613  -2.5755  -2.5199
    -2.4227  -2.0703  -1.8405  -1.7169  -1.3597  -1.2075  -1.1611  -1.1332
    -0.8995  -0.7846  -0.4532  -0.4517  -0.3694  -0.3092  -0.2231   0.2216
     0.3247   0.3887   0.5352   0.8207   0.8694   1.0401   1.2327   1.3178
     1.4965   1.5644   1.6386   1.7300   1.7653   2.0695   2.1763   2.5595
     2.9324   3.2146

          k = 0.0160-0.0407 0.0000 ( 30522 PWs)   bands (ev):

   -71.4407 -71.3943 -71.0556 -71.0124 -70.6368 -70.5952 -43.8707 -43.8245
   -42.6758 -42.6016 -42.5594 -42.4553 -42.4278 -42.3909 -42.3404 -42.3027
   -42.2937 -42.1813 -42.1280 -42.1079 -42.0935 -41.8532 -40.9913 -40.9636
    -6.1975  -5.7284  -5.6692  -5.5493  -5.5045  -5.3137  -5.2381  -5.1458
    -5.0350  -4.7460  -4.6723  -4.6265  -4.5943  -4.4500  -4.2738  -4.0280
    -4.0261  -3.8632  -3.8200  -3.7374  -3.6592  -3.4817  -3.4385  -3.3754
    -3.2876  -3.2320  -3.0568  -2.8982  -2.8137  -2.7626  -2.5719  -2.3681
    -2.1729  -2.0626  -1.7708  -1.6060  -1.2989  -1.1715  -1.0926  -1.0041
    -0.9232  -0.6032  -0.3536  -0.3096  -0.2259  -0.2039  -0.1870   0.3728
     0.5295   0.6034   0.7114   0.8319   0.8573   1.0723   1.2594   1.3137
     1.5022   1.5773   1.6312   1.7945   1.8022   2.0277   2.1604   2.4002
     2.7999   2.9520

          k = 0.0160-0.0244 0.0000 ( 30494 PWs)   bands (ev):

   -71.4407 -71.3943 -71.0556 -71.0124 -70.6368 -70.5952 -43.8707 -43.8245
   -42.6758 -42.6015 -42.5593 -42.4553 -42.4279 -42.3909 -42.3403 -42.3026
   -42.2937 -42.1813 -42.1280 -42.1079 -42.0934 -41.8532 -40.9913 -40.9636
    -6.3102  -5.7552  -5.7216  -5.5755  -5.5547  -5.3183  -5.2833  -5.1726
    -5.0725  -4.7523  -4.6902  -4.6434  -4.5994  -4.4887  -4.3256  -4.0291
    -4.0249  -3.9490  -3.8768  -3.7252  -3.6388  -3.4818  -3.4362  -3.3831
    -3.2993  -3.2434  -3.0640  -2.8937  -2.8117  -2.7652  -2.5713  -2.3230
    -2.0554  -1.9733  -1.7031  -1.4828  -1.2668  -1.1397  -1.0301  -0.9366
    -0.8695  -0.5313  -0.2570  -0.2115  -0.1915  -0.1008   0.0902   0.4858
     0.6296   0.7638   0.7989   0.9111   1.0159   1.1182   1.2863   1.3704
     1.5539   1.6116   1.6468   1.8278   1.8555   2.0376   2.1619   2.1632
     2.5361   2.7184

          k = 0.0160-0.0081 0.0000 ( 30502 PWs)   bands (ev):

   -71.4407 -71.3943 -71.0556 -71.0124 -70.6368 -70.5952 -43.8707 -43.8245
   -42.6757 -42.6014 -42.5592 -42.4552 -42.4279 -42.3909 -42.3402 -42.3026
   -42.2937 -42.1812 -42.1280 -42.1079 -42.0934 -41.8532 -40.9913 -40.9636
    -6.3762  -5.7715  -5.7441  -5.5902  -5.5814  -5.3220  -5.3066  -5.1862
    -5.0932  -4.7564  -4.7053  -4.6496  -4.6013  -4.5100  -4.3527  -4.0348
    -4.0241  -3.9956  -3.9095  -3.7112  -3.6234  -3.4826  -3.4388  -3.3875
    -3.3035  -3.2500  -3.0685  -2.8916  -2.8106  -2.7669  -2.5711  -2.2980
    -2.0508  -1.9152  -1.6450  -1.4150  -1.2536  -1.1207  -0.9953  -0.9324
    -0.7727  -0.5360  -0.2306  -0.1721  -0.1211  -0.0142   0.3681   0.4423
     0.6902   0.7659   0.9348   1.0191   1.1222   1.1286   1.3064   1.4780
     1.6012   1.6474   1.6953   1.8417   1.8617   2.0082   2.0881   2.1674
     2.2262   2.6654

          k = 0.0319 0.0163 0.0000 ( 30496 PWs)   bands (ev):

   -71.4383 -71.3967 -71.0534 -71.0146 -70.6346 -70.5973 -43.8683 -43.8269
   -42.6563 -42.5993 -42.5615 -42.4376 -42.4260 -42.3928 -42.3383 -42.3138
   -42.3046 -42.1646 -42.1264 -42.1260 -42.0952 -41.8704 -40.9898 -40.9650
    -6.1983  -5.6938  -5.6452  -5.5032  -5.4362  -5.2576  -5.1711  -5.1454
    -5.0199  -4.7877  -4.7103  -4.5785  -4.5280  -4.4621  -4.3489  -4.0312
    -3.9644  -3.9610  -3.9028  -3.7891  -3.6514  -3.5256  -3.5025  -3.4531
    -3.2756  -3.2714  -3.1774  -2.9548  -2.9095  -2.8849  -2.6667  -2.2675
    -2.2199  -1.8615  -1.6257  -1.4011  -1.3111  -1.2163  -1.0395  -0.9356
    -0.8330  -0.6195  -0.3831  -0.3386  -0.1077   0.0036   0.2073   0.4973
     0.6046   0.7707   0.7866   0.8914   0.9466   1.0528   1.1898   1.3034
     1.4806   1.4869   1.7240   1.8033   1.9213   2.0350   2.1867   2.2304
     2.3519   2.8394

          k = 0.0319 0.0326 0.0000 ( 30528 PWs)   bands (ev):

   -71.4383 -71.3967 -71.0534 -71.0146 -70.6346 -70.5973 -43.8683 -43.8269
   -42.6564 -42.5994 -42.5615 -42.4376 -42.4260 -42.3928 -42.3384 -42.3138
   -42.3047 -42.1646 -42.1264 -42.1260 -42.0953 -41.8704 -40.9898 -40.9651
    -6.1018  -5.6713  -5.6139  -5.4648  -5.4162  -5.2279  -5.1692  -5.1238
    -4.9907  -4.7844  -4.6887  -4.5729  -4.5255  -4.4363  -4.3173  -4.0272
    -3.9654  -3.8942  -3.8611  -3.8102  -3.6675  -3.5355  -3.4928  -3.4551
    -3.2661  -3.2622  -3.1698  -2.9590  -2.9149  -2.8781  -2.6671  -2.3035
    -2.2281  -1.9676  -1.6832  -1.5073  -1.3472  -1.2407  -1.1018  -0.9769
    -0.8333  -0.7664  -0.3778  -0.3388  -0.2000  -0.0741  -0.0727   0.4712
     0.5328   0.6785   0.7128   0.8021   0.8508   0.9658   1.1861   1.2574
     1.3884   1.4712   1.7360   1.7486   1.9265   2.1109   2.1731   2.3136
     2.6726   2.8580

          k = 0.0319 0.0489 0.0000 ( 30514 PWs)   bands (ev):

   -71.4383 -71.3967 -71.0534 -71.0146 -70.6346 -70.5973 -43.8683 -43.8269
   -42.6564 -42.5995 -42.5616 -42.4377 -42.4259 -42.3928 -42.3386 -42.3138
   -42.3047 -42.1646 -42.1264 -42.1260 -42.0954 -41.8704 -40.9898 -40.9650
    -5.9755  -5.6423  -5.5462  -5.4061  -5.3918  -5.1857  -5.1594  -5.0905
    -4.9480  -4.7803  -4.6613  -4.5679  -4.5189  -4.3999  -4.2697  -4.0218
    -3.9665  -3.8493  -3.8045  -3.7929  -3.6836  -3.5428  -3.4866  -3.4622
    -3.2542  -3.2451  -3.1529  -2.9659  -2.9223  -2.8709  -2.6676  -2.3570
    -2.2376  -2.2367  -1.7303  -1.6201  -1.4365  -1.2688  -1.1735  -1.0463
    -0.9506  -0.8096  -0.3739  -0.3658  -0.2940  -0.2743  -0.2015   0.3384
     0.3523   0.4866   0.5701   0.7925   0.8622   0.9008   1.1985   1.2029
     1.3616   1.4682   1.6615   1.6878   1.8574   2.0506   2.3281   2.3960
     2.8566   2.9599

          k = 0.0319 0.0652 0.0000 ( 30533 PWs)   bands (ev):

   -71.4383 -71.3967 -71.0534 -71.0146 -70.6346 -70.5973 -43.8684 -43.8270
   -42.6565 -42.5996 -42.5616 -42.4378 -42.4259 -42.3928 -42.3387 -42.3138
   -42.3048 -42.1647 -42.1264 -42.1261 -42.0955 -41.8704 -40.9898 -40.9650
    -5.8736  -5.6151  -5.4444  -5.3546  -5.3393  -5.1680  -5.1085  -5.0380
    -4.9026  -4.7773  -4.6375  -4.5629  -4.5105  -4.3744  -4.2173  -4.0038
    -3.9675  -3.8921  -3.7506  -3.7080  -3.6909  -3.5491  -3.4865  -3.4734
    -3.2454  -3.2307  -3.1216  -2.9743  -2.9358  -2.8664  -2.6688  -2.5570
    -2.4138  -2.2480  -1.8210  -1.6712  -1.5767  -1.2917  -1.2294  -1.1302
    -1.0925  -0.7775  -0.4777  -0.4400  -0.3695  -0.3349  -0.3046   0.1134
     0.2174   0.3222   0.4880   0.7797   0.8646   0.8952   1.1595   1.2133
     1.3664   1.4639   1.6335   1.6345   1.8038   2.0325   2.3733   2.5343
     2.8601   3.1192

          k = 0.0319 0.0815 0.0000 ( 30546 PWs)   bands (ev):

   -71.4383 -71.3967 -71.0534 -71.0146 -70.6346 -70.5973 -43.8684 -43.8270
   -42.6565 -42.5998 -42.5616 -42.4378 -42.4259 -42.3928 -42.3389 -42.3138
   -42.3049 -42.1647 -42.1265 -42.1261 -42.0955 -41.8704 -40.9898 -40.9650
    -5.8214  -5.5961  -5.3964  -5.2839  -5.2838  -5.1633  -5.0619  -4.9056
    -4.8682  -4.7762  -4.6224  -4.5574  -4.5040  -4.4071  -4.1761  -3.9802
    -3.9681  -3.9097  -3.7262  -3.6738  -3.6721  -3.5776  -3.4887  -3.4870
    -3.2470  -3.2413  -3.1419  -2.9816  -2.9325  -2.8739  -2.6870  -2.6626
    -2.4567  -2.2572  -1.9704  -1.7004  -1.6664  -1.3062  -1.2632  -1.2219
    -1.1726  -0.7609  -0.5760  -0.5686  -0.3753  -0.3549  -0.3309  -0.0344
     0.0746   0.2738   0.4337   0.7671   0.8487   0.9045   1.1408   1.2162
     1.3775   1.4615   1.6007   1.6243   1.7898   2.0228   2.4279   2.6125
     2.8680   3.1327

          k = 0.0319 0.0978 0.0000 ( 30524 PWs)   bands (ev):

   -71.4383 -71.3967 -71.0534 -71.0146 -70.6346 -70.5973 -43.8684 -43.8270
   -42.6565 -42.5998 -42.5616 -42.4378 -42.4259 -42.3928 -42.3389 -42.3138
   -42.3049 -42.1647 -42.1265 -42.1261 -42.0955 -41.8704 -40.9898 -40.9650
    -5.8065  -5.5893  -5.3881  -5.2618  -5.2549  -5.1617  -5.0493  -4.8557
    -4.7774  -4.7762  -4.6169  -4.5551  -4.5015  -4.4758  -4.1605  -3.9858
    -3.9684  -3.8778  -3.7240  -3.6756  -3.6573  -3.6164  -3.4950  -3.4869
    -3.2773  -3.2404  -3.1653  -2.9846  -2.9171  -2.8799  -2.6729  -2.6494
    -2.4724  -2.2611  -2.0611  -1.7477  -1.6582  -1.3104  -1.2747  -1.2669
    -1.1990  -0.7652  -0.6123  -0.5981  -0.3773  -0.3625  -0.3361  -0.0841
     0.0175   0.2628   0.4144   0.7618   0.8445   0.9048   1.1347   1.2164
     1.3824   1.4615   1.5903   1.6188   1.7932   2.0186   2.4555   2.6381
     2.8722   3.0736

          k = 0.0319-0.0815 0.0000 ( 30546 PWs)   bands (ev):

   -71.4383 -71.3967 -71.0534 -71.0146 -70.6346 -70.5973 -43.8684 -43.8270
   -42.6565 -42.5998 -42.5616 -42.4378 -42.4259 -42.3928 -42.3389 -42.3138
   -42.3049 -42.1647 -42.1265 -42.1261 -42.0955 -41.8704 -40.9898 -40.9650
    -5.8214  -5.5961  -5.3964  -5.2839  -5.2838  -5.1633  -5.0619  -4.9056
    -4.8682  -4.7762  -4.6224  -4.5573  -4.5040  -4.4071  -4.1761  -3.9802
    -3.9681  -3.9097  -3.7262  -3.6738  -3.6721  -3.5776  -3.4887  -3.4870
    -3.2470  -3.2413  -3.1420  -2.9816  -2.9325  -2.8739  -2.6870  -2.6626
    -2.4567  -2.2572  -1.9704  -1.7004  -1.6664  -1.3063  -1.2632  -1.2219
    -1.1724  -0.7608  -0.5760  -0.5687  -0.3756  -0.3549  -0.3305  -0.0344
     0.0746   0.2738   0.4337   0.7671   0.8488   0.9044   1.1408   1.2161
     1.3775   1.4614   1.6007   1.6243   1.7898   2.0229   2.4279   2.6125
     2.8680   3.1346

          k = 0.0319-0.0652 0.0000 ( 30533 PWs)   bands (ev):

   -71.4383 -71.3967 -71.0534 -71.0146 -70.6346 -70.5973 -43.8684 -43.8270
   -42.6565 -42.5996 -42.5616 -42.4378 -42.4259 -42.3928 -42.3387 -42.3138
   -42.3048 -42.1647 -42.1264 -42.1261 -42.0955 -41.8704 -40.9898 -40.9650
    -5.8736  -5.6151  -5.4444  -5.3545  -5.3392  -5.1680  -5.1085  -5.0380
    -4.9026  -4.7773  -4.6376  -4.5628  -4.5106  -4.3744  -4.2173  -4.0038
    -3.9675  -3.8922  -3.7506  -3.7080  -3.6909  -3.5491  -3.4864  -3.4734
    -3.2453  -3.2307  -3.1216  -2.9743  -2.9358  -2.8664  -2.6688  -2.5570
    -2.4138  -2.2480  -1.8210  -1.6712  -1.5768  -1.2919  -1.2294  -1.1302
    -1.0924  -0.7774  -0.4777  -0.4402  -0.3700  -0.3349  -0.3041   0.1136
     0.2175   0.3222   0.4879   0.7797   0.8647   0.8952   1.1596   1.2131
     1.3665   1.4638   1.6335   1.6345   1.8038   2.0326   2.3732   2.5344
     2.8601   3.1194

          k = 0.0319-0.0489 0.0000 ( 30514 PWs)   bands (ev):

   -71.4383 -71.3967 -71.0534 -71.0146 -70.6346 -70.5973 -43.8683 -43.8269
   -42.6564 -42.5995 -42.5616 -42.4377 -42.4259 -42.3928 -42.3386 -42.3138
   -42.3047 -42.1646 -42.1264 -42.1260 -42.0954 -41.8704 -40.9898 -40.9650
    -5.9755  -5.6423  -5.5462  -5.4061  -5.3918  -5.1857  -5.1594  -5.0905
    -4.9480  -4.7803  -4.6613  -4.5678  -4.5189  -4.3999  -4.2697  -4.0217
    -3.9665  -3.8494  -3.8045  -3.7929  -3.6836  -3.5429  -3.4865  -3.4622
    -3.2542  -3.2451  -3.1529  -2.9659  -2.9224  -2.8709  -2.6676  -2.3570
    -2.2376  -2.2367  -1.7303  -1.6202  -1.4365  -1.2689  -1.1735  -1.0463
    -0.9505  -0.8096  -0.3740  -0.3658  -0.2939  -0.2743  -0.2015   0.3386
     0.3524   0.4866   0.5699   0.7925   0.8622   0.9010   1.1986   1.2026
     1.3617   1.4681   1.6614   1.6878   1.8574   2.0507   2.3281   2.3960
     2.8565   2.9600

          k = 0.0319-0.0326 0.0000 ( 30528 PWs)   bands (ev):

   -71.4383 -71.3967 -71.0534 -71.0146 -70.6346 -70.5973 -43.8683 -43.8269
   -42.6564 -42.5994 -42.5615 -42.4376 -42.4260 -42.3928 -42.3384 -42.3138
   -42.3047 -42.1646 -42.1264 -42.1260 -42.0953 -41.8704 -40.9898 -40.9651
    -6.1018  -5.6713  -5.6139  -5.4648  -5.4162  -5.2279  -5.1691  -5.1238
    -4.9907  -4.7844  -4.6887  -4.5728  -4.5255  -4.4363  -4.3173  -4.0272
    -3.9654  -3.8942  -3.8611  -3.8102  -3.6675  -3.5355  -3.4927  -3.4551
    -3.2660  -3.2622  -3.1698  -2.9590  -2.9149  -2.8781  -2.6671  -2.3035
    -2.2281  -1.9675  -1.6832  -1.5073  -1.3472  -1.2408  -1.1019  -0.9768
    -0.8334  -0.7663  -0.3780  -0.3389  -0.1997  -0.0744  -0.0727   0.4713
     0.5330   0.6786   0.7127   0.8020   0.8508   0.9659   1.1859   1.2573
     1.3884   1.4712   1.7359   1.7486   1.9264   2.1109   2.1731   2.3137
     2.6726   2.8580

          k = 0.0319-0.0163 0.0000 ( 30496 PWs)   bands (ev):

   -71.4383 -71.3967 -71.0534 -71.0146 -70.6346 -70.5973 -43.8683 -43.8269
   -42.6563 -42.5993 -42.5615 -42.4376 -42.4260 -42.3928 -42.3383 -42.3138
   -42.3046 -42.1646 -42.1264 -42.1260 -42.0952 -41.8704 -40.9898 -40.9650
    -6.1983  -5.6938  -5.6452  -5.5032  -5.4362  -5.2576  -5.1711  -5.1454
    -5.0199  -4.7877  -4.7103  -4.5785  -4.5280  -4.4621  -4.3489  -4.0312
    -3.9644  -3.9611  -3.9028  -3.7891  -3.6514  -3.5256  -3.5025  -3.4531
    -3.2756  -3.2714  -3.1774  -2.9548  -2.9095  -2.8849  -2.6667  -2.2675
    -2.2199  -1.8615  -1.6257  -1.4011  -1.3111  -1.2163  -1.0395  -0.9355
    -0.8330  -0.6195  -0.3831  -0.3386  -0.1074   0.0033   0.2073   0.4975
     0.6048   0.7707   0.7865   0.8915   0.9466   1.0526   1.1898   1.3032
     1.4807   1.4869   1.7240   1.8033   1.9213   2.0351   2.1866   2.2304
     2.3519   2.8395

          k = 0.0319 0.0000 0.0000 ( 30513 PWs)   bands (ev):

   -71.4383 -71.3967 -71.0534 -71.0146 -70.6346 -70.5973 -43.8683 -43.8269
   -42.6563 -42.5992 -42.5615 -42.4376 -42.4260 -42.3928 -42.3383 -42.3138
   -42.3045 -42.1645 -42.1264 -42.1260 -42.0952 -41.8704 -40.9898 -40.9650
    -6.2334  -5.7024  -5.6543  -5.5163  -5.4443  -5.2677  -5.1705  -5.1537
    -5.0302  -4.7889  -4.7185  -4.5813  -4.5283  -4.4712  -4.3598  -4.0352
    -3.9820  -3.9640  -3.9181  -3.7820  -3.6444  -3.5154  -3.5126  -3.4535
    -3.2791  -3.2740  -3.1798  -2.9534  -2.9069  -2.8882  -2.6666  -2.2558
    -2.2160  -1.8411  -1.6006  -1.3595  -1.3020  -1.2071  -1.0150  -0.9282
    -0.8235  -0.5665  -0.3854  -0.3414  -0.0733   0.0456   0.3768   0.4674
     0.6346   0.7689   0.8167   0.9584   0.9972   1.0551   1.2421   1.3170
     1.4578   1.4882   1.7440   1.8159   1.8813   1.9875   2.1331   2.1977
     2.3982   2.8331

          k = 0.0479 0.0244 0.0000 ( 30503 PWs)   bands (ev):

   -71.4345 -71.4006 -71.0498 -71.0182 -70.6312 -70.6008 -43.8645 -43.8308
   -42.6254 -42.5959 -42.5650 -42.4229 -42.4094 -42.3958 -42.3457 -42.3353
   -42.3078 -42.1551 -42.1380 -42.1234 -42.0981 -41.8978 -40.9875 -40.9673
    -5.9151  -5.5693  -5.4923  -5.3779  -5.2195  -5.1540  -5.0805  -4.9247
    -4.9140  -4.8243  -4.7097  -4.4791  -4.4233  -4.4024  -4.3430  -4.0933
    -3.9380  -3.9095  -3.8618  -3.8470  -3.6892  -3.6817  -3.5229  -3.4840
    -3.3824  -3.3247  -3.2159  -3.0926  -3.0587  -2.9744  -2.7992  -2.5066
    -2.2148  -1.7986  -1.7169  -1.5862  -1.3990  -1.3399  -1.2319  -0.8804
    -0.8708  -0.6909  -0.5053  -0.4401  -0.0565   0.0325   0.0708   0.4680
     0.5000   0.6259   0.6742   0.7626   0.7923   0.8753   0.9914   1.2895
     1.2932   1.3891   1.5966   1.8608   1.9431   2.0933   2.2274   2.3270
     2.5828   2.6076

          k = 0.0479 0.0407 0.0000 ( 30515 PWs)   bands (ev):

   -71.4345 -71.4006 -71.0498 -71.0182 -70.6312 -70.6008 -43.8646 -43.8308
   -42.6254 -42.5960 -42.5651 -42.4229 -42.4095 -42.3959 -42.3457 -42.3354
   -42.3078 -42.1551 -42.1380 -42.1234 -42.0982 -41.8978 -40.9875 -40.9673
    -5.7893  -5.5425  -5.4631  -5.3305  -5.1774  -5.1434  -5.0565  -4.9198
    -4.8832  -4.8183  -4.6885  -4.4767  -4.4169  -4.3810  -4.3229  -4.0875
    -3.9325  -3.8821  -3.8487  -3.8108  -3.7005  -3.6940  -3.5224  -3.4920
    -3.3840  -3.3142  -3.1931  -3.0995  -3.0652  -2.9471  -2.7983  -2.5179
    -2.2645  -1.9604  -1.8284  -1.6200  -1.5181  -1.3744  -1.2546  -0.9952
    -0.9199  -0.6726  -0.5032  -0.4358  -0.1925  -0.1351  -0.0181   0.2761
     0.4528   0.5294   0.5764   0.7347   0.8221   0.8478   0.9444   1.2239
     1.2698   1.3850   1.5878   1.8126   2.0278   2.1379   2.1661   2.5045
     2.5592   2.7753

          k = 0.0479 0.0570 0.0000 ( 30510 PWs)   bands (ev):

   -71.4345 -71.4006 -71.0498 -71.0182 -70.6312 -70.6008 -43.8646 -43.8308
   -42.6255 -42.5961 -42.5651 -42.4229 -42.4095 -42.3958 -42.3457 -42.3355
   -42.3079 -42.1551 -42.1380 -42.1235 -42.0982 -41.8978 -40.9875 -40.9673
    -5.6578  -5.5131  -5.3941  -5.2663  -5.1485  -5.1063  -5.0184  -4.9124
    -4.8519  -4.8045  -4.6652  -4.4828  -4.4044  -4.3583  -4.2980  -4.0818
    -3.9472  -3.8745  -3.8115  -3.7626  -3.7078  -3.7051  -3.5227  -3.5029
    -3.3870  -3.3045  -3.1623  -3.1090  -3.0734  -2.9054  -2.7951  -2.5344
    -2.3232  -2.2489  -1.9855  -1.6668  -1.5809  -1.3924  -1.2794  -1.0908
    -0.9964  -0.6325  -0.5067  -0.4694  -0.3464  -0.2331  -0.1289   0.0272
     0.3737   0.4695   0.4923   0.7162   0.8023   0.8650   0.9305   1.1475
     1.2737   1.3773   1.5459   1.7005   1.9567   2.0216   2.3396   2.5457
     2.5741   3.1793

          k = 0.0479 0.0733 0.0000 ( 30504 PWs)   bands (ev):

   -71.4345 -71.4006 -71.0498 -71.0182 -70.6312 -70.6008 -43.8646 -43.8308
   -42.6255 -42.5962 -42.5651 -42.4229 -42.4096 -42.3958 -42.3457 -42.3356
   -42.3079 -42.1551 -42.1380 -42.1235 -42.0983 -41.8978 -40.9875 -40.9673
    -5.5851  -5.4888  -5.2852  -5.1996  -5.1426  -5.0480  -4.9486  -4.8916
    -4.8355  -4.7832  -4.6429  -4.4928  -4.3937  -4.3635  -4.2756  -4.0745
    -3.9598  -3.8740  -3.7788  -3.7626  -3.7049  -3.6847  -3.5319  -3.5148
    -3.3903  -3.2986  -3.1574  -3.1085  -3.0812  -2.8850  -2.7933  -2.5535
    -2.4662  -2.3749  -2.1292  -1.7808  -1.5675  -1.3883  -1.3028  -1.1624
    -1.0856  -0.6187  -0.5324  -0.5124  -0.4407  -0.3430  -0.1853  -0.1387
     0.2708   0.4209   0.4630   0.6863   0.7792   0.8813   0.9276   1.1000
     1.2850   1.3678   1.5128   1.6250   1.8965   1.9917   2.4003   2.5684
     2.6501   3.1996

          k = 0.0479 0.0896 0.0000 ( 30491 PWs)   bands (ev):

   -71.4345 -71.4006 -71.0498 -71.0182 -70.6312 -70.6008 -43.8646 -43.8308
   -42.6255 -42.5963 -42.5651 -42.4229 -42.4096 -42.3958 -42.3457 -42.3357
   -42.3080 -42.1551 -42.1380 -42.1235 -42.0983 -41.8978 -40.9875 -40.9673
    -5.5605  -5.4752  -5.2178  -5.1545  -5.1441  -5.0202  -4.9167  -4.8299
    -4.7716  -4.7674  -4.6245  -4.5019  -4.4285  -4.3883  -4.2626  -4.0723
    -3.9446  -3.8745  -3.7892  -3.7649  -3.6947  -3.6572  -3.5577  -3.5237
    -3.3918  -3.2964  -3.1947  -3.0954  -3.0860  -2.9290  -2.8011  -2.5676
    -2.4563  -2.4052  -2.2106  -1.9024  -1.5410  -1.3736  -1.3191  -1.2063
    -1.1605  -0.6625  -0.5749  -0.4983  -0.4838  -0.3822  -0.2136  -0.2086
     0.2019   0.4048   0.4444   0.6644   0.7740   0.8792   0.9266   1.0846
     1.2933   1.3617   1.4958   1.5799   1.8932   1.9717   2.4180   2.6001
     2.7018   3.1478

          k = 0.0479 0.1059 0.0000 ( 30491 PWs)   bands (ev):

   -71.4345 -71.4006 -71.0498 -71.0182 -70.6312 -70.6008 -43.8646 -43.8308
   -42.6255 -42.5963 -42.5651 -42.4229 -42.4096 -42.3958 -42.3457 -42.3357
   -42.3080 -42.1551 -42.1380 -42.1235 -42.0983 -41.8978 -40.9875 -40.9673
    -5.5605  -5.4752  -5.2178  -5.1545  -5.1441  -5.0202  -4.9167  -4.8299
    -4.7716  -4.7674  -4.6245  -4.5019  -4.4285  -4.3883  -4.2626  -4.0723
    -3.9446  -3.8745  -3.7892  -3.7649  -3.6947  -3.6572  -3.5577  -3.5237
    -3.3918  -3.2964  -3.1947  -3.0954  -3.0860  -2.9290  -2.8011  -2.5676
    -2.4563  -2.4052  -2.2106  -1.9024  -1.5410  -1.3736  -1.3191  -1.2062
    -1.1605  -0.6625  -0.5748  -0.4983  -0.4840  -0.3822  -0.2135  -0.2086
     0.2019   0.4048   0.4444   0.6644   0.7740   0.8792   0.9265   1.0847
     1.2933   1.3616   1.4958   1.5799   1.8932   1.9717   2.4180   2.6001
     2.7018   3.1477

          k = 0.0479-0.0733 0.0000 ( 30504 PWs)   bands (ev):

   -71.4345 -71.4006 -71.0498 -71.0182 -70.6312 -70.6008 -43.8646 -43.8308
   -42.6255 -42.5962 -42.5651 -42.4229 -42.4096 -42.3958 -42.3457 -42.3356
   -42.3079 -42.1551 -42.1380 -42.1235 -42.0983 -41.8978 -40.9875 -40.9673
    -5.5851  -5.4888  -5.2852  -5.1996  -5.1426  -5.0480  -4.9486  -4.8916
    -4.8355  -4.7832  -4.6429  -4.4928  -4.3937  -4.3635  -4.2755  -4.0745
    -3.9598  -3.8740  -3.7787  -3.7627  -3.7049  -3.6846  -3.5319  -3.5148
    -3.3903  -3.2986  -3.1575  -3.1085  -3.0812  -2.8851  -2.7933  -2.5535
    -2.4662  -2.3749  -2.1293  -1.7808  -1.5676  -1.3884  -1.3027  -1.1623
    -1.0855  -0.6186  -0.5323  -0.5127  -0.4407  -0.3430  -0.1852  -0.1387
     0.2709   0.4209   0.4630   0.6863   0.7792   0.8813   0.9275   1.1001
     1.2851   1.3676   1.5128   1.6250   1.8966   1.9918   2.4004   2.5684
     2.6500   3.1996

          k = 0.0479-0.0570 0.0000 ( 30510 PWs)   bands (ev):

   -71.4345 -71.4006 -71.0498 -71.0182 -70.6312 -70.6008 -43.8646 -43.8308
   -42.6255 -42.5961 -42.5651 -42.4229 -42.4095 -42.3958 -42.3457 -42.3355
   -42.3079 -42.1551 -42.1380 -42.1235 -42.0982 -41.8978 -40.9875 -40.9673
    -5.6578  -5.5131  -5.3941  -5.2663  -5.1485  -5.1063  -5.0184  -4.9124
    -4.8519  -4.8045  -4.6652  -4.4828  -4.4044  -4.3583  -4.2980  -4.0817
    -3.9472  -3.8745  -3.8115  -3.7626  -3.7078  -3.7051  -3.5227  -3.5029
    -3.3870  -3.3045  -3.1623  -3.1090  -3.0734  -2.9054  -2.7950  -2.5344
    -2.3231  -2.2489  -1.9856  -1.6668  -1.5810  -1.3925  -1.2793  -1.0908
    -0.9963  -0.6325  -0.5069  -0.4693  -0.3464  -0.2332  -0.1288   0.0273
     0.3738   0.4695   0.4923   0.7162   0.8022   0.8650   0.9304   1.1475
     1.2737   1.3772   1.5459   1.7005   1.9567   2.0216   2.3397   2.5457
     2.5740   3.1795

          k = 0.0479-0.0407 0.0000 ( 30515 PWs)   bands (ev):

   -71.4345 -71.4006 -71.0498 -71.0182 -70.6312 -70.6008 -43.8646 -43.8308
   -42.6254 -42.5960 -42.5651 -42.4229 -42.4095 -42.3959 -42.3457 -42.3354
   -42.3078 -42.1551 -42.1380 -42.1234 -42.0982 -41.8978 -40.9875 -40.9673
    -5.7893  -5.5425  -5.4631  -5.3305  -5.1774  -5.1434  -5.0565  -4.9198
    -4.8832  -4.8183  -4.6885  -4.4767  -4.4169  -4.3810  -4.3229  -4.0875
    -3.9325  -3.8820  -3.8487  -3.8108  -3.7006  -3.6940  -3.5224  -3.4919
    -3.3840  -3.3142  -3.1931  -3.0995  -3.0653  -2.9472  -2.7983  -2.5179
    -2.2644  -1.9604  -1.8284  -1.6200  -1.5182  -1.3745  -1.2545  -0.9952
    -0.9198  -0.6728  -0.5032  -0.4358  -0.1924  -0.1352  -0.0181   0.2763
     0.4529   0.5294   0.5764   0.7347   0.8222   0.8477   0.9443   1.2239
     1.2698   1.3849   1.5878   1.8125   2.0279   2.1377   2.1662   2.5045
     2.5593   2.7750

          k = 0.0479-0.0244 0.0000 ( 30503 PWs)   bands (ev):

   -71.4345 -71.4006 -71.0498 -71.0182 -70.6312 -70.6008 -43.8645 -43.8308
   -42.6254 -42.5959 -42.5650 -42.4229 -42.4094 -42.3958 -42.3457 -42.3353
   -42.3078 -42.1551 -42.1380 -42.1234 -42.0981 -41.8978 -40.9875 -40.9673
    -5.9151  -5.5693  -5.4923  -5.3779  -5.2195  -5.1540  -5.0805  -4.9247
    -4.9140  -4.8243  -4.7097  -4.4791  -4.4233  -4.4024  -4.3430  -4.0933
    -3.9381  -3.9095  -3.8619  -3.8469  -3.6892  -3.6817  -3.5229  -3.4840
    -3.3824  -3.3247  -3.2159  -3.0926  -3.0587  -2.9744  -2.7992  -2.5066
    -2.2148  -1.7986  -1.7169  -1.5862  -1.3991  -1.3400  -1.2318  -0.8805
    -0.8706  -0.6912  -0.5053  -0.4401  -0.0565   0.0325   0.0707   0.4682
     0.5001   0.6260   0.6742   0.7626   0.7923   0.8752   0.9912   1.2893
     1.2932   1.3891   1.5966   1.8608   1.9431   2.0934   2.2274   2.3268
     2.5826   2.6077

          k = 0.0479-0.0081 0.0000 ( 30479 PWs)   bands (ev):

   -71.4345 -71.4006 -71.0498 -71.0182 -70.6312 -70.6008 -43.8645 -43.8307
   -42.6254 -42.5958 -42.5650 -42.4229 -42.4094 -42.3958 -42.3457 -42.3352
   -42.3077 -42.1551 -42.1380 -42.1234 -42.0981 -41.8978 -40.9875 -40.9673
    -5.9859  -5.5853  -5.5038  -5.4024  -5.2449  -5.1591  -5.0922  -4.9315
    -4.9273  -4.8268  -4.7225  -4.4852  -4.4228  -4.4140  -4.3542  -4.0987
    -3.9530  -3.9316  -3.8636  -3.8568  -3.6809  -3.6746  -3.5232  -3.4802
    -3.3820  -3.3314  -3.2266  -3.0887  -3.0552  -2.9873  -2.7994  -2.5009
    -2.1865  -1.7565  -1.6683  -1.5581  -1.3146  -1.3047  -1.2162  -0.8593
    -0.7876  -0.6870  -0.5047  -0.4615   0.0075   0.1082   0.2715   0.5043
     0.5079   0.7010   0.7174   0.8168   0.8224   0.8899   0.9882   1.3208
     1.3728   1.3925   1.5029   1.7452   1.8681   1.9802   2.1935   2.4728
     2.5992   2.6854

          k = 0.0479 0.0081 0.0000 ( 30479 PWs)   bands (ev):

   -71.4345 -71.4006 -71.0498 -71.0182 -70.6312 -70.6008 -43.8645 -43.8307
   -42.6254 -42.5958 -42.5650 -42.4229 -42.4094 -42.3958 -42.3457 -42.3352
   -42.3077 -42.1551 -42.1380 -42.1234 -42.0981 -41.8978 -40.9875 -40.9673
    -5.9859  -5.5853  -5.5038  -5.4024  -5.2449  -5.1591  -5.0922  -4.9315
    -4.9273  -4.8268  -4.7225  -4.4852  -4.4229  -4.4140  -4.3542  -4.0987
    -3.9530  -3.9317  -3.8636  -3.8568  -3.6809  -3.6746  -3.5232  -3.4802
    -3.3820  -3.3314  -3.2266  -3.0887  -3.0552  -2.9873  -2.7994  -2.5009
    -2.1865  -1.7565  -1.6683  -1.5581  -1.3146  -1.3047  -1.2163  -0.8594
    -0.7875  -0.6868  -0.5048  -0.4615   0.0074   0.1083   0.2716   0.5042
     0.5078   0.7010   0.7172   0.8168   0.8225   0.8897   0.9884   1.3209
     1.3728   1.3925   1.5030   1.7452   1.8681   1.9802   2.1935   2.4728
     2.5993   2.6855

          k = 0.0638 0.0326 0.0000 ( 30496 PWs)   bands (ev):

   -71.4296 -71.4055 -71.0452 -71.0228 -70.6268 -70.6052 -43.8596 -43.8357
   -42.5914 -42.5849 -42.5696 -42.4190 -42.3998 -42.3871 -42.3726 -42.3313
   -42.3119 -42.1928 -42.1198 -42.1032 -42.1019 -41.9333 -40.9845 -40.9702
    -5.5673  -5.4075  -5.2958  -5.2169  -5.1061  -4.9927  -4.8954  -4.8501
    -4.8006  -4.6634  -4.6080  -4.4258  -4.3893  -4.3175  -4.2583  -4.2295
    -3.9910  -3.9242  -3.8699  -3.7659  -3.7311  -3.7022  -3.6465  -3.5355
    -3.4591  -3.4271  -3.3251  -3.2860  -3.1810  -3.0196  -2.8884  -2.8465
    -2.3906  -2.1166  -1.7658  -1.5614  -1.5197  -1.4044  -1.3307  -1.0918
    -0.9107  -0.5767  -0.5744  -0.3931  -0.0928  -0.0315   0.1571   0.2004
     0.4690   0.4823   0.6032   0.6053   0.6913   0.7761   0.9672   1.0852
     1.2370   1.3618   1.4323   1.8358   2.0256   2.1533   2.1613   2.3986
     2.4747   2.8491

          k = 0.0638 0.0489 0.0000 ( 30532 PWs)   bands (ev):

   -71.4295 -71.4055 -71.0452 -71.0228 -70.6268 -70.6052 -43.8597 -43.8357
   -42.5915 -42.5850 -42.5696 -42.4190 -42.3998 -42.3871 -42.3726 -42.3315
   -42.3119 -42.1928 -42.1198 -42.1032 -42.1019 -41.9333 -40.9845 -40.9702
    -5.4169  -5.3792  -5.2875  -5.1661  -5.0708  -4.9626  -4.8936  -4.8406
    -4.7773  -4.6393  -4.6027  -4.4280  -4.3837  -4.3235  -4.2487  -4.2370
    -3.9806  -3.8887  -3.8696  -3.7718  -3.7146  -3.7027  -3.6626  -3.5486
    -3.4441  -3.4214  -3.3308  -3.2782  -3.1858  -3.0025  -2.9096  -2.7866
    -2.5221  -2.1832  -1.9514  -1.5798  -1.5303  -1.4982  -1.3220  -1.1420
    -0.9706  -0.6410  -0.5105  -0.4277  -0.2424  -0.0925   0.0366   0.0803
     0.4162   0.4553   0.5817   0.5997   0.6849   0.8075   0.9149   1.0678
     1.1789   1.3632   1.4169   1.8167   2.0570   2.1279   2.2438   2.2790
     2.7580   2.7762

          k = 0.0638 0.0652 0.0000 ( 30496 PWs)   bands (ev):

   -71.4295 -71.4055 -71.0452 -71.0228 -70.6268 -70.6052 -43.8597 -43.8357
   -42.5916 -42.5850 -42.5696 -42.4190 -42.3998 -42.3871 -42.3727 -42.3315
   -42.3119 -42.1928 -42.1198 -42.1032 -42.1020 -41.9333 -40.9845 -40.9702
    -5.3512  -5.2862  -5.2479  -5.1008  -5.0291  -4.9158  -4.8920  -4.8265
    -4.7574  -4.6136  -4.5968  -4.4464  -4.3807  -4.3189  -4.2532  -4.2401
    -3.9670  -3.8770  -3.8567  -3.7775  -3.7243  -3.7008  -3.6511  -3.5614
    -3.4338  -3.4182  -3.3418  -3.2636  -3.1909  -2.9912  -2.9413  -2.7246
    -2.6393  -2.2608  -2.1782  -1.6221  -1.5670  -1.4725  -1.3309  -1.1841
    -1.0260  -0.7320  -0.5349  -0.4034  -0.3312  -0.1653  -0.0987   0.0196
     0.3864   0.4267   0.5668   0.5831   0.7069   0.8247   0.8518   1.0735
     1.0820   1.3688   1.3949   1.6854   1.8890   2.1389   2.1912   2.4554
     2.7194   3.0064

          k = 0.0638 0.0815 0.0000 ( 30484 PWs)   bands (ev):

   -71.4295 -71.4055 -71.0452 -71.0228 -70.6268 -70.6052 -43.8597 -43.8357
   -42.5917 -42.5850 -42.5696 -42.4190 -42.3998 -42.3871 -42.3727 -42.3316
   -42.3120 -42.1927 -42.1198 -42.1032 -42.1020 -41.9333 -40.9845 -40.9702
    -5.3310  -5.2766  -5.1469  -5.0373  -4.9922  -4.8902  -4.8653  -4.7704
    -4.7543  -4.5935  -4.5880  -4.4716  -4.4044  -4.3120  -4.2705  -4.2334
    -3.9457  -3.8846  -3.8373  -3.7802  -3.7591  -3.6979  -3.6167  -3.5709
    -3.4377  -3.4176  -3.3535  -3.2462  -3.1952  -2.9859  -2.9752  -2.7626
    -2.7112  -2.3187  -2.2411  -1.7310  -1.5473  -1.4262  -1.3513  -1.2075
    -1.0773  -0.8012  -0.6360  -0.3872  -0.3372  -0.2006  -0.1727  -0.0260
     0.3703   0.4064   0.5569   0.5681   0.7311   0.8023   0.8224   1.0103
     1.0833   1.3783   1.3798   1.5840   1.8038   2.1303   2.1521   2.5836
     2.7273   3.0176

          k = 0.0638 0.0978 0.0000 ( 30506 PWs)   bands (ev):

   -71.4295 -71.4055 -71.0452 -71.0228 -70.6268 -70.6052 -43.8597 -43.8357
   -42.5917 -42.5850 -42.5696 -42.4190 -42.3998 -42.3871 -42.3727 -42.3317
   -42.3120 -42.1928 -42.1198 -42.1032 -42.1020 -41.9333 -40.9845 -40.9702
    -5.3237  -5.2742  -5.1181  -5.0082  -4.9789  -4.8890  -4.8553  -4.7596
    -4.6968  -4.5955  -4.5738  -4.4855  -4.4408  -4.3092  -4.2750  -4.2307
    -3.9307  -3.8867  -3.8318  -3.7804  -3.7803  -3.6965  -3.5966  -3.5742
    -3.4472  -3.4179  -3.3581  -3.2370  -3.1971  -2.9905  -2.9848  -2.8188
    -2.7337  -2.3399  -2.2006  -1.7972  -1.5384  -1.4001  -1.3626  -1.2139
    -1.1040  -0.8256  -0.6848  -0.4081  -0.3087  -0.2032  -0.1948  -0.0483
     0.3649   0.3983   0.5538   0.5626   0.7467   0.7781   0.8160   0.9898
     1.0876   1.3746   1.3820   1.5410   1.7854   2.1268   2.1395   2.6288
     2.7382   3.0052

          k = 0.0638 0.1140 0.0000 ( 30484 PWs)   bands (ev):

   -71.4295 -71.4055 -71.0452 -71.0228 -70.6268 -70.6052 -43.8597 -43.8357
   -42.5917 -42.5850 -42.5696 -42.4190 -42.3998 -42.3871 -42.3727 -42.3316
   -42.3120 -42.1927 -42.1198 -42.1032 -42.1020 -41.9333 -40.9845 -40.9702
    -5.3310  -5.2766  -5.1469  -5.0373  -4.9922  -4.8902  -4.8653  -4.7703
    -4.7543  -4.5934  -4.5880  -4.4716  -4.4044  -4.3120  -4.2705  -4.2334
    -3.9457  -3.8846  -3.8373  -3.7802  -3.7590  -3.6979  -3.6167  -3.5709
    -3.4377  -3.4176  -3.3535  -3.2462  -3.1952  -2.9860  -2.9752  -2.7625
    -2.7112  -2.3187  -2.2411  -1.7310  -1.5473  -1.4262  -1.3513  -1.2075
    -1.0772  -0.8011  -0.6360  -0.3872  -0.3372  -0.2006  -0.1728  -0.0260
     0.3703   0.4065   0.5570   0.5680   0.7311   0.8023   0.8224   1.0104
     1.0834   1.3782   1.3798   1.5839   1.8039   2.1303   2.1522   2.5836
     2.7270   3.0172

          k = 0.0638-0.0652 0.0000 ( 30496 PWs)   bands (ev):

   -71.4295 -71.4055 -71.0452 -71.0228 -70.6268 -70.6052 -43.8597 -43.8357
   -42.5916 -42.5850 -42.5696 -42.4190 -42.3998 -42.3871 -42.3727 -42.3315
   -42.3119 -42.1928 -42.1198 -42.1032 -42.1020 -41.9333 -40.9845 -40.9702
    -5.3512  -5.2862  -5.2479  -5.1008  -5.0291  -4.9159  -4.8920  -4.8265
    -4.7574  -4.6137  -4.5968  -4.4464  -4.3807  -4.3188  -4.2532  -4.2401
    -3.9670  -3.8771  -3.8566  -3.7775  -3.7243  -3.7008  -3.6511  -3.5614
    -3.4338  -3.4182  -3.3418  -3.2636  -3.1909  -2.9913  -2.9413  -2.7246
    -2.6393  -2.2609  -2.1782  -1.6222  -1.5670  -1.4725  -1.3309  -1.1842
    -1.0259  -0.7318  -0.5351  -0.4034  -0.3312  -0.1654  -0.0988   0.0197
     0.3865   0.4267   0.5670   0.5830   0.7069   0.8247   0.8518   1.0735
     1.0821   1.3686   1.3949   1.6853   1.8891   2.1389   2.1912   2.4553
     2.7194   3.0061

          k = 0.0638-0.0489 0.0000 ( 30532 PWs)   bands (ev):

   -71.4295 -71.4055 -71.0452 -71.0228 -70.6268 -70.6052 -43.8597 -43.8357
   -42.5915 -42.5850 -42.5696 -42.4190 -42.3998 -42.3871 -42.3726 -42.3315
   -42.3119 -42.1928 -42.1198 -42.1032 -42.1019 -41.9333 -40.9845 -40.9702
    -5.4169  -5.3792  -5.2875  -5.1661  -5.0708  -4.9626  -4.8936  -4.8406
    -4.7773  -4.6393  -4.6027  -4.4280  -4.3837  -4.3235  -4.2488  -4.2370
    -3.9805  -3.8887  -3.8697  -3.7718  -3.7146  -3.7027  -3.6626  -3.5486
    -3.4441  -3.4214  -3.3308  -3.2782  -3.1858  -3.0026  -2.9097  -2.7866
    -2.5221  -2.1833  -1.9513  -1.5798  -1.5303  -1.4982  -1.3220  -1.1421
    -0.9704  -0.6407  -0.5109  -0.4275  -0.2424  -0.0926   0.0366   0.0803
     0.4162   0.4553   0.5819   0.5995   0.6849   0.8076   0.9149   1.0679
     1.1789   1.3631   1.4169   1.8166   2.0571   2.1280   2.2436   2.2788
     2.7581   2.7759

          k = 0.0638-0.0326 0.0000 ( 30496 PWs)   bands (ev):

   -71.4296 -71.4055 -71.0452 -71.0228 -70.6268 -70.6052 -43.8596 -43.8357
   -42.5914 -42.5849 -42.5696 -42.4190 -42.3998 -42.3871 -42.3726 -42.3313
   -42.3119 -42.1928 -42.1198 -42.1032 -42.1019 -41.9333 -40.9845 -40.9702
    -5.5673  -5.4075  -5.2958  -5.2169  -5.1061  -4.9927  -4.8954  -4.8501
    -4.8006  -4.6634  -4.6080  -4.4258  -4.3893  -4.3175  -4.2583  -4.2295
    -3.9910  -3.9242  -3.8700  -3.7659  -3.7311  -3.7022  -3.6465  -3.5355
    -3.4591  -3.4271  -3.3251  -3.2860  -3.1810  -3.0197  -2.8884  -2.8465
    -2.3906  -2.1166  -1.7658  -1.5614  -1.5198  -1.4044  -1.3306  -1.0920
    -0.9105  -0.5765  -0.5747  -0.3930  -0.0928  -0.0315   0.1571   0.2004
     0.4691   0.4823   0.6032   0.6054   0.6911   0.7761   0.9673   1.0852
     1.2370   1.3617   1.4324   1.8358   2.0256   2.1534   2.1613   2.3984
     2.4745   2.8492

          k = 0.0638-0.0163 0.0000 ( 30464 PWs)   bands (ev):

   -71.4296 -71.4055 -71.0452 -71.0228 -70.6268 -70.6052 -43.8596 -43.8357
   -42.5913 -42.5849 -42.5696 -42.4190 -42.3998 -42.3871 -42.3726 -42.3313
   -42.3118 -42.1928 -42.1197 -42.1032 -42.1018 -41.9333 -40.9845 -40.9702
    -5.6678  -5.4284  -5.3015  -5.2480  -5.1309  -5.0108  -4.8971  -4.8569
    -4.8169  -4.6814  -4.6114  -4.4330  -4.3922  -4.3036  -4.2690  -4.2274
    -3.9990  -3.9518  -3.8782  -3.7618  -3.7394  -3.7004  -3.6345  -3.5253
    -3.4708  -3.4332  -3.3240  -3.2877  -3.1776  -3.0361  -2.8770  -2.8766
    -2.2826  -2.0915  -1.6969  -1.5117  -1.5028  -1.3583  -1.2941  -1.0475
    -0.8480  -0.6356  -0.5592  -0.3647   0.0030   0.1201   0.2189   0.3092
     0.4944   0.4991   0.6314   0.6407   0.7392   0.7490   0.9378   1.1619
     1.2566   1.3588   1.3779   1.5841   1.8825   2.1723   2.2386   2.3059
     2.7124   2.9379

          k = 0.0638 0.0000 0.0000 ( 30459 PWs)   bands (ev):

   -71.4296 -71.4055 -71.0452 -71.0228 -70.6268 -70.6052 -43.8596 -43.8357
   -42.5913 -42.5849 -42.5696 -42.4190 -42.3998 -42.3871 -42.3726 -42.3312
   -42.3118 -42.1928 -42.1197 -42.1032 -42.1018 -41.9333 -40.9845 -40.9702
    -5.7026  -5.4360  -5.3036  -5.2584  -5.1400  -5.0169  -4.8978  -4.8594
    -4.8225  -4.6881  -4.6125  -4.4370  -4.3929  -4.2939  -4.2766  -4.2271
    -4.0021  -3.9624  -3.8831  -3.7604  -3.7407  -3.6994  -3.6306  -3.5214
    -3.4752  -3.4360  -3.3241  -3.2876  -3.1764  -3.0429  -2.8855  -2.8729
    -2.2356  -2.0947  -1.6835  -1.5069  -1.4520  -1.3903  -1.2517  -1.0282
    -0.8128  -0.6675  -0.5603  -0.3527   0.0154   0.2413   0.2649   0.3450
     0.4808   0.4963   0.6666   0.6888   0.7145   0.7741   0.8145   1.2545
     1.2608   1.3572   1.3979   1.5636   1.6006   2.1916   2.2862   2.3180
     2.7651   2.9076

          k = 0.0638 0.0163 0.0000 ( 30464 PWs)   bands (ev):

   -71.4296 -71.4055 -71.0452 -71.0228 -70.6268 -70.6052 -43.8596 -43.8357
   -42.5913 -42.5849 -42.5696 -42.4190 -42.3998 -42.3871 -42.3726 -42.3313
   -42.3118 -42.1928 -42.1197 -42.1032 -42.1018 -41.9333 -40.9845 -40.9702
    -5.6678  -5.4284  -5.3015  -5.2480  -5.1309  -5.0108  -4.8971  -4.8569
    -4.8169  -4.6814  -4.6114  -4.4330  -4.3922  -4.3036  -4.2689  -4.2274
    -3.9990  -3.9518  -3.8782  -3.7618  -3.7394  -3.7004  -3.6345  -3.5254
    -3.4708  -3.4332  -3.3240  -3.2877  -3.1776  -3.0361  -2.8770  -2.8766
    -2.2826  -2.0915  -1.6969  -1.5117  -1.5028  -1.3583  -1.2941  -1.0474
    -0.8482  -0.6353  -0.5593  -0.3647   0.0030   0.1201   0.2190   0.3092
     0.4944   0.4989   0.6315   0.6406   0.7392   0.7491   0.9378   1.1619
     1.2566   1.3588   1.3779   1.5841   1.8824   2.1724   2.2385   2.3061
     2.7123   2.9380

          k = 0.0798 0.0407 0.0000 ( 30534 PWs)   bands (ev):

   -71.4238 -71.4113 -71.0398 -71.0282 -70.6216 -70.6104 -43.8539 -43.8415
   -42.5862 -42.5749 -42.5376 -42.4354 -42.4142 -42.4044 -42.3296 -42.3267
   -42.3166 -42.2365 -42.1155 -42.1062 -42.0625 -41.9746 -40.9811 -40.9737
    -5.2902  -5.2367  -5.0816  -5.0566  -4.9686  -4.9337  -4.8599  -4.8003
    -4.6113  -4.5571  -4.4290  -4.4247  -4.3227  -4.2305  -4.2186  -4.0876
    -4.0818  -3.9638  -3.8645  -3.8471  -3.7822  -3.6686  -3.6427  -3.6259
    -3.5610  -3.5568  -3.4863  -3.3400  -3.3105  -3.2764  -3.1791  -2.9746
    -2.6498  -2.1120  -1.8298  -1.7873  -1.4469  -1.3853  -1.3813  -1.2167
    -1.0002  -0.8116  -0.3949  -0.1762  -0.1503  -0.0528   0.0153   0.2724
     0.2769   0.4584   0.4858   0.5988   0.6290   0.7972   0.8385   1.0102
     1.1654   1.2590   1.4332   1.7711   2.0050   2.0167   2.2808   2.3734
     2.6083   2.9266

          k = 0.0798 0.0570 0.0000 ( 30504 PWs)   bands (ev):

   -71.4238 -71.4113 -71.0398 -71.0282 -70.6216 -70.6104 -43.8539 -43.8415
   -42.5863 -42.5749 -42.5376 -42.4353 -42.4142 -42.4044 -42.3296 -42.3268
   -42.3166 -42.2364 -42.1155 -42.1063 -42.0625 -41.9746 -40.9811 -40.9737
    -5.2153  -5.2104  -5.0429  -5.0229  -4.9467  -4.9310  -4.8374  -4.7848
    -4.6079  -4.5735  -4.4270  -4.4045  -4.3257  -4.2606  -4.2160  -4.0705
    -4.0663  -3.9396  -3.8761  -3.8598  -3.7849  -3.6525  -3.6516  -3.6323
    -3.5693  -3.5574  -3.4619  -3.3455  -3.3350  -3.2761  -3.1691  -3.0736
    -2.5586  -2.2105  -1.9257  -1.7928  -1.4994  -1.3812  -1.3618  -1.2527
    -1.0691  -0.8371  -0.3329  -0.2301  -0.2073  -0.0831  -0.0770   0.2337
     0.2412   0.4859   0.4889   0.6280   0.6292   0.7701   0.8422   0.9664
     1.1374   1.2377   1.4129   1.7941   1.8558   2.0515   2.2380   2.4665
     2.7103   2.8914

          k = 0.0798 0.0733 0.0000 ( 30490 PWs)   bands (ev):

   -71.4238 -71.4113 -71.0398 -71.0282 -70.6216 -70.6104 -43.8539 -43.8415
   -42.5864 -42.5749 -42.5376 -42.4353 -42.4142 -42.4044 -42.3296 -42.3268
   -42.3166 -42.2364 -42.1155 -42.1062 -42.0625 -41.9746 -40.9811 -40.9737
    -5.1951  -5.1643  -4.9894  -4.9866  -4.9254  -4.9236  -4.8039  -4.7650
    -4.6144  -4.6018  -4.4196  -4.3784  -4.3410  -4.2838  -4.2129  -4.0540
    -4.0404  -3.9270  -3.8963  -3.8722  -3.7883  -3.6647  -3.6335  -3.6320
    -3.5773  -3.5607  -3.4401  -3.3876  -3.3210  -3.2769  -3.1578  -3.1314
    -2.5328  -2.2993  -2.0124  -1.7614  -1.5973  -1.3758  -1.3224  -1.2627
    -1.1053  -0.8464  -0.4242  -0.2923  -0.1551  -0.1362  -0.0452   0.1874
     0.2082   0.4761   0.5530   0.6146   0.6657   0.7690   0.8382   0.9161
     1.0283   1.2249   1.4143   1.6912   1.7949   1.8394   2.3839   2.4417
     2.8347   2.8494

          k = 0.0798 0.0896 0.0000 ( 30482 PWs)   bands (ev):

   -71.4238 -71.4113 -71.0398 -71.0282 -70.6216 -70.6104 -43.8539 -43.8415
   -42.5864 -42.5748 -42.5377 -42.4353 -42.4142 -42.4044 -42.3296 -42.3269
   -42.3166 -42.2364 -42.1155 -42.1063 -42.0625 -41.9746 -40.9811 -40.9737
    -5.1830  -5.1473  -4.9655  -4.9572  -4.9126  -4.9106  -4.7708  -4.7397
    -4.6641  -4.5931  -4.4057  -4.3668  -4.3599  -4.2962  -4.2106  -4.0433
    -4.0149  -3.9242  -3.9066  -3.8895  -3.7910  -3.6727  -3.6326  -3.6143
    -3.5834  -3.5665  -3.4288  -3.4151  -3.3022  -3.2781  -3.1546  -3.1461
    -2.5976  -2.3495  -1.9652  -1.7486  -1.6961  -1.3921  -1.2706  -1.2600
    -1.1196  -0.8457  -0.5262  -0.3288  -0.1630  -0.1004   0.0048   0.1469
     0.1973   0.4700   0.5732   0.6105   0.6846   0.7768   0.8421   0.8846
     0.9471   1.2187   1.4154   1.6167   1.6850   1.8253   2.3362   2.5378
     2.8397   2.8627

          k = 0.0798 0.1059 0.0000 ( 30482 PWs)   bands (ev):

   -71.4238 -71.4113 -71.0398 -71.0282 -70.6216 -70.6104 -43.8539 -43.8415
   -42.5864 -42.5748 -42.5377 -42.4353 -42.4142 -42.4044 -42.3296 -42.3269
   -42.3166 -42.2364 -42.1155 -42.1063 -42.0625 -41.9746 -40.9811 -40.9737
    -5.1830  -5.1473  -4.9655  -4.9572  -4.9126  -4.9106  -4.7708  -4.7397
    -4.6641  -4.5931  -4.4057  -4.3668  -4.3599  -4.2962  -4.2106  -4.0433
    -4.0149  -3.9243  -3.9066  -3.8895  -3.7910  -3.6727  -3.6326  -3.6143
    -3.5834  -3.5665  -3.4288  -3.4151  -3.3022  -3.2782  -3.1546  -3.1461
    -2.5976  -2.3495  -1.9652  -1.7486  -1.6961  -1.3921  -1.2706  -1.2601
    -1.1195  -0.8456  -0.5262  -0.3288  -0.1631  -0.1004   0.0048   0.1469
     0.1973   0.4700   0.5732   0.6106   0.6846   0.7768   0.8422   0.8846
     0.9471   1.2187   1.4154   1.6166   1.6851   1.8252   2.3364   2.5378
     2.8398   2.8625

          k = 0.0798 0.1222 0.0000 ( 30490 PWs)   bands (ev):

   -71.4238 -71.4113 -71.0398 -71.0282 -70.6216 -70.6104 -43.8539 -43.8415
   -42.5864 -42.5749 -42.5376 -42.4353 -42.4142 -42.4044 -42.3296 -42.3268
   -42.3166 -42.2364 -42.1155 -42.1062 -42.0625 -41.9746 -40.9811 -40.9737
    -5.1951  -5.1643  -4.9894  -4.9866  -4.9254  -4.9236  -4.8039  -4.7650
    -4.6145  -4.6018  -4.4197  -4.3784  -4.3410  -4.2838  -4.2129  -4.0540
    -4.0404  -3.9270  -3.8963  -3.8722  -3.7884  -3.6647  -3.6336  -3.6320
    -3.5772  -3.5607  -3.4401  -3.3876  -3.3209  -3.2769  -3.1578  -3.1314
    -2.5328  -2.2993  -2.0123  -1.7614  -1.5974  -1.3758  -1.3224  -1.2628
    -1.1051  -0.8462  -0.4243  -0.2923  -0.1552  -0.1363  -0.0452   0.1874
     0.2082   0.4761   0.5530   0.6148   0.6657   0.7690   0.8383   0.9161
     1.0283   1.2249   1.4140   1.6910   1.7949   1.8393   2.3841   2.4417
     2.8342   2.8493

          k = 0.0798-0.0570 0.0000 ( 30504 PWs)   bands (ev):

   -71.4238 -71.4113 -71.0398 -71.0282 -70.6216 -70.6104 -43.8539 -43.8415
   -42.5863 -42.5749 -42.5376 -42.4353 -42.4142 -42.4044 -42.3296 -42.3268
   -42.3166 -42.2364 -42.1155 -42.1063 -42.0625 -41.9746 -40.9811 -40.9737
    -5.2153  -5.2104  -5.0428  -5.0228  -4.9467  -4.9310  -4.8374  -4.7848
    -4.6079  -4.5735  -4.4270  -4.4045  -4.3257  -4.2605  -4.2160  -4.0705
    -4.0663  -3.9396  -3.8761  -3.8598  -3.7849  -3.6525  -3.6516  -3.6324
    -3.5693  -3.5574  -3.4618  -3.3456  -3.3350  -3.2761  -3.1691  -3.0736
    -2.5586  -2.2105  -1.9256  -1.7928  -1.4994  -1.3812  -1.3618  -1.2529
    -1.0690  -0.8368  -0.3331  -0.2301  -0.2073  -0.0831  -0.0772   0.2337
     0.2412   0.4858   0.4889   0.6282   0.6292   0.7701   0.8423   0.9664
     1.1374   1.2378   1.4126   1.7940   1.8557   2.0515   2.2380   2.4665
     2.7101   2.8914

          k = 0.0798-0.0407 0.0000 ( 30534 PWs)   bands (ev):

   -71.4238 -71.4113 -71.0398 -71.0282 -70.6216 -70.6104 -43.8539 -43.8415
   -42.5862 -42.5749 -42.5376 -42.4354 -42.4142 -42.4044 -42.3296 -42.3267
   -42.3166 -42.2365 -42.1155 -42.1062 -42.0625 -41.9746 -40.9811 -40.9737
    -5.2901  -5.2367  -5.0816  -5.0566  -4.9686  -4.9337  -4.8599  -4.8003
    -4.6113  -4.5572  -4.4290  -4.4247  -4.3227  -4.2305  -4.2186  -4.0876
    -4.0818  -3.9638  -3.8645  -3.8471  -3.7822  -3.6686  -3.6427  -3.6259
    -3.5610  -3.5568  -3.4863  -3.3400  -3.3105  -3.2764  -3.1791  -2.9746
    -2.6498  -2.1121  -1.8298  -1.7873  -1.4470  -1.3854  -1.3813  -1.2168
    -1.0000  -0.8113  -0.3951  -0.1762  -0.1503  -0.0528   0.0152   0.2724
     0.2768   0.4584   0.4858   0.5988   0.6291   0.7972   0.8386   1.0102
     1.1654   1.2591   1.4330   1.7709   2.0050   2.0167   2.2808   2.3732
     2.6081   2.9265

          k = 0.0798-0.0244 0.0000 ( 30501 PWs)   bands (ev):

   -71.4238 -71.4113 -71.0398 -71.0282 -70.6216 -70.6104 -43.8539 -43.8415
   -42.5861 -42.5749 -42.5376 -42.4354 -42.4142 -42.4044 -42.3295 -42.3266
   -42.3166 -42.2365 -42.1155 -42.1062 -42.0625 -41.9746 -40.9811 -40.9737
    -5.3692  -5.2535  -5.1006  -5.0800  -4.9858  -4.9343  -4.8747  -4.8114
    -4.6137  -4.5597  -4.4350  -4.4278  -4.3252  -4.2204  -4.2004  -4.1009
    -4.0879  -3.9932  -3.8652  -3.8330  -3.7805  -3.6825  -3.6388  -3.6169
    -3.5572  -3.5534  -3.5053  -3.3412  -3.2908  -3.2768  -3.1874  -2.8590
    -2.7272  -2.0691  -1.8110  -1.7078  -1.4584  -1.4323  -1.3228  -1.1813
    -0.8914  -0.7795  -0.4877  -0.1810  -0.0530   0.0331   0.1270   0.2663
     0.3213   0.4657   0.4665   0.6028   0.6346   0.8292   0.8826   0.9708
     1.1492   1.2974   1.4315   1.4867   1.9147   2.0722   2.2531   2.3860
     2.8268   2.8487

          k = 0.0798-0.0081 0.0000 ( 30468 PWs)   bands (ev):

   -71.4238 -71.4113 -71.0398 -71.0282 -70.6216 -70.6104 -43.8539 -43.8415
   -42.5861 -42.5749 -42.5376 -42.4354 -42.4142 -42.4044 -42.3295 -42.3266
   -42.3166 -42.2365 -42.1154 -42.1062 -42.0625 -41.9746 -40.9811 -40.9736
    -5.4154  -5.2623  -5.1086  -5.0916  -4.9954  -4.9342  -4.8824  -4.8173
    -4.6153  -4.5657  -4.4392  -4.4262  -4.3277  -4.2215  -4.1805  -4.1067
    -4.0890  -4.0155  -3.8661  -3.8275  -3.7796  -3.6912  -3.6372  -3.6116
    -3.5577  -3.5487  -3.5150  -3.3413  -3.2842  -3.2754  -3.1924  -2.7768
    -2.7674  -2.0885  -1.7334  -1.6812  -1.4956  -1.4632  -1.2901  -1.1634
    -0.7813  -0.7594  -0.5703  -0.1873   0.0244   0.0911   0.2366   0.2508
     0.3324   0.4755   0.4882   0.6102   0.6451   0.7874   0.8199   1.0374
     1.1340   1.3323   1.3858   1.4239   1.6035   2.0625   2.3540   2.4264
     2.7235   2.9060

          k = 0.0798 0.0081 0.0000 ( 30468 PWs)   bands (ev):

   -71.4238 -71.4113 -71.0398 -71.0282 -70.6216 -70.6104 -43.8539 -43.8415
   -42.5861 -42.5749 -42.5376 -42.4354 -42.4142 -42.4044 -42.3295 -42.3266
   -42.3166 -42.2365 -42.1154 -42.1062 -42.0625 -41.9746 -40.9811 -40.9736
    -5.4154  -5.2623  -5.1086  -5.0916  -4.9954  -4.9342  -4.8824  -4.8173
    -4.6153  -4.5656  -4.4392  -4.4262  -4.3277  -4.2215  -4.1805  -4.1067
    -4.0891  -4.0155  -3.8661  -3.8275  -3.7796  -3.6912  -3.6372  -3.6116
    -3.5577  -3.5487  -3.5150  -3.3413  -3.2842  -3.2754  -3.1924  -2.7768
    -2.7675  -2.0885  -1.7334  -1.6813  -1.4956  -1.4631  -1.2901  -1.1633
    -0.7814  -0.7594  -0.5702  -0.1873   0.0244   0.0911   0.2366   0.2508
     0.3323   0.4755   0.4882   0.6102   0.6451   0.7874   0.8199   1.0374
     1.1340   1.3324   1.3859   1.4239   1.6035   2.0626   2.3539   2.4265
     2.7234   2.9059

          k = 0.0798 0.0244 0.0000 ( 30501 PWs)   bands (ev):

   -71.4238 -71.4113 -71.0398 -71.0282 -70.6216 -70.6104 -43.8539 -43.8415
   -42.5861 -42.5749 -42.5376 -42.4354 -42.4142 -42.4044 -42.3295 -42.3266
   -42.3166 -42.2365 -42.1155 -42.1062 -42.0625 -41.9746 -40.9811 -40.9737
    -5.3692  -5.2535  -5.1006  -5.0800  -4.9858  -4.9343  -4.8747  -4.8114
    -4.6138  -4.5597  -4.4351  -4.4278  -4.3252  -4.2204  -4.2005  -4.1009
    -4.0879  -3.9932  -3.8652  -3.8331  -3.7805  -3.6826  -3.6387  -3.6170
    -3.5572  -3.5534  -3.5053  -3.3412  -3.2908  -3.2768  -3.1874  -2.8590
    -2.7272  -2.0691  -1.8111  -1.7079  -1.4584  -1.4322  -1.3228  -1.1811
    -0.8916  -0.7797  -0.4875  -0.1810  -0.0531   0.0331   0.1271   0.2663
     0.3213   0.4657   0.4665   0.6028   0.6345   0.8291   0.8825   0.9708
     1.1491   1.2974   1.4316   1.4869   1.9146   2.0724   2.2530   2.3861
     2.8266   2.8480

          k =-0.0958-0.0489 0.0000 ( 30536 PWs)   bands (ev):

   -71.4179 -71.4173 -71.0342 -71.0338 -70.6161 -70.6160 -43.8483 -43.8471
   -42.5807 -42.5804 -42.4867 -42.4864 -42.4096 -42.4091 -42.3219 -42.3215
   -42.2833 -42.2829 -42.1109 -42.1109 -42.0187 -42.0186 -40.9777 -40.9770
    -5.1720  -5.1719  -5.0080  -5.0079  -4.8867  -4.8864  -4.8064  -4.8061
    -4.5760  -4.5759  -4.3732  -4.3722  -4.2046  -4.2044  -4.0969  -4.0968
    -3.9158  -3.9137  -3.8875  -3.8833  -3.8172  -3.8162  -3.7586  -3.7563
    -3.5801  -3.5789  -3.4602  -3.4595  -3.3533  -3.3515  -3.2707  -3.2685
    -2.3573  -2.3565  -1.8458  -1.8457  -1.4114  -1.4111  -1.3126  -1.3124
    -0.9831  -0.9828  -0.1873  -0.1873  -0.1159  -0.1155   0.0536   0.0538
     0.4397   0.4398   0.5073   0.5076   0.6092   0.6093   1.0006   1.0007
     1.1210   1.1212   1.5886   1.5889   1.9910   1.9911   2.3544   2.3544
     2.7594   2.7597

          k =-0.0958-0.0326 0.0000 ( 30499 PWs)   bands (ev):

   -71.4179 -71.4173 -71.0342 -71.0338 -70.6161 -70.6160 -43.8483 -43.8471
   -42.5807 -42.5804 -42.4867 -42.4864 -42.4096 -42.4091 -42.3219 -42.3215
   -42.2833 -42.2829 -42.1109 -42.1108 -42.0187 -42.0187 -40.9777 -40.9770
    -5.1955  -5.1491  -5.0075  -5.0037  -4.8907  -4.8837  -4.8123  -4.8015
    -4.5744  -4.5731  -4.4064  -4.3590  -4.2018  -4.1877  -4.1000  -4.0938
    -3.9294  -3.9007  -3.8930  -3.8788  -3.8301  -3.8070  -3.7662  -3.7504
    -3.6035  -3.5604  -3.4862  -3.4304  -3.3568  -3.3492  -3.2909  -3.2215
    -2.4585  -2.2812  -1.8951  -1.7856  -1.4786  -1.4047  -1.3166  -1.2659
    -1.0193  -0.9062  -0.2960  -0.1700  -0.1300  -0.0430   0.0731   0.0916
     0.3868   0.4304   0.4773   0.5654   0.6373   0.6450   0.9623   1.0024
     1.0693   1.1573   1.4687   1.6010   1.8313   2.0270   2.2588   2.5716
     2.6528   2.9355

          k =-0.0958-0.0163 0.0000 ( 30502 PWs)   bands (ev):

   -71.4179 -71.4173 -71.0342 -71.0338 -70.6161 -70.6160 -43.8483 -43.8471
   -42.5807 -42.5804 -42.4867 -42.4864 -42.4096 -42.4091 -42.3219 -42.3214
   -42.2833 -42.2829 -42.1109 -42.1108 -42.0187 -42.0186 -40.9777 -40.9770
    -5.2129  -5.1334  -5.0036  -4.9977  -4.8948  -4.8824  -4.8177  -4.7989
    -4.5686  -4.5685  -4.4443  -4.3577  -4.1856  -4.1740  -4.0952  -4.0938
    -3.9416  -3.8993  -3.8890  -3.8750  -3.8464  -3.8009  -3.7721  -3.7468
    -3.6245  -3.5484  -3.5004  -3.4126  -3.3603  -3.3482  -3.2989  -3.1531
    -2.5316  -2.3020  -1.8446  -1.7552  -1.5806  -1.4209  -1.3013  -1.2284
    -1.0088  -0.8225  -0.3771  -0.2368  -0.1548   0.0787   0.1386   0.1425
     0.3427   0.3830   0.4900   0.5470   0.6735   0.7600   0.8562   0.9913
     1.0347   1.1423   1.3994   1.5856   1.6955   1.8276   2.4165   2.5584
     2.6432   2.9252

          k =-0.0958-0.0000 0.0000 ( 30484 PWs)   bands (ev):

   -71.4179 -71.4173 -71.0342 -71.0338 -70.6161 -70.6160 -43.8483 -43.8471
   -42.5807 -42.5804 -42.4867 -42.4864 -42.4096 -42.4091 -42.3219 -42.3214
   -42.2833 -42.2829 -42.1109 -42.1108 -42.0187 -42.0186 -40.9777 -40.9770
    -5.2192  -5.1279  -5.0012  -4.9948  -4.8967  -4.8823  -4.8198  -4.7981
    -4.5664  -4.5642  -4.4616  -4.3581  -4.1765  -4.1718  -4.0946  -4.0893
    -3.9468  -3.9014  -3.8831  -3.8736  -3.8561  -3.7987  -3.7737  -3.7459
    -3.6327  -3.5443  -3.5045  -3.4074  -3.3617  -3.3481  -3.3009  -3.1167
    -2.5575  -2.3364  -1.7580  -1.7475  -1.6708  -1.4267  -1.2958  -1.2177
    -0.9924  -0.7834  -0.4103  -0.2694  -0.1652   0.1204   0.1589   0.1974
     0.3544   0.3653   0.4929   0.4993   0.6900   0.7320   0.8876   0.9824
     1.0254   1.1323   1.3940   1.5534   1.5780   1.8262   2.4621   2.5163
     2.6619   2.9096

          k =-0.0958 0.0163 0.0000 ( 30502 PWs)   bands (ev):

   -71.4179 -71.4173 -71.0342 -71.0338 -70.6161 -70.6160 -43.8483 -43.8471
   -42.5807 -42.5804 -42.4867 -42.4864 -42.4096 -42.4091 -42.3219 -42.3214
   -42.2833 -42.2829 -42.1109 -42.1108 -42.0187 -42.0186 -40.9777 -40.9770
    -5.2129  -5.1334  -5.0036  -4.9977  -4.8948  -4.8825  -4.8177  -4.7989
    -4.5686  -4.5685  -4.4443  -4.3577  -4.1856  -4.1740  -4.0952  -4.0938
    -3.9416  -3.8993  -3.8890  -3.8750  -3.8464  -3.8009  -3.7721  -3.7468
    -3.6245  -3.5484  -3.5004  -3.4126  -3.3603  -3.3482  -3.2989  -3.1531
    -2.5316  -2.3021  -1.8445  -1.7552  -1.5807  -1.4209  -1.3013  -1.2285
    -1.0086  -0.8224  -0.3772  -0.2369  -0.1548   0.0786   0.1386   0.1425
     0.3427   0.3831   0.4900   0.5471   0.6735   0.7600   0.8563   0.9913
     1.0348   1.1423   1.3993   1.5856   1.6956   1.8274   2.4166   2.5586
     2.6431   2.9274

          k =-0.0958 0.0326 0.0000 ( 30499 PWs)   bands (ev):

   -71.4179 -71.4173 -71.0342 -71.0338 -70.6161 -70.6160 -43.8483 -43.8471
   -42.5807 -42.5804 -42.4867 -42.4864 -42.4096 -42.4091 -42.3219 -42.3215
   -42.2833 -42.2829 -42.1109 -42.1108 -42.0187 -42.0187 -40.9777 -40.9770
    -5.1955  -5.1491  -5.0075  -5.0037  -4.8907  -4.8837  -4.8123  -4.8015
    -4.5745  -4.5731  -4.4064  -4.3590  -4.2017  -4.1877  -4.1000  -4.0938
    -3.9294  -3.9007  -3.8930  -3.8788  -3.8301  -3.8070  -3.7662  -3.7503
    -3.6035  -3.5604  -3.4863  -3.4304  -3.3568  -3.3492  -3.2909  -3.2215
    -2.4585  -2.2812  -1.8950  -1.7856  -1.4787  -1.4047  -1.3167  -1.2660
    -1.0190  -0.9060  -0.2962  -0.1701  -0.1300  -0.0431   0.0730   0.0915
     0.3868   0.4304   0.4772   0.5654   0.6374   0.6451   0.9624   1.0024
     1.0694   1.1573   1.4684   1.6009   1.8312   2.0269   2.2588   2.5715
     2.6528   2.9356

          k =-0.0958-0.1466 0.0000 ( 30536 PWs)   bands (ev):

   -71.4179 -71.4173 -71.0342 -71.0338 -70.6161 -70.6160 -43.8483 -43.8471
   -42.5807 -42.5804 -42.4867 -42.4864 -42.4096 -42.4091 -42.3219 -42.3215
   -42.2833 -42.2829 -42.1109 -42.1109 -42.0187 -42.0186 -40.9777 -40.9770
    -5.1720  -5.1719  -5.0080  -5.0079  -4.8867  -4.8864  -4.8064  -4.8061
    -4.5760  -4.5759  -4.3732  -4.3722  -4.2046  -4.2044  -4.0969  -4.0968
    -3.9158  -3.9137  -3.8875  -3.8833  -3.8172  -3.8162  -3.7586  -3.7563
    -3.5801  -3.5789  -3.4602  -3.4595  -3.3533  -3.3515  -3.2707  -3.2685
    -2.3573  -2.3565  -1.8457  -1.8456  -1.4115  -1.4111  -1.3127  -1.3125
    -0.9829  -0.9825  -0.1874  -0.1873  -0.1160  -0.1157   0.0537   0.0538
     0.4396   0.4398   0.5073   0.5076   0.6093   0.6094   1.0006   1.0007
     1.1210   1.1213   1.5884   1.5887   1.9910   1.9911   2.3543   2.3543
     2.7593   2.7596

     the Fermi energy is     0.6386 ev

!    total energy              =   -1564.28430476 Ry
     estimated scf accuracy    <       0.00000722 Ry
     smearing contrib. (-TS)   =      -0.07694871 Ry
     internal energy E=F+TS    =   -1564.20735605 Ry

     The total energy is F=E-TS. E is the sum of the following terms:
     one-electron contribution =  -12944.59544521 Ry
     hartree contribution      =    6511.39086072 Ry
     xc contribution           =    -277.96080143 Ry
     ewald contribution        =    5146.95802425 Ry
     electric field correction =       0.00000561 Ry

     convergence has been achieved in  19 iterations

     negative rho (up, down):  3.211E-03 0.000E+00

     Forces acting on atoms (cartesian axes, Ry/au):

     atom    1 type  1   force =    -0.00000694    0.00702872    0.02673246
     atom    2 type  1   force =     0.00000870    0.00703437    0.02670722
     atom    3 type  2   force =    -0.00000271   -0.02282968   -0.05026781
     atom    4 type  2   force =     0.00000168   -0.02282702   -0.05026632
     atom    5 type  1   force =    -0.00003775   -0.00646591   -0.00802040
     atom    6 type  1   force =     0.00005715   -0.00641168   -0.00768970
     atom    7 type  2   force =    -0.00005674    0.02209595    0.03227640
     atom    8 type  2   force =     0.00005157    0.02209804    0.03227553
     atom    9 type  1   force =    -0.00005803    0.00137486   -0.00065298
     atom   10 type  1   force =     0.00004408    0.00136537   -0.00060612
     atom   11 type  2   force =     0.00065946   -0.00123050   -0.00024600
     atom   12 type  2   force =    -0.00066049   -0.00123251   -0.00024229

     Total force =     0.104392     Total SCF correction =     0.006829

     Writing output data file ./Cr2Ag2/Cr2Ag2_beef.save/

     init_run     :     88.38s CPU     88.96s WALL (       1 calls)
     electrons    :   3292.05s CPU   3314.73s WALL (       1 calls)
     forces       :     58.30s CPU     58.60s WALL (       1 calls)

     Called by init_run:
     wfcinit      :     76.73s CPU     77.09s WALL (       1 calls)
     potinit      :      7.96s CPU      8.03s WALL (       1 calls)
     hinit0       :      1.91s CPU      1.92s WALL (       1 calls)

     Called by electrons:
     c_bands      :   2844.38s CPU   2858.55s WALL (      19 calls)
     sum_band     :    401.24s CPU    406.16s WALL (      19 calls)
     v_of_rho     :     34.64s CPU     36.17s WALL (      20 calls)
     newd         :     18.44s CPU     20.37s WALL (      20 calls)
     mix_rho      :      0.84s CPU      0.89s WALL (      19 calls)
     vdW_kernel   :      5.85s CPU      5.86s WALL (       1 calls)

     Called by c_bands:
     init_us_2    :     12.32s CPU     12.47s WALL (    2960 calls)
     cegterg      :   2807.42s CPU   2819.02s WALL (    1406 calls)

     Called by *egterg:
     cdiaghg      :    126.32s CPU    126.52s WALL (    5554 calls)
     h_psi        :   1521.02s CPU   1530.09s WALL (    5628 calls)
     s_psi        :    470.09s CPU    470.84s WALL (    5628 calls)
     g_psi        :      1.13s CPU      1.15s WALL (    4148 calls)

     Called by h_psi:
     h_psi:calbec :    540.55s CPU    542.02s WALL (    5628 calls)
     vloc_psi     :    493.71s CPU    500.47s WALL (    5628 calls)
     add_vuspsi   :    481.42s CPU    482.20s WALL (    5628 calls)

     General routines
     calbec       :    839.95s CPU    842.16s WALL (    7330 calls)
     fft          :     22.48s CPU     23.19s WALL (    1319 calls)
     ffts         :      0.10s CPU      0.11s WALL (      39 calls)
     fftw         :    567.62s CPU    575.28s WALL (  687484 calls)
     interpolate  :      0.30s CPU      0.32s WALL (      20 calls)

     Parallel routines
     fft_scatt_xy :     42.08s CPU     42.48s WALL (  688842 calls)
     fft_scatt_yz :    178.10s CPU    181.20s WALL (  688842 calls)

     PWSCF        :  57m29.64s CPU  58m12.61s WALL


   This run was terminated on:  18:23:49  10Jul2022            

=------------------------------------------------------------------------------=
   JOB DONE.
=------------------------------------------------------------------------------=
