
     Program PWSCF v.6.6 starts on 10Jul2022 at 14:53:32 

     This program is part of the open-source Quantum ESPRESSO suite
     for quantum simulation of materials; please cite
         "P. Giannozzi et al., J. Phys.:Condens. Matter 21 395502 (2009);
         "P. Giannozzi et al., J. Phys.:Condens. Matter 29 465901 (2017);
          URL http://www.quantum-espresso.org", 
     in publications or presentations arising from this work. More details at
     http://www.quantum-espresso.org/quote

     Parallel version (MPI), running on    37 processors

     MPI processes distributed on     3 nodes
     R & G space division:  proc/nbgrp/npool/nimage =      37
     Fft bands division:     nmany     =       1
     Reading input from Cr2Au2.in
Warning: card &CELL ignored
Warning: card / ignored

     Current dimensions of program PWSCF are:
     Max number of different atomic species (ntypx) = 10
     Max number of k-points (npk) =  40000
     Max angular momentum in pseudopotentials (lmaxx) =  3
     Presently stress not available with electric field and gates

     Message from routine cell_base_init:
     DEPRECATED: use true lattice parameter, not A to a.u. conversion factor
     file Cr.pbe-spn-rrkjus_psl.1.0.0.UPF: wavefunction(s)  3P renormalized

     **************************************************************************
     Initializing libbeef V0.1.2 with the BEEF-vdW functional.
     Citation: Wellendorff et al., PRB 85, 235149 (2012).
     **************************************************************************


     IMPORTANT: XC functional enforced from input :
     Exchange-correlation= BEEF-VDW
                           (   1   4  43  14   2   0   0)
     Any further DFT definition will be discarded
     Please, verify this is what you really want


     Subspace diagonalization in iterative solution of the eigenvalue problem:
     a serial algorithm will be used


     Parallelization info
     --------------------
     sticks:   dense  smooth     PW     G-vecs:    dense   smooth      PW
     Min         112      45     13                25960     6565    1028
     Max         113      46     14                25979     6573    1039
     Sum        4159    1671    487               960801   242985   38265



     bravais-lattice index     =            0
     lattice parameter (alat)  =       1.8897  a.u.
     unit-cell volume          =    4396.7462 (a.u.)^3
     number of atoms/cell      =           12
     number of atomic types    =            2
     number of electrons       =       150.00
     number of Kohn-Sham states=           90
     kinetic-energy cutoff     =      55.1240  Ry
     charge density cutoff     =     551.2396  Ry
     convergence threshold     =      1.0E-05
     mixing beta               =       0.1000
     number of iterations used =           10  plain     mixing
     Exchange-correlation= BEEF-VDW
                           (   1   4  43  14   2   0   0)

     celldm(1)=   1.889726  celldm(2)=   0.000000  celldm(3)=   0.000000
     celldm(4)=   0.000000  celldm(5)=   0.000000  celldm(6)=   0.000000

     crystal axes: (cart. coord. in units of alat)
               a(1) = (   5.400786   0.000000   0.000000 )  
               a(2) = (  -2.700393   4.920925   0.000000 )  
               a(3) = (   0.000000   0.000000  24.514959 )  

     reciprocal axes: (cart. coord. in units 2 pi/alat)
               b(1) = (  0.185158  0.101607 -0.000000 )  
               b(2) = (  0.000000  0.203214  0.000000 )  
               b(3) = (  0.000000 -0.000000  0.040791 )  


     PseudoPot. # 1 for Cr read from file:
     ../pseudo/Cr.pbe-spn-rrkjus_psl.1.0.0.UPF
     MD5 check sum: 793d051e4f89dd1e3290b85340a92c0a
     Pseudo is Ultrasoft + core correction, Zval = 14.0
     Generated using "atomic" code by A. Dal Corso v.6.2.2
     Using radial grid of 1183 points,  6 beta functions with: 
                l(1) =   0
                l(2) =   0
                l(3) =   1
                l(4) =   1
                l(5) =   2
                l(6) =   2
     Q(r) pseudized with 0 coefficients 


     PseudoPot. # 2 for Au read from file:
     ../pseudo/Au.pbe-n-rrkjus_psl.1.0.0.UPF
     MD5 check sum: d7e77ba19504afed2c9b41c931dde4f0
     Pseudo is Ultrasoft + core correction, Zval = 11.0
     Generated using "atomic" code by A. Dal Corso v.6.3
     Using radial grid of 1279 points,  6 beta functions with: 
                l(1) =   0
                l(2) =   0
                l(3) =   1
                l(4) =   1
                l(5) =   2
                l(6) =   2
     Q(r) pseudized with 0 coefficients 


     atomic species   valence    mass     pseudopotential
        Cr            14.00    51.99610     Cr( 1.00)
        Au            11.00   196.96657     Au( 1.00)

     No symmetry found



   Cartesian axes

     site n.     atom                  positions (alat units)
         1           Cr  tau(   1) = (   0.0000000   0.0000000  10.0000000  )
         2           Cr  tau(   2) = (   2.7003930   0.0000000  10.0000000  )
         3           Au  tau(   3) = (   1.3501965   2.4604623  10.0000000  )
         4           Au  tau(   4) = (  -1.3501965   2.4604623  10.0000000  )
         5           Cr  tau(   5) = (   2.7003930   1.4818602  12.2574793  )
         6           Cr  tau(   6) = (  -0.0000000   1.4818602  12.2574793  )
         7           Au  tau(   7) = (  -1.3501965   3.9423226  12.2574793  )
         8           Au  tau(   8) = (   1.3501965   3.9423226  12.2574793  )
         9           Cr  tau(   9) = (  -0.0003246   1.9786822  14.0251165  )
        10           Cr  tau(  10) = (   2.7000774   1.9796391  14.0273138  )
        11           Au  tau(  11) = (   1.3503997   4.6827524  15.0082216  )
        12           Au  tau(  12) = (  -1.3510113   4.6827343  15.0082409  )

     number of k points=    74  Fermi-Dirac smearing, width (Ry)=  0.0100
                       cart. coord. in units 2pi/alat
        k(    1) = (   0.0000000   0.0000000   0.0000000), wk =   0.0138889
        k(    2) = (   0.0000000   0.0169345   0.0000000), wk =   0.0277778
        k(    3) = (   0.0000000   0.0338690   0.0000000), wk =   0.0277778
        k(    4) = (   0.0000000   0.0508035   0.0000000), wk =   0.0277778
        k(    5) = (   0.0000000   0.0677379   0.0000000), wk =   0.0277778
        k(    6) = (   0.0000000   0.0846724   0.0000000), wk =   0.0277778
        k(    7) = (   0.0000000  -0.1016069   0.0000000), wk =   0.0138889
        k(    8) = (   0.0154299   0.0084672   0.0000000), wk =   0.0277778
        k(    9) = (   0.0154299   0.0254017   0.0000000), wk =   0.0277778
        k(   10) = (   0.0154299   0.0423362   0.0000000), wk =   0.0277778
        k(   11) = (   0.0154299   0.0592707   0.0000000), wk =   0.0277778
        k(   12) = (   0.0154299   0.0762052   0.0000000), wk =   0.0277778
        k(   13) = (   0.0154299   0.0931397   0.0000000), wk =   0.0277778
        k(   14) = (   0.0154299  -0.0931397   0.0000000), wk =   0.0277778
        k(   15) = (   0.0154299  -0.0762052   0.0000000), wk =   0.0277778
        k(   16) = (   0.0154299  -0.0592707   0.0000000), wk =   0.0277778
        k(   17) = (   0.0154299  -0.0423362   0.0000000), wk =   0.0277778
        k(   18) = (   0.0154299  -0.0254017   0.0000000), wk =   0.0277778
        k(   19) = (   0.0154299  -0.0084672   0.0000000), wk =   0.0277778
        k(   20) = (   0.0308597   0.0169345   0.0000000), wk =   0.0277778
        k(   21) = (   0.0308597   0.0338690   0.0000000), wk =   0.0277778
        k(   22) = (   0.0308597   0.0508035   0.0000000), wk =   0.0277778
        k(   23) = (   0.0308597   0.0677379   0.0000000), wk =   0.0277778
        k(   24) = (   0.0308597   0.0846724   0.0000000), wk =   0.0277778
        k(   25) = (   0.0308597   0.1016069   0.0000000), wk =   0.0277778
        k(   26) = (   0.0308597  -0.0846724   0.0000000), wk =   0.0277778
        k(   27) = (   0.0308597  -0.0677379   0.0000000), wk =   0.0277778
        k(   28) = (   0.0308597  -0.0508035   0.0000000), wk =   0.0277778
        k(   29) = (   0.0308597  -0.0338690   0.0000000), wk =   0.0277778
        k(   30) = (   0.0308597  -0.0169345   0.0000000), wk =   0.0277778
        k(   31) = (   0.0308597  -0.0000000   0.0000000), wk =   0.0277778
        k(   32) = (   0.0462896   0.0254017   0.0000000), wk =   0.0277778
        k(   33) = (   0.0462896   0.0423362   0.0000000), wk =   0.0277778
        k(   34) = (   0.0462896   0.0592707   0.0000000), wk =   0.0277778
        k(   35) = (   0.0462896   0.0762052   0.0000000), wk =   0.0277778
        k(   36) = (   0.0462896   0.0931397   0.0000000), wk =   0.0277778
        k(   37) = (   0.0462896   0.1100742   0.0000000), wk =   0.0277778
        k(   38) = (   0.0462896  -0.0762052   0.0000000), wk =   0.0277778
        k(   39) = (   0.0462896  -0.0592707   0.0000000), wk =   0.0277778
        k(   40) = (   0.0462896  -0.0423362   0.0000000), wk =   0.0277778
        k(   41) = (   0.0462896  -0.0254017   0.0000000), wk =   0.0277778
        k(   42) = (   0.0462896  -0.0084672   0.0000000), wk =   0.0277778
        k(   43) = (   0.0462896   0.0084672   0.0000000), wk =   0.0277778
        k(   44) = (   0.0617194   0.0338690   0.0000000), wk =   0.0277778
        k(   45) = (   0.0617194   0.0508035   0.0000000), wk =   0.0277778
        k(   46) = (   0.0617194   0.0677379   0.0000000), wk =   0.0277778
        k(   47) = (   0.0617194   0.0846724   0.0000000), wk =   0.0277778
        k(   48) = (   0.0617194   0.1016069   0.0000000), wk =   0.0277778
        k(   49) = (   0.0617194   0.1185414   0.0000000), wk =   0.0277778
        k(   50) = (   0.0617194  -0.0677379   0.0000000), wk =   0.0277778
        k(   51) = (   0.0617194  -0.0508035   0.0000000), wk =   0.0277778
        k(   52) = (   0.0617194  -0.0338690   0.0000000), wk =   0.0277778
        k(   53) = (   0.0617194  -0.0169345   0.0000000), wk =   0.0277778
        k(   54) = (   0.0617194   0.0000000   0.0000000), wk =   0.0277778
        k(   55) = (   0.0617194   0.0169345   0.0000000), wk =   0.0277778
        k(   56) = (   0.0771493   0.0423362   0.0000000), wk =   0.0277778
        k(   57) = (   0.0771493   0.0592707   0.0000000), wk =   0.0277778
        k(   58) = (   0.0771493   0.0762052   0.0000000), wk =   0.0277778
        k(   59) = (   0.0771493   0.0931397   0.0000000), wk =   0.0277778
        k(   60) = (   0.0771493   0.1100742   0.0000000), wk =   0.0277778
        k(   61) = (   0.0771493   0.1270086   0.0000000), wk =   0.0277778
        k(   62) = (   0.0771493  -0.0592707   0.0000000), wk =   0.0277778
        k(   63) = (   0.0771493  -0.0423362   0.0000000), wk =   0.0277778
        k(   64) = (   0.0771493  -0.0254017   0.0000000), wk =   0.0277778
        k(   65) = (   0.0771493  -0.0084672   0.0000000), wk =   0.0277778
        k(   66) = (   0.0771493   0.0084672   0.0000000), wk =   0.0277778
        k(   67) = (   0.0771493   0.0254017   0.0000000), wk =   0.0277778
        k(   68) = (  -0.0925791  -0.0508035   0.0000000), wk =   0.0138889
        k(   69) = (  -0.0925791  -0.0338690   0.0000000), wk =   0.0277778
        k(   70) = (  -0.0925791  -0.0169345   0.0000000), wk =   0.0277778
        k(   71) = (  -0.0925791   0.0000000   0.0000000), wk =   0.0277778
        k(   72) = (  -0.0925791   0.0169345   0.0000000), wk =   0.0277778
        k(   73) = (  -0.0925791   0.0338690   0.0000000), wk =   0.0277778
        k(   74) = (  -0.0925791  -0.1524104   0.0000000), wk =   0.0138889

     Dense  grid:   960801 G-vectors     FFT dimensions: (  80,  80, 360)

     Smooth grid:   242985 G-vectors     FFT dimensions: (  50,  54, 225)

     Estimated max dynamical RAM per process >     188.71 MB

     Estimated total dynamical RAM >       6.82 GB

     Initial potential from superposition of free atoms

     starting charge  149.99470, renormalised to  150.00000

     negative rho (up, down):  3.544E-03 0.000E+00


     %%%%%%%%%%%%%%%%%%%%%%%%%%%%%%%%%%%%%%%%%%%%%%%%%%%%%%%%%%%%%%%%%%%%%%%%
     %                                                                      %
     % You are using vdW-DF, which was implemented by the Thonhauser group. %
     % Please cite the following two papers that made this development      %
     % possible and the two reviews that describe the various versions:     %
     %                                                                      %
     %   T. Thonhauser et al., PRL 115, 136402 (2015).                      %
     %   T. Thonhauser et al., PRB 76, 125112 (2007).                       %
     %   K. Berland et al., Rep. Prog. Phys. 78, 066501 (2015).             %
     %   D.C. Langreth et al., J. Phys.: Condens. Matter 21, 084203 (2009). %
     %                                                                      %
     %                                                                      %
     % If you are calculating the stress with vdW-DF, please also cite:     %
     %                                                                      %
     %   R. Sabatini et al., J. Phys.: Condens. Matter 24, 424209 (2012).   %
     %                                                                      %
     %%%%%%%%%%%%%%%%%%%%%%%%%%%%%%%%%%%%%%%%%%%%%%%%%%%%%%%%%%%%%%%%%%%%%%%%



     Adding external electric field

     Computed dipole along edir(3) : 
        Dipole               -0.0010 Ry au,         -0.0026 Debye
        Dipole field         -0.0000 Ry au, 

        Potential amp.        0.0003 Ry
        Total length         45.1684 bohr

     Starting wfcs are  114 randomized atomic wfcs

     total cpu time spent up to now is       76.6 secs

     Self-consistent Calculation

     iteration #  1     ecut=    55.12 Ry     beta= 0.10
     Davidson diagonalization with overlap
     ethr =  1.00E-02,  avg # of iterations =  2.1

     negative rho (up, down):  3.468E-03 0.000E+00

     Adding external electric field

     Computed dipole along edir(3) : 
        Dipole               -0.1346 Ry au,         -0.3421 Debye
        Dipole field         -0.0004 Ry au, 

        Potential amp.        0.0347 Ry
        Total length         45.1684 bohr


     total cpu time spent up to now is      227.6 secs

     total energy              =   -1568.88248587 Ry
     estimated scf accuracy    <      31.93307233 Ry

     iteration #  2     ecut=    55.12 Ry     beta= 0.10
     Davidson diagonalization with overlap
     ethr =  1.00E-02,  avg # of iterations =  4.9

     negative rho (up, down):  3.454E-03 0.000E+00

     Adding external electric field

     Computed dipole along edir(3) : 
        Dipole                1.7841 Ry au,          4.5348 Debye
        Dipole field          0.0051 Ry au, 

        Potential amp.       -0.4606 Ry
        Total length         45.1684 bohr


     total cpu time spent up to now is      389.7 secs

     total energy              =   -1569.79994178 Ry
     estimated scf accuracy    <      56.27988255 Ry

     iteration #  3     ecut=    55.12 Ry     beta= 0.10
     Davidson diagonalization with overlap
     ethr =  1.00E-02,  avg # of iterations =  2.3

     negative rho (up, down):  3.437E-03 0.000E+00

     Adding external electric field

     Computed dipole along edir(3) : 
        Dipole                0.1009 Ry au,          0.2565 Debye
        Dipole field          0.0003 Ry au, 

        Potential amp.       -0.0261 Ry
        Total length         45.1684 bohr


     total cpu time spent up to now is      537.1 secs

     total energy              =   -1572.01057638 Ry
     estimated scf accuracy    <     106.66531925 Ry

     iteration #  4     ecut=    55.12 Ry     beta= 0.10
     Davidson diagonalization with overlap
     ethr =  1.00E-02,  avg # of iterations =  1.0

     negative rho (up, down):  3.523E-03 0.000E+00

     Adding external electric field

     Computed dipole along edir(3) : 
        Dipole                0.0754 Ry au,          0.1918 Debye
        Dipole field          0.0002 Ry au, 

        Potential amp.       -0.0195 Ry
        Total length         45.1684 bohr


     total cpu time spent up to now is      665.3 secs

     total energy              =   -1573.08162035 Ry
     estimated scf accuracy    <       5.18989329 Ry

     iteration #  5     ecut=    55.12 Ry     beta= 0.10
     Davidson diagonalization with overlap
     ethr =  3.46E-03,  avg # of iterations =  1.1

     negative rho (up, down):  3.639E-03 0.000E+00

     Adding external electric field

     Computed dipole along edir(3) : 
        Dipole               -0.0033 Ry au,         -0.0084 Debye
        Dipole field         -0.0000 Ry au, 

        Potential amp.        0.0008 Ry
        Total length         45.1684 bohr


     total cpu time spent up to now is      795.5 secs

     total energy              =   -1573.13756070 Ry
     estimated scf accuracy    <       1.66003346 Ry

     iteration #  6     ecut=    55.12 Ry     beta= 0.10
     Davidson diagonalization with overlap
     ethr =  1.11E-03,  avg # of iterations =  1.6

     negative rho (up, down):  3.425E-03 0.000E+00

     Adding external electric field

     Computed dipole along edir(3) : 
        Dipole                0.1541 Ry au,          0.3916 Debye
        Dipole field          0.0004 Ry au, 

        Potential amp.       -0.0398 Ry
        Total length         45.1684 bohr


     total cpu time spent up to now is      932.0 secs

     total energy              =   -1573.09062575 Ry
     estimated scf accuracy    <       0.43012745 Ry

     iteration #  7     ecut=    55.12 Ry     beta= 0.10
     Davidson diagonalization with overlap
     c_bands:  1 eigenvalues not converged
     ethr =  2.87E-04,  avg # of iterations =  5.1

     negative rho (up, down):  3.667E-03 0.000E+00

     Adding external electric field

     Computed dipole along edir(3) : 
        Dipole               -0.0460 Ry au,         -0.1170 Debye
        Dipole field         -0.0001 Ry au, 

        Potential amp.        0.0119 Ry
        Total length         45.1684 bohr


     total cpu time spent up to now is     1095.6 secs

     total energy              =   -1573.02706950 Ry
     estimated scf accuracy    <       2.72055883 Ry

     iteration #  8     ecut=    55.12 Ry     beta= 0.10
     Davidson diagonalization with overlap
     ethr =  2.87E-04,  avg # of iterations =  6.0

     negative rho (up, down):  3.729E-03 0.000E+00

     Adding external electric field

     Computed dipole along edir(3) : 
        Dipole               -0.0920 Ry au,         -0.2339 Debye
        Dipole field         -0.0003 Ry au, 

        Potential amp.        0.0238 Ry
        Total length         45.1684 bohr


     total cpu time spent up to now is     1265.9 secs

     total energy              =   -1573.13219518 Ry
     estimated scf accuracy    <       1.42833120 Ry

     iteration #  9     ecut=    55.12 Ry     beta= 0.10
     Davidson diagonalization with overlap
     ethr =  2.87E-04,  avg # of iterations =  1.1

     negative rho (up, down):  3.987E-03 0.000E+00

     Adding external electric field

     Computed dipole along edir(3) : 
        Dipole               -0.1199 Ry au,         -0.3047 Debye
        Dipole field         -0.0003 Ry au, 

        Potential amp.        0.0310 Ry
        Total length         45.1684 bohr


     total cpu time spent up to now is     1395.0 secs

     total energy              =   -1573.11758499 Ry
     estimated scf accuracy    <       2.30869593 Ry

     iteration # 10     ecut=    55.12 Ry     beta= 0.10
     Davidson diagonalization with overlap
     ethr =  2.87E-04,  avg # of iterations =  1.0

     negative rho (up, down):  3.810E-03 0.000E+00

     Adding external electric field

     Computed dipole along edir(3) : 
        Dipole               -0.0935 Ry au,         -0.2377 Debye
        Dipole field         -0.0003 Ry au, 

        Potential amp.        0.0241 Ry
        Total length         45.1684 bohr


     total cpu time spent up to now is     1523.8 secs

     total energy              =   -1573.10435856 Ry
     estimated scf accuracy    <       1.13233482 Ry

     iteration # 11     ecut=    55.12 Ry     beta= 0.10
     Davidson diagonalization with overlap
     ethr =  2.87E-04,  avg # of iterations =  1.0

     negative rho (up, down):  3.576E-03 0.000E+00

     Adding external electric field

     Computed dipole along edir(3) : 
        Dipole               -0.0404 Ry au,         -0.1027 Debye
        Dipole field         -0.0001 Ry au, 

        Potential amp.        0.0104 Ry
        Total length         45.1684 bohr


     total cpu time spent up to now is     1652.3 secs

     total energy              =   -1573.10085775 Ry
     estimated scf accuracy    <       0.19607455 Ry

     iteration # 12     ecut=    55.12 Ry     beta= 0.10
     Davidson diagonalization with overlap
     c_bands:  1 eigenvalues not converged
     ethr =  1.31E-04,  avg # of iterations =  2.9

     negative rho (up, down):  3.904E-03 0.000E+00

     Adding external electric field

     Computed dipole along edir(3) : 
        Dipole               -0.0225 Ry au,         -0.0573 Debye
        Dipole field         -0.0001 Ry au, 

        Potential amp.        0.0058 Ry
        Total length         45.1684 bohr


     total cpu time spent up to now is     1794.3 secs

     total energy              =   -1573.10589313 Ry
     estimated scf accuracy    <       0.03206313 Ry

     iteration # 13     ecut=    55.12 Ry     beta= 0.10
     Davidson diagonalization with overlap
     c_bands:  1 eigenvalues not converged
     ethr =  2.14E-05,  avg # of iterations = 11.9

     negative rho (up, down):  4.033E-03 0.000E+00

     Adding external electric field

     Computed dipole along edir(3) : 
        Dipole               -0.0720 Ry au,         -0.1829 Debye
        Dipole field         -0.0002 Ry au, 

        Potential amp.        0.0186 Ry
        Total length         45.1684 bohr


     total cpu time spent up to now is     1993.6 secs

     total energy              =   -1573.10803557 Ry
     estimated scf accuracy    <       0.00483768 Ry

     iteration # 14     ecut=    55.12 Ry     beta= 0.10
     Davidson diagonalization with overlap
     c_bands:  1 eigenvalues not converged
     c_bands:  1 eigenvalues not converged
     ethr =  3.23E-06,  avg # of iterations =  8.6

     negative rho (up, down):  4.028E-03 0.000E+00

     Adding external electric field

     Computed dipole along edir(3) : 
        Dipole               -0.0864 Ry au,         -0.2197 Debye
        Dipole field         -0.0002 Ry au, 

        Potential amp.        0.0223 Ry
        Total length         45.1684 bohr


     total cpu time spent up to now is     2193.0 secs

     total energy              =   -1573.10837613 Ry
     estimated scf accuracy    <       0.01456019 Ry

     iteration # 15     ecut=    55.12 Ry     beta= 0.10
     Davidson diagonalization with overlap
     ethr =  3.23E-06,  avg # of iterations =  1.8

     negative rho (up, down):  3.936E-03 0.000E+00

     Adding external electric field

     Computed dipole along edir(3) : 
        Dipole               -0.0715 Ry au,         -0.1817 Debye
        Dipole field         -0.0002 Ry au, 

        Potential amp.        0.0185 Ry
        Total length         45.1684 bohr


     total cpu time spent up to now is     2332.4 secs

     total energy              =   -1573.10853958 Ry
     estimated scf accuracy    <       0.00130971 Ry

     iteration # 16     ecut=    55.12 Ry     beta= 0.10
     Davidson diagonalization with overlap
     ethr =  8.73E-07,  avg # of iterations =  3.1

     negative rho (up, down):  3.928E-03 0.000E+00

     Adding external electric field

     Computed dipole along edir(3) : 
        Dipole               -0.0641 Ry au,         -0.1628 Debye
        Dipole field         -0.0002 Ry au, 

        Potential amp.        0.0165 Ry
        Total length         45.1684 bohr


     total cpu time spent up to now is     2490.9 secs

     total energy              =   -1573.10868313 Ry
     estimated scf accuracy    <       0.00050607 Ry

     iteration # 17     ecut=    55.12 Ry     beta= 0.10
     Davidson diagonalization with overlap
     ethr =  3.37E-07,  avg # of iterations =  4.3

     negative rho (up, down):  3.853E-03 0.000E+00

     Adding external electric field

     Computed dipole along edir(3) : 
        Dipole               -0.0709 Ry au,         -0.1802 Debye
        Dipole field         -0.0002 Ry au, 

        Potential amp.        0.0183 Ry
        Total length         45.1684 bohr


     total cpu time spent up to now is     2662.0 secs

     total energy              =   -1573.10872096 Ry
     estimated scf accuracy    <       0.00055332 Ry

     iteration # 18     ecut=    55.12 Ry     beta= 0.10
     Davidson diagonalization with overlap
     ethr =  3.37E-07,  avg # of iterations =  1.2

     negative rho (up, down):  3.788E-03 0.000E+00

     Adding external electric field

     Computed dipole along edir(3) : 
        Dipole               -0.0693 Ry au,         -0.1762 Debye
        Dipole field         -0.0002 Ry au, 

        Potential amp.        0.0179 Ry
        Total length         45.1684 bohr


     total cpu time spent up to now is     2793.4 secs

     total energy              =   -1573.10875477 Ry
     estimated scf accuracy    <       0.00011038 Ry

     iteration # 19     ecut=    55.12 Ry     beta= 0.10
     Davidson diagonalization with overlap
     ethr =  7.36E-08,  avg # of iterations =  4.6

     negative rho (up, down):  3.718E-03 0.000E+00

     Adding external electric field

     Computed dipole along edir(3) : 
        Dipole               -0.0668 Ry au,         -0.1699 Debye
        Dipole field         -0.0002 Ry au, 

        Potential amp.        0.0173 Ry
        Total length         45.1684 bohr


     total cpu time spent up to now is     2965.6 secs

     total energy              =   -1573.10876934 Ry
     estimated scf accuracy    <       0.00006163 Ry

     iteration # 20     ecut=    55.12 Ry     beta= 0.10
     Davidson diagonalization with overlap
     ethr =  4.11E-08,  avg # of iterations =  2.9

     negative rho (up, down):  3.659E-03 0.000E+00

     Adding external electric field

     Computed dipole along edir(3) : 
        Dipole               -0.0675 Ry au,         -0.1715 Debye
        Dipole field         -0.0002 Ry au, 

        Potential amp.        0.0174 Ry
        Total length         45.1684 bohr


     total cpu time spent up to now is     3123.5 secs

     total energy              =   -1573.10877576 Ry
     estimated scf accuracy    <       0.00005029 Ry

     iteration # 21     ecut=    55.12 Ry     beta= 0.10
     Davidson diagonalization with overlap
     ethr =  3.35E-08,  avg # of iterations =  1.3

     negative rho (up, down):  3.618E-03 0.000E+00

     Adding external electric field

     Computed dipole along edir(3) : 
        Dipole               -0.0667 Ry au,         -0.1695 Debye
        Dipole field         -0.0002 Ry au, 

        Potential amp.        0.0172 Ry
        Total length         45.1684 bohr


     total cpu time spent up to now is     3255.9 secs

     total energy              =   -1573.10877808 Ry
     estimated scf accuracy    <       0.00010359 Ry

     iteration # 22     ecut=    55.12 Ry     beta= 0.10
     Davidson diagonalization with overlap
     ethr =  3.35E-08,  avg # of iterations =  1.6

     negative rho (up, down):  3.579E-03 0.000E+00

     Adding external electric field

     Computed dipole along edir(3) : 
        Dipole               -0.0667 Ry au,         -0.1694 Debye
        Dipole field         -0.0002 Ry au, 

        Potential amp.        0.0172 Ry
        Total length         45.1684 bohr


     total cpu time spent up to now is     3392.5 secs

     total energy              =   -1573.10878237 Ry
     estimated scf accuracy    <       0.00002951 Ry

     iteration # 23     ecut=    55.12 Ry     beta= 0.10
     Davidson diagonalization with overlap
     ethr =  1.97E-08,  avg # of iterations =  1.9

     negative rho (up, down):  3.364E-03 0.000E+00

     Adding external electric field

     Computed dipole along edir(3) : 
        Dipole               -0.0673 Ry au,         -0.1709 Debye
        Dipole field         -0.0002 Ry au, 

        Potential amp.        0.0174 Ry
        Total length         45.1684 bohr


     total cpu time spent up to now is     3534.3 secs

     End of self-consistent calculation

          k = 0.0000 0.0000 0.0000 ( 30377 PWs)   bands (ev):

   -71.2352 -71.2025 -70.8802 -70.8504 -70.4401 -70.4114 -43.6396 -43.6031
   -42.4382 -42.4091 -42.3782 -42.2616 -42.2393 -42.2345 -42.1568 -42.1492
   -42.1296 -41.9788 -41.9565 -41.9475 -41.9223 -41.7117 -40.7805 -40.7584
    -7.5099  -6.1463  -5.7680  -5.7653  -5.5846  -5.4320  -5.2472  -5.0731
    -4.9987  -4.8730  -4.6079  -4.4203  -4.3563  -4.2355  -4.2011  -3.8094
    -3.6774  -3.5178  -3.4042  -3.2444  -3.1511  -2.9603  -2.9392  -2.8117
    -2.6864  -2.6120  -2.4565  -2.2185  -1.9568  -1.8335  -1.7067  -1.5094
    -1.4409  -1.1719  -0.9992  -0.9882  -0.9820  -0.8731  -0.8421  -0.4094
    -0.0626   0.0573   0.1952   0.2097   0.2154   0.4027   0.6868   0.7824
     1.0348   1.1729   1.3198   1.3580   1.4792   1.5524   1.5623   1.7649
     1.7968   1.8590   2.0422   2.0728   2.1409   2.2519   2.2564   2.2960
     2.3588   3.1171

          k = 0.0000 0.0169 0.0000 ( 30372 PWs)   bands (ev):

   -71.2352 -71.2025 -70.8802 -70.8504 -70.4401 -70.4114 -43.6396 -43.6032
   -42.4383 -42.4093 -42.3782 -42.2616 -42.2394 -42.2345 -42.1569 -42.1492
   -42.1297 -41.9788 -41.9565 -41.9475 -41.9224 -41.7117 -40.7805 -40.7584
    -7.4701  -6.1310  -5.7530  -5.7494  -5.5674  -5.4200  -5.2306  -5.0618
    -4.9841  -4.8617  -4.5888  -4.4031  -4.3464  -4.2465  -4.1888  -3.8082
    -3.6546  -3.5120  -3.4055  -3.2593  -3.1650  -2.9507  -2.9289  -2.8068
    -2.6903  -2.6222  -2.4483  -2.2241  -1.9584  -1.8311  -1.7163  -1.5226
    -1.4415  -1.2123  -1.0635  -1.0028  -0.9894  -0.8824  -0.8321  -0.4382
    -0.0652  -0.0383   0.1267   0.2168   0.2205   0.2597   0.6033   0.7927
     1.0300   1.2066   1.2330   1.2801   1.4469   1.4961   1.5395   1.6592
     1.7688   1.8687   1.9857   2.0189   2.1622   2.1638   2.2871   2.3013
     2.5228   3.1177

          k = 0.0000 0.0339 0.0000 ( 30350 PWs)   bands (ev):

   -71.2352 -71.2025 -70.8802 -70.8504 -70.4401 -70.4114 -43.6396 -43.6032
   -42.4384 -42.4096 -42.3782 -42.2616 -42.2395 -42.2345 -42.1572 -42.1493
   -42.1298 -41.9788 -41.9565 -41.9476 -41.9224 -41.7117 -40.7805 -40.7584
    -7.3562  -6.0922  -5.7164  -5.7001  -5.5166  -5.3878  -5.1797  -5.0304
    -4.9421  -4.8306  -4.5352  -4.3521  -4.3165  -4.2657  -4.1671  -3.8033
    -3.5919  -3.5019  -3.4090  -3.2954  -3.1961  -2.9326  -2.9011  -2.7927
    -2.7020  -2.6499  -2.4253  -2.2392  -1.9623  -1.8246  -1.7445  -1.5985
    -1.4432  -1.3464  -1.1979  -1.0518  -1.0106  -0.9058  -0.8265  -0.5120
    -0.2235  -0.0726  -0.0618  -0.0185   0.1717   0.2192   0.4241   0.7448
     1.0022   1.0046   1.0630   1.1606   1.3662   1.4517   1.4795   1.4993
     1.7766   1.7781   1.9009   1.9554   2.0527   2.1421   2.2637   2.5191
     2.8146   3.1299

          k = 0.0000 0.0508 0.0000 ( 30374 PWs)   bands (ev):

   -71.2352 -71.2025 -70.8801 -70.8504 -70.4401 -70.4114 -43.6396 -43.6032
   -42.4385 -42.4099 -42.3784 -42.2617 -42.2397 -42.2345 -42.1576 -42.1493
   -42.1300 -41.9788 -41.9566 -41.9477 -41.9225 -41.7117 -40.7805 -40.7584
    -7.1865  -6.0476  -5.6583  -5.6379  -5.4356  -5.3454  -5.0940  -4.9852
    -4.8788  -4.7879  -4.4595  -4.2862  -4.2736  -4.2674  -4.1460  -3.7990
    -3.5084  -3.5059  -3.4137  -3.3209  -3.2296  -2.9205  -2.8646  -2.7712
    -2.7252  -2.6853  -2.3926  -2.2584  -1.9667  -1.8809  -1.8162  -1.7907
    -1.4753  -1.4457  -1.3132  -1.1501  -1.0418  -0.9362  -0.8477  -0.5890
    -0.4175  -0.3958  -0.1554  -0.0835   0.0504   0.1355   0.2517   0.5816
     0.7358   0.7470   0.9848   0.9943   1.2230   1.3999   1.4322   1.5094
     1.7229   1.7833   1.8683   1.9168   1.9416   2.2331   2.2523   2.7059
     3.1186   3.2194

          k = 0.0000 0.0677 0.0000 ( 30352 PWs)   bands (ev):

   -71.2352 -71.2025 -70.8801 -70.8504 -70.4401 -70.4113 -43.6397 -43.6032
   -42.4387 -42.4103 -42.3785 -42.2617 -42.2398 -42.2346 -42.1579 -42.1493
   -42.1301 -41.9788 -41.9566 -41.9479 -41.9226 -41.7117 -40.7805 -40.7584
    -6.9959  -6.0137  -5.5884  -5.5825  -5.3381  -5.3035  -4.9798  -4.9328
    -4.8089  -4.7449  -4.3825  -4.3055  -4.2137  -4.2044  -4.1295  -3.7935
    -3.5349  -3.4222  -3.4182  -3.3009  -3.2588  -2.9186  -2.8316  -2.7749
    -2.7450  -2.7133  -2.3584  -2.2758  -2.2607  -1.9702  -1.8483  -1.8083
    -1.5742  -1.4484  -1.3950  -1.2995  -1.0760  -0.9694  -0.9266  -0.6368
    -0.6219  -0.5713  -0.2805  -0.1400  -0.0953  -0.0656   0.1734   0.3821
     0.4892   0.5371   0.8359   0.9685   1.1779   1.3209   1.3924   1.5690
     1.7093   1.7752   1.7936   1.8052   1.9769   2.2038   2.4466   2.8377
     3.3699   3.5145

          k = 0.0000 0.0847 0.0000 ( 30314 PWs)   bands (ev):

   -71.2351 -71.2025 -70.8801 -70.8504 -70.4401 -70.4113 -43.6397 -43.6032
   -42.4388 -42.4105 -42.3786 -42.2617 -42.2399 -42.2346 -42.1582 -42.1493
   -42.1302 -41.9789 -41.9567 -41.9479 -41.9226 -41.7117 -40.7805 -40.7584
    -6.8393  -5.9967  -5.5459  -5.5279  -5.2714  -5.2541  -4.9122  -4.8110
    -4.7547  -4.7134  -4.3262  -4.3191  -4.2968  -4.1460  -4.1198  -3.7250
    -3.5335  -3.4215  -3.3643  -3.2813  -3.2629  -2.9222  -2.8789  -2.8109
    -2.7259  -2.7216  -2.5118  -2.3326  -2.2879  -1.9719  -1.8968  -1.8028
    -1.6919  -1.4505  -1.4464  -1.4344  -1.1026  -1.0355  -1.0007  -0.7605
    -0.6649  -0.5983  -0.3844  -0.3006  -0.2411  -0.1045   0.1259   0.2174
     0.3256   0.4769   0.7519   0.9506   1.1484   1.2631   1.3602   1.6057
     1.7144   1.7231   1.7386   1.7928   2.0004   2.1832   2.6245   2.9190
     3.5185   3.5339

          k = 0.0000-0.1016 0.0000 ( 30238 PWs)   bands (ev):

   -71.2351 -71.2025 -70.8801 -70.8504 -70.4401 -70.4113 -43.6397 -43.6032
   -42.4388 -42.4107 -42.3785 -42.2617 -42.2400 -42.2346 -42.1583 -42.1493
   -42.1302 -41.9789 -41.9567 -41.9480 -41.9225 -41.7117 -40.7805 -40.7584
    -6.7775  -5.9925  -5.5332  -5.5035  -5.2589  -5.2202  -4.8982  -4.7346
    -4.7018  -4.6867  -4.4262  -4.3237  -4.3057  -4.1215  -4.1168  -3.6765
    -3.4937  -3.4228  -3.3442  -3.2902  -3.2597  -2.9569  -2.9246  -2.8041
    -2.7284  -2.7121  -2.5803  -2.3230  -2.2924  -1.9724  -1.9149  -1.8008
    -1.7532  -1.5064  -1.4513  -1.4448  -1.1126  -1.0828  -1.0151  -0.7959
    -0.6962  -0.5613  -0.4392  -0.3656  -0.3089  -0.1081   0.1084   0.1621
     0.2707   0.4624   0.7260   0.9442   1.1351   1.2419   1.3465   1.6178
     1.6909   1.7174   1.7349   1.7935   2.0086   2.1759   2.7029   2.9471
     3.2924   3.5202

          k = 0.0154 0.0085 0.0000 ( 30408 PWs)   bands (ev):

   -71.2347 -71.2030 -70.8797 -70.8509 -70.4396 -70.4118 -43.6391 -43.6037
   -42.4334 -42.4087 -42.3787 -42.2612 -42.2351 -42.2348 -42.1565 -42.1542
   -42.1302 -41.9833 -41.9524 -41.9471 -41.9228 -41.7160 -40.7802 -40.7587
    -7.4484  -6.0823  -5.7392  -5.7190  -5.5539  -5.3791  -5.2218  -5.0569
    -4.9711  -4.8794  -4.6015  -4.3968  -4.3645  -4.2046  -4.1694  -3.8014
    -3.6724  -3.5114  -3.3797  -3.2610  -3.1591  -2.9757  -2.9663  -2.8747
    -2.6720  -2.6293  -2.5079  -2.2302  -2.0062  -1.8956  -1.7013  -1.5113
    -1.4850  -1.1623  -1.0885  -0.9960  -0.9883  -0.8494  -0.8129  -0.3889
    -0.1863  -0.1230   0.0258   0.2064   0.2491   0.3863   0.5887   0.8072
     1.0212   1.1624   1.2581   1.3189   1.3584   1.5115   1.5666   1.6399
     1.7602   1.8161   1.9272   2.1059   2.1882   2.2309   2.3288   2.3700
     2.4617   3.1004

          k = 0.0154 0.0254 0.0000 ( 30374 PWs)   bands (ev):

   -71.2347 -71.2030 -70.8797 -70.8509 -70.4396 -70.4118 -43.6391 -43.6037
   -42.4335 -42.4089 -42.3788 -42.2612 -42.2351 -42.2349 -42.1566 -42.1542
   -42.1302 -41.9833 -41.9524 -41.9471 -41.9228 -41.7160 -40.7802 -40.7587
    -7.3699  -6.0530  -5.7042  -5.6947  -5.5203  -5.3558  -5.1911  -5.0344
    -4.9441  -4.8582  -4.5658  -4.3643  -4.3457  -4.2220  -4.1491  -3.7995
    -3.6294  -3.5013  -3.3822  -3.2868  -3.1835  -2.9604  -2.9506  -2.8684
    -2.6774  -2.6485  -2.4951  -2.2409  -2.0095  -1.8924  -1.7212  -1.5291
    -1.5023  -1.2388  -1.1153  -1.1058  -1.0119  -0.8691  -0.8008  -0.4408
    -0.3174  -0.1255  -0.0897   0.0882   0.2294   0.3044   0.4463   0.8032
     1.0065   1.0798   1.0884   1.1924   1.3415   1.4296   1.5054   1.5496
     1.7380   1.7483   1.8952   2.0845   2.0920   2.2642   2.3484   2.3694
     2.7212   3.1077

          k = 0.0154 0.0423 0.0000 ( 30372 PWs)   bands (ev):

   -71.2346 -71.2030 -70.8797 -70.8509 -70.4396 -70.4118 -43.6391 -43.6037
   -42.4336 -42.4092 -42.3788 -42.2612 -42.2353 -42.2349 -42.1570 -42.1542
   -42.1303 -41.9833 -41.9524 -41.9473 -41.9229 -41.7160 -40.7802 -40.7587
    -7.2242  -6.0082  -5.6470  -5.6464  -5.4547  -5.3178  -5.1265  -4.9945
    -4.8940  -4.8212  -4.5029  -4.3093  -4.3012  -4.2394  -4.1268  -3.7960
    -3.5546  -3.4970  -3.3865  -3.3193  -3.2165  -2.9343  -2.9341  -2.8600
    -2.6874  -2.6815  -2.4737  -2.2584  -2.0154  -1.8893  -1.7602  -1.6865
    -1.5043  -1.3861  -1.2277  -1.1797  -1.0447  -0.9050  -0.8057  -0.5199
    -0.5147  -0.3198  -0.1335  -0.0458   0.1515   0.2184   0.2751   0.6947
     0.7877   0.8691   0.9857   1.0769   1.2267   1.3157   1.4524   1.5681
     1.7170   1.7323   1.8228   1.9741   1.9757   2.2086   2.3384   2.5830
     3.0635   3.2311

          k = 0.0154 0.0593 0.0000 ( 30349 PWs)   bands (ev):

   -71.2346 -71.2030 -70.8796 -70.8509 -70.4396 -70.4118 -43.6391 -43.6037
   -42.4338 -42.4096 -42.3789 -42.2612 -42.2354 -42.2350 -42.1573 -42.1542
   -42.1305 -41.9833 -41.9525 -41.9474 -41.9230 -41.7159 -40.7802 -40.7587
    -7.0369  -5.9669  -5.5856  -5.5812  -5.3634  -5.2777  -5.0274  -4.9452
    -4.8324  -4.7765  -4.4299  -4.2736  -4.2382  -4.2247  -4.1079  -3.7982
    -3.5208  -3.4693  -3.3913  -3.3164  -3.2472  -2.9273  -2.9088  -2.8598
    -2.7152  -2.7028  -2.4521  -2.2768  -2.0629  -1.9994  -1.8743  -1.8150
    -1.5063  -1.4826  -1.3168  -1.3052  -1.0880  -0.9488  -0.8518  -0.7056
    -0.5791  -0.5191  -0.1809  -0.1338  -0.0048   0.0405   0.1821   0.4954
     0.5243   0.6330   0.9030   0.9870   1.1724   1.2671   1.3701   1.5937
     1.7313   1.7346   1.7615   1.8667   1.8921   2.1986   2.4393   2.7390
     3.1433   3.3222

          k = 0.0154 0.0762 0.0000 ( 30331 PWs)   bands (ev):

   -71.2346 -71.2030 -70.8796 -70.8509 -70.4396 -70.4118 -43.6392 -43.6037
   -42.4339 -42.4099 -42.3791 -42.2612 -42.2355 -42.2350 -42.1576 -42.1543
   -42.1306 -41.9834 -41.9525 -41.9475 -41.9230 -41.7160 -40.7802 -40.7587
    -6.8533  -5.9413  -5.5385  -5.5120  -5.2671  -5.2456  -4.9226  -4.8713
    -4.7813  -4.7324  -4.3695  -4.2754  -4.2268  -4.1884  -4.0950  -3.7712
    -3.5447  -3.4001  -3.3935  -3.2765  -3.2727  -2.9305  -2.9280  -2.8663
    -2.7352  -2.7204  -2.4481  -2.3372  -2.2916  -2.0200  -1.8756  -1.8711
    -1.5862  -1.5034  -1.4707  -1.3714  -1.1281  -0.9914  -0.9530  -0.8225
    -0.6423  -0.5827  -0.2894  -0.2023  -0.1559  -0.1266   0.1235   0.2905
     0.3415   0.5334   0.8005   0.9578   1.1435   1.2356   1.3015   1.6023
     1.7145   1.7224   1.7452   1.7950   1.8786   2.1753   2.6018   2.8434
     3.1814   3.4285

          k = 0.0154 0.0931 0.0000 ( 30272 PWs)   bands (ev):

   -71.2346 -71.2030 -70.8796 -70.8509 -70.4396 -70.4118 -43.6392 -43.6037
   -42.4340 -42.4101 -42.3791 -42.2612 -42.2356 -42.2350 -42.1578 -42.1543
   -42.1307 -41.9834 -41.9525 -41.9475 -41.9229 -41.7160 -40.7802 -40.7587
    -6.7354  -5.9318  -5.5132  -5.4653  -5.2277  -5.2023  -4.8906  -4.7569
    -4.7149  -4.7023  -4.3752  -4.3387  -4.2752  -4.1496  -4.0889  -3.6909
    -3.5202  -3.3987  -3.3565  -3.2905  -3.2593  -3.0174  -2.9364  -2.8563
    -2.7409  -2.7295  -2.5094  -2.4023  -2.3000  -2.0268  -1.9052  -1.8763
    -1.6776  -1.5848  -1.5042  -1.3905  -1.1526  -1.0364  -1.0208  -0.8699
    -0.6999  -0.5442  -0.3738  -0.3011  -0.2800  -0.1433   0.0895   0.1891
     0.2418   0.5029   0.7479   0.9448   1.1225   1.2148   1.2612   1.5966
     1.6896   1.7036   1.7405   1.7935   1.8874   2.1598   2.7238   2.8966
     3.2027   3.3263

          k = 0.0154-0.0931 0.0000 ( 30272 PWs)   bands (ev):

   -71.2346 -71.2030 -70.8796 -70.8509 -70.4396 -70.4118 -43.6392 -43.6037
   -42.4340 -42.4101 -42.3791 -42.2612 -42.2356 -42.2350 -42.1578 -42.1543
   -42.1307 -41.9834 -41.9525 -41.9475 -41.9229 -41.7160 -40.7802 -40.7587
    -6.7354  -5.9318  -5.5132  -5.4653  -5.2277  -5.2023  -4.8906  -4.7570
    -4.7149  -4.7023  -4.3752  -4.3387  -4.2752  -4.1496  -4.0889  -3.6909
    -3.5202  -3.3988  -3.3565  -3.2905  -3.2593  -3.0175  -2.9364  -2.8562
    -2.7409  -2.7295  -2.5094  -2.4022  -2.3000  -2.0268  -1.9052  -1.8763
    -1.6776  -1.5849  -1.5042  -1.3905  -1.1526  -1.0364  -1.0208  -0.8699
    -0.6999  -0.5443  -0.3737  -0.3011  -0.2800  -0.1433   0.0895   0.1891
     0.2418   0.5029   0.7479   0.9448   1.1225   1.2148   1.2612   1.5966
     1.6896   1.7036   1.7405   1.7935   1.8874   2.1598   2.7238   2.8966
     3.2026   3.3263

          k = 0.0154-0.0762 0.0000 ( 30331 PWs)   bands (ev):

   -71.2346 -71.2030 -70.8796 -70.8509 -70.4396 -70.4118 -43.6392 -43.6037
   -42.4339 -42.4099 -42.3791 -42.2612 -42.2355 -42.2350 -42.1576 -42.1543
   -42.1306 -41.9834 -41.9525 -41.9475 -41.9230 -41.7160 -40.7802 -40.7587
    -6.8533  -5.9413  -5.5385  -5.5120  -5.2671  -5.2456  -4.9226  -4.8713
    -4.7813  -4.7324  -4.3695  -4.2753  -4.2268  -4.1884  -4.0950  -3.7711
    -3.5447  -3.4002  -3.3934  -3.2765  -3.2727  -2.9305  -2.9280  -2.8662
    -2.7352  -2.7204  -2.4481  -2.3372  -2.2916  -2.0200  -1.8756  -1.8711
    -1.5862  -1.5034  -1.4707  -1.3715  -1.1281  -0.9914  -0.9530  -0.8225
    -0.6422  -0.5827  -0.2893  -0.2023  -0.1559  -0.1267   0.1234   0.2906
     0.3416   0.5334   0.8004   0.9578   1.1435   1.2357   1.3015   1.6022
     1.7145   1.7224   1.7452   1.7950   1.8786   2.1753   2.6018   2.8434
     3.1813   3.4296

          k = 0.0154-0.0593 0.0000 ( 30349 PWs)   bands (ev):

   -71.2346 -71.2030 -70.8796 -70.8509 -70.4396 -70.4118 -43.6391 -43.6037
   -42.4338 -42.4096 -42.3789 -42.2612 -42.2354 -42.2350 -42.1573 -42.1542
   -42.1305 -41.9833 -41.9525 -41.9474 -41.9230 -41.7159 -40.7802 -40.7587
    -7.0369  -5.9669  -5.5856  -5.5812  -5.3634  -5.2777  -5.0274  -4.9452
    -4.8324  -4.7765  -4.4299  -4.2736  -4.2382  -4.2247  -4.1079  -3.7982
    -3.5208  -3.4693  -3.3913  -3.3164  -3.2473  -2.9273  -2.9087  -2.8598
    -2.7152  -2.7028  -2.4521  -2.2768  -2.0629  -1.9994  -1.8743  -1.8150
    -1.5063  -1.4826  -1.3169  -1.3053  -1.0880  -0.9488  -0.8518  -0.7056
    -0.5792  -0.5191  -0.1809  -0.1336  -0.0050   0.0405   0.1821   0.4955
     0.5245   0.6330   0.9030   0.9870   1.1724   1.2672   1.3701   1.5936
     1.7313   1.7346   1.7616   1.8667   1.8921   2.1986   2.4393   2.7390
     3.1433   3.3224

          k = 0.0154-0.0423 0.0000 ( 30372 PWs)   bands (ev):

   -71.2346 -71.2030 -70.8797 -70.8509 -70.4396 -70.4118 -43.6391 -43.6037
   -42.4336 -42.4092 -42.3788 -42.2612 -42.2353 -42.2349 -42.1570 -42.1542
   -42.1303 -41.9833 -41.9524 -41.9473 -41.9229 -41.7160 -40.7802 -40.7587
    -7.2242  -6.0082  -5.6470  -5.6464  -5.4547  -5.3178  -5.1265  -4.9945
    -4.8940  -4.8212  -4.5029  -4.3093  -4.3012  -4.2394  -4.1268  -3.7960
    -3.5546  -3.4971  -3.3865  -3.3193  -3.2165  -2.9343  -2.9341  -2.8600
    -2.6874  -2.6815  -2.4737  -2.2584  -2.0154  -1.8893  -1.7602  -1.6865
    -1.5043  -1.3861  -1.2278  -1.1798  -1.0446  -0.9049  -0.8057  -0.5199
    -0.5147  -0.3198  -0.1335  -0.0457   0.1514   0.2184   0.2752   0.6948
     0.7877   0.8691   0.9857   1.0768   1.2268   1.3159   1.4524   1.5681
     1.7170   1.7322   1.8227   1.9740   1.9757   2.2087   2.3382   2.5831
     3.0636   3.2136

          k = 0.0154-0.0254 0.0000 ( 30374 PWs)   bands (ev):

   -71.2347 -71.2030 -70.8797 -70.8509 -70.4396 -70.4118 -43.6391 -43.6037
   -42.4335 -42.4089 -42.3788 -42.2612 -42.2351 -42.2349 -42.1566 -42.1542
   -42.1302 -41.9833 -41.9524 -41.9471 -41.9228 -41.7160 -40.7802 -40.7587
    -7.3699  -6.0530  -5.7042  -5.6947  -5.5203  -5.3558  -5.1911  -5.0344
    -4.9441  -4.8582  -4.5658  -4.3643  -4.3457  -4.2220  -4.1491  -3.7995
    -3.6294  -3.5013  -3.3822  -3.2868  -3.1835  -2.9603  -2.9505  -2.8684
    -2.6774  -2.6485  -2.4951  -2.2409  -2.0095  -1.8924  -1.7211  -1.5291
    -1.5023  -1.2388  -1.1153  -1.1058  -1.0119  -0.8691  -0.8008  -0.4409
    -0.3175  -0.1255  -0.0897   0.0884   0.2292   0.3044   0.4464   0.8033
     1.0065   1.0797   1.0884   1.1924   1.3415   1.4297   1.5055   1.5496
     1.7381   1.7482   1.8952   2.0844   2.0920   2.2642   2.3484   2.3695
     2.7212   3.1075

          k = 0.0154-0.0085 0.0000 ( 30408 PWs)   bands (ev):

   -71.2347 -71.2030 -70.8797 -70.8509 -70.4396 -70.4118 -43.6391 -43.6037
   -42.4334 -42.4087 -42.3787 -42.2612 -42.2351 -42.2348 -42.1565 -42.1542
   -42.1302 -41.9833 -41.9524 -41.9471 -41.9228 -41.7160 -40.7802 -40.7587
    -7.4484  -6.0823  -5.7392  -5.7190  -5.5539  -5.3791  -5.2218  -5.0569
    -4.9711  -4.8794  -4.6015  -4.3968  -4.3645  -4.2046  -4.1694  -3.8014
    -3.6724  -3.5114  -3.3797  -3.2610  -3.1591  -2.9757  -2.9663  -2.8747
    -2.6720  -2.6293  -2.5079  -2.2302  -2.0062  -1.8956  -1.7013  -1.5112
    -1.4850  -1.1623  -1.0886  -0.9959  -0.9883  -0.8494  -0.8129  -0.3889
    -0.1863  -0.1230   0.0258   0.2066   0.2488   0.3863   0.5887   0.8072
     1.0213   1.1624   1.2580   1.3190   1.3583   1.5113   1.5667   1.6401
     1.7602   1.8160   1.9272   2.1059   2.1882   2.2309   2.3287   2.3701
     2.4616   3.0994

          k = 0.0309 0.0169 0.0000 ( 30404 PWs)   bands (ev):

   -71.2331 -71.2046 -70.8782 -70.8524 -70.4382 -70.4133 -43.6375 -43.6052
   -42.4192 -42.4072 -42.3804 -42.2598 -42.2363 -42.2222 -42.1689 -42.1551
   -42.1316 -41.9965 -41.9458 -41.9403 -41.9241 -41.7284 -40.7793 -40.7596
    -7.2669  -5.8935  -5.6570  -5.5868  -5.4643  -5.2326  -5.1368  -5.0066
    -4.9240  -4.8649  -4.5845  -4.3764  -4.3295  -4.1270  -4.0781  -3.7835
    -3.6595  -3.4934  -3.3257  -3.3085  -3.1827  -3.0839  -3.0017  -2.9844
    -2.6878  -2.6781  -2.6177  -2.2656  -2.1387  -2.0640  -1.6868  -1.6520
    -1.4576  -1.3761  -1.1382  -1.0397  -0.9927  -0.8644  -0.8113  -0.7362
    -0.3448  -0.2228  -0.1841   0.0250   0.1999   0.3232   0.5331   0.8438
     0.9176   1.0299   1.0797   1.1689   1.2352   1.3412   1.4543   1.5218
     1.6590   1.7076   2.0039   2.0453   2.1687   2.3088   2.4632   2.4865
     2.7101   2.7906

          k = 0.0309 0.0339 0.0000 ( 30403 PWs)   bands (ev):

   -71.2331 -71.2046 -70.8782 -70.8524 -70.4382 -70.4133 -43.6376 -43.6052
   -42.4193 -42.4075 -42.3804 -42.2598 -42.2363 -42.2223 -42.1689 -42.1554
   -42.1317 -41.9965 -41.9460 -41.9403 -41.9241 -41.7284 -40.7793 -40.7596
    -7.1516  -5.8520  -5.6116  -5.5525  -5.4175  -5.1944  -5.1063  -4.9717
    -4.9067  -4.8217  -4.5415  -4.3503  -4.2897  -4.1471  -4.0547  -3.7859
    -3.6034  -3.4826  -3.3473  -3.3125  -3.2109  -3.0835  -2.9963  -2.9678
    -2.7040  -2.6830  -2.6201  -2.2793  -2.1450  -2.0633  -1.7221  -1.6549
    -1.5234  -1.4247  -1.2459  -1.1232  -1.0982  -0.9284  -0.8556  -0.7290
    -0.4035  -0.3700  -0.2265   0.0214   0.0941   0.2741   0.3685   0.7171
     0.7962   0.9326   0.9464   1.0470   1.1824   1.2882   1.4338   1.4522
     1.6268   1.6645   1.9433   1.9987   2.2083   2.3550   2.3757   2.5735
     2.7838   2.9881

          k = 0.0309 0.0508 0.0000 ( 30407 PWs)   bands (ev):

   -71.2331 -71.2046 -70.8782 -70.8524 -70.4382 -70.4133 -43.6376 -43.6053
   -42.4194 -42.4078 -42.3804 -42.2599 -42.2364 -42.2224 -42.1689 -42.1557
   -42.1318 -41.9966 -41.9461 -41.9404 -41.9242 -41.7284 -40.7793 -40.7596
    -6.9782  -5.8049  -5.5518  -5.4978  -5.3418  -5.1516  -5.0404  -4.9237
    -4.8820  -4.7606  -4.4846  -4.3103  -4.2282  -4.1639  -4.0337  -3.7945
    -3.5283  -3.5008  -3.3427  -3.3182  -3.2401  -3.0845  -2.9968  -2.9558
    -2.7389  -2.6782  -2.6273  -2.2963  -2.1567  -2.0687  -1.7770  -1.7757
    -1.6303  -1.5342  -1.3705  -1.2067  -1.1998  -0.9808  -0.8980  -0.7512
    -0.5439  -0.4711  -0.2329  -0.0301  -0.0113   0.1606   0.1929   0.4169
     0.6832   0.7528   0.8747   1.0098   1.1472   1.1624   1.4183   1.4217
     1.6346   1.6355   1.8553   1.8878   2.0908   2.2265   2.5501   2.5810
     2.8382   3.3173

          k = 0.0309 0.0677 0.0000 ( 30359 PWs)   bands (ev):

   -71.2331 -71.2046 -70.8781 -70.8524 -70.4382 -70.4133 -43.6376 -43.6053
   -42.4196 -42.4082 -42.3805 -42.2599 -42.2364 -42.2225 -42.1690 -42.1560
   -42.1319 -41.9966 -41.9462 -41.9404 -41.9242 -41.7284 -40.7793 -40.7596
    -6.7805  -5.7700  -5.4964  -5.4324  -5.2458  -5.1212  -4.9379  -4.8678
    -4.8606  -4.6957  -4.4306  -4.2657  -4.1858  -4.1740  -4.0178  -3.8062
    -3.5448  -3.4560  -3.3247  -3.2945  -3.2637  -3.0994  -3.0130  -2.9563
    -2.7667  -2.6769  -2.6427  -2.3118  -2.2013  -2.1057  -2.0051  -1.8409
    -1.6989  -1.6375  -1.4444  -1.2948  -1.2562  -1.0112  -0.9434  -0.8258
    -0.6620  -0.5011  -0.2552  -0.1080  -0.1056  -0.0033   0.0122   0.2143
     0.5339   0.6505   0.8110   0.9771   1.0665   1.1192   1.3615   1.4115
     1.6386   1.6540   1.7951   1.7992   1.9561   2.1707   2.6492   2.6751
     2.9147   3.4089

          k = 0.0309 0.0847 0.0000 ( 30315 PWs)   bands (ev):

   -71.2330 -71.2046 -70.8781 -70.8524 -70.4382 -70.4133 -43.6376 -43.6053
   -42.4197 -42.4084 -42.3806 -42.2599 -42.2364 -42.2226 -42.1689 -42.1563
   -42.1320 -41.9966 -41.9462 -41.9405 -41.9242 -41.7284 -40.7793 -40.7596
    -6.6146  -5.7534  -5.4589  -5.3757  -5.1552  -5.1041  -4.8693  -4.8527
    -4.7520  -4.6469  -4.3914  -4.2767  -4.2334  -4.1755  -4.0080  -3.7493
    -3.5658  -3.4041  -3.3301  -3.2814  -3.2700  -3.1299  -3.0365  -2.9675
    -2.7769  -2.6856  -2.6541  -2.3228  -2.3154  -2.1499  -2.0536  -1.8918
    -1.8394  -1.6387  -1.5257  -1.3488  -1.2824  -1.0360  -0.9725  -0.9222
    -0.7252  -0.4870  -0.2958  -0.2038  -0.1617  -0.1397  -0.1023   0.1207
     0.4284   0.6110   0.7590   0.9461   1.0242   1.0906   1.3153   1.4025
     1.6432   1.6653   1.7147   1.7779   1.9095   2.1299   2.6963   2.7820
     2.9856   3.3778

          k = 0.0309 0.1016 0.0000 ( 30330 PWs)   bands (ev):

   -71.2330 -71.2046 -70.8781 -70.8524 -70.4382 -70.4133 -43.6376 -43.6053
   -42.4197 -42.4085 -42.3806 -42.2599 -42.2364 -42.2227 -42.1690 -42.1564
   -42.1320 -41.9966 -41.9463 -41.9405 -41.9242 -41.7284 -40.7793 -40.7596
    -6.5480  -5.7498  -5.4457  -5.3523  -5.1149  -5.0988  -4.8546  -4.8539
    -4.6297  -4.6270  -4.4103  -4.3759  -4.2233  -4.1737  -4.0047  -3.6914
    -3.5550  -3.3845  -3.3320  -3.3069  -3.2896  -3.1364  -3.0419  -2.9742
    -2.7781  -2.6914  -2.6562  -2.3538  -2.3270  -2.1664  -2.0630  -1.9094
    -1.8937  -1.6388  -1.5695  -1.3686  -1.2854  -1.0474  -0.9805  -0.9644
    -0.7449  -0.4703  -0.3172  -0.2594  -0.1797  -0.1712  -0.1460   0.0918
     0.3941   0.6000   0.7388   0.9349   1.0123   1.0787   1.2976   1.3984
     1.6449   1.6678   1.6793   1.7743   1.9056   2.1147   2.7103   2.8342
     3.0152   3.3282

          k = 0.0309-0.0847 0.0000 ( 30315 PWs)   bands (ev):

   -71.2330 -71.2046 -70.8781 -70.8524 -70.4382 -70.4133 -43.6376 -43.6053
   -42.4197 -42.4084 -42.3806 -42.2599 -42.2364 -42.2226 -42.1689 -42.1563
   -42.1320 -41.9966 -41.9462 -41.9405 -41.9242 -41.7284 -40.7793 -40.7596
    -6.6146  -5.7534  -5.4589  -5.3757  -5.1552  -5.1041  -4.8693  -4.8527
    -4.7520  -4.6469  -4.3914  -4.2767  -4.2333  -4.1755  -4.0080  -3.7493
    -3.5658  -3.4041  -3.3301  -3.2815  -3.2700  -3.1299  -3.0365  -2.9675
    -2.7769  -2.6856  -2.6541  -2.3228  -2.3154  -2.1499  -2.0537  -1.8917
    -1.8395  -1.6387  -1.5257  -1.3488  -1.2825  -1.0361  -0.9725  -0.9222
    -0.7252  -0.4872  -0.2955  -0.2038  -0.1620  -0.1397  -0.1023   0.1207
     0.4284   0.6111   0.7589   0.9462   1.0243   1.0906   1.3153   1.4024
     1.6431   1.6653   1.7147   1.7778   1.9096   2.1299   2.6963   2.7820
     2.9855   3.3776

          k = 0.0309-0.0677 0.0000 ( 30359 PWs)   bands (ev):

   -71.2331 -71.2046 -70.8781 -70.8524 -70.4382 -70.4133 -43.6376 -43.6053
   -42.4196 -42.4082 -42.3805 -42.2599 -42.2364 -42.2225 -42.1690 -42.1560
   -42.1319 -41.9966 -41.9462 -41.9404 -41.9242 -41.7284 -40.7793 -40.7596
    -6.7805  -5.7700  -5.4964  -5.4324  -5.2458  -5.1212  -4.9379  -4.8678
    -4.8606  -4.6956  -4.4306  -4.2657  -4.1858  -4.1740  -4.0178  -3.8062
    -3.5449  -3.4560  -3.3247  -3.2945  -3.2637  -3.0994  -3.0130  -2.9563
    -2.7667  -2.6769  -2.6427  -2.3118  -2.2013  -2.1056  -2.0052  -1.8409
    -1.6990  -1.6375  -1.4444  -1.2948  -1.2563  -1.0113  -0.9433  -0.8258
    -0.6620  -0.5013  -0.2550  -0.1080  -0.1057  -0.0033   0.0121   0.2144
     0.5340   0.6506   0.8110   0.9771   1.0665   1.1192   1.3615   1.4114
     1.6385   1.6540   1.7951   1.7992   1.9561   2.1707   2.6492   2.6751
     2.9146   3.4091

          k = 0.0309-0.0508 0.0000 ( 30407 PWs)   bands (ev):

   -71.2331 -71.2046 -70.8782 -70.8524 -70.4382 -70.4133 -43.6376 -43.6053
   -42.4194 -42.4078 -42.3804 -42.2599 -42.2364 -42.2224 -42.1689 -42.1557
   -42.1318 -41.9966 -41.9461 -41.9404 -41.9242 -41.7284 -40.7793 -40.7596
    -6.9782  -5.8049  -5.5518  -5.4978  -5.3418  -5.1516  -5.0404  -4.9237
    -4.8820  -4.7606  -4.4846  -4.3103  -4.2282  -4.1639  -4.0337  -3.7944
    -3.5283  -3.5008  -3.3427  -3.3182  -3.2401  -3.0845  -2.9968  -2.9558
    -2.7389  -2.6782  -2.6273  -2.2963  -2.1567  -2.0687  -1.7770  -1.7757
    -1.6303  -1.5343  -1.3705  -1.2067  -1.1999  -0.9809  -0.8979  -0.7511
    -0.5439  -0.4712  -0.2328  -0.0301  -0.0113   0.1605   0.1929   0.4170
     0.6834   0.7528   0.8746   1.0098   1.1472   1.1625   1.4181   1.4217
     1.6347   1.6355   1.8553   1.8877   2.0908   2.2265   2.5502   2.5811
     2.8382   3.3175

          k = 0.0309-0.0339 0.0000 ( 30403 PWs)   bands (ev):

   -71.2331 -71.2046 -70.8782 -70.8524 -70.4382 -70.4133 -43.6376 -43.6052
   -42.4193 -42.4075 -42.3804 -42.2598 -42.2363 -42.2223 -42.1689 -42.1554
   -42.1317 -41.9965 -41.9460 -41.9403 -41.9241 -41.7284 -40.7793 -40.7596
    -7.1516  -5.8520  -5.6115  -5.5525  -5.4175  -5.1944  -5.1063  -4.9717
    -4.9067  -4.8217  -4.5415  -4.3503  -4.2897  -4.1471  -4.0547  -3.7859
    -3.6034  -3.4826  -3.3473  -3.3125  -3.2109  -3.0834  -2.9963  -2.9678
    -2.7040  -2.6830  -2.6201  -2.2793  -2.1450  -2.0633  -1.7221  -1.6549
    -1.5234  -1.4248  -1.2459  -1.1233  -1.0982  -0.9284  -0.8556  -0.7290
    -0.4036  -0.3700  -0.2265   0.0215   0.0941   0.2740   0.3686   0.7172
     0.7963   0.9326   0.9464   1.0470   1.1824   1.2883   1.4336   1.4521
     1.6268   1.6647   1.9433   1.9986   2.2084   2.3549   2.3758   2.5736
     2.7836   2.9884

          k = 0.0309-0.0169 0.0000 ( 30404 PWs)   bands (ev):

   -71.2331 -71.2046 -70.8782 -70.8524 -70.4382 -70.4133 -43.6375 -43.6052
   -42.4192 -42.4072 -42.3804 -42.2598 -42.2363 -42.2222 -42.1689 -42.1551
   -42.1316 -41.9965 -41.9458 -41.9403 -41.9241 -41.7284 -40.7793 -40.7596
    -7.2669  -5.8935  -5.6570  -5.5868  -5.4643  -5.2326  -5.1368  -5.0066
    -4.9240  -4.8649  -4.5845  -4.3764  -4.3295  -4.1270  -4.0782  -3.7835
    -3.6595  -3.4934  -3.3257  -3.3085  -3.1827  -3.0839  -3.0018  -2.9843
    -2.6878  -2.6781  -2.6177  -2.2656  -2.1387  -2.0640  -1.6868  -1.6520
    -1.4576  -1.3762  -1.1383  -1.0397  -0.9928  -0.8644  -0.8114  -0.7362
    -0.3449  -0.2228  -0.1842   0.0251   0.1999   0.3231   0.5331   0.8438
     0.9177   1.0299   1.0797   1.1689   1.2352   1.3412   1.4542   1.5217
     1.6590   1.7077   2.0039   2.0454   2.1687   2.3089   2.4632   2.4864
     2.7101   2.7906

          k = 0.0309-0.0000 0.0000 ( 30404 PWs)   bands (ev):

   -71.2331 -71.2046 -70.8782 -70.8524 -70.4382 -70.4133 -43.6375 -43.6052
   -42.4192 -42.4071 -42.3803 -42.2598 -42.2363 -42.2221 -42.1689 -42.1550
   -42.1316 -41.9965 -41.9458 -41.9403 -41.9241 -41.7284 -40.7793 -40.7596
    -7.3070  -5.9100  -5.6738  -5.5984  -5.4801  -5.2469  -5.1457  -5.0194
    -4.9296  -4.8809  -4.6004  -4.3852  -4.3429  -4.1097  -4.0968  -3.7824
    -3.6803  -3.5001  -3.3162  -3.3071  -3.1699  -3.0833  -3.0048  -2.9928
    -2.6899  -2.6690  -2.6170  -2.2604  -2.1364  -2.0649  -1.6747  -1.6525
    -1.4447  -1.3626  -1.1126  -1.0255  -0.9183  -0.8474  -0.7805  -0.7486
    -0.3256  -0.2190  -0.0734  -0.0120   0.2531   0.3322   0.6069   0.8456
     0.9577   1.0972   1.1387   1.2530   1.2780   1.3901   1.4604   1.4639
     1.7241   1.7607   2.0004   2.0439   2.1359   2.1734   2.3599   2.5252
     2.8125   2.8486

          k = 0.0463 0.0254 0.0000 ( 30422 PWs)   bands (ev):

   -71.2306 -71.2071 -70.8758 -70.8548 -70.4359 -70.4155 -43.6352 -43.6076
   -42.4049 -42.3966 -42.3829 -42.2577 -42.2385 -42.2017 -42.1922 -42.1531
   -42.1339 -42.0175 -41.9439 -41.9261 -41.9211 -41.7480 -40.7780 -40.7609
    -6.9764  -5.5934  -5.5403  -5.3844  -5.3252  -5.0871  -4.9528  -4.9464
    -4.8768  -4.7445  -4.5642  -4.3818  -4.2272  -4.0186  -3.9381  -3.7839
    -3.6442  -3.4682  -3.4547  -3.2769  -3.2282  -3.1895  -3.0791  -3.0148
    -2.8861  -2.7521  -2.6140  -2.3304  -2.3270  -2.2919  -1.9349  -1.8481
    -1.6623  -1.5431  -1.4237  -1.1087  -1.0463  -1.0319  -0.9584  -0.6587
    -0.6458  -0.3982  -0.2269  -0.1611   0.1977   0.4164   0.4377   0.5935
     0.8313   0.9185   0.9201   0.9892   1.1275   1.1425   1.4147   1.4494
     1.5382   1.6335   1.8238   2.1267   2.2412   2.3933   2.4813   2.6238
     2.7163   2.9168

          k = 0.0463 0.0423 0.0000 ( 30403 PWs)   bands (ev):

   -71.2306 -71.2071 -70.8758 -70.8548 -70.4359 -70.4155 -43.6352 -43.6076
   -42.4052 -42.3967 -42.3829 -42.2577 -42.2385 -42.2018 -42.1922 -42.1534
   -42.1340 -42.0175 -41.9440 -41.9261 -41.9211 -41.7480 -40.7780 -40.7609
    -6.8279  -5.5420  -5.4971  -5.3462  -5.2734  -5.0383  -4.9341  -4.9276
    -4.8315  -4.6914  -4.5281  -4.3545  -4.1977  -4.0409  -3.9143  -3.8026
    -3.5859  -3.4957  -3.4169  -3.2935  -3.2516  -3.1966  -3.0877  -3.0030
    -2.8830  -2.7823  -2.6223  -2.3427  -2.3400  -2.2922  -2.0371  -1.8474
    -1.7212  -1.5978  -1.5431  -1.2342  -1.1065  -1.0917  -0.9743  -0.7291
    -0.6560  -0.4220  -0.2904  -0.2035   0.1371   0.2509   0.3274   0.3879
     0.7865   0.8087   0.8094   0.9637   1.1224   1.1370   1.3128   1.3984
     1.5249   1.6134   1.7743   2.0903   2.3042   2.3214   2.5003   2.5730
     2.8298   3.0982

          k = 0.0463 0.0593 0.0000 ( 30402 PWs)   bands (ev):

   -71.2306 -71.2071 -70.8758 -70.8547 -70.4359 -70.4155 -43.6352 -43.6076
   -42.4055 -42.3968 -42.3830 -42.2577 -42.2385 -42.2020 -42.1922 -42.1537
   -42.1340 -42.0175 -41.9441 -41.9262 -41.9211 -41.7481 -40.7780 -40.7609
    -6.6324  -5.4974  -5.4459  -5.2969  -5.2000  -4.9628  -4.9224  -4.8937
    -4.7780  -4.6251  -4.4921  -4.3242  -4.1647  -4.0575  -3.8944  -3.8378
    -3.5500  -3.5244  -3.3528  -3.3096  -3.2732  -3.2041  -3.1103  -2.9997
    -2.8840  -2.8143  -2.6320  -2.3604  -2.3538  -2.3001  -2.1717  -1.8653
    -1.8077  -1.7696  -1.6431  -1.3124  -1.1456  -1.1348  -0.9950  -0.7847
    -0.7067  -0.4299  -0.3811  -0.2583   0.0655   0.0772   0.2085   0.2109
     0.6925   0.7328   0.7701   0.9597   1.0598   1.1176   1.2297   1.3713
     1.5300   1.5910   1.7314   1.9275   2.1659   2.3028   2.3916   2.7168
     2.8189   3.3055

          k = 0.0463 0.0762 0.0000 ( 30375 PWs)   bands (ev):

   -71.2306 -71.2071 -70.8758 -70.8547 -70.4359 -70.4155 -43.6353 -43.6076
   -42.4058 -42.3969 -42.3830 -42.2577 -42.2386 -42.2021 -42.1922 -42.1539
   -42.1341 -42.0175 -41.9442 -41.9262 -41.9212 -41.7480 -40.7780 -40.7609
    -6.4331  -5.4727  -5.4012  -5.2537  -5.1147  -4.9198  -4.8873  -4.8456
    -4.7137  -4.5710  -4.4566  -4.3046  -4.1954  -4.0671  -3.8796  -3.8525
    -3.5984  -3.4765  -3.3610  -3.2888  -3.2575  -3.2113  -3.1495  -3.0118
    -2.8898  -2.8316  -2.6380  -2.3803  -2.3697  -2.3148  -2.2912  -2.0211
    -1.8819  -1.8258  -1.6850  -1.3685  -1.1719  -1.1683  -1.0109  -0.8236
    -0.7880  -0.4582  -0.4497  -0.2818  -0.0959   0.0343   0.1051   0.1060
     0.6360   0.6863   0.7482   0.9452   0.9946   1.0740   1.1967   1.3410
     1.5407   1.5788   1.7060   1.7947   2.0441   2.1807   2.4168   2.8473
     2.8703   3.2892

          k = 0.0463 0.0931 0.0000 ( 30323 PWs)   bands (ev):

   -71.2306 -71.2071 -70.8758 -70.8547 -70.4359 -70.4155 -43.6353 -43.6076
   -42.4059 -42.3969 -42.3830 -42.2577 -42.2386 -42.2021 -42.1922 -42.1541
   -42.1341 -42.0175 -41.9443 -41.9262 -41.9212 -41.7480 -40.7779 -40.7609
    -6.2990  -5.4657  -5.3756  -5.2301  -5.0430  -4.9322  -4.8562  -4.8015
    -4.6032  -4.5533  -4.4162  -4.3409  -4.3045  -4.0709  -3.8713  -3.7965
    -3.6298  -3.4510  -3.3990  -3.2979  -3.2360  -3.2157  -3.1583  -3.0272
    -2.8955  -2.8352  -2.6382  -2.3980  -2.3730  -2.3411  -2.3378  -2.1294
    -1.9216  -1.8271  -1.7143  -1.4242  -1.1873  -1.1754  -1.0185  -0.8521
    -0.8449  -0.4955  -0.4815  -0.2546  -0.1872  -0.0055   0.0549   0.0555
     0.6179   0.6612   0.7363   0.9223   0.9730   1.0384   1.1830   1.3270
     1.5469   1.5751   1.6928   1.6958   2.0186   2.1056   2.4276   2.9235
     2.9320   3.2482

          k = 0.0463 0.1101 0.0000 ( 30323 PWs)   bands (ev):

   -71.2306 -71.2071 -70.8758 -70.8547 -70.4359 -70.4155 -43.6353 -43.6076
   -42.4059 -42.3969 -42.3830 -42.2577 -42.2386 -42.2021 -42.1922 -42.1541
   -42.1341 -42.0175 -41.9443 -41.9262 -41.9212 -41.7480 -40.7779 -40.7609
    -6.2990  -5.4657  -5.3756  -5.2301  -5.0430  -4.9322  -4.8562  -4.8015
    -4.6032  -4.5533  -4.4162  -4.3409  -4.3045  -4.0709  -3.8713  -3.7965
    -3.6298  -3.4510  -3.3990  -3.2979  -3.2360  -3.2157  -3.1583  -3.0272
    -2.8955  -2.8352  -2.6382  -2.3980  -2.3730  -2.3411  -2.3378  -2.1294
    -1.9216  -1.8271  -1.7143  -1.4242  -1.1873  -1.1754  -1.0185  -0.8521
    -0.8449  -0.4955  -0.4816  -0.2545  -0.1872  -0.0056   0.0549   0.0556
     0.6179   0.6612   0.7364   0.9223   0.9730   1.0384   1.1829   1.3270
     1.5469   1.5751   1.6928   1.6958   2.0187   2.1055   2.4276   2.9235
     2.9320   3.2482

          k = 0.0463-0.0762 0.0000 ( 30375 PWs)   bands (ev):

   -71.2306 -71.2071 -70.8758 -70.8547 -70.4359 -70.4155 -43.6353 -43.6076
   -42.4058 -42.3969 -42.3830 -42.2577 -42.2386 -42.2021 -42.1922 -42.1539
   -42.1341 -42.0175 -41.9442 -41.9262 -41.9212 -41.7480 -40.7780 -40.7609
    -6.4331  -5.4727  -5.4012  -5.2537  -5.1147  -4.9198  -4.8873  -4.8456
    -4.7137  -4.5710  -4.4566  -4.3046  -4.1954  -4.0671  -3.8796  -3.8525
    -3.5984  -3.4765  -3.3611  -3.2888  -3.2575  -3.2113  -3.1495  -3.0118
    -2.8898  -2.8316  -2.6380  -2.3803  -2.3696  -2.3148  -2.2913  -2.0212
    -1.8820  -1.8258  -1.6849  -1.3685  -1.1720  -1.1684  -1.0109  -0.8236
    -0.7879  -0.4581  -0.4500  -0.2816  -0.0959   0.0343   0.1051   0.1060
     0.6360   0.6863   0.7483   0.9452   0.9945   1.0740   1.1967   1.3410
     1.5407   1.5787   1.7060   1.7947   2.0442   2.1806   2.4168   2.8473
     2.8703   3.2890

          k = 0.0463-0.0593 0.0000 ( 30402 PWs)   bands (ev):

   -71.2306 -71.2071 -70.8758 -70.8547 -70.4359 -70.4155 -43.6352 -43.6076
   -42.4055 -42.3968 -42.3830 -42.2577 -42.2385 -42.2020 -42.1922 -42.1537
   -42.1340 -42.0175 -41.9441 -41.9262 -41.9211 -41.7481 -40.7780 -40.7609
    -6.6324  -5.4974  -5.4459  -5.2969  -5.1999  -4.9628  -4.9224  -4.8938
    -4.7780  -4.6251  -4.4922  -4.3242  -4.1647  -4.0575  -3.8944  -3.8378
    -3.5500  -3.5244  -3.3528  -3.3096  -3.2732  -3.2042  -3.1103  -2.9997
    -2.8840  -2.8142  -2.6320  -2.3604  -2.3538  -2.3001  -2.1717  -1.8653
    -1.8078  -1.7696  -1.6431  -1.3124  -1.1457  -1.1349  -0.9950  -0.7847
    -0.7066  -0.4303  -0.3810  -0.2581   0.0654   0.0771   0.2085   0.2108
     0.6925   0.7328   0.7703   0.9597   1.0597   1.1176   1.2297   1.3713
     1.5300   1.5910   1.7314   1.9274   2.1659   2.3027   2.3916   2.7167
     2.8189   3.3052

          k = 0.0463-0.0423 0.0000 ( 30403 PWs)   bands (ev):

   -71.2306 -71.2071 -70.8758 -70.8548 -70.4359 -70.4155 -43.6352 -43.6076
   -42.4052 -42.3967 -42.3829 -42.2577 -42.2385 -42.2018 -42.1922 -42.1534
   -42.1340 -42.0175 -41.9440 -41.9261 -41.9211 -41.7480 -40.7780 -40.7609
    -6.8279  -5.5420  -5.4971  -5.3462  -5.2734  -5.0383  -4.9342  -4.9276
    -4.8315  -4.6914  -4.5281  -4.3545  -4.1977  -4.0409  -3.9143  -3.8026
    -3.5859  -3.4958  -3.4169  -3.2935  -3.2517  -3.1966  -3.0877  -3.0029
    -2.8830  -2.7822  -2.6223  -2.3427  -2.3400  -2.2922  -2.0371  -1.8474
    -1.7213  -1.5978  -1.5430  -1.2342  -1.1066  -1.0917  -0.9742  -0.7292
    -0.6558  -0.4223  -0.2902  -0.2033   0.1371   0.2509   0.3273   0.3879
     0.7866   0.8087   0.8095   0.9637   1.1223   1.1371   1.3128   1.3982
     1.5249   1.6136   1.7743   2.0902   2.3043   2.3215   2.5001   2.5729
     2.8299   3.0981

          k = 0.0463-0.0254 0.0000 ( 30422 PWs)   bands (ev):

   -71.2306 -71.2071 -70.8758 -70.8548 -70.4359 -70.4155 -43.6352 -43.6076
   -42.4049 -42.3966 -42.3829 -42.2577 -42.2385 -42.2017 -42.1922 -42.1531
   -42.1339 -42.0175 -41.9439 -41.9261 -41.9211 -41.7480 -40.7780 -40.7609
    -6.9764  -5.5934  -5.5403  -5.3844  -5.3252  -5.0871  -4.9528  -4.9464
    -4.8768  -4.7445  -4.5642  -4.3818  -4.2272  -4.0186  -3.9381  -3.7839
    -3.6441  -3.4682  -3.4547  -3.2769  -3.2283  -3.1895  -3.0791  -3.0148
    -2.8861  -2.7521  -2.6140  -2.3304  -2.3270  -2.2919  -1.9349  -1.8481
    -1.6624  -1.5431  -1.4237  -1.1087  -1.0463  -1.0319  -0.9584  -0.6588
    -0.6457  -0.3984  -0.2268  -0.1610   0.1977   0.4163   0.4377   0.5935
     0.8314   0.9185   0.9201   0.9892   1.1276   1.1423   1.4146   1.4494
     1.5381   1.6336   1.8238   2.1267   2.2411   2.3934   2.4812   2.6236
     2.7163   2.9168

          k = 0.0463-0.0085 0.0000 ( 30418 PWs)   bands (ev):

   -71.2306 -71.2071 -70.8758 -70.8548 -70.4359 -70.4155 -43.6352 -43.6076
   -42.4047 -42.3965 -42.3829 -42.2577 -42.2385 -42.2017 -42.1922 -42.1530
   -42.1339 -42.0175 -41.9438 -41.9261 -41.9210 -41.7480 -40.7780 -40.7609
    -7.0553  -5.6277  -5.5646  -5.4040  -5.3517  -5.1099  -4.9667  -4.9538
    -4.9032  -4.7732  -4.5873  -4.3971  -4.2425  -3.9934  -3.9639  -3.7754
    -3.6795  -3.4862  -3.4448  -3.2662  -3.2130  -3.1832  -3.0767  -3.0252
    -2.8894  -2.7355  -2.6092  -2.3223  -2.3187  -2.2950  -1.8832  -1.8497
    -1.6413  -1.5004  -1.3945  -1.0731  -1.0127  -0.9544  -0.9145  -0.6568
    -0.6004  -0.3775  -0.2039  -0.1347   0.2404   0.4579   0.5618   0.7719
     0.8550   0.9429   1.0147   1.0853   1.0992   1.1681   1.4276   1.4482
     1.6448   1.6735   1.8196   1.9982   2.1493   2.2714   2.4711   2.5608
     2.7839   3.1596

          k = 0.0463 0.0085 0.0000 ( 30418 PWs)   bands (ev):

   -71.2306 -71.2071 -70.8758 -70.8548 -70.4359 -70.4155 -43.6352 -43.6076
   -42.4047 -42.3965 -42.3829 -42.2577 -42.2385 -42.2017 -42.1922 -42.1530
   -42.1339 -42.0175 -41.9438 -41.9261 -41.9210 -41.7480 -40.7780 -40.7609
    -7.0554  -5.6277  -5.5646  -5.4040  -5.3517  -5.1099  -4.9667  -4.9538
    -4.9032  -4.7732  -4.5873  -4.3971  -4.2425  -3.9934  -3.9639  -3.7754
    -3.6795  -3.4862  -3.4448  -3.2662  -3.2130  -3.1832  -3.0767  -3.0252
    -2.8894  -2.7355  -2.6092  -2.3223  -2.3187  -2.2950  -1.8832  -1.8497
    -1.6413  -1.5004  -1.3945  -1.0730  -1.0127  -0.9544  -0.9145  -0.6569
    -0.6004  -0.3775  -0.2039  -0.1347   0.2404   0.4579   0.5618   0.7718
     0.8549   0.9428   1.0147   1.0853   1.0991   1.1681   1.4276   1.4483
     1.6447   1.6736   1.8195   1.9982   2.1493   2.2714   2.4710   2.5610
     2.7838   3.1571

          k = 0.0617 0.0339 0.0000 ( 30443 PWs)   bands (ev):

   -71.2274 -71.2103 -70.8727 -70.8578 -70.4330 -70.4184 -43.6324 -43.6105
   -42.4019 -42.3862 -42.3670 -42.2549 -42.2413 -42.2224 -42.1750 -42.1505
   -42.1369 -42.0448 -41.9414 -41.9288 -41.8959 -41.7736 -40.7763 -40.7625
    -6.5998  -5.4551  -5.2288  -5.1616  -5.1296  -4.9547  -4.9348  -4.8106
    -4.6310  -4.5485  -4.5371  -4.3533  -4.0995  -3.9134  -3.8587  -3.7654
    -3.6318  -3.6277  -3.4453  -3.4055  -3.2684  -3.1936  -3.0898  -3.0567
    -3.0537  -2.8535  -2.6235  -2.5971  -2.5856  -2.4615  -2.4443  -2.1566
    -2.0685  -1.6714  -1.5252  -1.4284  -1.0892  -1.0498  -1.0353  -0.8190
    -0.6439  -0.4735  -0.3775  -0.0095   0.2155   0.2482   0.4065   0.4776
     0.7561   0.7684   0.8749   0.8961   0.9708   1.0929   1.3424   1.3995
     1.4054   1.5873   1.6485   2.0432   2.3560   2.3720   2.4997   2.6878
     2.8946   3.1019

          k = 0.0617 0.0508 0.0000 ( 30401 PWs)   bands (ev):

   -71.2274 -71.2103 -70.8727 -70.8578 -70.4330 -70.4184 -43.6324 -43.6105
   -42.4021 -42.3862 -42.3671 -42.2549 -42.2413 -42.2224 -42.1751 -42.1507
   -42.1369 -42.0447 -41.9415 -41.9288 -41.8960 -41.7736 -40.7763 -40.7625
    -6.4263  -5.4519  -5.1735  -5.1203  -5.0935  -4.9238  -4.9022  -4.7580
    -4.5918  -4.5163  -4.5116  -4.3234  -4.1147  -3.9418  -3.8909  -3.7414
    -3.6522  -3.5793  -3.4392  -3.3918  -3.2839  -3.2136  -3.1070  -3.0542
    -3.0486  -2.8878  -2.6593  -2.6380  -2.6043  -2.4640  -2.4551  -2.2073
    -2.0645  -1.7100  -1.5779  -1.5755  -1.1871  -1.0663  -1.0277  -0.8588
    -0.6977  -0.5238  -0.3680  -0.0670   0.1061   0.1874   0.2495   0.4028
     0.6693   0.7441   0.8795   0.8863   0.9647   1.1042   1.2616   1.3287
     1.3708   1.6000   1.6232   2.1243   2.1295   2.3750   2.5459   2.6507
     3.0248   3.0696

          k = 0.0617 0.0677 0.0000 ( 30402 PWs)   bands (ev):

   -71.2274 -71.2103 -70.8727 -70.8578 -70.4330 -70.4184 -43.6324 -43.6105
   -42.4024 -42.3862 -42.3672 -42.2549 -42.2414 -42.2224 -42.1752 -42.1509
   -42.1369 -42.0447 -41.9416 -41.9288 -41.8960 -41.7736 -40.7763 -40.7625
    -6.2200  -5.4443  -5.1419  -5.0736  -5.0641  -4.8625  -4.8505  -4.7066
    -4.5605  -4.4980  -4.4692  -4.2945  -4.1575  -3.9642  -3.9338  -3.7186
    -3.6839  -3.5460  -3.4675  -3.3531  -3.2964  -3.2270  -3.1290  -3.0681
    -3.0396  -2.9125  -2.7296  -2.6517  -2.6112  -2.4732  -2.4681  -2.2569
    -2.0605  -1.7691  -1.7684  -1.5999  -1.2391  -1.0781  -1.0220  -0.8975
    -0.7473  -0.5647  -0.3905  -0.1269  -0.0158   0.1304   0.2021   0.3221
     0.6146   0.7635   0.8650   0.8852   0.9738   1.0872   1.1591   1.3183
     1.3335   1.6021   1.6071   1.9377   2.1356   2.1645   2.4404   2.7221
     2.9862   3.1405

          k = 0.0617 0.0847 0.0000 ( 30404 PWs)   bands (ev):

   -71.2274 -71.2103 -70.8727 -70.8578 -70.4330 -70.4184 -43.6324 -43.6105
   -42.4026 -42.3861 -42.3673 -42.2549 -42.2414 -42.2224 -42.1753 -42.1511
   -42.1369 -42.0447 -41.9416 -41.9288 -41.8960 -41.7736 -40.7763 -40.7625
    -6.0349  -5.4361  -5.1338  -5.0561  -5.0366  -4.8193  -4.7579  -4.6581
    -4.5738  -4.4602  -4.4329  -4.2774  -4.2584  -3.9785  -3.9522  -3.7072
    -3.6993  -3.5345  -3.4867  -3.3825  -3.3041  -3.1938  -3.1492  -3.0892
    -3.0317  -2.9221  -2.7759  -2.6566  -2.6156  -2.4845  -2.4800  -2.2902
    -2.0588  -1.8999  -1.8125  -1.6143  -1.2839  -1.0780  -1.0183  -0.9250
    -0.7860  -0.5799  -0.4682  -0.1108  -0.1046   0.0639   0.2086   0.2803
     0.5866   0.8224   0.8536   0.8714   0.9802   1.0458   1.0921   1.2719
     1.3446   1.5977   1.6234   1.7766   2.0160   2.1364   2.2912   2.8444
     3.0017   3.1121

          k = 0.0617 0.1016 0.0000 ( 30368 PWs)   bands (ev):

   -71.2274 -71.2103 -70.8727 -70.8578 -70.4330 -70.4184 -43.6324 -43.6105
   -42.4026 -42.3861 -42.3673 -42.2549 -42.2414 -42.2224 -42.1753 -42.1511
   -42.1369 -42.0447 -41.9416 -41.9288 -41.8961 -41.7736 -40.7763 -40.7625
    -5.9554  -5.4326  -5.1366  -5.0552  -5.0228  -4.7959  -4.7186  -4.6164
    -4.5909  -4.4394  -4.4189  -4.3373  -4.2738  -3.9832  -3.9492  -3.7137
    -3.6907  -3.5342  -3.4933  -3.4104  -3.3065  -3.1727  -3.1577  -3.0990
    -3.0283  -2.9244  -2.7912  -2.6553  -2.6167  -2.4896  -2.4850  -2.3012
    -2.0597  -1.9410  -1.8279  -1.6206  -1.3082  -1.0734  -1.0172  -0.9346
    -0.8021  -0.5810  -0.5069  -0.1367  -0.0890   0.0417   0.1828   0.2955
     0.5780   0.8490   0.8501   0.8636   0.9832   1.0263   1.0676   1.2613
     1.3492   1.5949   1.6466   1.6853   1.9730   2.1363   2.2364   2.8965
     3.0149   3.0865

          k = 0.0617 0.1185 0.0000 ( 30404 PWs)   bands (ev):

   -71.2274 -71.2103 -70.8727 -70.8578 -70.4330 -70.4184 -43.6324 -43.6105
   -42.4026 -42.3861 -42.3673 -42.2549 -42.2414 -42.2224 -42.1753 -42.1511
   -42.1369 -42.0447 -41.9416 -41.9288 -41.8960 -41.7736 -40.7763 -40.7625
    -6.0349  -5.4361  -5.1338  -5.0561  -5.0366  -4.8193  -4.7579  -4.6581
    -4.5739  -4.4602  -4.4329  -4.2774  -4.2584  -3.9784  -3.9522  -3.7072
    -3.6993  -3.5345  -3.4867  -3.3825  -3.3041  -3.1938  -3.1493  -3.0892
    -3.0317  -2.9220  -2.7760  -2.6566  -2.6156  -2.4845  -2.4801  -2.2902
    -2.0588  -1.8999  -1.8125  -1.6143  -1.2838  -1.0780  -1.0184  -0.9250
    -0.7860  -0.5798  -0.4683  -0.1108  -0.1046   0.0639   0.2086   0.2802
     0.5866   0.8224   0.8535   0.8716   0.9801   1.0458   1.0921   1.2719
     1.3447   1.5977   1.6233   1.7766   2.0161   2.1364   2.2913   2.8444
     3.0016   3.1119

          k = 0.0617-0.0677 0.0000 ( 30402 PWs)   bands (ev):

   -71.2274 -71.2103 -70.8727 -70.8578 -70.4330 -70.4184 -43.6324 -43.6105
   -42.4024 -42.3862 -42.3672 -42.2549 -42.2414 -42.2224 -42.1752 -42.1509
   -42.1369 -42.0447 -41.9416 -41.9288 -41.8960 -41.7736 -40.7763 -40.7625
    -6.2200  -5.4443  -5.1419  -5.0735  -5.0641  -4.8626  -4.8505  -4.7066
    -4.5605  -4.4980  -4.4692  -4.2945  -4.1575  -3.9642  -3.9338  -3.7186
    -3.6839  -3.5460  -3.4675  -3.3531  -3.2964  -3.2270  -3.1291  -3.0680
    -3.0396  -2.9124  -2.7297  -2.6517  -2.6112  -2.4732  -2.4681  -2.2569
    -2.0605  -1.7691  -1.7684  -1.5999  -1.2391  -1.0781  -1.0220  -0.8975
    -0.7472  -0.5645  -0.3907  -0.1267  -0.0158   0.1303   0.2022   0.3220
     0.6146   0.7635   0.8649   0.8854   0.9738   1.0871   1.1591   1.3182
     1.3335   1.6021   1.6071   1.9376   2.1356   2.1645   2.4404   2.7221
     2.9862   3.1394

          k = 0.0617-0.0508 0.0000 ( 30401 PWs)   bands (ev):

   -71.2274 -71.2103 -70.8727 -70.8578 -70.4330 -70.4184 -43.6324 -43.6105
   -42.4021 -42.3862 -42.3671 -42.2549 -42.2413 -42.2224 -42.1751 -42.1507
   -42.1369 -42.0447 -41.9415 -41.9288 -41.8960 -41.7736 -40.7763 -40.7625
    -6.4263  -5.4519  -5.1735  -5.1203  -5.0935  -4.9238  -4.9022  -4.7580
    -4.5918  -4.5164  -4.5117  -4.3234  -4.1147  -3.9418  -3.8909  -3.7414
    -3.6522  -3.5793  -3.4393  -3.3918  -3.2839  -3.2136  -3.1070  -3.0541
    -3.0486  -2.8876  -2.6593  -2.6380  -2.6043  -2.4640  -2.4551  -2.2073
    -2.0645  -1.7101  -1.5779  -1.5755  -1.1871  -1.0663  -1.0277  -0.8588
    -0.6976  -0.5236  -0.3683  -0.0670   0.1061   0.1874   0.2495   0.4027
     0.6693   0.7440   0.8794   0.8865   0.9646   1.1042   1.2616   1.3288
     1.3706   1.6002   1.6232   2.1243   2.1294   2.3750   2.5456   2.6506
     3.0248   3.0687

          k = 0.0617-0.0339 0.0000 ( 30443 PWs)   bands (ev):

   -71.2274 -71.2103 -70.8727 -70.8578 -70.4330 -70.4184 -43.6324 -43.6105
   -42.4019 -42.3862 -42.3670 -42.2549 -42.2413 -42.2224 -42.1750 -42.1505
   -42.1369 -42.0448 -41.9414 -41.9288 -41.8959 -41.7736 -40.7763 -40.7625
    -6.5997  -5.4551  -5.2288  -5.1615  -5.1296  -4.9547  -4.9348  -4.8106
    -4.6310  -4.5485  -4.5371  -4.3533  -4.0995  -3.9133  -3.8587  -3.7654
    -3.6318  -3.6277  -3.4453  -3.4055  -3.2685  -3.1936  -3.0899  -3.0567
    -3.0535  -2.8534  -2.6235  -2.5971  -2.5856  -2.4615  -2.4443  -2.1566
    -2.0684  -1.6715  -1.5252  -1.4284  -1.0893  -1.0499  -1.0353  -0.8190
    -0.6438  -0.4733  -0.3777  -0.0095   0.2155   0.2482   0.4065   0.4776
     0.7562   0.7683   0.8749   0.8963   0.9708   1.0929   1.3425   1.3994
     1.4052   1.5875   1.6485   2.0432   2.3558   2.3720   2.4997   2.6877
     2.8946   3.1020

          k = 0.0617-0.0169 0.0000 ( 30459 PWs)   bands (ev):

   -71.2274 -71.2103 -70.8727 -70.8578 -70.4330 -70.4184 -43.6324 -43.6105
   -42.4017 -42.3862 -42.3669 -42.2549 -42.2413 -42.2225 -42.1750 -42.1503
   -42.1368 -42.0448 -41.9413 -41.9288 -41.8959 -41.7736 -40.7763 -40.7625
    -6.7125  -5.4544  -5.2813  -5.1879  -5.1513  -4.9615  -4.9583  -4.8531
    -4.6554  -4.5733  -4.5603  -4.3751  -4.0937  -3.8833  -3.8416  -3.7884
    -3.6722  -3.6248  -3.4727  -3.3859  -3.2545  -3.1851  -3.0802  -3.0622
    -3.0569  -2.8272  -2.6133  -2.5913  -2.5326  -2.4630  -2.4365  -2.1195
    -2.0715  -1.6632  -1.4543  -1.3738  -1.0457  -1.0404  -0.9782  -0.7872
    -0.5992  -0.4430  -0.3636   0.0023   0.2510   0.4105   0.5398   0.5460
     0.7842   0.7892   0.9025   0.9377   1.0133   1.0582   1.3958   1.4332
     1.5026   1.5672   1.6970   1.8526   2.1891   2.3945   2.5056   2.5688
     3.0071   3.1248

          k = 0.0617 0.0000 0.0000 ( 30408 PWs)   bands (ev):

   -71.2274 -71.2103 -70.8727 -70.8578 -70.4330 -70.4184 -43.6323 -43.6105
   -42.4016 -42.3862 -42.3669 -42.2549 -42.2413 -42.2224 -42.1749 -42.1502
   -42.1368 -42.0448 -41.9413 -41.9287 -41.8959 -41.7736 -40.7763 -40.7625
    -6.7513  -5.4534  -5.3018  -5.1968  -5.1583  -4.9673  -4.9606  -4.8708
    -4.6630  -4.5821  -4.5705  -4.3831  -4.0923  -3.8664  -3.8362  -3.8015
    -3.6906  -3.6235  -3.4809  -3.3793  -3.2486  -3.1833  -3.0777  -3.0641
    -3.0581  -2.8179  -2.6097  -2.5890  -2.5138  -2.4642  -2.4335  -2.1059
    -2.0728  -1.6629  -1.4215  -1.3619  -1.0500  -1.0345  -0.9415  -0.7742
    -0.5841  -0.4358  -0.3459   0.0012   0.2631   0.5025   0.5763   0.5952
     0.7559   0.7942   0.9465   0.9828   1.0196   1.0601   1.3100   1.4460
     1.5573   1.6724   1.6937   1.8686   1.9055   2.3971   2.5266   2.6030
     2.9627   2.9885

          k = 0.0617 0.0169 0.0000 ( 30459 PWs)   bands (ev):

   -71.2274 -71.2103 -70.8727 -70.8578 -70.4330 -70.4184 -43.6324 -43.6105
   -42.4017 -42.3862 -42.3669 -42.2549 -42.2413 -42.2225 -42.1750 -42.1503
   -42.1368 -42.0448 -41.9413 -41.9288 -41.8959 -41.7736 -40.7763 -40.7625
    -6.7125  -5.4544  -5.2813  -5.1880  -5.1513  -4.9615  -4.9583  -4.8531
    -4.6554  -4.5733  -4.5603  -4.3751  -4.0937  -3.8833  -3.8416  -3.7884
    -3.6722  -3.6248  -3.4727  -3.3859  -3.2544  -3.1851  -3.0802  -3.0622
    -3.0570  -2.8272  -2.6133  -2.5913  -2.5326  -2.4630  -2.4365  -2.1195
    -2.0715  -1.6632  -1.4544  -1.3738  -1.0456  -1.0404  -0.9782  -0.7872
    -0.5994  -0.4431  -0.3635   0.0023   0.2510   0.4105   0.5399   0.5460
     0.7842   0.7892   0.9025   0.9376   1.0134   1.0581   1.3959   1.4333
     1.5025   1.5671   1.6970   1.8525   2.1890   2.3947   2.5057   2.5688
     3.0069   3.1247

          k = 0.0771 0.0423 0.0000 ( 30413 PWs)   bands (ev):

   -71.2239 -71.2138 -70.8691 -70.8614 -70.4297 -70.4218 -43.6297 -43.6132
   -42.3984 -42.3899 -42.3324 -42.2576 -42.2515 -42.2446 -42.1473 -42.1438
   -42.1402 -42.0764 -41.9385 -41.9317 -41.8666 -41.8033 -40.7748 -40.7640
    -6.1821  -5.5345  -5.0010  -4.9739  -4.8546  -4.8114  -4.7827  -4.6335
    -4.6042  -4.4986  -4.2777  -4.2104  -4.1007  -3.9507  -3.7924  -3.7161
    -3.6737  -3.5227  -3.4885  -3.4237  -3.3362  -3.3340  -3.2274  -3.1452
    -3.0952  -3.0477  -2.8839  -2.7909  -2.7230  -2.7198  -2.5183  -2.4903
    -2.2867  -2.1694  -1.5733  -1.4806  -1.0777  -1.0594  -1.0116  -0.8857
    -0.7174  -0.6592  -0.2291   0.0888   0.1561   0.2157   0.2815   0.5498
     0.5667   0.7342   0.7721   0.9177   0.9963   1.0882   1.0897   1.3617
     1.3932   1.4842   1.6209   1.8770   2.3565   2.4066   2.6216   2.7238
     3.0116   3.1689

          k = 0.0771 0.0593 0.0000 ( 30401 PWs)   bands (ev):

   -71.2239 -71.2138 -70.8691 -70.8614 -70.4297 -70.4218 -43.6297 -43.6132
   -42.3986 -42.3898 -42.3325 -42.2576 -42.2516 -42.2446 -42.1475 -42.1439
   -42.1401 -42.0763 -41.9385 -41.9317 -41.8666 -41.8033 -40.7748 -40.7640
    -6.0045  -5.6041  -4.9675  -4.9358  -4.8236  -4.7744  -4.7703  -4.6220
    -4.5362  -4.4915  -4.3151  -4.1676  -4.1301  -3.9948  -3.8029  -3.7278
[...]
    -2.2825  -2.2138  -1.5955  -1.5795  -1.1359  -1.0369  -1.0048  -0.9236
    -0.7866  -0.6363  -0.2185   0.0104   0.0907   0.1778   0.2589   0.5062
     0.5296   0.7627   0.7923   0.9298   0.9971   1.0544   1.0856   1.2835
     1.3937   1.4607   1.6216   1.9036   2.1338   2.4126   2.5908   2.7823
     2.9822   3.1302

          k = 0.0771 0.0762 0.0000 ( 30405 PWs)   bands (ev):

   -71.2239 -71.2138 -70.8691 -70.8614 -70.4297 -70.4218 -43.6297 -43.6132
   -42.3987 -42.3898 -42.3326 -42.2575 -42.2516 -42.2446 -42.1476 -42.1440
   -42.1401 -42.0763 -41.9386 -41.9317 -41.8666 -41.8032 -40.7748 -40.7640
    -5.8152  -5.6557  -4.9325  -4.9138  -4.8196  -4.7435  -4.7123  -4.6075
    -4.4996  -4.4833  -4.3780  -4.1598  -4.1266  -4.0321  -3.8156  -3.7412
    -3.6350  -3.5465  -3.4828  -3.4755  -3.3613  -3.2851  -3.2383  -3.1774
    -3.1306  -3.0595  -2.8983  -2.8049  -2.7543  -2.7408  -2.5269  -2.4761
    -2.2790  -2.2521  -1.6714  -1.6061  -1.1854  -1.0222  -0.9896  -0.9528
    -0.8238  -0.6017  -0.2779  -0.0630   0.0764   0.1169   0.3572   0.4776
     0.4852   0.7548   0.8938   0.9329   1.0011   1.0508   1.0825   1.2271
     1.3235   1.4556   1.6498   1.8985   1.9325   2.1440   2.5624   2.7517
     3.0335   3.0851

          k = 0.0771 0.0931 0.0000 ( 30395 PWs)   bands (ev):

   -71.2239 -71.2138 -70.8691 -70.8614 -70.4297 -70.4218 -43.6297 -43.6132
   -42.3988 -42.3897 -42.3326 -42.2575 -42.2516 -42.2446 -42.1477 -42.1440
   -42.1401 -42.0763 -41.9386 -41.9317 -41.8667 -41.8032 -40.7748 -40.7640
    -5.6827  -5.6794  -4.9088  -4.9060  -4.8301  -4.7229  -4.6325  -4.6005
    -4.5272  -4.5098  -4.3889  -4.1811  -4.1042  -4.0499  -3.8185  -3.7510
    -3.6278  -3.5860  -3.4966  -3.4835  -3.3633  -3.2991  -3.2171  -3.1858
    -3.1525  -3.0350  -2.9033  -2.8061  -2.7642  -2.7467  -2.5287  -2.4728
    -2.2773  -2.2727  -1.7148  -1.6124  -1.2210  -1.0144  -0.9742  -0.9686
    -0.8390  -0.5740  -0.3495  -0.0994   0.0837   0.1055   0.3804   0.4794
     0.5249   0.7526   0.8727   0.9316   1.0465   1.0475   1.1315   1.2040
     1.2384   1.4549   1.7165   1.7964   1.8917   1.9517   2.4136   2.8372
     3.0358   3.0759

          k = 0.0771 0.1101 0.0000 ( 30395 PWs)   bands (ev):

   -71.2239 -71.2138 -70.8691 -70.8614 -70.4297 -70.4218 -43.6297 -43.6132
   -42.3988 -42.3897 -42.3326 -42.2575 -42.2516 -42.2446 -42.1477 -42.1440
   -42.1401 -42.0763 -41.9386 -41.9317 -41.8667 -41.8032 -40.7748 -40.7640
    -5.6827  -5.6794  -4.9088  -4.9060  -4.8301  -4.7228  -4.6325  -4.6005
    -4.5272  -4.5098  -4.3889  -4.1811  -4.1042  -4.0498  -3.8185  -3.7510
    -3.6278  -3.5860  -3.4966  -3.4835  -3.3633  -3.2991  -3.2171  -3.1858
    -3.1525  -3.0350  -2.9033  -2.8061  -2.7642  -2.7468  -2.5287  -2.4728
    -2.2773  -2.2727  -1.7148  -1.6124  -1.2210  -1.0144  -0.9742  -0.9686
    -0.8389  -0.5740  -0.3496  -0.0994   0.0837   0.1055   0.3804   0.4794
     0.5248   0.7526   0.8728   0.9316   1.0465   1.0475   1.1316   1.2040
     1.2384   1.4549   1.7165   1.7962   1.8917   1.9518   2.4137   2.8372
     3.0357   3.0759

          k = 0.0771 0.1270 0.0000 ( 30405 PWs)   bands (ev):

   -71.2239 -71.2138 -70.8691 -70.8614 -70.4297 -70.4218 -43.6297 -43.6132
   -42.3987 -42.3898 -42.3326 -42.2575 -42.2516 -42.2446 -42.1476 -42.1440
   -42.1401 -42.0763 -41.9386 -41.9317 -41.8666 -41.8032 -40.7748 -40.7640
    -5.8152  -5.6557  -4.9325  -4.9138  -4.8196  -4.7435  -4.7124  -4.6075
    -4.4996  -4.4833  -4.3780  -4.1598  -4.1266  -4.0321  -3.8156  -3.7412
    -3.6350  -3.5465  -3.4828  -3.4755  -3.3613  -3.2851  -3.2382  -3.1774
    -3.1306  -3.0595  -2.8983  -2.8048  -2.7543  -2.7409  -2.5269  -2.4761
    -2.2790  -2.2520  -1.6714  -1.6061  -1.1854  -1.0223  -0.9896  -0.9528
    -0.8237  -0.6016  -0.2781  -0.0630   0.0764   0.1169   0.3573   0.4775
     0.4852   0.7547   0.8938   0.9328   1.0012   1.0508   1.0825   1.2272
     1.3235   1.4557   1.6497   1.8984   1.9325   2.1440   2.5624   2.7517
     3.0333   3.0850

          k = 0.0771-0.0593 0.0000 ( 30401 PWs)   bands (ev):

   -71.2239 -71.2138 -70.8691 -70.8614 -70.4297 -70.4218 -43.6297 -43.6132
   -42.3986 -42.3898 -42.3325 -42.2576 -42.2516 -42.2446 -42.1475 -42.1439
   -42.1401 -42.0763 -41.9385 -41.9317 -41.8666 -41.8033 -40.7748 -40.7640
    -6.0045  -5.6041  -4.9675  -4.9358  -4.8236  -4.7744  -4.7703  -4.6220
    -4.5362  -4.4916  -4.3151  -4.1676  -4.1301  -3.9948  -3.8029  -3.7278
    -3.6505  -3.5082  -3.4865  -3.4548  -3.3501  -3.2840  -3.2601  -3.1607
    -3.0935  -3.0817  -2.8911  -2.7998  -2.7377  -2.7312  -2.5233  -2.4824
    -2.2824  -2.2138  -1.5955  -1.5795  -1.1360  -1.0370  -1.0048  -0.9235
    -0.7865  -0.6361  -0.2187   0.0104   0.0907   0.1777   0.2589   0.5062
     0.5295   0.7626   0.7923   0.9298   0.9973   1.0544   1.0857   1.2835
     1.3935   1.4608   1.6217   1.9036   2.1337   2.4125   2.5908   2.7822
     2.9820   3.1301

          k = 0.0771-0.0423 0.0000 ( 30413 PWs)   bands (ev):

   -71.2239 -71.2138 -70.8691 -70.8614 -70.4297 -70.4218 -43.6297 -43.6132
   -42.3984 -42.3899 -42.3324 -42.2576 -42.2515 -42.2446 -42.1473 -42.1438
   -42.1402 -42.0764 -41.9385 -41.9317 -41.8666 -41.8033 -40.7748 -40.7640
    -6.1821  -5.5345  -5.0010  -4.9739  -4.8546  -4.8114  -4.7827  -4.6335
    -4.6042  -4.4987  -4.2777  -4.2103  -4.1007  -3.9507  -3.7924  -3.7161
    -3.6737  -3.5227  -3.4885  -3.4237  -3.3362  -3.3340  -3.2274  -3.1451
    -3.0951  -3.0477  -2.8839  -2.7908  -2.7231  -2.7198  -2.5182  -2.4903
    -2.2867  -2.1694  -1.5733  -1.4806  -1.0778  -1.0595  -1.0116  -0.8857
    -0.7173  -0.6591  -0.2292   0.0888   0.1561   0.2157   0.2814   0.5498
     0.5667   0.7342   0.7720   0.9177   0.9964   1.0882   1.0897   1.3616
     1.3930   1.4843   1.6210   1.8770   2.3564   2.4066   2.6215   2.7237
     3.0114   3.1689

          k = 0.0771-0.0254 0.0000 ( 30437 PWs)   bands (ev):

   -71.2240 -71.2138 -70.8692 -70.8614 -70.4297 -70.4218 -43.6297 -43.6132
   -42.3982 -42.3900 -42.3323 -42.2577 -42.2515 -42.2446 -42.1471 -42.1437
   -42.1403 -42.0764 -41.9384 -41.9318 -41.8666 -41.8033 -40.7748 -40.7640
    -6.3138  -5.4609  -5.0269  -5.0156  -4.8780  -4.8494  -4.7762  -4.6650
    -4.6356  -4.5192  -4.2652  -4.2445  -4.0774  -3.9103  -3.7918  -3.7086
    -3.6961  -3.5701  -3.4756  -3.4082  -3.3672  -3.3263  -3.1950  -3.1357
    -3.1041  -3.0076  -2.8783  -2.7802  -2.7197  -2.7061  -2.5124  -2.4973
    -2.2902  -2.1353  -1.5321  -1.4219  -1.0888  -1.0288  -1.0087  -0.8522
    -0.6679  -0.6218  -0.2408   0.0945   0.1468   0.3334   0.4170   0.5558
     0.6078   0.7402   0.7676   0.9155   0.9969   1.0854   1.2067   1.3724
     1.3873   1.5833   1.6030   1.7498   2.1506   2.3779   2.6098   2.7203
     3.0031   3.1167

          k = 0.0771-0.0085 0.0000 ( 30443 PWs)   bands (ev):

   -71.2240 -71.2138 -70.8692 -70.8614 -70.4297 -70.4218 -43.6297 -43.6132
   -42.3981 -42.3900 -42.3323 -42.2577 -42.2515 -42.2446 -42.1470 -42.1437
   -42.1403 -42.0764 -41.9384 -41.9318 -41.8666 -41.8033 -40.7748 -40.7640
    -6.3830  -5.4090  -5.0430  -5.0415  -4.8885  -4.8758  -4.7608  -4.7096
    -4.6312  -4.5386  -4.2638  -4.2631  -4.0650  -3.8850  -3.7961  -3.7068
    -3.7045  -3.6071  -3.4592  -3.4173  -3.3777  -3.3213  -3.1728  -3.1340
    -3.1090  -2.9852  -2.8751  -2.7724  -2.7198  -2.6989  -2.5082  -2.5014
    -2.2923  -2.1188  -1.4915  -1.4002  -1.1138  -1.0124  -0.9987  -0.8348
    -0.6688  -0.5564  -0.2171   0.0391   0.1819   0.4183   0.5163   0.5376
     0.6414   0.7535   0.7835   0.9547   0.9978   1.0823   1.1993   1.3866
     1.4583   1.5873   1.6058   1.7356   1.9220   2.2321   2.6820   2.7672
     2.7714   3.0830

          k = 0.0771 0.0085 0.0000 ( 30443 PWs)   bands (ev):

   -71.2240 -71.2138 -70.8692 -70.8614 -70.4297 -70.4218 -43.6297 -43.6132
   -42.3981 -42.3900 -42.3323 -42.2577 -42.2515 -42.2446 -42.1470 -42.1437
   -42.1403 -42.0764 -41.9384 -41.9318 -41.8666 -41.8033 -40.7748 -40.7640
    -6.3831  -5.4090  -5.0430  -5.0415  -4.8885  -4.8758  -4.7608  -4.7097
    -4.6312  -4.5386  -4.2638  -4.2631  -4.0650  -3.8850  -3.7961  -3.7068
    -3.7045  -3.6071  -3.4592  -3.4173  -3.3777  -3.3213  -3.1728  -3.1341
    -3.1090  -2.9852  -2.8751  -2.7724  -2.7198  -2.6989  -2.5082  -2.5014
    -2.2923  -2.1188  -1.4915  -1.4002  -1.1138  -1.0124  -0.9987  -0.8348
    -0.6689  -0.5564  -0.2171   0.0391   0.1820   0.4183   0.5163   0.5376
     0.6414   0.7535   0.7835   0.9547   0.9978   1.0823   1.1993   1.3866
     1.4583   1.5873   1.6058   1.7356   1.9219   2.2323   2.6820   2.7672
     2.7714   3.0830

          k = 0.0771 0.0254 0.0000 ( 30437 PWs)   bands (ev):

   -71.2240 -71.2138 -70.8692 -70.8614 -70.4297 -70.4218 -43.6297 -43.6132
   -42.3982 -42.3900 -42.3323 -42.2577 -42.2515 -42.2446 -42.1471 -42.1437
   -42.1403 -42.0764 -41.9384 -41.9318 -41.8666 -41.8033 -40.7748 -40.7640
    -6.3138  -5.4609  -5.0270  -5.0157  -4.8780  -4.8494  -4.7762  -4.6651
    -4.6356  -4.5191  -4.2652  -4.2445  -4.0774  -3.9103  -3.7918  -3.7086
    -3.6961  -3.5701  -3.4756  -3.4082  -3.3672  -3.3262  -3.1950  -3.1357
    -3.1041  -3.0076  -2.8783  -2.7803  -2.7196  -2.7061  -2.5124  -2.4973
    -2.2902  -2.1353  -1.5321  -1.4219  -1.0887  -1.0287  -1.0087  -0.8522
    -0.6681  -0.6219  -0.2407   0.0945   0.1469   0.3334   0.4171   0.5559
     0.6078   0.7403   0.7677   0.9154   0.9969   1.0853   1.2067   1.3724
     1.3873   1.5833   1.6029   1.7498   2.1506   2.3781   2.6098   2.7205
     3.0030   3.1165

          k =-0.0926-0.0508 0.0000 ( 30416 PWs)   bands (ev):

   -71.2218 -71.2159 -70.8655 -70.8651 -70.4272 -70.4243 -43.6284 -43.6145
   -42.3955 -42.3928 -42.2967 -42.2935 -42.2482 -42.2480 -42.1440 -42.1436
   -42.1103 -42.1100 -41.9360 -41.9342 -41.8356 -41.8343 -40.7742 -40.7647
    -5.7988  -5.7984  -4.9049  -4.9043  -4.7278  -4.7274  -4.6766  -4.6760
    -4.4150  -4.4146  -4.2616  -4.2609  -4.0509  -4.0506  -3.7024  -3.7022
    -3.5860  -3.5857  -3.4290  -3.4286  -3.3247  -3.3233  -3.2785  -3.2748
    -3.1328  -3.1320  -3.0409  -3.0378  -2.7613  -2.7600  -2.5712  -2.5680
    -2.3640  -2.3634  -1.5377  -1.5348  -1.0691  -1.0650  -0.9539  -0.9497
    -0.7409  -0.7380  -0.0585  -0.0574   0.2072   0.2083   0.3428   0.3441
     0.6972   0.6977   0.8154   0.8155   0.9715   0.9718   1.2554   1.2573
     1.3874   1.3894   1.7245   1.7246   2.3912   2.3928   2.7014   2.7045
     3.0918   3.0944

          k =-0.0926-0.0339 0.0000 ( 30405 PWs)   bands (ev):

   -71.2218 -71.2159 -70.8655 -70.8651 -70.4272 -70.4243 -43.6284 -43.6145
   -42.3955 -42.3928 -42.2967 -42.2935 -42.2482 -42.2480 -42.1440 -42.1436
   -42.1103 -42.1100 -41.9360 -41.9342 -41.8356 -41.8343 -40.7742 -40.7647
    -5.9184  -5.6559  -4.9078  -4.9030  -4.7255  -4.7242  -4.6902  -4.6615
    -4.4448  -4.4139  -4.2608  -4.2560  -4.0646  -4.0328  -3.7210  -3.6998
    -3.5915  -3.5785  -3.4598  -3.4102  -3.3519  -3.3155  -3.2813  -3.2534
    -3.1406  -3.1240  -3.0586  -3.0115  -2.7744  -2.7506  -2.5789  -2.5610
    -2.3780  -2.3473  -1.5505  -1.5154  -1.1133  -1.0360  -0.9742  -0.9193
    -0.7978  -0.6552  -0.1002  -0.0515   0.1547   0.2529   0.3664   0.4092
     0.6569   0.7221   0.7465   0.9057   0.9887   0.9960   1.2422   1.2584
     1.3280   1.4636   1.6733   1.7275   2.1284   2.4095   2.6241   2.8694
     2.8934   3.1871

          k =-0.0926-0.0169 0.0000 ( 30416 PWs)   bands (ev):

   -71.2218 -71.2159 -70.8655 -70.8651 -70.4272 -70.4243 -43.6284 -43.6145
   -42.3956 -42.3928 -42.2967 -42.2935 -42.2482 -42.2480 -42.1440 -42.1435
   -42.1104 -42.1100 -41.9360 -41.9342 -41.8356 -41.8343 -40.7742 -40.7647
    -5.9963  -5.5271  -4.9172  -4.9000  -4.7243  -4.7157  -4.6990  -4.6440
    -4.5004  -4.4224  -4.2536  -4.2531  -4.0736  -4.0163  -3.7425  -3.7079
    -3.5970  -3.5704  -3.4928  -3.4051  -3.3740  -3.3158  -3.2784  -3.2366
    -3.1473  -3.1146  -3.0684  -2.9848  -2.7862  -2.7453  -2.5856  -2.5557
    -2.3865  -2.3351  -1.5432  -1.5035  -1.1627  -1.0194  -0.9868  -0.8878
    -0.8270  -0.5779  -0.1150  -0.0908   0.0945   0.3083   0.4148   0.5168
     0.6511   0.6940   0.7530   0.9009   1.0004   1.1189   1.2313   1.2534
     1.3002   1.4268   1.7039   1.7157   1.9374   2.1368   2.6588   2.7454
     2.9365   3.1258

          k =-0.0926 0.0000 0.0000 ( 30420 PWs)   bands (ev):

   -71.2218 -71.2159 -70.8655 -70.8651 -70.4272 -70.4243 -43.6284 -43.6145
   -42.3956 -42.3927 -42.2967 -42.2935 -42.2482 -42.2480 -42.1441 -42.1435
   -42.1104 -42.1099 -41.9360 -41.9342 -41.8356 -41.8343 -40.7742 -40.7647
    -6.0232  -5.4712  -4.9246  -4.8981  -4.7255  -4.7112  -4.7006  -4.6297
    -4.5357  -4.4266  -4.2532  -4.2490  -4.0771  -4.0095  -3.7512  -3.7128
    -3.5998  -3.5662  -3.5084  -3.4050  -3.3810  -3.3163  -3.2770  -3.2324
    -3.1498  -3.1098  -3.0712  -2.9737  -2.7906  -2.7436  -2.5879  -2.5541
    -2.3893  -2.3309  -1.5331  -1.5004  -1.1867  -1.0126  -0.9926  -0.8753
    -0.8343  -0.5483  -0.1137  -0.1061   0.0619   0.3343   0.4366   0.5383
     0.6820   0.7343   0.7584   0.8598   1.0038   1.0702   1.2482   1.2953
     1.3497   1.3883   1.7100   1.7334   1.8482   2.0234   2.5453   2.7794
     2.9715   3.0863

          k =-0.0926 0.0169 0.0000 ( 30416 PWs)   bands (ev):

   -71.2218 -71.2159 -70.8655 -70.8651 -70.4272 -70.4243 -43.6284 -43.6145
   -42.3956 -42.3928 -42.2967 -42.2935 -42.2482 -42.2480 -42.1440 -42.1435
   -42.1104 -42.1099 -41.9360 -41.9342 -41.8356 -41.8343 -40.7742 -40.7647
    -5.9963  -5.5271  -4.9172  -4.9000  -4.7244  -4.7158  -4.6990  -4.6440
    -4.5005  -4.4224  -4.2537  -4.2531  -4.0736  -4.0163  -3.7425  -3.7079
    -3.5970  -3.5704  -3.4928  -3.4051  -3.3740  -3.3158  -3.2784  -3.2366
    -3.1473  -3.1146  -3.0684  -2.9848  -2.7862  -2.7453  -2.5856  -2.5557
    -2.3865  -2.3351  -1.5432  -1.5035  -1.1627  -1.0195  -0.9868  -0.8878
    -0.8269  -0.5778  -0.1151  -0.0909   0.0945   0.3083   0.4148   0.5169
     0.6509   0.6940   0.7530   0.9010   1.0004   1.1188   1.2314   1.2534
     1.3003   1.4268   1.7038   1.7157   1.9375   2.1367   2.6589   2.7454
     2.9362   3.1261

          k =-0.0926 0.0339 0.0000 ( 30405 PWs)   bands (ev):

   -71.2218 -71.2159 -70.8655 -70.8651 -70.4272 -70.4243 -43.6284 -43.6145
   -42.3955 -42.3928 -42.2967 -42.2935 -42.2482 -42.2480 -42.1440 -42.1436
   -42.1103 -42.1100 -41.9360 -41.9342 -41.8356 -41.8343 -40.7742 -40.7647
    -5.9184  -5.6559  -4.9077  -4.9030  -4.7256  -4.7242  -4.6902  -4.6614
    -4.4448  -4.4139  -4.2608  -4.2561  -4.0646  -4.0328  -3.7209  -3.6998
    -3.5915  -3.5785  -3.4598  -3.4102  -3.3519  -3.3155  -3.2813  -3.2535
    -3.1406  -3.1239  -3.0586  -3.0115  -2.7744  -2.7506  -2.5790  -2.5610
    -2.3780  -2.3473  -1.5505  -1.5154  -1.1134  -1.0361  -0.9742  -0.9193
    -0.7976  -0.6551  -0.1002  -0.0516   0.1546   0.2530   0.3664   0.4092
     0.6568   0.7220   0.7465   0.9057   0.9887   0.9961   1.2423   1.2584
     1.3281   1.4635   1.6733   1.7275   2.1284   2.4094   2.6241   2.8692
     2.8934   3.1873

          k =-0.0926-0.1524 0.0000 ( 30416 PWs)   bands (ev):

   -71.2218 -71.2159 -70.8655 -70.8651 -70.4272 -70.4243 -43.6284 -43.6145
   -42.3955 -42.3928 -42.2967 -42.2935 -42.2482 -42.2480 -42.1440 -42.1436
   -42.1103 -42.1100 -41.9360 -41.9342 -41.8356 -41.8343 -40.7742 -40.7647
    -5.7987  -5.7984  -4.9049  -4.9043  -4.7278  -4.7274  -4.6766  -4.6760
    -4.4151  -4.4147  -4.2617  -4.2609  -4.0509  -4.0506  -3.7024  -3.7022
    -3.5860  -3.5856  -3.4290  -3.4286  -3.3247  -3.3233  -3.2785  -3.2749
    -3.1327  -3.1320  -3.0409  -3.0378  -2.7613  -2.7600  -2.5712  -2.5680
    -2.3640  -2.3634  -1.5377  -1.5349  -1.0692  -1.0651  -0.9539  -0.9497
    -0.7408  -0.7378  -0.0586  -0.0575   0.2071   0.2083   0.3428   0.3441
     0.6971   0.6976   0.8154   0.8155   0.9715   0.9719   1.2555   1.2574
     1.3874   1.3894   1.7245   1.7246   2.3912   2.3927   2.7013   2.7043
     3.0917   3.0943

     the Fermi energy is     0.9253 ev

!    total energy              =   -1573.10878275 Ry
     estimated scf accuracy    <       0.00000628 Ry
     smearing contrib. (-TS)   =      -0.07985556 Ry
     internal energy E=F+TS    =   -1573.02892719 Ry

     The total energy is F=E-TS. E is the sum of the following terms:
     one-electron contribution =  -12848.57416830 Ry
     hartree contribution      =    6461.72166283 Ry
     xc contribution           =    -338.21606639 Ry
     ewald contribution        =    5152.03963174 Ry
     electric field correction =       0.00001293 Ry

     convergence has been achieved in  23 iterations

     negative rho (up, down):  3.364E-03 0.000E+00

     Forces acting on atoms (cartesian axes, Ry/au):

     atom    1 type  1   force =     0.00000020    0.00343905    0.02317330
     atom    2 type  1   force =    -0.00000903    0.00346304    0.02321648
     atom    3 type  2   force =     0.00005801   -0.02917685   -0.05521673
     atom    4 type  2   force =    -0.00004929   -0.02918887   -0.05521019
     atom    5 type  1   force =     0.00000505   -0.00199251    0.00551731
     atom    6 type  1   force =     0.00000769   -0.00255522    0.00373440
     atom    7 type  2   force =     0.00010876    0.02788670    0.02719929
     atom    8 type  2   force =    -0.00013032    0.02789023    0.02719698
     atom    9 type  1   force =     0.00001050    0.00072729   -0.00100561
     atom   10 type  1   force =     0.00000527    0.00055859   -0.00147136
     atom   11 type  2   force =    -0.00042920   -0.00053439    0.00142707
     atom   12 type  2   force =     0.00042236   -0.00051707    0.00143905

     Total force =     0.109541     Total SCF correction =     0.009962

     Writing output data file ./Cr2Au2/Cr2Au2_beef.save/

     init_run     :     62.59s CPU     74.00s WALL (       1 calls)
     electrons    :   2817.43s CPU   3457.91s WALL (       1 calls)
     forces       :     38.12s CPU     41.17s WALL (       1 calls)

     Called by init_run:
     wfcinit      :     52.32s CPU     63.07s WALL (       1 calls)
     potinit      :      7.25s CPU      7.69s WALL (       1 calls)
     hinit0       :      1.81s CPU      1.91s WALL (       1 calls)

     Called by electrons:
     c_bands      :   2449.98s CPU   3005.83s WALL (      23 calls)
     sum_band     :    334.77s CPU    407.91s WALL (      23 calls)
     v_of_rho     :     21.53s CPU     30.00s WALL (      24 calls)
     newd         :     17.21s CPU     19.45s WALL (      24 calls)
     mix_rho      :      0.60s CPU      1.47s WALL (      23 calls)
     vdW_kernel   :      5.62s CPU      5.74s WALL (       1 calls)

     Called by c_bands:
     init_us_2    :      8.46s CPU      8.54s WALL (    3552 calls)
     cegterg      :   2418.51s CPU   2959.47s WALL (    1702 calls)

     Called by *egterg:
     cdiaghg      :    162.20s CPU    235.82s WALL (    7124 calls)
     h_psi        :   1351.01s CPU   1700.50s WALL (    7198 calls)
     s_psi        :    387.10s CPU    387.23s WALL (    7198 calls)
     g_psi        :      1.03s CPU      1.08s WALL (    5422 calls)

     Called by h_psi:
     h_psi:calbec :    415.24s CPU    459.85s WALL (    7198 calls)
     vloc_psi     :    507.43s CPU    811.83s WALL (    7198 calls)
     add_vuspsi   :    423.51s CPU    423.81s WALL (    7198 calls)

     General routines
     calbec       :    634.73s CPU    696.33s WALL (    9196 calls)
     fft          :      8.98s CPU     17.17s WALL (    1571 calls)
     ffts         :      0.07s CPU      0.21s WALL (      47 calls)
     fftw         :    600.99s CPU    956.17s WALL (  828218 calls)
     interpolate  :      0.21s CPU      0.37s WALL (      24 calls)

     Parallel routines
     fft_scatt_xy :     34.54s CPU     49.95s WALL (  829836 calls)
     fft_scatt_yz :    218.79s CPU    473.38s WALL (  829836 calls)

     PWSCF        :  48m52.07s CPU      1h 1m WALL


   This run was terminated on:  15:55:19  10Jul2022            

=------------------------------------------------------------------------------=
   JOB DONE.
=------------------------------------------------------------------------------=
