
     Program PWSCF v.6.6 starts on 27Jun2022 at 22:34:29 

     This program is part of the open-source Quantum ESPRESSO suite
     for quantum simulation of materials; please cite
         "P. Giannozzi et al., J. Phys.:Condens. Matter 21 395502 (2009);
         "P. Giannozzi et al., J. Phys.:Condens. Matter 29 465901 (2017);
          URL http://www.quantum-espresso.org", 
     in publications or presentations arising from this work. More details at
     http://www.quantum-espresso.org/quote

     Parallel version (MPI), running on    37 processors

     MPI processes distributed on     1 nodes
     R & G space division:  proc/nbgrp/npool/nimage =      37
     Fft bands division:     nmany     =       1
     Reading input from Cr2Fe2.in
Warning: card &CELL ignored
Warning: card / ignored

     Current dimensions of program PWSCF are:
     Max number of different atomic species (ntypx) = 10
     Max number of k-points (npk) =  40000
     Max angular momentum in pseudopotentials (lmaxx) =  3
     Presently stress not available with electric field and gates

     Message from routine cell_base_init:
     DEPRECATED: use true lattice parameter, not A to a.u. conversion factor
     file Cr.pbe-spn-rrkjus_psl.1.0.0.UPF: wavefunction(s)  3P renormalized
     file Fe.pbe-n-rrkjus_psl.1.0.0.UPF: wavefunction(s)  3D renormalized

     **************************************************************************
     Initializing libbeef V0.1.2 with the BEEF-vdW functional.
     Citation: Wellendorff et al., PRB 85, 235149 (2012).
     **************************************************************************


     IMPORTANT: XC functional enforced from input :
     Exchange-correlation= BEEF-VDW
                           (   1   4  43  14   2   0   0)
     Any further DFT definition will be discarded
     Please, verify this is what you really want


     Subspace diagonalization in iterative solution of the eigenvalue problem:
     a serial algorithm will be used


     Parallelization info
     --------------------
     sticks:   dense  smooth     PW     G-vecs:    dense   smooth      PW
     Min          91      36     10                20753     5242     818
     Max          92      37     11                20778     5265     843
     Sum        3391    1365    389               768363   194435   30621



     bravais-lattice index     =            0
     lattice parameter (alat)  =       1.8897  a.u.
     unit-cell volume          =    3515.5157 (a.u.)^3
     number of atoms/cell      =           12
     number of atomic types    =            2
     number of electrons       =       132.00
     number of Kohn-Sham states=           79
     kinetic-energy cutoff     =      55.1240  Ry
     charge density cutoff     =     551.2396  Ry
     convergence threshold     =      1.0E-05
     mixing beta               =       0.1000
     number of iterations used =           10  plain     mixing
     Exchange-correlation= BEEF-VDW
                           (   1   4  43  14   2   0   0)

     celldm(1)=   1.889726  celldm(2)=   0.000000  celldm(3)=   0.000000
     celldm(4)=   0.000000  celldm(5)=   0.000000  celldm(6)=   0.000000

     crystal axes: (cart. coord. in units of alat)
               a(1) = (   4.978214   0.000000   0.000000 )  
               a(2) = (   2.428458   4.345711   0.000000 )  
               a(3) = (   0.000000   0.000000  24.080091 )  

     reciprocal axes: (cart. coord. in units 2 pi/alat)
               b(1) = (  0.200875 -0.112253  0.000000 )  
               b(2) = (  0.000000  0.230112  0.000000 )  
               b(3) = (  0.000000  0.000000  0.041528 )  


     PseudoPot. # 1 for Cr read from file:
     ../pseudo/Cr.pbe-spn-rrkjus_psl.1.0.0.UPF
     MD5 check sum: 793d051e4f89dd1e3290b85340a92c0a
     Pseudo is Ultrasoft + core correction, Zval = 14.0
     Generated using "atomic" code by A. Dal Corso v.6.2.2
     Using radial grid of 1183 points,  6 beta functions with: 
                l(1) =   0
                l(2) =   0
                l(3) =   1
                l(4) =   1
                l(5) =   2
                l(6) =   2
     Q(r) pseudized with 0 coefficients 


     PseudoPot. # 2 for Fe read from file:
     ../pseudo/Fe.pbe-n-rrkjus_psl.1.0.0.UPF
     MD5 check sum: e37eda618788e2416bb099156d582190
     Pseudo is Ultrasoft + core correction, Zval =  8.0
     Generated using "atomic" code by A. Dal Corso v.6.5
     Using radial grid of 1191 points,  6 beta functions with: 
                l(1) =   0
                l(2) =   0
                l(3) =   1
                l(4) =   1
                l(5) =   2
                l(6) =   2
     Q(r) pseudized with 0 coefficients 


     atomic species   valence    mass     pseudopotential
        Cr            14.00    51.99610     Cr( 1.00)
        Fe             8.00    55.84500     Fe( 1.00)

     Starting magnetic structure 
     atomic species   magnetization
        Cr           0.000
        Fe           0.750

     No symmetry found



   Cartesian axes

     site n.     atom                  positions (alat units)
         1           Cr  tau(   1) = (   0.0000000   0.0000000  10.0000000  )
         2           Cr  tau(   2) = (   3.7033357   2.1728556  10.0000000  )
         3           Fe  tau(   3) = (   2.4891069   0.0000000  10.0000000  )
         4           Fe  tau(   4) = (   1.2142288   2.1728556  10.0000000  )
         5           Cr  tau(   5) = (   4.9782138   2.9208640  12.0400454  )
         6           Cr  tau(   6) = (   1.2748781   0.7480084  12.0400454  )
         7           Fe  tau(   7) = (   2.4891069   2.9208640  12.0400454  )
         8           Fe  tau(   8) = (   3.7639850   0.7480084  12.0400454  )
         9           Cr  tau(   9) = (   2.5474688   1.4946561  14.0606836  )
        10           Cr  tau(  10) = (   6.2507354   3.6675079  14.0606622  )
        11           Fe  tau(  11) = (   5.0383381   1.4957125  14.1136164  )
        12           Fe  tau(  12) = (   3.7633334   3.6684866  14.1134026  )

     number of k points=    74  Fermi-Dirac smearing, width (Ry)=  0.0100
                       cart. coord. in units 2pi/alat
        k(    1) = (   0.0000000   0.0000000   0.0000000), wk =   0.0069444
        k(    2) = (   0.0000000   0.0191760   0.0000000), wk =   0.0138889
        k(    3) = (   0.0000000   0.0383520   0.0000000), wk =   0.0138889
        k(    4) = (   0.0000000   0.0575280   0.0000000), wk =   0.0138889
        k(    5) = (   0.0000000   0.0767040   0.0000000), wk =   0.0138889
        k(    6) = (   0.0000000   0.0958800   0.0000000), wk =   0.0138889
        k(    7) = (   0.0000000  -0.1150560   0.0000000), wk =   0.0069444
        k(    8) = (   0.0167396  -0.0093544   0.0000000), wk =   0.0138889
        k(    9) = (   0.0167396   0.0098216   0.0000000), wk =   0.0138889
        k(   10) = (   0.0167396   0.0289976   0.0000000), wk =   0.0138889
        k(   11) = (   0.0167396   0.0481736   0.0000000), wk =   0.0138889
        k(   12) = (   0.0167396   0.0673496   0.0000000), wk =   0.0138889
        k(   13) = (   0.0167396   0.0865256   0.0000000), wk =   0.0138889
        k(   14) = (   0.0167396  -0.1244103   0.0000000), wk =   0.0138889
        k(   15) = (   0.0167396  -0.1052344   0.0000000), wk =   0.0138889
        k(   16) = (   0.0167396  -0.0860584   0.0000000), wk =   0.0138889
        k(   17) = (   0.0167396  -0.0668824   0.0000000), wk =   0.0138889
        k(   18) = (   0.0167396  -0.0477064   0.0000000), wk =   0.0138889
        k(   19) = (   0.0167396  -0.0285304   0.0000000), wk =   0.0138889
        k(   20) = (   0.0334792  -0.0187088   0.0000000), wk =   0.0138889
        k(   21) = (   0.0334792   0.0004672   0.0000000), wk =   0.0138889
        k(   22) = (   0.0334792   0.0196432   0.0000000), wk =   0.0138889
        k(   23) = (   0.0334792   0.0388192   0.0000000), wk =   0.0138889
        k(   24) = (   0.0334792   0.0579952   0.0000000), wk =   0.0138889
        k(   25) = (   0.0334792   0.0771712   0.0000000), wk =   0.0138889
        k(   26) = (   0.0334792  -0.1337647   0.0000000), wk =   0.0138889
        k(   27) = (   0.0334792  -0.1145887   0.0000000), wk =   0.0138889
        k(   28) = (   0.0334792  -0.0954127   0.0000000), wk =   0.0138889
        k(   29) = (   0.0334792  -0.0762367   0.0000000), wk =   0.0138889
        k(   30) = (   0.0334792  -0.0570607   0.0000000), wk =   0.0138889
        k(   31) = (   0.0334792  -0.0378848   0.0000000), wk =   0.0138889
        k(   32) = (   0.0502188  -0.0280631   0.0000000), wk =   0.0138889
        k(   33) = (   0.0502188  -0.0088871   0.0000000), wk =   0.0138889
        k(   34) = (   0.0502188   0.0102889   0.0000000), wk =   0.0138889
        k(   35) = (   0.0502188   0.0294648   0.0000000), wk =   0.0138889
        k(   36) = (   0.0502188   0.0486408   0.0000000), wk =   0.0138889
        k(   37) = (   0.0502188   0.0678168   0.0000000), wk =   0.0138889
        k(   38) = (   0.0502188  -0.1431191   0.0000000), wk =   0.0138889
        k(   39) = (   0.0502188  -0.1239431   0.0000000), wk =   0.0138889
        k(   40) = (   0.0502188  -0.1047671   0.0000000), wk =   0.0138889
        k(   41) = (   0.0502188  -0.0855911   0.0000000), wk =   0.0138889
        k(   42) = (   0.0502188  -0.0664151   0.0000000), wk =   0.0138889
        k(   43) = (   0.0502188  -0.0472391   0.0000000), wk =   0.0138889
        k(   44) = (   0.0669584  -0.0374175   0.0000000), wk =   0.0138889
        k(   45) = (   0.0669584  -0.0182415   0.0000000), wk =   0.0138889
        k(   46) = (   0.0669584   0.0009345   0.0000000), wk =   0.0138889
        k(   47) = (   0.0669584   0.0201105   0.0000000), wk =   0.0138889
        k(   48) = (   0.0669584   0.0392865   0.0000000), wk =   0.0138889
        k(   49) = (   0.0669584   0.0584625   0.0000000), wk =   0.0138889
        k(   50) = (   0.0669584  -0.1524735   0.0000000), wk =   0.0138889
        k(   51) = (   0.0669584  -0.1332975   0.0000000), wk =   0.0138889
        k(   52) = (   0.0669584  -0.1141215   0.0000000), wk =   0.0138889
        k(   53) = (   0.0669584  -0.0949455   0.0000000), wk =   0.0138889
        k(   54) = (   0.0669584  -0.0757695   0.0000000), wk =   0.0138889
        k(   55) = (   0.0669584  -0.0565935   0.0000000), wk =   0.0138889
        k(   56) = (   0.0836980  -0.0467719   0.0000000), wk =   0.0138889
        k(   57) = (   0.0836980  -0.0275959   0.0000000), wk =   0.0138889
        k(   58) = (   0.0836980  -0.0084199   0.0000000), wk =   0.0138889
        k(   59) = (   0.0836980   0.0107561   0.0000000), wk =   0.0138889
        k(   60) = (   0.0836980   0.0299321   0.0000000), wk =   0.0138889
        k(   61) = (   0.0836980   0.0491081   0.0000000), wk =   0.0138889
        k(   62) = (   0.0836980  -0.1618279   0.0000000), wk =   0.0138889
        k(   63) = (   0.0836980  -0.1426519   0.0000000), wk =   0.0138889
        k(   64) = (   0.0836980  -0.1234759   0.0000000), wk =   0.0138889
        k(   65) = (   0.0836980  -0.1042999   0.0000000), wk =   0.0138889
        k(   66) = (   0.0836980  -0.0851239   0.0000000), wk =   0.0138889
        k(   67) = (   0.0836980  -0.0659479   0.0000000), wk =   0.0138889
        k(   68) = (  -0.1004376   0.0561263   0.0000000), wk =   0.0069444
        k(   69) = (  -0.1004376   0.0753023   0.0000000), wk =   0.0138889
        k(   70) = (  -0.1004376   0.0944783   0.0000000), wk =   0.0138889
        k(   71) = (  -0.1004376   0.1136543   0.0000000), wk =   0.0138889
        k(   72) = (  -0.1004376   0.1328303   0.0000000), wk =   0.0138889
        k(   73) = (  -0.1004376   0.1520062   0.0000000), wk =   0.0138889
        k(   74) = (  -0.1004376  -0.0589297   0.0000000), wk =   0.0069444

     Dense  grid:   768363 G-vectors     FFT dimensions: (  72,  72, 360)

     Smooth grid:   194435 G-vectors     FFT dimensions: (  45,  45, 216)

     Estimated max dynamical RAM per process >     211.73 MB

     Estimated total dynamical RAM >       7.65 GB
     Generating pointlists ...
     new r_m :   1.0205 (alat units)  1.9285 (a.u.) for type    1
     new r_m :   1.0205 (alat units)  1.9285 (a.u.) for type    2

     Initial potential from superposition of free atoms

     starting charge  131.99222, renormalised to  132.00000


     %%%%%%%%%%%%%%%%%%%%%%%%%%%%%%%%%%%%%%%%%%%%%%%%%%%%%%%%%%%%%%%%%%%%%%%%
     %                                                                      %
     % You are using vdW-DF, which was implemented by the Thonhauser group. %
     % Please cite the following two papers that made this development      %
     % possible and the two reviews that describe the various versions:     %
     %                                                                      %
     %   T. Thonhauser et al., PRL 115, 136402 (2015).                      %
     %   T. Thonhauser et al., PRB 76, 125112 (2007).                       %
     %   K. Berland et al., Rep. Prog. Phys. 78, 066501 (2015).             %
     %   D.C. Langreth et al., J. Phys.: Condens. Matter 21, 084203 (2009). %
     %                                                                      %
     %                                                                      %
     % If you are calculating the stress with vdW-DF, please also cite:     %
     %                                                                      %
     %   R. Sabatini et al., J. Phys.: Condens. Matter 24, 424209 (2012).   %
     %                                                                      %
     %%%%%%%%%%%%%%%%%%%%%%%%%%%%%%%%%%%%%%%%%%%%%%%%%%%%%%%%%%%%%%%%%%%%%%%%



     Adding external electric field

     Computed dipole along edir(3) : 
        Dipole                0.0000 Ry au,          0.0000 Debye
        Dipole field          0.0000 Ry au, 

        Potential amp.       -0.0000 Ry
        Total length         44.3672 bohr


     Adding external electric field

     Computed dipole along edir(3) : 
        Dipole                0.0000 Ry au,          0.0000 Debye
        Dipole field          0.0000 Ry au, 

        Potential amp.       -0.0000 Ry
        Total length         44.3672 bohr

     Starting wfcs are  114 randomized atomic wfcs

     total cpu time spent up to now is      131.3 secs

     Self-consistent Calculation

     iteration #  1     ecut=    55.12 Ry     beta= 0.10
     Davidson diagonalization with overlap
     ethr =  1.00E-02,  avg # of iterations =  2.0

     Adding external electric field

     Computed dipole along edir(3) : 
        Dipole               -0.0038 Ry au,         -0.0097 Debye
        Dipole field         -0.0000 Ry au, 

        Potential amp.        0.0012 Ry
        Total length         44.3672 bohr


     Adding external electric field

     Computed dipole along edir(3) : 
        Dipole               -0.0038 Ry au,         -0.0097 Debye
        Dipole field         -0.0000 Ry au, 

        Potential amp.        0.0012 Ry
        Total length         44.3672 bohr


     total cpu time spent up to now is      377.8 secs

     total energy              =   -1426.33114887 Ry
     estimated scf accuracy    <      14.31469175 Ry

     total magnetization       =    21.35 Bohr mag/cell
     absolute magnetization    =    24.55 Bohr mag/cell

     iteration #  2     ecut=    55.12 Ry     beta= 0.10
     Davidson diagonalization with overlap
     ethr =  1.00E-02,  avg # of iterations =  2.5

     Adding external electric field

     Computed dipole along edir(3) : 
        Dipole                0.0799 Ry au,          0.2030 Debye
        Dipole field          0.0003 Ry au, 

        Potential amp.       -0.0253 Ry
        Total length         44.3672 bohr


     Adding external electric field

     Computed dipole along edir(3) : 
        Dipole                0.0799 Ry au,          0.2030 Debye
        Dipole field          0.0003 Ry au, 

        Potential amp.       -0.0253 Ry
        Total length         44.3672 bohr


     total cpu time spent up to now is      596.0 secs

     total energy              =   -1427.89415170 Ry
     estimated scf accuracy    <       9.96466270 Ry

     total magnetization       =    13.90 Bohr mag/cell
     absolute magnetization    =    16.97 Bohr mag/cell

     iteration #  3     ecut=    55.12 Ry     beta= 0.10
     Davidson diagonalization with overlap
     ethr =  7.55E-03,  avg # of iterations =  1.3

     Adding external electric field

     Computed dipole along edir(3) : 
        Dipole               -0.1901 Ry au,         -0.4833 Debye
        Dipole field         -0.0007 Ry au, 

        Potential amp.        0.0603 Ry
        Total length         44.3672 bohr


     Adding external electric field

     Computed dipole along edir(3) : 
        Dipole               -0.1901 Ry au,         -0.4833 Debye
        Dipole field         -0.0007 Ry au, 

        Potential amp.        0.0603 Ry
        Total length         44.3672 bohr


     total cpu time spent up to now is      783.5 secs

     total energy              =   -1428.56812133 Ry
     estimated scf accuracy    <       3.03474140 Ry

     total magnetization       =    15.11 Bohr mag/cell
     absolute magnetization    =    17.66 Bohr mag/cell

     iteration #  4     ecut=    55.12 Ry     beta= 0.10
     Davidson diagonalization with overlap
     ethr =  2.30E-03,  avg # of iterations =  1.3

     Adding external electric field

     Computed dipole along edir(3) : 
        Dipole                0.0449 Ry au,          0.1141 Debye
        Dipole field          0.0002 Ry au, 

        Potential amp.       -0.0142 Ry
        Total length         44.3672 bohr


     Adding external electric field

     Computed dipole along edir(3) : 
        Dipole                0.0449 Ry au,          0.1141 Debye
        Dipole field          0.0002 Ry au, 

        Potential amp.       -0.0142 Ry
        Total length         44.3672 bohr


     total cpu time spent up to now is      961.4 secs

     total energy              =   -1428.94742899 Ry
     estimated scf accuracy    <       7.51375455 Ry

     total magnetization       =    15.66 Bohr mag/cell
     absolute magnetization    =    18.80 Bohr mag/cell

     iteration #  5     ecut=    55.12 Ry     beta= 0.10
     Davidson diagonalization with overlap
     ethr =  2.30E-03,  avg # of iterations =  1.0

     Adding external electric field

     Computed dipole along edir(3) : 
        Dipole                0.0117 Ry au,          0.0297 Debye
        Dipole field          0.0000 Ry au, 

        Potential amp.       -0.0037 Ry
        Total length         44.3672 bohr


     Adding external electric field

     Computed dipole along edir(3) : 
        Dipole                0.0117 Ry au,          0.0297 Debye
        Dipole field          0.0000 Ry au, 

        Potential amp.       -0.0037 Ry
        Total length         44.3672 bohr


     total cpu time spent up to now is     1150.8 secs

     total energy              =   -1428.54540377 Ry
     estimated scf accuracy    <       1.18995316 Ry

     total magnetization       =    15.89 Bohr mag/cell
     absolute magnetization    =    19.08 Bohr mag/cell

     iteration #  6     ecut=    55.12 Ry     beta= 0.10
     Davidson diagonalization with overlap
     ethr =  9.01E-04,  avg # of iterations =  1.8

     Adding external electric field

     Computed dipole along edir(3) : 
        Dipole                0.0027 Ry au,          0.0068 Debye
        Dipole field          0.0000 Ry au, 

        Potential amp.       -0.0008 Ry
        Total length         44.3672 bohr


     Adding external electric field

     Computed dipole along edir(3) : 
        Dipole                0.0027 Ry au,          0.0068 Debye
        Dipole field          0.0000 Ry au, 

        Potential amp.       -0.0008 Ry
        Total length         44.3672 bohr


     total cpu time spent up to now is     1358.8 secs

     total energy              =   -1429.01095813 Ry
     estimated scf accuracy    <       0.41363580 Ry

     total magnetization       =    15.79 Bohr mag/cell
     absolute magnetization    =    20.28 Bohr mag/cell

     iteration #  7     ecut=    55.12 Ry     beta= 0.10
     Davidson diagonalization with overlap
     ethr =  3.13E-04,  avg # of iterations =  5.1

     Adding external electric field

     Computed dipole along edir(3) : 
        Dipole               -0.0004 Ry au,         -0.0010 Debye
        Dipole field         -0.0000 Ry au, 

        Potential amp.        0.0001 Ry
        Total length         44.3672 bohr


     Adding external electric field

     Computed dipole along edir(3) : 
        Dipole               -0.0004 Ry au,         -0.0010 Debye
        Dipole field         -0.0000 Ry au, 

        Potential amp.        0.0001 Ry
        Total length         44.3672 bohr


     total cpu time spent up to now is     1589.7 secs

     total energy              =   -1428.94748500 Ry
     estimated scf accuracy    <       0.31119398 Ry

     total magnetization       =    13.56 Bohr mag/cell
     absolute magnetization    =    19.14 Bohr mag/cell

     iteration #  8     ecut=    55.12 Ry     beta= 0.10
     Davidson diagonalization with overlap
     ethr =  2.36E-04,  avg # of iterations =  1.6

     Adding external electric field

     Computed dipole along edir(3) : 
        Dipole               -0.0022 Ry au,         -0.0057 Debye
        Dipole field         -0.0000 Ry au, 

        Potential amp.        0.0007 Ry
        Total length         44.3672 bohr


     Adding external electric field

     Computed dipole along edir(3) : 
        Dipole               -0.0022 Ry au,         -0.0057 Debye
        Dipole field         -0.0000 Ry au, 

        Potential amp.        0.0007 Ry
        Total length         44.3672 bohr


     total cpu time spent up to now is     1769.7 secs

     total energy              =   -1429.70701130 Ry
     estimated scf accuracy    <       0.24948595 Ry

     total magnetization       =    13.22 Bohr mag/cell
     absolute magnetization    =    19.05 Bohr mag/cell

     iteration #  9     ecut=    55.12 Ry     beta= 0.10
     Davidson diagonalization with overlap
     ethr =  1.89E-04,  avg # of iterations =  2.9

     Adding external electric field

     Computed dipole along edir(3) : 
        Dipole               -0.0026 Ry au,         -0.0066 Debye
        Dipole field         -0.0000 Ry au, 

        Potential amp.        0.0008 Ry
        Total length         44.3672 bohr


     Adding external electric field

     Computed dipole along edir(3) : 
        Dipole               -0.0026 Ry au,         -0.0066 Debye
        Dipole field         -0.0000 Ry au, 

        Potential amp.        0.0008 Ry
        Total length         44.3672 bohr


     total cpu time spent up to now is     1979.7 secs

     total energy              =   -1431.14739079 Ry
     estimated scf accuracy    <       0.13919860 Ry

     total magnetization       =    12.39 Bohr mag/cell
     absolute magnetization    =    19.59 Bohr mag/cell

     iteration # 10     ecut=    55.12 Ry     beta= 0.10
     Davidson diagonalization with overlap
     ethr =  1.05E-04,  avg # of iterations =  4.7

     Adding external electric field

     Computed dipole along edir(3) : 
        Dipole               -0.0041 Ry au,         -0.0105 Debye
        Dipole field         -0.0000 Ry au, 

        Potential amp.        0.0013 Ry
        Total length         44.3672 bohr


     Adding external electric field

     Computed dipole along edir(3) : 
        Dipole               -0.0041 Ry au,         -0.0105 Debye
        Dipole field         -0.0000 Ry au, 

        Potential amp.        0.0013 Ry
        Total length         44.3672 bohr


     total cpu time spent up to now is     2269.9 secs

     total energy              =   -1431.22723423 Ry
     estimated scf accuracy    <       0.47244652 Ry

     total magnetization       =     9.26 Bohr mag/cell
     absolute magnetization    =    19.34 Bohr mag/cell

     iteration # 11     ecut=    55.12 Ry     beta= 0.10
     Davidson diagonalization with overlap
     ethr =  1.05E-04,  avg # of iterations =  1.2

     Adding external electric field

     Computed dipole along edir(3) : 
        Dipole                0.0007 Ry au,          0.0018 Debye
        Dipole field          0.0000 Ry au, 

        Potential amp.       -0.0002 Ry
        Total length         44.3672 bohr


     Adding external electric field

     Computed dipole along edir(3) : 
        Dipole                0.0007 Ry au,          0.0018 Debye
        Dipole field          0.0000 Ry au, 

        Potential amp.       -0.0002 Ry
        Total length         44.3672 bohr


     total cpu time spent up to now is     2437.1 secs

     total energy              =   -1431.30117543 Ry
     estimated scf accuracy    <       0.27031249 Ry

     total magnetization       =     8.27 Bohr mag/cell
     absolute magnetization    =    18.97 Bohr mag/cell

     iteration # 12     ecut=    55.12 Ry     beta= 0.10
     Davidson diagonalization with overlap
     ethr =  1.05E-04,  avg # of iterations =  1.1

     Adding external electric field

     Computed dipole along edir(3) : 
        Dipole               -0.0030 Ry au,         -0.0075 Debye
        Dipole field         -0.0000 Ry au, 

        Potential amp.        0.0009 Ry
        Total length         44.3672 bohr


     Adding external electric field

     Computed dipole along edir(3) : 
        Dipole               -0.0030 Ry au,         -0.0075 Debye
        Dipole field         -0.0000 Ry au, 

        Potential amp.        0.0009 Ry
        Total length         44.3672 bohr


     total cpu time spent up to now is     2600.1 secs

     total energy              =   -1431.60924034 Ry
     estimated scf accuracy    <       0.20838316 Ry

     total magnetization       =     7.56 Bohr mag/cell
     absolute magnetization    =    18.81 Bohr mag/cell

     iteration # 13     ecut=    55.12 Ry     beta= 0.10
     Davidson diagonalization with overlap
     ethr =  1.05E-04,  avg # of iterations =  1.9

     Adding external electric field

     Computed dipole along edir(3) : 
        Dipole               -0.0089 Ry au,         -0.0225 Debye
        Dipole field         -0.0000 Ry au, 

        Potential amp.        0.0028 Ry
        Total length         44.3672 bohr


     Adding external electric field

     Computed dipole along edir(3) : 
        Dipole               -0.0089 Ry au,         -0.0225 Debye
        Dipole field         -0.0000 Ry au, 

        Potential amp.        0.0028 Ry
        Total length         44.3672 bohr


     total cpu time spent up to now is     2754.9 secs

     total energy              =   -1431.76312956 Ry
     estimated scf accuracy    <       0.04566663 Ry

     total magnetization       =     6.04 Bohr mag/cell
     absolute magnetization    =    18.34 Bohr mag/cell

     iteration # 14     ecut=    55.12 Ry     beta= 0.10
     Davidson diagonalization with overlap
     c_bands:  4 eigenvalues not converged
     c_bands:  2 eigenvalues not converged
     c_bands:  1 eigenvalues not converged
     c_bands:  1 eigenvalues not converged
     c_bands:  1 eigenvalues not converged
     c_bands:  1 eigenvalues not converged
     ethr =  3.46E-05,  avg # of iterations =  5.5

     Adding external electric field

     Computed dipole along edir(3) : 
        Dipole               -0.0025 Ry au,         -0.0064 Debye
        Dipole field         -0.0000 Ry au, 

        Potential amp.        0.0008 Ry
        Total length         44.3672 bohr


     Adding external electric field

     Computed dipole along edir(3) : 
        Dipole               -0.0025 Ry au,         -0.0064 Debye
        Dipole field         -0.0000 Ry au, 

        Potential amp.        0.0008 Ry
        Total length         44.3672 bohr


     total cpu time spent up to now is     2950.5 secs

     total energy              =   -1432.14343920 Ry
     estimated scf accuracy    <       0.09094377 Ry

     total magnetization       =     5.40 Bohr mag/cell
     absolute magnetization    =    18.56 Bohr mag/cell

     iteration # 15     ecut=    55.12 Ry     beta= 0.10
     Davidson diagonalization with overlap
     c_bands:  1 eigenvalues not converged
     ethr =  3.46E-05,  avg # of iterations =  2.2

     Adding external electric field

     Computed dipole along edir(3) : 
        Dipole                0.0023 Ry au,          0.0057 Debye
        Dipole field          0.0000 Ry au, 

        Potential amp.       -0.0007 Ry
        Total length         44.3672 bohr


     Adding external electric field

     Computed dipole along edir(3) : 
        Dipole                0.0023 Ry au,          0.0057 Debye
        Dipole field          0.0000 Ry au, 

        Potential amp.       -0.0007 Ry
        Total length         44.3672 bohr


     total cpu time spent up to now is     3106.0 secs

     total energy              =   -1432.52535261 Ry
     estimated scf accuracy    <       0.03097557 Ry

     total magnetization       =     4.21 Bohr mag/cell
     absolute magnetization    =    18.37 Bohr mag/cell

     iteration # 16     ecut=    55.12 Ry     beta= 0.10
     Davidson diagonalization with overlap
     c_bands:  1 eigenvalues not converged
     c_bands:  1 eigenvalues not converged
     c_bands:  1 eigenvalues not converged
     c_bands:  2 eigenvalues not converged
     c_bands:  1 eigenvalues not converged
     c_bands:  1 eigenvalues not converged
     c_bands:  3 eigenvalues not converged
     c_bands:  3 eigenvalues not converged
     c_bands:  1 eigenvalues not converged
     c_bands:  1 eigenvalues not converged
     c_bands:  1 eigenvalues not converged
     c_bands:  1 eigenvalues not converged
     c_bands:  1 eigenvalues not converged
     ethr =  2.35E-05,  avg # of iterations = 10.8

     Adding external electric field

     Computed dipole along edir(3) : 
        Dipole               -0.0060 Ry au,         -0.0151 Debye
        Dipole field         -0.0000 Ry au, 

        Potential amp.        0.0019 Ry
        Total length         44.3672 bohr


     Adding external electric field

     Computed dipole along edir(3) : 
        Dipole               -0.0060 Ry au,         -0.0151 Debye
        Dipole field         -0.0000 Ry au, 

        Potential amp.        0.0019 Ry
        Total length         44.3672 bohr


     total cpu time spent up to now is     3404.8 secs

     total energy              =   -1432.12869390 Ry
     estimated scf accuracy    <       0.03251825 Ry

     total magnetization       =     2.94 Bohr mag/cell
     absolute magnetization    =    17.81 Bohr mag/cell

     iteration # 17     ecut=    55.12 Ry     beta= 0.10
     Davidson diagonalization with overlap
     ethr =  2.35E-05,  avg # of iterations =  1.4

     Adding external electric field

     Computed dipole along edir(3) : 
        Dipole               -0.0052 Ry au,         -0.0133 Debye
        Dipole field         -0.0000 Ry au, 

        Potential amp.        0.0017 Ry
        Total length         44.3672 bohr


     Adding external electric field

     Computed dipole along edir(3) : 
        Dipole               -0.0052 Ry au,         -0.0133 Debye
        Dipole field         -0.0000 Ry au, 

        Potential amp.        0.0017 Ry
        Total length         44.3672 bohr


     total cpu time spent up to now is     3594.5 secs

     total energy              =   -1432.12344580 Ry
     estimated scf accuracy    <       0.00416134 Ry

     total magnetization       =     3.35 Bohr mag/cell
     absolute magnetization    =    17.96 Bohr mag/cell

     iteration # 18     ecut=    55.12 Ry     beta= 0.10
     Davidson diagonalization with overlap
     c_bands:  1 eigenvalues not converged
     c_bands:  1 eigenvalues not converged
     c_bands:  1 eigenvalues not converged
     c_bands:  1 eigenvalues not converged
     c_bands:  1 eigenvalues not converged
     c_bands:  2 eigenvalues not converged
     c_bands:  1 eigenvalues not converged
     c_bands:  1 eigenvalues not converged
     c_bands:  2 eigenvalues not converged
     c_bands:  2 eigenvalues not converged
     c_bands:  1 eigenvalues not converged
     c_bands:  3 eigenvalues not converged
     c_bands:  2 eigenvalues not converged
     c_bands:  1 eigenvalues not converged
     c_bands:  2 eigenvalues not converged
     c_bands:  1 eigenvalues not converged
     c_bands:  1 eigenvalues not converged
     c_bands:  1 eigenvalues not converged
     c_bands:  4 eigenvalues not converged
     c_bands:  3 eigenvalues not converged
     c_bands:  2 eigenvalues not converged
     c_bands:  2 eigenvalues not converged
     c_bands:  3 eigenvalues not converged
     c_bands:  2 eigenvalues not converged
     c_bands:  1 eigenvalues not converged
     c_bands:  1 eigenvalues not converged
     c_bands:  1 eigenvalues not converged
     c_bands:  1 eigenvalues not converged
     c_bands:  1 eigenvalues not converged
     c_bands:  2 eigenvalues not converged
     c_bands:  2 eigenvalues not converged
     c_bands:  2 eigenvalues not converged
     c_bands:  2 eigenvalues not converged
     c_bands:  1 eigenvalues not converged
     c_bands:  3 eigenvalues not converged
     c_bands:  3 eigenvalues not converged
     c_bands:  2 eigenvalues not converged
     c_bands:  1 eigenvalues not converged
     c_bands:  1 eigenvalues not converged
     c_bands:  1 eigenvalues not converged
     c_bands:  1 eigenvalues not converged
     c_bands:  1 eigenvalues not converged
     c_bands:  1 eigenvalues not converged
     ethr =  3.15E-06,  avg # of iterations = 12.3

     Adding external electric field

     Computed dipole along edir(3) : 
        Dipole               -0.0056 Ry au,         -0.0142 Debye
        Dipole field         -0.0000 Ry au, 

        Potential amp.        0.0018 Ry
        Total length         44.3672 bohr


     Adding external electric field

     Computed dipole along edir(3) : 
        Dipole               -0.0056 Ry au,         -0.0142 Debye
        Dipole field         -0.0000 Ry au, 

        Potential amp.        0.0018 Ry
        Total length         44.3672 bohr


     total cpu time spent up to now is     3949.2 secs

     total energy              =   -1432.34327248 Ry
     estimated scf accuracy    <       0.01150402 Ry

     total magnetization       =     3.23 Bohr mag/cell
     absolute magnetization    =    18.09 Bohr mag/cell

     iteration # 19     ecut=    55.12 Ry     beta= 0.10
     Davidson diagonalization with overlap
     c_bands:  1 eigenvalues not converged
     c_bands:  1 eigenvalues not converged
     c_bands:  1 eigenvalues not converged
     c_bands:  2 eigenvalues not converged
     c_bands:  2 eigenvalues not converged
     c_bands:  3 eigenvalues not converged
     c_bands:  2 eigenvalues not converged
     c_bands:  1 eigenvalues not converged
     ethr =  3.15E-06,  avg # of iterations =  4.5

     Adding external electric field

     Computed dipole along edir(3) : 
        Dipole               -0.0040 Ry au,         -0.0101 Debye
        Dipole field         -0.0000 Ry au, 

        Potential amp.        0.0013 Ry
        Total length         44.3672 bohr


     Adding external electric field

     Computed dipole along edir(3) : 
        Dipole               -0.0040 Ry au,         -0.0101 Debye
        Dipole field         -0.0000 Ry au, 

        Potential amp.        0.0013 Ry
        Total length         44.3672 bohr


     total cpu time spent up to now is     4162.1 secs

     total energy              =   -1433.29252694 Ry
     estimated scf accuracy    <       0.00313503 Ry

     total magnetization       =     2.79 Bohr mag/cell
     absolute magnetization    =    18.07 Bohr mag/cell

     iteration # 20     ecut=    55.12 Ry     beta= 0.10
     Davidson diagonalization with overlap
     c_bands:  1 eigenvalues not converged
     c_bands:  3 eigenvalues not converged
     c_bands:  1 eigenvalues not converged
     c_bands:  2 eigenvalues not converged
     c_bands:  1 eigenvalues not converged
     c_bands:  2 eigenvalues not converged
     c_bands:  2 eigenvalues not converged
     c_bands:  2 eigenvalues not converged
     c_bands:  1 eigenvalues not converged
     ethr =  2.38E-06,  avg # of iterations =  8.2

     Adding external electric field

     Computed dipole along edir(3) : 
        Dipole               -0.0046 Ry au,         -0.0117 Debye
        Dipole field         -0.0000 Ry au, 

        Potential amp.        0.0015 Ry
        Total length         44.3672 bohr


     Adding external electric field

     Computed dipole along edir(3) : 
        Dipole               -0.0046 Ry au,         -0.0117 Debye
        Dipole field         -0.0000 Ry au, 

        Potential amp.        0.0015 Ry
        Total length         44.3672 bohr


     total cpu time spent up to now is     4494.0 secs

     total energy              =   -1433.09550999 Ry
     estimated scf accuracy    <       0.00847273 Ry

     total magnetization       =     2.56 Bohr mag/cell
     absolute magnetization    =    18.08 Bohr mag/cell

     iteration # 21     ecut=    55.12 Ry     beta= 0.10
     Davidson diagonalization with overlap
     c_bands:  2 eigenvalues not converged
     ethr =  2.38E-06,  avg # of iterations =  1.9

     Adding external electric field

     Computed dipole along edir(3) : 
        Dipole               -0.0050 Ry au,         -0.0126 Debye
        Dipole field         -0.0000 Ry au, 

        Potential amp.        0.0016 Ry
        Total length         44.3672 bohr


     Adding external electric field

     Computed dipole along edir(3) : 
        Dipole               -0.0050 Ry au,         -0.0126 Debye
        Dipole field         -0.0000 Ry au, 

        Potential amp.        0.0016 Ry
        Total length         44.3672 bohr


     total cpu time spent up to now is     4676.3 secs

     total energy              =   -1433.12733527 Ry
     estimated scf accuracy    <       0.00193948 Ry

     total magnetization       =     2.71 Bohr mag/cell
     absolute magnetization    =    18.18 Bohr mag/cell

     iteration # 22     ecut=    55.12 Ry     beta= 0.10
     Davidson diagonalization with overlap
     ethr =  1.47E-06,  avg # of iterations =  2.2

     Adding external electric field

     Computed dipole along edir(3) : 
        Dipole               -0.0058 Ry au,         -0.0148 Debye
        Dipole field         -0.0000 Ry au, 

        Potential amp.        0.0019 Ry
        Total length         44.3672 bohr


     Adding external electric field

     Computed dipole along edir(3) : 
        Dipole               -0.0058 Ry au,         -0.0148 Debye
        Dipole field         -0.0000 Ry au, 

        Potential amp.        0.0019 Ry
        Total length         44.3672 bohr


     total cpu time spent up to now is     4886.6 secs

     total energy              =   -1433.97171405 Ry
     estimated scf accuracy    <       0.00104694 Ry

     total magnetization       =     2.56 Bohr mag/cell
     absolute magnetization    =    18.23 Bohr mag/cell

     iteration # 23     ecut=    55.12 Ry     beta= 0.10
     Davidson diagonalization with overlap
     c_bands:  1 eigenvalues not converged
     c_bands:  1 eigenvalues not converged
     c_bands:  1 eigenvalues not converged
     c_bands:  1 eigenvalues not converged
     c_bands:  2 eigenvalues not converged
     c_bands:  1 eigenvalues not converged
     c_bands:  1 eigenvalues not converged
     c_bands:  1 eigenvalues not converged
     c_bands:  1 eigenvalues not converged
     c_bands:  1 eigenvalues not converged
     ethr =  7.93E-07,  avg # of iterations = 10.6

     Adding external electric field

     Computed dipole along edir(3) : 
        Dipole               -0.0056 Ry au,         -0.0143 Debye
        Dipole field         -0.0000 Ry au, 

        Potential amp.        0.0018 Ry
        Total length         44.3672 bohr


     Adding external electric field

     Computed dipole along edir(3) : 
        Dipole               -0.0056 Ry au,         -0.0143 Debye
        Dipole field         -0.0000 Ry au, 

        Potential amp.        0.0018 Ry
        Total length         44.3672 bohr


     total cpu time spent up to now is     5261.0 secs

     total energy              =   -1433.88438134 Ry
     estimated scf accuracy    <       0.00323212 Ry

     total magnetization       =     2.52 Bohr mag/cell
     absolute magnetization    =    18.44 Bohr mag/cell

     iteration # 24     ecut=    55.12 Ry     beta= 0.10
     Davidson diagonalization with overlap
     ethr =  7.93E-07,  avg # of iterations =  2.1

     Adding external electric field

     Computed dipole along edir(3) : 
        Dipole               -0.0060 Ry au,         -0.0153 Debye
        Dipole field         -0.0000 Ry au, 

        Potential amp.        0.0019 Ry
        Total length         44.3672 bohr


     Adding external electric field

     Computed dipole along edir(3) : 
        Dipole               -0.0060 Ry au,         -0.0153 Debye
        Dipole field         -0.0000 Ry au, 

        Potential amp.        0.0019 Ry
        Total length         44.3672 bohr


     total cpu time spent up to now is     5439.5 secs

     total energy              =   -1434.08118072 Ry
     estimated scf accuracy    <       0.00182491 Ry

     total magnetization       =     2.48 Bohr mag/cell
     absolute magnetization    =    18.46 Bohr mag/cell

     iteration # 25     ecut=    55.12 Ry     beta= 0.10
     Davidson diagonalization with overlap
     c_bands:  1 eigenvalues not converged
     ethr =  7.93E-07,  avg # of iterations =  3.9

     Adding external electric field

     Computed dipole along edir(3) : 
        Dipole               -0.0063 Ry au,         -0.0161 Debye
        Dipole field         -0.0000 Ry au, 

        Potential amp.        0.0020 Ry
        Total length         44.3672 bohr


     Adding external electric field

     Computed dipole along edir(3) : 
        Dipole               -0.0063 Ry au,         -0.0161 Debye
        Dipole field         -0.0000 Ry au, 

        Potential amp.        0.0020 Ry
        Total length         44.3672 bohr


     total cpu time spent up to now is     5657.9 secs

     total energy              =   -1434.74151015 Ry
     estimated scf accuracy    <       0.00066116 Ry

     total magnetization       =     2.40 Bohr mag/cell
     absolute magnetization    =    18.51 Bohr mag/cell

     iteration # 26     ecut=    55.12 Ry     beta= 0.10
     Davidson diagonalization with overlap
     c_bands:  1 eigenvalues not converged
     c_bands:  1 eigenvalues not converged
     ethr =  5.01E-07,  avg # of iterations =  7.7

     Adding external electric field

     Computed dipole along edir(3) : 
        Dipole               -0.0063 Ry au,         -0.0160 Debye
        Dipole field         -0.0000 Ry au, 

        Potential amp.        0.0020 Ry
        Total length         44.3672 bohr


     Adding external electric field

     Computed dipole along edir(3) : 
        Dipole               -0.0063 Ry au,         -0.0160 Debye
        Dipole field         -0.0000 Ry au, 

        Potential amp.        0.0020 Ry
        Total length         44.3672 bohr


     total cpu time spent up to now is     5977.9 secs

     total energy              =   -1434.22450423 Ry
     estimated scf accuracy    <       0.00062984 Ry

     total magnetization       =     2.34 Bohr mag/cell
     absolute magnetization    =    18.63 Bohr mag/cell

     iteration # 27     ecut=    55.12 Ry     beta= 0.10
     Davidson diagonalization with overlap
     ethr =  4.77E-07,  avg # of iterations =  1.1

     Adding external electric field

     Computed dipole along edir(3) : 
        Dipole               -0.0068 Ry au,         -0.0173 Debye
        Dipole field         -0.0000 Ry au, 

        Potential amp.        0.0022 Ry
        Total length         44.3672 bohr


     Adding external electric field

     Computed dipole along edir(3) : 
        Dipole               -0.0068 Ry au,         -0.0173 Debye
        Dipole field         -0.0000 Ry au, 

        Potential amp.        0.0022 Ry
        Total length         44.3672 bohr


     total cpu time spent up to now is     6141.9 secs

     total energy              =   -1434.23082136 Ry
     estimated scf accuracy    <       0.00056451 Ry

     total magnetization       =     2.31 Bohr mag/cell
     absolute magnetization    =    18.64 Bohr mag/cell

     iteration # 28     ecut=    55.12 Ry     beta= 0.10
     Davidson diagonalization with overlap
     c_bands:  1 eigenvalues not converged
     c_bands:  1 eigenvalues not converged
     ethr =  4.28E-07,  avg # of iterations =  3.0

     Adding external electric field

     Computed dipole along edir(3) : 
        Dipole               -0.0054 Ry au,         -0.0138 Debye
        Dipole field         -0.0000 Ry au, 

        Potential amp.        0.0017 Ry
        Total length         44.3672 bohr


     Adding external electric field

     Computed dipole along edir(3) : 
        Dipole               -0.0054 Ry au,         -0.0138 Debye
        Dipole field         -0.0000 Ry au, 

        Potential amp.        0.0017 Ry
        Total length         44.3672 bohr


     total cpu time spent up to now is     6358.8 secs

     total energy              =   -1435.67029128 Ry
     estimated scf accuracy    <       0.00070173 Ry

     total magnetization       =     2.25 Bohr mag/cell
     absolute magnetization    =    18.69 Bohr mag/cell

     iteration # 29     ecut=    55.12 Ry     beta= 0.10
     Davidson diagonalization with overlap
     c_bands:  1 eigenvalues not converged
     c_bands:  1 eigenvalues not converged
     c_bands:  2 eigenvalues not converged
     c_bands:  1 eigenvalues not converged
     c_bands:  1 eigenvalues not converged
     c_bands:  2 eigenvalues not converged
     c_bands:  1 eigenvalues not converged
     c_bands:  1 eigenvalues not converged
     c_bands:  2 eigenvalues not converged
     ethr =  4.28E-07,  avg # of iterations = 11.1

     Adding external electric field

     Computed dipole along edir(3) : 
        Dipole               -0.0055 Ry au,         -0.0140 Debye
        Dipole field         -0.0000 Ry au, 

        Potential amp.        0.0018 Ry
        Total length         44.3672 bohr


     Adding external electric field

     Computed dipole along edir(3) : 
        Dipole               -0.0055 Ry au,         -0.0140 Debye
        Dipole field         -0.0000 Ry au, 

        Potential amp.        0.0018 Ry
        Total length         44.3672 bohr


     total cpu time spent up to now is     6762.4 secs

     total energy              =   -1435.41811764 Ry
     estimated scf accuracy    <       0.00062335 Ry

     total magnetization       =     1.95 Bohr mag/cell
     absolute magnetization    =    18.82 Bohr mag/cell

     iteration # 30     ecut=    55.12 Ry     beta= 0.10
     Davidson diagonalization with overlap
     c_bands:  2 eigenvalues not converged
     ethr =  4.28E-07,  avg # of iterations =  1.8

     Adding external electric field

     Computed dipole along edir(3) : 
        Dipole               -0.0060 Ry au,         -0.0152 Debye
        Dipole field         -0.0000 Ry au, 

        Potential amp.        0.0019 Ry
        Total length         44.3672 bohr


     Adding external electric field

     Computed dipole along edir(3) : 
        Dipole               -0.0060 Ry au,         -0.0152 Debye
        Dipole field         -0.0000 Ry au, 

        Potential amp.        0.0019 Ry
        Total length         44.3672 bohr


     total cpu time spent up to now is     6947.6 secs

     total energy              =   -1435.59706561 Ry
     estimated scf accuracy    <       0.00039107 Ry

     total magnetization       =     1.93 Bohr mag/cell
     absolute magnetization    =    18.85 Bohr mag/cell

     iteration # 31     ecut=    55.12 Ry     beta= 0.10
     Davidson diagonalization with overlap
     c_bands:  1 eigenvalues not converged
     c_bands:  1 eigenvalues not converged
     c_bands:  1 eigenvalues not converged
     ethr =  2.96E-07,  avg # of iterations =  9.0

     Adding external electric field

     Computed dipole along edir(3) : 
        Dipole               -0.0059 Ry au,         -0.0149 Debye
        Dipole field         -0.0000 Ry au, 

        Potential amp.        0.0019 Ry
        Total length         44.3672 bohr


     Adding external electric field

     Computed dipole along edir(3) : 
        Dipole               -0.0059 Ry au,         -0.0149 Debye
        Dipole field         -0.0000 Ry au, 

        Potential amp.        0.0019 Ry
        Total length         44.3672 bohr


     total cpu time spent up to now is     7235.7 secs

     total energy              =   -1435.33031941 Ry
     estimated scf accuracy    <       0.00023727 Ry

     total magnetization       =     1.87 Bohr mag/cell
     absolute magnetization    =    18.92 Bohr mag/cell

     iteration # 32     ecut=    55.12 Ry     beta= 0.10
     Davidson diagonalization with overlap
     c_bands:  1 eigenvalues not converged
     ethr =  1.80E-07,  avg # of iterations =  4.2

     Adding external electric field

     Computed dipole along edir(3) : 
        Dipole               -0.0058 Ry au,         -0.0148 Debye
        Dipole field         -0.0000 Ry au, 

        Potential amp.        0.0019 Ry
        Total length         44.3672 bohr


     Adding external electric field

     Computed dipole along edir(3) : 
        Dipole               -0.0058 Ry au,         -0.0148 Debye
        Dipole field         -0.0000 Ry au, 

        Potential amp.        0.0019 Ry
        Total length         44.3672 bohr


     total cpu time spent up to now is     7374.6 secs

     total energy              =   -1435.18907925 Ry
     estimated scf accuracy    <       0.00019195 Ry

     total magnetization       =     1.84 Bohr mag/cell
     absolute magnetization    =    18.94 Bohr mag/cell

     iteration # 33     ecut=    55.12 Ry     beta= 0.10
     Davidson diagonalization with overlap
     c_bands:  1 eigenvalues not converged
     c_bands:  1 eigenvalues not converged
     ethr =  1.45E-07,  avg # of iterations =  7.0

     Adding external electric field

     Computed dipole along edir(3) : 
        Dipole               -0.0059 Ry au,         -0.0149 Debye
        Dipole field         -0.0000 Ry au, 

        Potential amp.        0.0019 Ry
        Total length         44.3672 bohr


     Adding external electric field

     Computed dipole along edir(3) : 
        Dipole               -0.0059 Ry au,         -0.0149 Debye
        Dipole field         -0.0000 Ry au, 

        Potential amp.        0.0019 Ry
        Total length         44.3672 bohr


     total cpu time spent up to now is     7563.3 secs

     total energy              =   -1435.21367694 Ry
     estimated scf accuracy    <       0.00023434 Ry

     total magnetization       =     1.82 Bohr mag/cell
     absolute magnetization    =    18.98 Bohr mag/cell

     iteration # 34     ecut=    55.12 Ry     beta= 0.10
     Davidson diagonalization with overlap
     c_bands:  1 eigenvalues not converged
     c_bands:  1 eigenvalues not converged
     ethr =  1.45E-07,  avg # of iterations =  6.8

     Adding external electric field

     Computed dipole along edir(3) : 
        Dipole               -0.0058 Ry au,         -0.0148 Debye
        Dipole field         -0.0000 Ry au, 

        Potential amp.        0.0019 Ry
        Total length         44.3672 bohr


     Adding external electric field

     Computed dipole along edir(3) : 
        Dipole               -0.0058 Ry au,         -0.0148 Debye
        Dipole field         -0.0000 Ry au, 

        Potential amp.        0.0019 Ry
        Total length         44.3672 bohr


     total cpu time spent up to now is     7766.5 secs

     total energy              =   -1435.16500665 Ry
     estimated scf accuracy    <       0.00014273 Ry

     total magnetization       =     1.79 Bohr mag/cell
     absolute magnetization    =    19.03 Bohr mag/cell

     iteration # 35     ecut=    55.12 Ry     beta= 0.10
     Davidson diagonalization with overlap
     ethr =  1.08E-07,  avg # of iterations =  7.6

     Adding external electric field

     Computed dipole along edir(3) : 
        Dipole               -0.0063 Ry au,         -0.0160 Debye
        Dipole field         -0.0000 Ry au, 

        Potential amp.        0.0020 Ry
        Total length         44.3672 bohr


     Adding external electric field

     Computed dipole along edir(3) : 
        Dipole               -0.0063 Ry au,         -0.0160 Debye
        Dipole field         -0.0000 Ry au, 

        Potential amp.        0.0020 Ry
        Total length         44.3672 bohr


     total cpu time spent up to now is     8092.9 secs

     total energy              =   -1434.79648973 Ry
     estimated scf accuracy    <       0.00011561 Ry

     total magnetization       =     1.80 Bohr mag/cell
     absolute magnetization    =    19.08 Bohr mag/cell

     iteration # 36     ecut=    55.12 Ry     beta= 0.10
     Davidson diagonalization with overlap
     c_bands:  1 eigenvalues not converged
     c_bands:  1 eigenvalues not converged
     ethr =  8.76E-08,  avg # of iterations =  3.9

     Adding external electric field

     Computed dipole along edir(3) : 
        Dipole               -0.0059 Ry au,         -0.0149 Debye
        Dipole field         -0.0000 Ry au, 

        Potential amp.        0.0019 Ry
        Total length         44.3672 bohr


     Adding external electric field

     Computed dipole along edir(3) : 
        Dipole               -0.0059 Ry au,         -0.0149 Debye
        Dipole field         -0.0000 Ry au, 

        Potential amp.        0.0019 Ry
        Total length         44.3672 bohr


     total cpu time spent up to now is     8305.7 secs

     total energy              =   -1434.58310611 Ry
     estimated scf accuracy    <       0.00010045 Ry

     total magnetization       =     1.78 Bohr mag/cell
     absolute magnetization    =    19.09 Bohr mag/cell

     iteration # 37     ecut=    55.12 Ry     beta= 0.10
     Davidson diagonalization with overlap
     c_bands:  1 eigenvalues not converged
     c_bands:  1 eigenvalues not converged
     c_bands:  1 eigenvalues not converged
     ethr =  7.61E-08,  avg # of iterations =  8.1

     Adding external electric field

     Computed dipole along edir(3) : 
        Dipole               -0.0058 Ry au,         -0.0148 Debye
        Dipole field         -0.0000 Ry au, 

        Potential amp.        0.0018 Ry
        Total length         44.3672 bohr


     Adding external electric field

     Computed dipole along edir(3) : 
        Dipole               -0.0058 Ry au,         -0.0148 Debye
        Dipole field         -0.0000 Ry au, 

        Potential amp.        0.0018 Ry
        Total length         44.3672 bohr


     total cpu time spent up to now is     8689.7 secs

     total energy              =   -1434.25906955 Ry
     estimated scf accuracy    <       0.00009299 Ry

     total magnetization       =     1.76 Bohr mag/cell
     absolute magnetization    =    19.12 Bohr mag/cell

     iteration # 38     ecut=    55.12 Ry     beta= 0.10
     Davidson diagonalization with overlap
     ethr =  7.04E-08,  avg # of iterations =  3.6

     Adding external electric field

     Computed dipole along edir(3) : 
        Dipole               -0.0058 Ry au,         -0.0147 Debye
        Dipole field         -0.0000 Ry au, 

        Potential amp.        0.0018 Ry
        Total length         44.3672 bohr


     Adding external electric field

     Computed dipole along edir(3) : 
        Dipole               -0.0058 Ry au,         -0.0147 Debye
        Dipole field         -0.0000 Ry au, 

        Potential amp.        0.0018 Ry
        Total length         44.3672 bohr


     total cpu time spent up to now is     8922.5 secs

     total energy              =   -1432.90616799 Ry
     estimated scf accuracy    <       0.00008238 Ry

     total magnetization       =     1.75 Bohr mag/cell
     absolute magnetization    =    19.14 Bohr mag/cell

     iteration # 39     ecut=    55.12 Ry     beta= 0.10
     Davidson diagonalization with overlap
     ethr =  6.24E-08,  avg # of iterations =  5.9

     Adding external electric field

     Computed dipole along edir(3) : 
        Dipole               -0.0066 Ry au,         -0.0167 Debye
        Dipole field         -0.0000 Ry au, 

        Potential amp.        0.0021 Ry
        Total length         44.3672 bohr


     Adding external electric field

     Computed dipole along edir(3) : 
        Dipole               -0.0066 Ry au,         -0.0167 Debye
        Dipole field         -0.0000 Ry au, 

        Potential amp.        0.0021 Ry
        Total length         44.3672 bohr


     total cpu time spent up to now is     9194.3 secs

     total energy              =   -1433.95560671 Ry
     estimated scf accuracy    <       0.00009987 Ry

     total magnetization       =     1.85 Bohr mag/cell
     absolute magnetization    =    19.10 Bohr mag/cell

     iteration # 40     ecut=    55.12 Ry     beta= 0.10
     Davidson diagonalization with overlap
     c_bands:  1 eigenvalues not converged
     c_bands:  1 eigenvalues not converged
     ethr =  6.24E-08,  avg # of iterations = 11.1

     Adding external electric field

     Computed dipole along edir(3) : 
        Dipole               -0.0061 Ry au,         -0.0154 Debye
        Dipole field         -0.0000 Ry au, 

        Potential amp.        0.0019 Ry
        Total length         44.3672 bohr


     Adding external electric field

     Computed dipole along edir(3) : 
        Dipole               -0.0061 Ry au,         -0.0154 Debye
        Dipole field         -0.0000 Ry au, 

        Potential amp.        0.0019 Ry
        Total length         44.3672 bohr


     total cpu time spent up to now is     9654.7 secs

     total energy              =   -1433.53983538 Ry
     estimated scf accuracy    <       0.00011714 Ry

     total magnetization       =     1.81 Bohr mag/cell
     absolute magnetization    =    19.20 Bohr mag/cell

     iteration # 41     ecut=    55.12 Ry     beta= 0.10
     Davidson diagonalization with overlap
     c_bands:  1 eigenvalues not converged
     ethr =  6.24E-08,  avg # of iterations =  4.1

     Adding external electric field

     Computed dipole along edir(3) : 
        Dipole               -0.0060 Ry au,         -0.0152 Debye
        Dipole field         -0.0000 Ry au, 

        Potential amp.        0.0019 Ry
        Total length         44.3672 bohr


     Adding external electric field

     Computed dipole along edir(3) : 
        Dipole               -0.0060 Ry au,         -0.0152 Debye
        Dipole field         -0.0000 Ry au, 

        Potential amp.        0.0019 Ry
        Total length         44.3672 bohr


     total cpu time spent up to now is     9861.5 secs

     total energy              =   -1433.03960080 Ry
     estimated scf accuracy    <       0.00003997 Ry

     total magnetization       =     1.81 Bohr mag/cell
     absolute magnetization    =    19.20 Bohr mag/cell

     iteration # 42     ecut=    55.12 Ry     beta= 0.10
     Davidson diagonalization with overlap
     c_bands:  1 eigenvalues not converged
     c_bands:  1 eigenvalues not converged
     c_bands:  1 eigenvalues not converged
     ethr =  3.03E-08,  avg # of iterations =  5.8

     Adding external electric field

     Computed dipole along edir(3) : 
        Dipole               -0.0060 Ry au,         -0.0152 Debye
        Dipole field         -0.0000 Ry au, 

        Potential amp.        0.0019 Ry
        Total length         44.3672 bohr


     Adding external electric field

     Computed dipole along edir(3) : 
        Dipole               -0.0060 Ry au,         -0.0152 Debye
        Dipole field         -0.0000 Ry au, 

        Potential amp.        0.0019 Ry
        Total length         44.3672 bohr


     total cpu time spent up to now is    10076.9 secs

     total energy              =   -1432.65268188 Ry
     estimated scf accuracy    <       0.00003155 Ry

     total magnetization       =     1.81 Bohr mag/cell
     absolute magnetization    =    19.21 Bohr mag/cell

     iteration # 43     ecut=    55.12 Ry     beta= 0.10
     Davidson diagonalization with overlap
     ethr =  2.39E-08,  avg # of iterations =  5.6

     Adding external electric field

     Computed dipole along edir(3) : 
        Dipole               -0.0061 Ry au,         -0.0154 Debye
        Dipole field         -0.0000 Ry au, 

        Potential amp.        0.0019 Ry
        Total length         44.3672 bohr


     Adding external electric field

     Computed dipole along edir(3) : 
        Dipole               -0.0061 Ry au,         -0.0154 Debye
        Dipole field         -0.0000 Ry au, 

        Potential amp.        0.0019 Ry
        Total length         44.3672 bohr


     total cpu time spent up to now is    10293.7 secs

     total energy              =   -1432.06938075 Ry
     estimated scf accuracy    <       0.00003041 Ry

     total magnetization       =     1.80 Bohr mag/cell
     absolute magnetization    =    19.21 Bohr mag/cell

     iteration # 44     ecut=    55.12 Ry     beta= 0.10
     Davidson diagonalization with overlap
     ethr =  2.30E-08,  avg # of iterations =  3.1

     Adding external electric field

     Computed dipole along edir(3) : 
        Dipole               -0.0060 Ry au,         -0.0152 Debye
        Dipole field         -0.0000 Ry au, 

        Potential amp.        0.0019 Ry
        Total length         44.3672 bohr


     Adding external electric field

     Computed dipole along edir(3) : 
        Dipole               -0.0060 Ry au,         -0.0152 Debye
        Dipole field         -0.0000 Ry au, 

        Potential amp.        0.0019 Ry
        Total length         44.3672 bohr


     total cpu time spent up to now is    10506.2 secs

     total energy              =   -1430.98174459 Ry
     estimated scf accuracy    <       0.00004851 Ry

     total magnetization       =     1.81 Bohr mag/cell
     absolute magnetization    =    19.20 Bohr mag/cell

     iteration # 45     ecut=    55.12 Ry     beta= 0.10
     Davidson diagonalization with overlap
     c_bands:  1 eigenvalues not converged
     ethr =  2.30E-08,  avg # of iterations = 10.1

     Adding external electric field

     Computed dipole along edir(3) : 
        Dipole               -0.0058 Ry au,         -0.0149 Debye
        Dipole field         -0.0000 Ry au, 

        Potential amp.        0.0019 Ry
        Total length         44.3672 bohr


     Adding external electric field

     Computed dipole along edir(3) : 
        Dipole               -0.0058 Ry au,         -0.0149 Debye
        Dipole field         -0.0000 Ry au, 

        Potential amp.        0.0019 Ry
        Total length         44.3672 bohr


     total cpu time spent up to now is    10896.8 secs

     total energy              =   -1430.63159155 Ry
     estimated scf accuracy    <       0.00005638 Ry

     total magnetization       =     1.82 Bohr mag/cell
     absolute magnetization    =    19.15 Bohr mag/cell

     iteration # 46     ecut=    55.12 Ry     beta= 0.10
     Davidson diagonalization with overlap
     ethr =  2.30E-08,  avg # of iterations =  6.5

     Adding external electric field

     Computed dipole along edir(3) : 
        Dipole               -0.0059 Ry au,         -0.0149 Debye
        Dipole field         -0.0000 Ry au, 

        Potential amp.        0.0019 Ry
        Total length         44.3672 bohr


     Adding external electric field

     Computed dipole along edir(3) : 
        Dipole               -0.0059 Ry au,         -0.0149 Debye
        Dipole field         -0.0000 Ry au, 

        Potential amp.        0.0019 Ry
        Total length         44.3672 bohr


     total cpu time spent up to now is    11188.1 secs

     total energy              =   -1430.56544044 Ry
     estimated scf accuracy    <       0.00003013 Ry

     total magnetization       =     1.83 Bohr mag/cell
     absolute magnetization    =    19.14 Bohr mag/cell

     iteration # 47     ecut=    55.12 Ry     beta= 0.10
     Davidson diagonalization with overlap
     ethr =  2.28E-08,  avg # of iterations =  1.1

     Adding external electric field

     Computed dipole along edir(3) : 
        Dipole               -0.0059 Ry au,         -0.0149 Debye
        Dipole field         -0.0000 Ry au, 

        Potential amp.        0.0019 Ry
        Total length         44.3672 bohr


     Adding external electric field

     Computed dipole along edir(3) : 
        Dipole               -0.0059 Ry au,         -0.0149 Debye
        Dipole field         -0.0000 Ry au, 

        Potential amp.        0.0019 Ry
        Total length         44.3672 bohr


     total cpu time spent up to now is    11374.5 secs

     total energy              =   -1430.39001548 Ry
     estimated scf accuracy    <       0.00003105 Ry

     total magnetization       =     1.83 Bohr mag/cell
     absolute magnetization    =    19.15 Bohr mag/cell

     iteration # 48     ecut=    55.12 Ry     beta= 0.10
     Davidson diagonalization with overlap
     ethr =  2.28E-08,  avg # of iterations =  1.0

     Adding external electric field

     Computed dipole along edir(3) : 
        Dipole               -0.0057 Ry au,         -0.0144 Debye
        Dipole field         -0.0000 Ry au, 

        Potential amp.        0.0018 Ry
        Total length         44.3672 bohr


     Adding external electric field

     Computed dipole along edir(3) : 
        Dipole               -0.0057 Ry au,         -0.0144 Debye
        Dipole field         -0.0000 Ry au, 

        Potential amp.        0.0018 Ry
        Total length         44.3672 bohr


     total cpu time spent up to now is    11556.9 secs

     total energy              =   -1430.15224719 Ry
     estimated scf accuracy    <       0.00003152 Ry

     total magnetization       =     1.83 Bohr mag/cell
     absolute magnetization    =    19.15 Bohr mag/cell

     iteration # 49     ecut=    55.12 Ry     beta= 0.10
     Davidson diagonalization with overlap
     c_bands:  1 eigenvalues not converged
     ethr =  2.28E-08,  avg # of iterations =  2.8

     Adding external electric field

     Computed dipole along edir(3) : 
        Dipole               -0.0057 Ry au,         -0.0145 Debye
        Dipole field         -0.0000 Ry au, 

        Potential amp.        0.0018 Ry
        Total length         44.3672 bohr


     Adding external electric field

     Computed dipole along edir(3) : 
        Dipole               -0.0057 Ry au,         -0.0145 Debye
        Dipole field         -0.0000 Ry au, 

        Potential amp.        0.0018 Ry
        Total length         44.3672 bohr


     total cpu time spent up to now is    11767.2 secs

     total energy              =   -1429.95224854 Ry
     estimated scf accuracy    <       0.00002130 Ry

     total magnetization       =     1.85 Bohr mag/cell
     absolute magnetization    =    19.16 Bohr mag/cell

     iteration # 50     ecut=    55.12 Ry     beta= 0.10
     Davidson diagonalization with overlap
     ethr =  1.61E-08,  avg # of iterations =  2.2

     Adding external electric field

     Computed dipole along edir(3) : 
        Dipole               -0.0056 Ry au,         -0.0142 Debye
        Dipole field         -0.0000 Ry au, 

        Potential amp.        0.0018 Ry
        Total length         44.3672 bohr


     Adding external electric field

     Computed dipole along edir(3) : 
        Dipole               -0.0056 Ry au,         -0.0142 Debye
        Dipole field         -0.0000 Ry au, 

        Potential amp.        0.0018 Ry
        Total length         44.3672 bohr


     total cpu time spent up to now is    11957.3 secs

     total energy              =   -1429.94607149 Ry
     estimated scf accuracy    <       0.00001771 Ry

     total magnetization       =     1.86 Bohr mag/cell
     absolute magnetization    =    19.16 Bohr mag/cell

     iteration # 51     ecut=    55.12 Ry     beta= 0.10
     Davidson diagonalization with overlap
     c_bands:  1 eigenvalues not converged
     ethr =  1.34E-08,  avg # of iterations =  8.6

     Adding external electric field

     Computed dipole along edir(3) : 
        Dipole               -0.0056 Ry au,         -0.0141 Debye
        Dipole field         -0.0000 Ry au, 

        Potential amp.        0.0018 Ry
        Total length         44.3672 bohr


     Adding external electric field

     Computed dipole along edir(3) : 
        Dipole               -0.0056 Ry au,         -0.0141 Debye
        Dipole field         -0.0000 Ry au, 

        Potential amp.        0.0018 Ry
        Total length         44.3672 bohr


     total cpu time spent up to now is    12267.9 secs

     total energy              =   -1429.80770384 Ry
     estimated scf accuracy    <       0.00002087 Ry

     total magnetization       =     1.87 Bohr mag/cell
     absolute magnetization    =    19.17 Bohr mag/cell

     iteration # 52     ecut=    55.12 Ry     beta= 0.10
     Davidson diagonalization with overlap
     ethr =  1.34E-08,  avg # of iterations =  1.1

     Adding external electric field

     Computed dipole along edir(3) : 
        Dipole               -0.0056 Ry au,         -0.0143 Debye
        Dipole field         -0.0000 Ry au, 

        Potential amp.        0.0018 Ry
        Total length         44.3672 bohr


     Adding external electric field

     Computed dipole along edir(3) : 
        Dipole               -0.0056 Ry au,         -0.0143 Debye
        Dipole field         -0.0000 Ry au, 

        Potential amp.        0.0018 Ry
        Total length         44.3672 bohr


     total cpu time spent up to now is    12373.6 secs

     total energy              =   -1429.79601739 Ry
     estimated scf accuracy    <       0.00002714 Ry

     total magnetization       =     1.86 Bohr mag/cell
     absolute magnetization    =    19.17 Bohr mag/cell

     iteration # 53     ecut=    55.12 Ry     beta= 0.10
     Davidson diagonalization with overlap
     ethr =  1.34E-08,  avg # of iterations =  4.4

     Adding external electric field

     Computed dipole along edir(3) : 
        Dipole               -0.0055 Ry au,         -0.0139 Debye
        Dipole field         -0.0000 Ry au, 

        Potential amp.        0.0017 Ry
        Total length         44.3672 bohr


     Adding external electric field

     Computed dipole along edir(3) : 
        Dipole               -0.0055 Ry au,         -0.0139 Debye
        Dipole field         -0.0000 Ry au, 

        Potential amp.        0.0017 Ry
        Total length         44.3672 bohr


     total cpu time spent up to now is    12503.8 secs

     total energy              =   -1429.71089452 Ry
     estimated scf accuracy    <       0.00001988 Ry

     total magnetization       =     1.86 Bohr mag/cell
     absolute magnetization    =    19.18 Bohr mag/cell

     iteration # 54     ecut=    55.12 Ry     beta= 0.10
     Davidson diagonalization with overlap
     ethr =  1.34E-08,  avg # of iterations =  8.3

     Adding external electric field

     Computed dipole along edir(3) : 
        Dipole               -0.0055 Ry au,         -0.0141 Debye
        Dipole field         -0.0000 Ry au, 

        Potential amp.        0.0018 Ry
        Total length         44.3672 bohr


     Adding external electric field

     Computed dipole along edir(3) : 
        Dipole               -0.0055 Ry au,         -0.0141 Debye
        Dipole field         -0.0000 Ry au, 

        Potential amp.        0.0018 Ry
        Total length         44.3672 bohr


     total cpu time spent up to now is    12758.5 secs

     total energy              =   -1429.63170430 Ry
     estimated scf accuracy    <       0.00002636 Ry

     total magnetization       =     1.85 Bohr mag/cell
     absolute magnetization    =    19.19 Bohr mag/cell

     iteration # 55     ecut=    55.12 Ry     beta= 0.10
     Davidson diagonalization with overlap
     ethr =  1.34E-08,  avg # of iterations =  9.4

     Adding external electric field

     Computed dipole along edir(3) : 
        Dipole               -0.0056 Ry au,         -0.0142 Debye
        Dipole field         -0.0000 Ry au, 

        Potential amp.        0.0018 Ry
        Total length         44.3672 bohr


     Adding external electric field

     Computed dipole along edir(3) : 
        Dipole               -0.0056 Ry au,         -0.0142 Debye
        Dipole field         -0.0000 Ry au, 

        Potential amp.        0.0018 Ry
        Total length         44.3672 bohr


     total cpu time spent up to now is    13108.3 secs

     total energy              =   -1429.61106216 Ry
     estimated scf accuracy    <       0.00002121 Ry

     total magnetization       =     1.86 Bohr mag/cell
     absolute magnetization    =    19.20 Bohr mag/cell

     iteration # 56     ecut=    55.12 Ry     beta= 0.10
     Davidson diagonalization with overlap
     ethr =  1.34E-08,  avg # of iterations =  6.6

     Adding external electric field

     Computed dipole along edir(3) : 
        Dipole               -0.0056 Ry au,         -0.0141 Debye
        Dipole field         -0.0000 Ry au, 

        Potential amp.        0.0018 Ry
        Total length         44.3672 bohr


     Adding external electric field

     Computed dipole along edir(3) : 
        Dipole               -0.0056 Ry au,         -0.0141 Debye
        Dipole field         -0.0000 Ry au, 

        Potential amp.        0.0018 Ry
        Total length         44.3672 bohr


     total cpu time spent up to now is    13353.5 secs

     total energy              =   -1429.50768962 Ry
     estimated scf accuracy    <       0.00001315 Ry

     total magnetization       =     1.86 Bohr mag/cell
     absolute magnetization    =    19.20 Bohr mag/cell

     iteration # 57     ecut=    55.12 Ry     beta= 0.10
     Davidson diagonalization with overlap
     ethr =  9.96E-09,  avg # of iterations =  2.2

     Adding external electric field

     Computed dipole along edir(3) : 
        Dipole               -0.0056 Ry au,         -0.0143 Debye
        Dipole field         -0.0000 Ry au, 

        Potential amp.        0.0018 Ry
        Total length         44.3672 bohr


     Adding external electric field

     Computed dipole along edir(3) : 
        Dipole               -0.0056 Ry au,         -0.0143 Debye
        Dipole field         -0.0000 Ry au, 

        Potential amp.        0.0018 Ry
        Total length         44.3672 bohr


     total cpu time spent up to now is    13553.6 secs

     total energy              =   -1429.16635320 Ry
     estimated scf accuracy    <       0.00001192 Ry

     total magnetization       =     1.86 Bohr mag/cell
     absolute magnetization    =    19.20 Bohr mag/cell

     iteration # 58     ecut=    55.12 Ry     beta= 0.10
     Davidson diagonalization with overlap
     ethr =  9.03E-09,  avg # of iterations =  5.8

     Adding external electric field

     Computed dipole along edir(3) : 
        Dipole               -0.0056 Ry au,         -0.0143 Debye
        Dipole field         -0.0000 Ry au, 

        Potential amp.        0.0018 Ry
        Total length         44.3672 bohr


     Adding external electric field

     Computed dipole along edir(3) : 
        Dipole               -0.0056 Ry au,         -0.0143 Debye
        Dipole field         -0.0000 Ry au, 

        Potential amp.        0.0018 Ry
        Total length         44.3672 bohr


     total cpu time spent up to now is    13812.7 secs

     total energy              =   -1429.14910475 Ry
     estimated scf accuracy    <       0.00001610 Ry

     total magnetization       =     1.87 Bohr mag/cell
     absolute magnetization    =    19.19 Bohr mag/cell

     iteration # 59     ecut=    55.12 Ry     beta= 0.10
     Davidson diagonalization with overlap
     ethr =  9.03E-09,  avg # of iterations =  5.2

     Adding external electric field

     Computed dipole along edir(3) : 
        Dipole               -0.0119 Ry au,         -0.0303 Debye
        Dipole field         -0.0000 Ry au, 

        Potential amp.        0.0038 Ry
        Total length         44.3672 bohr


     Adding external electric field

     Computed dipole along edir(3) : 
        Dipole               -0.0119 Ry au,         -0.0303 Debye
        Dipole field         -0.0000 Ry au, 

        Potential amp.        0.0038 Ry
        Total length         44.3672 bohr


     Magnetic moment per site:
     atom:    1    charge:   12.1823    magn:   -1.7592    constr:    0.0000
     atom:    2    charge:   12.1821    magn:   -1.7591    constr:    0.0000
     atom:    3    charge:    6.5129    magn:    1.9808    constr:    0.0000
     atom:    4    charge:    6.5129    magn:    1.9808    constr:    0.0000
     atom:    5    charge:   12.2562    magn:   -0.1055    constr:    0.0000
     atom:    6    charge:   12.2565    magn:   -0.1053    constr:    0.0000
     atom:    7    charge:    6.6348    magn:    0.9794    constr:    0.0000
     atom:    8    charge:    6.6349    magn:    0.9795    constr:    0.0000
     atom:    9    charge:   12.1887    magn:   -1.6932    constr:    0.0000
     atom:   10    charge:   12.1888    magn:   -1.6929    constr:    0.0000
     atom:   11    charge:    6.4991    magn:    2.0469    constr:    0.0000
     atom:   12    charge:    6.4992    magn:    2.0466    constr:    0.0000

     total cpu time spent up to now is    14038.5 secs

     End of self-consistent calculation

     Number of k-points >= 100: set verbosity='high' to print the bands.

     the Fermi energy is     0.6277 ev

!    total energy              =   -1428.53084294 Ry
     estimated scf accuracy    <       0.00000838 Ry
     smearing contrib. (-TS)   =      -0.08248384 Ry
     internal energy E=F+TS    =   -1428.44835911 Ry

     The total energy is F=E-TS. E is the sum of the following terms:
     one-electron contribution =  -12615.92883823 Ry
     hartree contribution      =    6344.56588958 Ry
     xc contribution           =    -331.10792302 Ry
     ewald contribution        =    5174.02251205 Ry
     electric field correction =       0.00000051 Ry

     total magnetization       =     1.87 Bohr mag/cell
     absolute magnetization    =    19.19 Bohr mag/cell

     convergence has been achieved in  59 iterations

     Forces acting on atoms (cartesian axes, Ry/au):

     atom    1 type  1   force =     0.00083855    0.00053059    0.00182665
     atom    2 type  1   force =     0.00085517    0.00046611    0.00180441
     atom    3 type  2   force =    -0.00020709   -0.00014517   -0.00531739
     atom    4 type  2   force =    -0.00019049   -0.00008690   -0.00531702
     atom    5 type  1   force =    -0.00173990   -0.00104027    0.00313859
     atom    6 type  1   force =    -0.00177877   -0.00102939    0.00311255
     atom    7 type  2   force =     0.00168432    0.00095973   -0.00174536
     atom    8 type  2   force =     0.00166843    0.00100700   -0.00172591
     atom    9 type  1   force =    -0.00049056   -0.00032802    0.00290155
     atom   10 type  1   force =    -0.00049677   -0.00025003    0.00292702
     atom   11 type  2   force =    -0.00007960   -0.00002806   -0.00082198
     atom   12 type  2   force =    -0.00006328   -0.00005558   -0.00078311

     Total force =     0.011206     Total SCF correction =     0.007532
     SCF correction compared to forces is large: reduce conv_thr to get better values

     Writing output data file ./Cr2Fe2/Cr2Fe2_beef.save/

     init_run     :    126.44s CPU    127.45s WALL (       1 calls)
     electrons    :  13721.75s CPU  13907.49s WALL (       1 calls)
     forces       :     74.16s CPU     74.61s WALL (       1 calls)

     Called by init_run:
     wfcinit      :    111.74s CPU    112.52s WALL (       1 calls)
     potinit      :      9.33s CPU      9.43s WALL (       1 calls)
     hinit0       :      2.13s CPU      2.14s WALL (       1 calls)

     Called by electrons:
     c_bands      :  12098.73s CPU  12254.47s WALL (      59 calls)
     sum_band     :   1469.20s CPU   1488.93s WALL (      59 calls)
     v_of_rho     :     86.29s CPU     91.59s WALL (      60 calls)
     newd         :     72.40s CPU     77.18s WALL (      60 calls)
     mix_rho      :      3.70s CPU      3.82s WALL (      59 calls)
     vdW_kernel   :      6.57s CPU      6.58s WALL (       1 calls)

     Called by c_bands:
     init_us_2    :     49.31s CPU     50.19s WALL (   17760 calls)
     cegterg      :  11938.98s CPU  12073.26s WALL (    8732 calls)

     Called by *egterg:
     cdiaghg      :    843.57s CPU    845.68s WALL (   50163 calls)
     h_psi        :   6406.46s CPU   6522.23s WALL (   50311 calls)
     s_psi        :   1363.34s CPU   1366.26s WALL (   50311 calls)
     g_psi        :      6.04s CPU      6.17s WALL (   41431 calls)

     Called by h_psi:
     h_psi:calbec :   2165.42s CPU   2177.31s WALL (   50311 calls)
     vloc_psi     :   2692.38s CPU   2793.17s WALL (   50311 calls)
     add_vuspsi   :   1529.69s CPU   1532.70s WALL (   50311 calls)

     General routines
     calbec       :   3068.56s CPU   3084.91s WALL (   59635 calls)
     fft          :     62.11s CPU     65.06s WALL (    5417 calls)
     ffts         :      0.59s CPU      0.59s WALL (     238 calls)
     fftw         :   3002.01s CPU   3109.63s WALL ( 4173294 calls)
     interpolate  :      1.63s CPU      1.69s WALL (     120 calls)

     Parallel routines
     fft_scatt_xy :    192.36s CPU    195.96s WALL ( 4178949 calls)
     fft_scatt_yz :   1238.83s CPU   1310.82s WALL ( 4178949 calls)

     PWSCF        :      3h52m CPU      3h56m WALL


   This run was terminated on:   2:30:43  28Jun2022            

=------------------------------------------------------------------------------=
   JOB DONE.
=------------------------------------------------------------------------------=
