
     Program PWSCF v.6.6 starts on 27Jun2022 at  7:15:10 

     This program is part of the open-source Quantum ESPRESSO suite
     for quantum simulation of materials; please cite
         "P. Giannozzi et al., J. Phys.:Condens. Matter 21 395502 (2009);
         "P. Giannozzi et al., J. Phys.:Condens. Matter 29 465901 (2017);
          URL http://www.quantum-espresso.org", 
     in publications or presentations arising from this work. More details at
     http://www.quantum-espresso.org/quote

     Parallel version (MPI), running on    37 processors

     MPI processes distributed on     1 nodes
     R & G space division:  proc/nbgrp/npool/nimage =      37
     Fft bands division:     nmany     =       1
     Reading input from Cr2Mn2.in
Warning: card &CELL ignored
Warning: card / ignored

     Current dimensions of program PWSCF are:
     Max number of different atomic species (ntypx) = 10
     Max number of k-points (npk) =  40000
     Max angular momentum in pseudopotentials (lmaxx) =  3
     Presently stress not available with electric field and gates

     Message from routine cell_base_init:
     DEPRECATED: use true lattice parameter, not A to a.u. conversion factor
     file Cr.pbe-spn-rrkjus_psl.1.0.0.UPF: wavefunction(s)  3P renormalized
     file Mn.pbe-spn-rrkjus_psl.0.3.1.UPF: wavefunction(s)  3D renormalized

     **************************************************************************
     Initializing libbeef V0.1.2 with the BEEF-vdW functional.
     Citation: Wellendorff et al., PRB 85, 235149 (2012).
     **************************************************************************


     IMPORTANT: XC functional enforced from input :
     Exchange-correlation= BEEF-VDW
                           (   1   4  43  14   2   0   0)
     Any further DFT definition will be discarded
     Please, verify this is what you really want


     Subspace diagonalization in iterative solution of the eigenvalue problem:
     a serial algorithm will be used


     Parallelization info
     --------------------
     sticks:   dense  smooth     PW     G-vecs:    dense   smooth      PW
     Min          95      37     11                21515     5427     833
     Max          96      38     12                21528     5452     851
     Sum        3527    1403    411               796237   201417   31169



     bravais-lattice index     =            0
     lattice parameter (alat)  =       1.8897  a.u.
     unit-cell volume          =    3642.5004 (a.u.)^3
     number of atoms/cell      =           12
     number of atomic types    =            2
     number of electrons       =       174.00
     number of Kohn-Sham states=          104
     kinetic-energy cutoff     =      55.1240  Ry
     charge density cutoff     =     551.2396  Ry
     convergence threshold     =      1.0E-05
     mixing beta               =       0.1000
     number of iterations used =           10  plain     mixing
     Exchange-correlation= BEEF-VDW
                           (   1   4  43  14   2   0   0)

     celldm(1)=   1.889726  celldm(2)=   0.000000  celldm(3)=   0.000000
     celldm(4)=   0.000000  celldm(5)=   0.000000  celldm(6)=   0.000000

     crystal axes: (cart. coord. in units of alat)
               a(1) = (   4.885183   0.000000   0.000000 )  
               a(2) = (   1.628024   4.605926   0.000000 )  
               a(3) = (   0.000000   0.000000  23.988622 )  

     reciprocal axes: (cart. coord. in units 2 pi/alat)
               b(1) = (  0.204701 -0.072354  0.000000 )  
               b(2) = (  0.000000  0.217112  0.000000 )  
               b(3) = (  0.000000  0.000000  0.041686 )  


     PseudoPot. # 1 for Cr read from file:
     ../pseudo/Cr.pbe-spn-rrkjus_psl.1.0.0.UPF
     MD5 check sum: 793d051e4f89dd1e3290b85340a92c0a
     Pseudo is Ultrasoft + core correction, Zval = 14.0
     Generated using "atomic" code by A. Dal Corso v.6.2.2
     Using radial grid of 1183 points,  6 beta functions with: 
                l(1) =   0
                l(2) =   0
                l(3) =   1
                l(4) =   1
                l(5) =   2
                l(6) =   2
     Q(r) pseudized with 0 coefficients 


     PseudoPot. # 2 for Mn read from file:
     ../pseudo/Mn.pbe-spn-rrkjus_psl.0.3.1.UPF
     MD5 check sum: e1cac159bdd2ba70c18e85765a5d4279
     Pseudo is Ultrasoft + core correction, Zval = 15.0
     Generated using "atomic" code by A. Dal Corso v.6.2.2
     Using radial grid of 1187 points,  6 beta functions with: 
                l(1) =   0
                l(2) =   0
                l(3) =   1
                l(4) =   1
                l(5) =   2
                l(6) =   2
     Q(r) pseudized with 0 coefficients 


     atomic species   valence    mass     pseudopotential
        Cr            14.00    51.99610     Cr( 1.00)
        Mn            15.00    54.93804     Mn( 1.00)

     Starting magnetic structure 
     atomic species   magnetization
        Cr           0.000
        Mn           0.667

     No symmetry found



   Cartesian axes

     site n.     atom                  positions (alat units)
         1           Cr  tau(   1) = (   0.0000000   0.0000000  10.0000000  )
         2           Cr  tau(   2) = (   3.2566036   2.3029631  10.0000000  )
         3           Mn  tau(   3) = (   2.4425917   0.0000000  10.0000000  )
         4           Mn  tau(   4) = (   0.8140119   2.3029631  10.0000000  )
         5           Cr  tau(   5) = (   4.8851834   3.4546412  11.9943110  )
         6           Cr  tau(   6) = (   1.6285798   1.1516782  11.9943110  )
         7           Mn  tau(   7) = (   2.4425917   3.4546412  11.9943110  )
         8           Mn  tau(   8) = (   4.0711715   1.1516782  11.9943110  )
         9           Cr  tau(   9) = (   3.2570339   2.3032413  13.9894551  )
        10           Cr  tau(  10) = (   0.0003672   0.0002855  13.9894305  )
        11           Mn  tau(  11) = (   0.8144909   2.3032437  13.8671358  )
        12           Mn  tau(  12) = (   2.4429455   0.0003138  13.8671746  )

     number of k points=    74  Fermi-Dirac smearing, width (Ry)=  0.0100
                       cart. coord. in units 2pi/alat
        k(    1) = (   0.0000000   0.0000000   0.0000000), wk =   0.0069444
        k(    2) = (   0.0000000   0.0180926   0.0000000), wk =   0.0138889
        k(    3) = (   0.0000000   0.0361853   0.0000000), wk =   0.0138889
        k(    4) = (   0.0000000   0.0542779   0.0000000), wk =   0.0138889
        k(    5) = (   0.0000000   0.0723705   0.0000000), wk =   0.0138889
        k(    6) = (   0.0000000   0.0904632   0.0000000), wk =   0.0138889
        k(    7) = (   0.0000000  -0.1085558   0.0000000), wk =   0.0069444
        k(    8) = (   0.0170584  -0.0060295   0.0000000), wk =   0.0138889
        k(    9) = (   0.0170584   0.0120631   0.0000000), wk =   0.0138889
        k(   10) = (   0.0170584   0.0301558   0.0000000), wk =   0.0138889
        k(   11) = (   0.0170584   0.0482484   0.0000000), wk =   0.0138889
        k(   12) = (   0.0170584   0.0663410   0.0000000), wk =   0.0138889
        k(   13) = (   0.0170584   0.0844337   0.0000000), wk =   0.0138889
        k(   14) = (   0.0170584  -0.1145853   0.0000000), wk =   0.0138889
        k(   15) = (   0.0170584  -0.0964927   0.0000000), wk =   0.0138889
        k(   16) = (   0.0170584  -0.0784000   0.0000000), wk =   0.0138889
        k(   17) = (   0.0170584  -0.0603074   0.0000000), wk =   0.0138889
        k(   18) = (   0.0170584  -0.0422148   0.0000000), wk =   0.0138889
        k(   19) = (   0.0170584  -0.0241221   0.0000000), wk =   0.0138889
        k(   20) = (   0.0341168  -0.0120590   0.0000000), wk =   0.0138889
        k(   21) = (   0.0341168   0.0060336   0.0000000), wk =   0.0138889
        k(   22) = (   0.0341168   0.0241263   0.0000000), wk =   0.0138889
        k(   23) = (   0.0341168   0.0422189   0.0000000), wk =   0.0138889
        k(   24) = (   0.0341168   0.0603115   0.0000000), wk =   0.0138889
        k(   25) = (   0.0341168   0.0784042   0.0000000), wk =   0.0138889
        k(   26) = (   0.0341168  -0.1206148   0.0000000), wk =   0.0138889
        k(   27) = (   0.0341168  -0.1025222   0.0000000), wk =   0.0138889
        k(   28) = (   0.0341168  -0.0844295   0.0000000), wk =   0.0138889
        k(   29) = (   0.0341168  -0.0663369   0.0000000), wk =   0.0138889
        k(   30) = (   0.0341168  -0.0482443   0.0000000), wk =   0.0138889
        k(   31) = (   0.0341168  -0.0301516   0.0000000), wk =   0.0138889
        k(   32) = (   0.0511752  -0.0180885   0.0000000), wk =   0.0138889
        k(   33) = (   0.0511752   0.0000041   0.0000000), wk =   0.0138889
        k(   34) = (   0.0511752   0.0180967   0.0000000), wk =   0.0138889
        k(   35) = (   0.0511752   0.0361894   0.0000000), wk =   0.0138889
        k(   36) = (   0.0511752   0.0542820   0.0000000), wk =   0.0138889
        k(   37) = (   0.0511752   0.0723747   0.0000000), wk =   0.0138889
        k(   38) = (   0.0511752  -0.1266443   0.0000000), wk =   0.0138889
        k(   39) = (   0.0511752  -0.1085517   0.0000000), wk =   0.0138889
        k(   40) = (   0.0511752  -0.0904591   0.0000000), wk =   0.0138889
        k(   41) = (   0.0511752  -0.0723664   0.0000000), wk =   0.0138889
        k(   42) = (   0.0511752  -0.0542738   0.0000000), wk =   0.0138889
        k(   43) = (   0.0511752  -0.0361812   0.0000000), wk =   0.0138889
        k(   44) = (   0.0682335  -0.0241180   0.0000000), wk =   0.0138889
        k(   45) = (   0.0682335  -0.0060254   0.0000000), wk =   0.0138889
        k(   46) = (   0.0682335   0.0120672   0.0000000), wk =   0.0138889
        k(   47) = (   0.0682335   0.0301599   0.0000000), wk =   0.0138889
        k(   48) = (   0.0682335   0.0482525   0.0000000), wk =   0.0138889
        k(   49) = (   0.0682335   0.0663451   0.0000000), wk =   0.0138889
        k(   50) = (   0.0682335  -0.1326738   0.0000000), wk =   0.0138889
        k(   51) = (   0.0682335  -0.1145812   0.0000000), wk =   0.0138889
        k(   52) = (   0.0682335  -0.0964886   0.0000000), wk =   0.0138889
        k(   53) = (   0.0682335  -0.0783959   0.0000000), wk =   0.0138889
        k(   54) = (   0.0682335  -0.0603033   0.0000000), wk =   0.0138889
        k(   55) = (   0.0682335  -0.0422107   0.0000000), wk =   0.0138889
        k(   56) = (   0.0852919  -0.0301475   0.0000000), wk =   0.0138889
        k(   57) = (   0.0852919  -0.0120549   0.0000000), wk =   0.0138889
        k(   58) = (   0.0852919   0.0060377   0.0000000), wk =   0.0138889
        k(   59) = (   0.0852919   0.0241304   0.0000000), wk =   0.0138889
        k(   60) = (   0.0852919   0.0422230   0.0000000), wk =   0.0138889
        k(   61) = (   0.0852919   0.0603156   0.0000000), wk =   0.0138889
        k(   62) = (   0.0852919  -0.1387033   0.0000000), wk =   0.0138889
        k(   63) = (   0.0852919  -0.1206107   0.0000000), wk =   0.0138889
        k(   64) = (   0.0852919  -0.1025181   0.0000000), wk =   0.0138889
        k(   65) = (   0.0852919  -0.0844254   0.0000000), wk =   0.0138889
        k(   66) = (   0.0852919  -0.0663328   0.0000000), wk =   0.0138889
        k(   67) = (   0.0852919  -0.0482402   0.0000000), wk =   0.0138889
        k(   68) = (  -0.1023503   0.0361770   0.0000000), wk =   0.0069444
        k(   69) = (  -0.1023503   0.0542697   0.0000000), wk =   0.0138889
        k(   70) = (  -0.1023503   0.0723623   0.0000000), wk =   0.0138889
        k(   71) = (  -0.1023503   0.0904549   0.0000000), wk =   0.0138889
        k(   72) = (  -0.1023503   0.1085476   0.0000000), wk =   0.0138889
        k(   73) = (  -0.1023503   0.1266402   0.0000000), wk =   0.0138889
        k(   74) = (  -0.1023503  -0.0723788   0.0000000), wk =   0.0069444

     Dense  grid:   796237 G-vectors     FFT dimensions: (  72,  72, 360)

     Smooth grid:   201417 G-vectors     FFT dimensions: (  45,  45, 216)

     Estimated max dynamical RAM per process >     257.75 MB

     Estimated total dynamical RAM >       9.31 GB

     Check: negative core charge=   -0.000005
     Generating pointlists ...
     new r_m :   0.9671 (alat units)  1.8275 (a.u.) for type    1
     new r_m :   0.9671 (alat units)  1.8275 (a.u.) for type    2

     Initial potential from superposition of free atoms

     starting charge  173.99237, renormalised to  174.00000


     %%%%%%%%%%%%%%%%%%%%%%%%%%%%%%%%%%%%%%%%%%%%%%%%%%%%%%%%%%%%%%%%%%%%%%%%
     %                                                                      %
     % You are using vdW-DF, which was implemented by the Thonhauser group. %
     % Please cite the following two papers that made this development      %
     % possible and the two reviews that describe the various versions:     %
     %                                                                      %
     %   T. Thonhauser et al., PRL 115, 136402 (2015).                      %
     %   T. Thonhauser et al., PRB 76, 125112 (2007).                       %
     %   K. Berland et al., Rep. Prog. Phys. 78, 066501 (2015).             %
     %   D.C. Langreth et al., J. Phys.: Condens. Matter 21, 084203 (2009). %
     %                                                                      %
     %                                                                      %
     % If you are calculating the stress with vdW-DF, please also cite:     %
     %                                                                      %
     %   R. Sabatini et al., J. Phys.: Condens. Matter 24, 424209 (2012).   %
     %                                                                      %
     %%%%%%%%%%%%%%%%%%%%%%%%%%%%%%%%%%%%%%%%%%%%%%%%%%%%%%%%%%%%%%%%%%%%%%%%



     Adding external electric field

     Computed dipole along edir(3) : 
        Dipole                0.0001 Ry au,          0.0002 Debye
        Dipole field          0.0000 Ry au, 

        Potential amp.       -0.0000 Ry
        Total length         44.1986 bohr


     Adding external electric field

     Computed dipole along edir(3) : 
        Dipole                0.0001 Ry au,          0.0002 Debye
        Dipole field          0.0000 Ry au, 

        Potential amp.       -0.0000 Ry
        Total length         44.1986 bohr

     Starting wfcs are  120 randomized atomic wfcs

     total cpu time spent up to now is      119.4 secs

     Self-consistent Calculation

     iteration #  1     ecut=    55.12 Ry     beta= 0.10
     Davidson diagonalization with overlap
     ethr =  1.00E-02,  avg # of iterations =  3.5

     Adding external electric field

     Computed dipole along edir(3) : 
        Dipole               -0.0346 Ry au,         -0.0880 Debye
        Dipole field         -0.0001 Ry au, 

        Potential amp.        0.0106 Ry
        Total length         44.1986 bohr


     Adding external electric field

     Computed dipole along edir(3) : 
        Dipole               -0.0346 Ry au,         -0.0880 Debye
        Dipole field         -0.0001 Ry au, 

        Potential amp.        0.0106 Ry
        Total length         44.1986 bohr


     total cpu time spent up to now is      481.7 secs

     total energy              =   -2338.52721277 Ry
     estimated scf accuracy    <      15.59971952 Ry

     total magnetization       =    24.65 Bohr mag/cell
     absolute magnetization    =    28.57 Bohr mag/cell

     iteration #  2     ecut=    55.12 Ry     beta= 0.10
     Davidson diagonalization with overlap
     ethr =  8.97E-03,  avg # of iterations =  4.6

     Adding external electric field

     Computed dipole along edir(3) : 
        Dipole               -0.0085 Ry au,         -0.0215 Debye
        Dipole field         -0.0000 Ry au, 

        Potential amp.        0.0026 Ry
        Total length         44.1986 bohr


     Adding external electric field

     Computed dipole along edir(3) : 
        Dipole               -0.0085 Ry au,         -0.0215 Debye
        Dipole field         -0.0000 Ry au, 

        Potential amp.        0.0026 Ry
        Total length         44.1986 bohr


     total cpu time spent up to now is      786.4 secs

     total energy              =   -2339.74548690 Ry
     estimated scf accuracy    <      27.28944870 Ry

     total magnetization       =    25.53 Bohr mag/cell
     absolute magnetization    =    29.77 Bohr mag/cell

     iteration #  3     ecut=    55.12 Ry     beta= 0.10
     Davidson diagonalization with overlap
     ethr =  8.97E-03,  avg # of iterations =  1.1

     Adding external electric field

     Computed dipole along edir(3) : 
        Dipole               -0.1921 Ry au,         -0.4882 Debye
        Dipole field         -0.0007 Ry au, 

        Potential amp.        0.0586 Ry
        Total length         44.1986 bohr


     Adding external electric field

     Computed dipole along edir(3) : 
        Dipole               -0.1921 Ry au,         -0.4882 Debye
        Dipole field         -0.0007 Ry au, 

        Potential amp.        0.0586 Ry
        Total length         44.1986 bohr


     total cpu time spent up to now is     1033.5 secs

     total energy              =   -2340.76924228 Ry
     estimated scf accuracy    <       5.14625792 Ry

     total magnetization       =    22.84 Bohr mag/cell
     absolute magnetization    =    29.53 Bohr mag/cell

     iteration #  4     ecut=    55.12 Ry     beta= 0.10
     Davidson diagonalization with overlap
     ethr =  2.96E-03,  avg # of iterations =  2.5

     Adding external electric field

     Computed dipole along edir(3) : 
        Dipole                0.1818 Ry au,          0.4621 Debye
        Dipole field          0.0006 Ry au, 

        Potential amp.       -0.0554 Ry
        Total length         44.1986 bohr


     Adding external electric field

     Computed dipole along edir(3) : 
        Dipole                0.1818 Ry au,          0.4621 Debye
        Dipole field          0.0006 Ry au, 

        Potential amp.       -0.0554 Ry
        Total length         44.1986 bohr


     total cpu time spent up to now is     1305.3 secs

     total energy              =   -2341.22106773 Ry
     estimated scf accuracy    <      10.86144950 Ry

     total magnetization       =    21.40 Bohr mag/cell
     absolute magnetization    =    29.54 Bohr mag/cell

     iteration #  5     ecut=    55.12 Ry     beta= 0.10
     Davidson diagonalization with overlap
     ethr =  2.96E-03,  avg # of iterations =  1.7

     Adding external electric field

     Computed dipole along edir(3) : 
        Dipole                0.0091 Ry au,          0.0231 Debye
        Dipole field          0.0000 Ry au, 

        Potential amp.       -0.0028 Ry
        Total length         44.1986 bohr


     Adding external electric field

     Computed dipole along edir(3) : 
        Dipole                0.0091 Ry au,          0.0231 Debye
        Dipole field          0.0000 Ry au, 

        Potential amp.       -0.0028 Ry
        Total length         44.1986 bohr


     total cpu time spent up to now is     1569.1 secs

     total energy              =   -2341.57826588 Ry
     estimated scf accuracy    <      10.75359198 Ry

     total magnetization       =    21.24 Bohr mag/cell
     absolute magnetization    =    29.39 Bohr mag/cell

     iteration #  6     ecut=    55.12 Ry     beta= 0.10
     Davidson diagonalization with overlap
     ethr =  2.96E-03,  avg # of iterations =  1.1

     Adding external electric field

     Computed dipole along edir(3) : 
        Dipole                0.0684 Ry au,          0.1738 Debye
        Dipole field          0.0002 Ry au, 

        Potential amp.       -0.0209 Ry
        Total length         44.1986 bohr


     Adding external electric field

     Computed dipole along edir(3) : 
        Dipole                0.0684 Ry au,          0.1738 Debye
        Dipole field          0.0002 Ry au, 

        Potential amp.       -0.0209 Ry
        Total length         44.1986 bohr


     total cpu time spent up to now is     1813.5 secs

     total energy              =   -2346.36347738 Ry
     estimated scf accuracy    <       2.22575410 Ry

     total magnetization       =    18.88 Bohr mag/cell
     absolute magnetization    =    29.56 Bohr mag/cell

     iteration #  7     ecut=    55.12 Ry     beta= 0.10
     Davidson diagonalization with overlap
     ethr =  1.28E-03,  avg # of iterations =  2.8

     Adding external electric field

     Computed dipole along edir(3) : 
        Dipole                0.0372 Ry au,          0.0947 Debye
        Dipole field          0.0001 Ry au, 

        Potential amp.       -0.0114 Ry
        Total length         44.1986 bohr


     Adding external electric field

     Computed dipole along edir(3) : 
        Dipole                0.0372 Ry au,          0.0947 Debye
        Dipole field          0.0001 Ry au, 

        Potential amp.       -0.0114 Ry
        Total length         44.1986 bohr


     total cpu time spent up to now is     2117.2 secs

     total energy              =   -2346.35977847 Ry
     estimated scf accuracy    <       1.64584346 Ry

     total magnetization       =    13.44 Bohr mag/cell
     absolute magnetization    =    30.03 Bohr mag/cell

     iteration #  8     ecut=    55.12 Ry     beta= 0.10
     Davidson diagonalization with overlap
     ethr =  9.46E-04,  avg # of iterations =  2.1

     Adding external electric field

     Computed dipole along edir(3) : 
        Dipole                0.0080 Ry au,          0.0202 Debye
        Dipole field          0.0000 Ry au, 

        Potential amp.       -0.0024 Ry
        Total length         44.1986 bohr


     Adding external electric field

     Computed dipole along edir(3) : 
        Dipole                0.0080 Ry au,          0.0202 Debye
        Dipole field          0.0000 Ry au, 

        Potential amp.       -0.0024 Ry
        Total length         44.1986 bohr


     total cpu time spent up to now is     2398.2 secs

     total energy              =   -2348.69364790 Ry
     estimated scf accuracy    <       0.72740973 Ry

     total magnetization       =    10.99 Bohr mag/cell
     absolute magnetization    =    29.54 Bohr mag/cell

     iteration #  9     ecut=    55.12 Ry     beta= 0.10
     Davidson diagonalization with overlap
     ethr =  4.18E-04,  avg # of iterations =  6.5

     Adding external electric field

     Computed dipole along edir(3) : 
        Dipole                0.0158 Ry au,          0.0403 Debye
        Dipole field          0.0001 Ry au, 

        Potential amp.       -0.0048 Ry
        Total length         44.1986 bohr


     Adding external electric field

     Computed dipole along edir(3) : 
        Dipole                0.0158 Ry au,          0.0403 Debye
        Dipole field          0.0001 Ry au, 

        Potential amp.       -0.0048 Ry
        Total length         44.1986 bohr


     total cpu time spent up to now is     2792.4 secs

     total energy              =   -2349.00174344 Ry
     estimated scf accuracy    <       1.59047611 Ry

     total magnetization       =     6.26 Bohr mag/cell
     absolute magnetization    =    25.83 Bohr mag/cell

     iteration # 10     ecut=    55.12 Ry     beta= 0.10
     Davidson diagonalization with overlap
     ethr =  4.18E-04,  avg # of iterations =  1.9

     Adding external electric field

     Computed dipole along edir(3) : 
        Dipole                0.0115 Ry au,          0.0292 Debye
        Dipole field          0.0000 Ry au, 

        Potential amp.       -0.0035 Ry
        Total length         44.1986 bohr


     Adding external electric field

     Computed dipole along edir(3) : 
        Dipole                0.0115 Ry au,          0.0292 Debye
        Dipole field          0.0000 Ry au, 

        Potential amp.       -0.0035 Ry
        Total length         44.1986 bohr


     total cpu time spent up to now is     3065.0 secs

     total energy              =   -2348.75335106 Ry
     estimated scf accuracy    <       0.27809651 Ry

     total magnetization       =     6.09 Bohr mag/cell
     absolute magnetization    =    26.42 Bohr mag/cell

     iteration # 11     ecut=    55.12 Ry     beta= 0.10
     Davidson diagonalization with overlap
     ethr =  1.60E-04,  avg # of iterations =  5.0

     Adding external electric field

     Computed dipole along edir(3) : 
        Dipole                0.0243 Ry au,          0.0617 Debye
        Dipole field          0.0001 Ry au, 

        Potential amp.       -0.0074 Ry
        Total length         44.1986 bohr


     Adding external electric field

     Computed dipole along edir(3) : 
        Dipole                0.0243 Ry au,          0.0617 Debye
        Dipole field          0.0001 Ry au, 

        Potential amp.       -0.0074 Ry
        Total length         44.1986 bohr


     total cpu time spent up to now is     3388.1 secs

     total energy              =   -2348.78886109 Ry
     estimated scf accuracy    <       0.24501009 Ry

     total magnetization       =     5.27 Bohr mag/cell
     absolute magnetization    =    26.23 Bohr mag/cell

     iteration # 12     ecut=    55.12 Ry     beta= 0.10
     Davidson diagonalization with overlap
     ethr =  1.41E-04,  avg # of iterations =  2.8

     Adding external electric field

     Computed dipole along edir(3) : 
        Dipole                0.0172 Ry au,          0.0436 Debye
        Dipole field          0.0001 Ry au, 

        Potential amp.       -0.0052 Ry
        Total length         44.1986 bohr


     Adding external electric field

     Computed dipole along edir(3) : 
        Dipole                0.0172 Ry au,          0.0436 Debye
        Dipole field          0.0001 Ry au, 

        Potential amp.       -0.0052 Ry
        Total length         44.1986 bohr


     total cpu time spent up to now is     3668.6 secs

     total energy              =   -2348.52890835 Ry
     estimated scf accuracy    <       0.22089935 Ry

     total magnetization       =     4.14 Bohr mag/cell
     absolute magnetization    =    25.92 Bohr mag/cell

     iteration # 13     ecut=    55.12 Ry     beta= 0.10
     Davidson diagonalization with overlap
     c_bands:  1 eigenvalues not converged
     ethr =  1.27E-04,  avg # of iterations =  6.0

     Adding external electric field

     Computed dipole along edir(3) : 
        Dipole                0.0254 Ry au,          0.0645 Debye
        Dipole field          0.0001 Ry au, 

        Potential amp.       -0.0077 Ry
        Total length         44.1986 bohr


     Adding external electric field

     Computed dipole along edir(3) : 
        Dipole                0.0254 Ry au,          0.0645 Debye
        Dipole field          0.0001 Ry au, 

        Potential amp.       -0.0077 Ry
        Total length         44.1986 bohr


     total cpu time spent up to now is     3973.0 secs

     total energy              =   -2348.27191904 Ry
     estimated scf accuracy    <       0.14813711 Ry

     total magnetization       =     3.36 Bohr mag/cell
     absolute magnetization    =    25.62 Bohr mag/cell

     iteration # 14     ecut=    55.12 Ry     beta= 0.10
     Davidson diagonalization with overlap
     ethr =  8.51E-05,  avg # of iterations =  4.2

     Adding external electric field

     Computed dipole along edir(3) : 
        Dipole                0.0202 Ry au,          0.0512 Debye
        Dipole field          0.0001 Ry au, 

        Potential amp.       -0.0061 Ry
        Total length         44.1986 bohr


     Adding external electric field

     Computed dipole along edir(3) : 
        Dipole                0.0202 Ry au,          0.0512 Debye
        Dipole field          0.0001 Ry au, 

        Potential amp.       -0.0061 Ry
        Total length         44.1986 bohr


     total cpu time spent up to now is     4259.0 secs

     total energy              =   -2347.82429952 Ry
     estimated scf accuracy    <       0.08650129 Ry

     total magnetization       =     2.68 Bohr mag/cell
     absolute magnetization    =    25.44 Bohr mag/cell

     iteration # 15     ecut=    55.12 Ry     beta= 0.10
     Davidson diagonalization with overlap
     ethr =  4.97E-05,  avg # of iterations =  2.8

     Adding external electric field

     Computed dipole along edir(3) : 
        Dipole                0.0169 Ry au,          0.0430 Debye
        Dipole field          0.0001 Ry au, 

        Potential amp.       -0.0052 Ry
        Total length         44.1986 bohr


     Adding external electric field

     Computed dipole along edir(3) : 
        Dipole                0.0169 Ry au,          0.0430 Debye
        Dipole field          0.0001 Ry au, 

        Potential amp.       -0.0052 Ry
        Total length         44.1986 bohr


     total cpu time spent up to now is     4529.3 secs

     total energy              =   -2347.54246370 Ry
     estimated scf accuracy    <       0.01464839 Ry

     total magnetization       =     2.54 Bohr mag/cell
     absolute magnetization    =    25.68 Bohr mag/cell

     iteration # 16     ecut=    55.12 Ry     beta= 0.10
     Davidson diagonalization with overlap
     c_bands:  3 eigenvalues not converged
     c_bands:  1 eigenvalues not converged
     c_bands:  1 eigenvalues not converged
     c_bands:  1 eigenvalues not converged
     c_bands:  1 eigenvalues not converged
     c_bands:  3 eigenvalues not converged
     c_bands:  2 eigenvalues not converged
     c_bands:  4 eigenvalues not converged
     c_bands:  1 eigenvalues not converged
     c_bands:  1 eigenvalues not converged
     c_bands:  1 eigenvalues not converged
     c_bands:  1 eigenvalues not converged
     c_bands:  1 eigenvalues not converged
     c_bands:  1 eigenvalues not converged
     c_bands:  1 eigenvalues not converged
     c_bands:  1 eigenvalues not converged
     c_bands:  1 eigenvalues not converged
     ethr =  8.42E-06,  avg # of iterations = 11.6

     Adding external electric field

     Computed dipole along edir(3) : 
        Dipole                0.0098 Ry au,          0.0248 Debye
        Dipole field          0.0000 Ry au, 

        Potential amp.       -0.0030 Ry
        Total length         44.1986 bohr


     Adding external electric field

     Computed dipole along edir(3) : 
        Dipole                0.0098 Ry au,          0.0248 Debye
        Dipole field          0.0000 Ry au, 

        Potential amp.       -0.0030 Ry
        Total length         44.1986 bohr


     total cpu time spent up to now is     4986.2 secs

     total energy              =   -2347.25977144 Ry
     estimated scf accuracy    <       0.01790827 Ry

     total magnetization       =     2.25 Bohr mag/cell
     absolute magnetization    =    25.74 Bohr mag/cell

     iteration # 17     ecut=    55.12 Ry     beta= 0.10
     Davidson diagonalization with overlap
     ethr =  8.42E-06,  avg # of iterations =  1.9

     Adding external electric field

     Computed dipole along edir(3) : 
        Dipole                0.0256 Ry au,          0.0650 Debye
        Dipole field          0.0001 Ry au, 

        Potential amp.       -0.0078 Ry
        Total length         44.1986 bohr


     Adding external electric field

     Computed dipole along edir(3) : 
        Dipole                0.0256 Ry au,          0.0650 Debye
        Dipole field          0.0001 Ry au, 

        Potential amp.       -0.0078 Ry
        Total length         44.1986 bohr


     total cpu time spent up to now is     5242.6 secs

     total energy              =   -2346.79629168 Ry
     estimated scf accuracy    <       0.00929724 Ry

     total magnetization       =     1.98 Bohr mag/cell
     absolute magnetization    =    25.80 Bohr mag/cell

     iteration # 18     ecut=    55.12 Ry     beta= 0.10
     Davidson diagonalization with overlap
     ethr =  5.34E-06,  avg # of iterations =  6.5

     Adding external electric field

     Computed dipole along edir(3) : 
        Dipole                0.0103 Ry au,          0.0263 Debye
        Dipole field          0.0000 Ry au, 

        Potential amp.       -0.0032 Ry
        Total length         44.1986 bohr


     Adding external electric field

     Computed dipole along edir(3) : 
        Dipole                0.0103 Ry au,          0.0263 Debye
        Dipole field          0.0000 Ry au, 

        Potential amp.       -0.0032 Ry
        Total length         44.1986 bohr


     total cpu time spent up to now is     5576.4 secs

     total energy              =   -2346.41757169 Ry
     estimated scf accuracy    <       0.03819744 Ry

     total magnetization       =     1.75 Bohr mag/cell
     absolute magnetization    =    26.10 Bohr mag/cell

     iteration # 19     ecut=    55.12 Ry     beta= 0.10
     Davidson diagonalization with overlap
     ethr =  5.34E-06,  avg # of iterations =  2.2

     Adding external electric field

     Computed dipole along edir(3) : 
        Dipole                0.0175 Ry au,          0.0445 Debye
        Dipole field          0.0001 Ry au, 

        Potential amp.       -0.0053 Ry
        Total length         44.1986 bohr


     Adding external electric field

     Computed dipole along edir(3) : 
        Dipole                0.0175 Ry au,          0.0445 Debye
        Dipole field          0.0001 Ry au, 

        Potential amp.       -0.0053 Ry
        Total length         44.1986 bohr


     total cpu time spent up to now is     5854.9 secs

     total energy              =   -2346.22068062 Ry
     estimated scf accuracy    <       0.00620636 Ry

     total magnetization       =     1.75 Bohr mag/cell
     absolute magnetization    =    26.26 Bohr mag/cell

     iteration # 20     ecut=    55.12 Ry     beta= 0.10
     Davidson diagonalization with overlap
     c_bands:  1 eigenvalues not converged
     c_bands:  2 eigenvalues not converged
     c_bands:  1 eigenvalues not converged
     c_bands:  1 eigenvalues not converged
     c_bands:  1 eigenvalues not converged
     ethr =  3.57E-06,  avg # of iterations =  8.4

     Adding external electric field

     Computed dipole along edir(3) : 
        Dipole                0.0203 Ry au,          0.0516 Debye
        Dipole field          0.0001 Ry au, 

        Potential amp.       -0.0062 Ry
        Total length         44.1986 bohr


     Adding external electric field

     Computed dipole along edir(3) : 
        Dipole                0.0203 Ry au,          0.0516 Debye
        Dipole field          0.0001 Ry au, 

        Potential amp.       -0.0062 Ry
        Total length         44.1986 bohr


     total cpu time spent up to now is     6214.6 secs

     total energy              =   -2346.24507529 Ry
     estimated scf accuracy    <       0.01863705 Ry

     total magnetization       =     1.52 Bohr mag/cell
     absolute magnetization    =    26.49 Bohr mag/cell

     iteration # 21     ecut=    55.12 Ry     beta= 0.10
     Davidson diagonalization with overlap
     c_bands:  1 eigenvalues not converged
     c_bands:  2 eigenvalues not converged
     c_bands:  2 eigenvalues not converged
     c_bands:  2 eigenvalues not converged
     c_bands:  1 eigenvalues not converged
     ethr =  3.57E-06,  avg # of iterations =  6.0

     Adding external electric field

     Computed dipole along edir(3) : 
        Dipole                0.0183 Ry au,          0.0466 Debye
        Dipole field          0.0001 Ry au, 

        Potential amp.       -0.0056 Ry
        Total length         44.1986 bohr


     Adding external electric field

     Computed dipole along edir(3) : 
        Dipole                0.0183 Ry au,          0.0466 Debye
        Dipole field          0.0001 Ry au, 

        Potential amp.       -0.0056 Ry
        Total length         44.1986 bohr


     total cpu time spent up to now is     6593.6 secs

     total energy              =   -2346.23385739 Ry
     estimated scf accuracy    <       0.00270925 Ry

     total magnetization       =     1.26 Bohr mag/cell
     absolute magnetization    =    26.73 Bohr mag/cell

     iteration # 22     ecut=    55.12 Ry     beta= 0.10
     Davidson diagonalization with overlap
     c_bands:  1 eigenvalues not converged
     c_bands:  1 eigenvalues not converged
     c_bands:  2 eigenvalues not converged
     c_bands:  1 eigenvalues not converged
     c_bands:  1 eigenvalues not converged
     c_bands:  2 eigenvalues not converged
     c_bands:  1 eigenvalues not converged
     ethr =  1.56E-06,  avg # of iterations =  8.2

     Adding external electric field

     Computed dipole along edir(3) : 
        Dipole                0.0169 Ry au,          0.0429 Debye
        Dipole field          0.0001 Ry au, 

        Potential amp.       -0.0052 Ry
        Total length         44.1986 bohr


     Adding external electric field

     Computed dipole along edir(3) : 
        Dipole                0.0169 Ry au,          0.0429 Debye
        Dipole field          0.0001 Ry au, 

        Potential amp.       -0.0052 Ry
        Total length         44.1986 bohr


     total cpu time spent up to now is     6938.7 secs

     total energy              =   -2346.09015865 Ry
     estimated scf accuracy    <       0.00141185 Ry

     total magnetization       =     1.10 Bohr mag/cell
     absolute magnetization    =    26.91 Bohr mag/cell

     iteration # 23     ecut=    55.12 Ry     beta= 0.10
     Davidson diagonalization with overlap
     c_bands:  1 eigenvalues not converged
     c_bands:  2 eigenvalues not converged
     c_bands:  2 eigenvalues not converged
     c_bands:  3 eigenvalues not converged
     c_bands:  1 eigenvalues not converged
     ethr =  8.11E-07,  avg # of iterations =  6.0

     Adding external electric field

     Computed dipole along edir(3) : 
        Dipole                0.0107 Ry au,          0.0271 Debye
        Dipole field          0.0000 Ry au, 

        Potential amp.       -0.0033 Ry
        Total length         44.1986 bohr


     Adding external electric field

     Computed dipole along edir(3) : 
        Dipole                0.0107 Ry au,          0.0271 Debye
        Dipole field          0.0000 Ry au, 

        Potential amp.       -0.0033 Ry
        Total length         44.1986 bohr


     total cpu time spent up to now is     7255.4 secs

     total energy              =   -2346.44512578 Ry
     estimated scf accuracy    <       0.00205252 Ry

     total magnetization       =     1.05 Bohr mag/cell
     absolute magnetization    =    26.91 Bohr mag/cell

     iteration # 24     ecut=    55.12 Ry     beta= 0.10
     Davidson diagonalization with overlap
     c_bands:  1 eigenvalues not converged
     ethr =  8.11E-07,  avg # of iterations =  7.9

     Adding external electric field

     Computed dipole along edir(3) : 
        Dipole                0.0103 Ry au,          0.0262 Debye
        Dipole field          0.0000 Ry au, 

        Potential amp.       -0.0031 Ry
        Total length         44.1986 bohr


     Adding external electric field

     Computed dipole along edir(3) : 
        Dipole                0.0103 Ry au,          0.0262 Debye
        Dipole field          0.0000 Ry au, 

        Potential amp.       -0.0031 Ry
        Total length         44.1986 bohr


     total cpu time spent up to now is     7658.1 secs

     total energy              =   -2346.60414858 Ry
     estimated scf accuracy    <       0.00167522 Ry

     total magnetization       =     0.80 Bohr mag/cell
     absolute magnetization    =    27.06 Bohr mag/cell

     iteration # 25     ecut=    55.12 Ry     beta= 0.10
     Davidson diagonalization with overlap
     c_bands:  2 eigenvalues not converged
     c_bands:  1 eigenvalues not converged
     c_bands:  1 eigenvalues not converged
     ethr =  8.11E-07,  avg # of iterations =  5.9

     Adding external electric field

     Computed dipole along edir(3) : 
        Dipole                0.0124 Ry au,          0.0315 Debye
        Dipole field          0.0000 Ry au, 

        Potential amp.       -0.0038 Ry
        Total length         44.1986 bohr


     Adding external electric field

     Computed dipole along edir(3) : 
        Dipole                0.0124 Ry au,          0.0315 Debye
        Dipole field          0.0000 Ry au, 

        Potential amp.       -0.0038 Ry
        Total length         44.1986 bohr


     total cpu time spent up to now is     7980.1 secs

     total energy              =   -2346.49198901 Ry
     estimated scf accuracy    <       0.00031893 Ry

     total magnetization       =     0.67 Bohr mag/cell
     absolute magnetization    =    27.20 Bohr mag/cell

     iteration # 26     ecut=    55.12 Ry     beta= 0.10
     Davidson diagonalization with overlap
     ethr =  1.83E-07,  avg # of iterations =  6.8

     Adding external electric field

     Computed dipole along edir(3) : 
        Dipole                0.0158 Ry au,          0.0401 Debye
        Dipole field          0.0001 Ry au, 

        Potential amp.       -0.0048 Ry
        Total length         44.1986 bohr


     Adding external electric field

     Computed dipole along edir(3) : 
        Dipole                0.0158 Ry au,          0.0401 Debye
        Dipole field          0.0001 Ry au, 

        Potential amp.       -0.0048 Ry
        Total length         44.1986 bohr


     total cpu time spent up to now is     8402.8 secs

     total energy              =   -2346.68562996 Ry
     estimated scf accuracy    <       0.00027335 Ry

     total magnetization       =     0.68 Bohr mag/cell
     absolute magnetization    =    27.26 Bohr mag/cell

     iteration # 27     ecut=    55.12 Ry     beta= 0.10
     Davidson diagonalization with overlap
     ethr =  1.57E-07,  avg # of iterations =  6.7

     Adding external electric field

     Computed dipole along edir(3) : 
        Dipole                0.0151 Ry au,          0.0384 Debye
        Dipole field          0.0001 Ry au, 

        Potential amp.       -0.0046 Ry
        Total length         44.1986 bohr


     Adding external electric field

     Computed dipole along edir(3) : 
        Dipole                0.0151 Ry au,          0.0384 Debye
        Dipole field          0.0001 Ry au, 

        Potential amp.       -0.0046 Ry
        Total length         44.1986 bohr


     total cpu time spent up to now is     8793.2 secs

     total energy              =   -2346.56578951 Ry
     estimated scf accuracy    <       0.00013688 Ry

     total magnetization       =     0.64 Bohr mag/cell
     absolute magnetization    =    27.37 Bohr mag/cell

     iteration # 28     ecut=    55.12 Ry     beta= 0.10
     Davidson diagonalization with overlap
     c_bands:  1 eigenvalues not converged
     ethr =  7.87E-08,  avg # of iterations =  4.9

     Adding external electric field

     Computed dipole along edir(3) : 
        Dipole                0.0130 Ry au,          0.0331 Debye
        Dipole field          0.0000 Ry au, 

        Potential amp.       -0.0040 Ry
        Total length         44.1986 bohr


     Adding external electric field

     Computed dipole along edir(3) : 
        Dipole                0.0130 Ry au,          0.0331 Debye
        Dipole field          0.0000 Ry au, 

        Potential amp.       -0.0040 Ry
        Total length         44.1986 bohr


     total cpu time spent up to now is     9130.9 secs

     total energy              =   -2346.40924028 Ry
     estimated scf accuracy    <       0.00009779 Ry

     total magnetization       =     0.66 Bohr mag/cell
     absolute magnetization    =    27.42 Bohr mag/cell

     iteration # 29     ecut=    55.12 Ry     beta= 0.10
     Davidson diagonalization with overlap
     ethr =  5.62E-08,  avg # of iterations =  5.5

     Adding external electric field

     Computed dipole along edir(3) : 
        Dipole                0.0148 Ry au,          0.0377 Debye
        Dipole field          0.0001 Ry au, 

        Potential amp.       -0.0045 Ry
        Total length         44.1986 bohr


     Adding external electric field

     Computed dipole along edir(3) : 
        Dipole                0.0148 Ry au,          0.0377 Debye
        Dipole field          0.0001 Ry au, 

        Potential amp.       -0.0045 Ry
        Total length         44.1986 bohr


     total cpu time spent up to now is     9466.6 secs

     total energy              =   -2346.26702682 Ry
     estimated scf accuracy    <       0.00006697 Ry

     total magnetization       =     0.69 Bohr mag/cell
     absolute magnetization    =    27.46 Bohr mag/cell

     iteration # 30     ecut=    55.12 Ry     beta= 0.10
     Davidson diagonalization with overlap
     ethr =  3.85E-08,  avg # of iterations =  6.6

     Adding external electric field

     Computed dipole along edir(3) : 
        Dipole                0.0129 Ry au,          0.0329 Debye
        Dipole field          0.0000 Ry au, 

        Potential amp.       -0.0039 Ry
        Total length         44.1986 bohr


     Adding external electric field

     Computed dipole along edir(3) : 
        Dipole                0.0129 Ry au,          0.0329 Debye
        Dipole field          0.0000 Ry au, 

        Potential amp.       -0.0039 Ry
        Total length         44.1986 bohr


     total cpu time spent up to now is     9822.2 secs

     total energy              =   -2346.09896869 Ry
     estimated scf accuracy    <       0.00010151 Ry

     total magnetization       =     0.69 Bohr mag/cell
     absolute magnetization    =    27.50 Bohr mag/cell

     iteration # 31     ecut=    55.12 Ry     beta= 0.10
     Davidson diagonalization with overlap
     ethr =  3.85E-08,  avg # of iterations =  3.6

     Adding external electric field

     Computed dipole along edir(3) : 
        Dipole                0.0135 Ry au,          0.0344 Debye
        Dipole field          0.0000 Ry au, 

        Potential amp.       -0.0041 Ry
        Total length         44.1986 bohr


     Adding external electric field

     Computed dipole along edir(3) : 
        Dipole                0.0135 Ry au,          0.0344 Debye
        Dipole field          0.0000 Ry au, 

        Potential amp.       -0.0041 Ry
        Total length         44.1986 bohr


     total cpu time spent up to now is    10114.9 secs

     total energy              =   -2345.90350553 Ry
     estimated scf accuracy    <       0.00003979 Ry

     total magnetization       =     0.69 Bohr mag/cell
     absolute magnetization    =    27.51 Bohr mag/cell

     iteration # 32     ecut=    55.12 Ry     beta= 0.10
     Davidson diagonalization with overlap
     ethr =  2.29E-08,  avg # of iterations =  5.2

     Adding external electric field

     Computed dipole along edir(3) : 
        Dipole                0.0138 Ry au,          0.0352 Debye
        Dipole field          0.0000 Ry au, 

        Potential amp.       -0.0042 Ry
        Total length         44.1986 bohr


     Adding external electric field

     Computed dipole along edir(3) : 
        Dipole                0.0138 Ry au,          0.0352 Debye
        Dipole field          0.0000 Ry au, 

        Potential amp.       -0.0042 Ry
        Total length         44.1986 bohr


     total cpu time spent up to now is    10429.4 secs

     total energy              =   -2345.84538046 Ry
     estimated scf accuracy    <       0.00003216 Ry

     total magnetization       =     0.70 Bohr mag/cell
     absolute magnetization    =    27.52 Bohr mag/cell

     iteration # 33     ecut=    55.12 Ry     beta= 0.10
     Davidson diagonalization with overlap
     ethr =  1.85E-08,  avg # of iterations =  6.5

     Adding external electric field

     Computed dipole along edir(3) : 
        Dipole                0.0138 Ry au,          0.0352 Debye
        Dipole field          0.0000 Ry au, 

        Potential amp.       -0.0042 Ry
        Total length         44.1986 bohr


     Adding external electric field

     Computed dipole along edir(3) : 
        Dipole                0.0138 Ry au,          0.0352 Debye
        Dipole field          0.0000 Ry au, 

        Potential amp.       -0.0042 Ry
        Total length         44.1986 bohr


     total cpu time spent up to now is    10843.6 secs

     total energy              =   -2345.70363483 Ry
     estimated scf accuracy    <       0.00002366 Ry

     total magnetization       =     0.69 Bohr mag/cell
     absolute magnetization    =    27.53 Bohr mag/cell

     iteration # 34     ecut=    55.12 Ry     beta= 0.10
     Davidson diagonalization with overlap
     ethr =  1.36E-08,  avg # of iterations =  3.7

     Adding external electric field

     Computed dipole along edir(3) : 
        Dipole                0.0140 Ry au,          0.0356 Debye
        Dipole field          0.0000 Ry au, 

        Potential amp.       -0.0043 Ry
        Total length         44.1986 bohr


     Adding external electric field

     Computed dipole along edir(3) : 
        Dipole                0.0140 Ry au,          0.0356 Debye
        Dipole field          0.0000 Ry au, 

        Potential amp.       -0.0043 Ry
        Total length         44.1986 bohr


     total cpu time spent up to now is    11137.2 secs

     total energy              =   -2345.58911134 Ry
     estimated scf accuracy    <       0.00001790 Ry

     total magnetization       =     0.70 Bohr mag/cell
     absolute magnetization    =    27.53 Bohr mag/cell

     iteration # 35     ecut=    55.12 Ry     beta= 0.10
     Davidson diagonalization with overlap
     ethr =  1.03E-08,  avg # of iterations =  6.6

     Adding external electric field

     Computed dipole along edir(3) : 
        Dipole                0.0139 Ry au,          0.0353 Debye
        Dipole field          0.0000 Ry au, 

        Potential amp.       -0.0042 Ry
        Total length         44.1986 bohr


     Adding external electric field

     Computed dipole along edir(3) : 
        Dipole                0.0139 Ry au,          0.0353 Debye
        Dipole field          0.0000 Ry au, 

        Potential amp.       -0.0042 Ry
        Total length         44.1986 bohr


     total cpu time spent up to now is    11532.3 secs

     total energy              =   -2345.50785245 Ry
     estimated scf accuracy    <       0.00001216 Ry

     total magnetization       =     0.70 Bohr mag/cell
     absolute magnetization    =    27.52 Bohr mag/cell

     iteration # 36     ecut=    55.12 Ry     beta= 0.10
     Davidson diagonalization with overlap
     ethr =  6.99E-09,  avg # of iterations =  6.3

     Adding external electric field

     Computed dipole along edir(3) : 
        Dipole                0.0128 Ry au,          0.0325 Debye
        Dipole field          0.0000 Ry au, 

        Potential amp.       -0.0039 Ry
        Total length         44.1986 bohr


     Adding external electric field

     Computed dipole along edir(3) : 
        Dipole                0.0128 Ry au,          0.0325 Debye
        Dipole field          0.0000 Ry au, 

        Potential amp.       -0.0039 Ry
        Total length         44.1986 bohr


     Magnetic moment per site:
     atom:    1    charge:   11.9029    magn:   -2.3188    constr:    0.0000
     atom:    2    charge:   11.9033    magn:   -2.3189    constr:    0.0000
     atom:    3    charge:   13.0438    magn:    2.5586    constr:    0.0000
     atom:    4    charge:   13.0438    magn:    2.5586    constr:    0.0000
     atom:    5    charge:   11.9816    magn:   -1.1768    constr:    0.0000
     atom:    6    charge:   11.9815    magn:   -1.1764    constr:    0.0000
     atom:    7    charge:   13.1214    magn:    1.7085    constr:    0.0000
     atom:    8    charge:   13.1220    magn:    1.7085    constr:    0.0000
     atom:    9    charge:   11.8993    magn:   -2.2606    constr:    0.0000
     atom:   10    charge:   11.8990    magn:   -2.2605    constr:    0.0000
     atom:   11    charge:   13.0808    magn:    2.3351    constr:    0.0000
     atom:   12    charge:   13.0808    magn:    2.3352    constr:    0.0000

     total cpu time spent up to now is    11885.5 secs

     End of self-consistent calculation

     Number of k-points >= 100: set verbosity='high' to print the bands.

     the Fermi energy is     1.2930 ev

!    total energy              =   -2343.86825978 Ry
     estimated scf accuracy    <       0.00000830 Ry
     smearing contrib. (-TS)   =      -0.06298839 Ry
     internal energy E=F+TS    =   -2343.80527139 Ry

     The total energy is F=E-TS. E is the sum of the following terms:
     one-electron contribution =  -21689.73014966 Ry
     hartree contribution      =   10837.97370459 Ry
     xc contribution           =    -314.12737756 Ry
     ewald contribution        =    8822.07855067 Ry
     electric field correction =       0.00000056 Ry

     total magnetization       =     0.69 Bohr mag/cell
     absolute magnetization    =    27.52 Bohr mag/cell

     convergence has been achieved in  36 iterations

     Forces acting on atoms (cartesian axes, Ry/au):

     atom    1 type  1   force =    -0.00001347    0.00005045   -0.02656184
     atom    2 type  1   force =     0.00004901   -0.00002483   -0.02652080
     atom    3 type  2   force =    -0.00006888   -0.00003003   -0.02244330
     atom    4 type  2   force =     0.00010057    0.00005085   -0.02244230
     atom    5 type  1   force =    -0.00003705   -0.00002100   -0.01743366
     atom    6 type  1   force =     0.00001011    0.00000262   -0.01743953
     atom    7 type  2   force =    -0.00010276    0.00013023   -0.00513910
     atom    8 type  2   force =     0.00009444   -0.00013305   -0.00513398
     atom    9 type  1   force =     0.00002983   -0.00003702    0.02702239
     atom   10 type  1   force =    -0.00003119    0.00003397    0.02703276
     atom   11 type  2   force =     0.00006481    0.00004269    0.04454795
     atom   12 type  2   force =    -0.00009542   -0.00006487    0.04451141

     Total force =     0.092217     Total SCF correction =     0.012362
     SCF correction compared to forces is large: reduce conv_thr to get better values

     Writing output data file ./Cr2Mn2/Cr2Mn2_beef.save/

     init_run     :    116.52s CPU    117.29s WALL (       1 calls)
     electrons    :  11707.06s CPU  11767.09s WALL (       1 calls)
     forces       :     81.47s CPU     81.76s WALL (       1 calls)

     Called by init_run:
     wfcinit      :    105.80s CPU    106.39s WALL (       1 calls)
     potinit      :      7.56s CPU      7.64s WALL (       1 calls)
     hinit0       :      1.56s CPU      1.57s WALL (       1 calls)

     Called by electrons:
     c_bands      :  10530.03s CPU  10573.08s WALL (      36 calls)
     sum_band     :   1093.11s CPU   1103.50s WALL (      36 calls)
     v_of_rho     :     45.96s CPU     48.28s WALL (      37 calls)
     newd         :     42.97s CPU     46.37s WALL (      37 calls)
     mix_rho      :      1.84s CPU      1.90s WALL (      36 calls)
     vdW_kernel   :      5.70s CPU      5.70s WALL (       1 calls)

     Called by c_bands:
     init_us_2    :     39.48s CPU     39.75s WALL (   10952 calls)
     cegterg      :  10423.00s CPU  10458.78s WALL (    5328 calls)

     Called by *egterg:
     cdiaghg      :    954.48s CPU    954.68s WALL (   31312 calls)
     h_psi        :   4814.78s CPU   4845.33s WALL (   31460 calls)
     s_psi        :   1443.06s CPU   1443.46s WALL (   31460 calls)
     g_psi        :      4.20s CPU      4.24s WALL (   25984 calls)

     Called by h_psi:
     h_psi:calbec :   1605.28s CPU   1608.28s WALL (   31460 calls)
     vloc_psi     :   1490.95s CPU   1518.08s WALL (   31460 calls)
     add_vuspsi   :   1697.48s CPU   1697.87s WALL (   31460 calls)

     General routines
     calbec       :   2341.23s CPU   2345.67s WALL (   37380 calls)
     fft          :     25.70s CPU     26.50s WALL (    3370 calls)
     ffts         :      0.16s CPU      0.17s WALL (     146 calls)
     fftw         :   1711.85s CPU   1742.59s WALL ( 3178370 calls)
     interpolate  :      0.54s CPU      0.56s WALL (      74 calls)

     Parallel routines
     fft_scatt_xy :    129.61s CPU    131.42s WALL ( 3181886 calls)
     fft_scatt_yz :    336.78s CPU    343.98s WALL ( 3181886 calls)

     PWSCF        :      3h19m CPU      3h20m WALL


   This run was terminated on:  10:35:51  27Jun2022            

=------------------------------------------------------------------------------=
   JOB DONE.
=------------------------------------------------------------------------------=
