
     Program PWSCF v.6.6 starts on 26Jun2022 at 14:46:42 

     This program is part of the open-source Quantum ESPRESSO suite
     for quantum simulation of materials; please cite
         "P. Giannozzi et al., J. Phys.:Condens. Matter 21 395502 (2009);
         "P. Giannozzi et al., J. Phys.:Condens. Matter 29 465901 (2017);
          URL http://www.quantum-espresso.org", 
     in publications or presentations arising from this work. More details at
     http://www.quantum-espresso.org/quote

     Parallel version (MPI), running on    37 processors

     MPI processes distributed on     1 nodes
     R & G space division:  proc/nbgrp/npool/nimage =      37
     Fft bands division:     nmany     =       1
     Reading input from Cr2Ni2.in
Warning: card &CELL ignored
Warning: card / ignored

     Current dimensions of program PWSCF are:
     Max number of different atomic species (ntypx) = 10
     Max number of k-points (npk) =  40000
     Max angular momentum in pseudopotentials (lmaxx) =  3
     Presently stress not available with electric field and gates

     Message from routine cell_base_init:
     DEPRECATED: use true lattice parameter, not A to a.u. conversion factor
     file Cr.pbe-spn-rrkjus_psl.1.0.0.UPF: wavefunction(s)  3P renormalized
     file Ni.pbe-n-rrkjus_psl.1.0.0.UPF: wavefunction(s)  3D renormalized

     **************************************************************************
     Initializing libbeef V0.1.2 with the BEEF-vdW functional.
     Citation: Wellendorff et al., PRB 85, 235149 (2012).
     **************************************************************************


     IMPORTANT: XC functional enforced from input :
     Exchange-correlation= BEEF-VDW
                           (   1   4  43  14   2   0   0)
     Any further DFT definition will be discarded
     Please, verify this is what you really want


     Subspace diagonalization in iterative solution of the eigenvalue problem:
     a serial algorithm will be used


     Parallelization info
     --------------------
     sticks:   dense  smooth     PW     G-vecs:    dense   smooth      PW
     Min          92      36     11                21020     5298     847
     Max          93      37     11                21043     5329     863
     Sum        3437    1365    407               778089   196699   31739



     bravais-lattice index     =            0
     lattice parameter (alat)  =       1.8897  a.u.
     unit-cell volume          =    3560.7728 (a.u.)^3
     number of atoms/cell      =           12
     number of atomic types    =            2
     number of electrons       =       144.00
     number of Kohn-Sham states=           86
     kinetic-energy cutoff     =      55.1240  Ry
     charge density cutoff     =     551.2396  Ry
     convergence threshold     =      1.0E-05
     mixing beta               =       0.1000
     number of iterations used =           10  plain     mixing
     Exchange-correlation= BEEF-VDW
                           (   1   4  43  14   2   0   0)

     celldm(1)=   1.889726  celldm(2)=   0.000000  celldm(3)=   0.000000
     celldm(4)=   0.000000  celldm(5)=   0.000000  celldm(6)=   0.000000

     crystal axes: (cart. coord. in units of alat)
               a(1) = (   4.884389   0.000000   0.000000 )  
               a(2) = (  -2.442195   4.483232   0.000000 )  
               a(3) = (   0.000000   0.000000  24.096074 )  

     reciprocal axes: (cart. coord. in units 2 pi/alat)
               b(1) = (  0.204734  0.111527 -0.000000 )  
               b(2) = (  0.000000  0.223053  0.000000 )  
               b(3) = (  0.000000 -0.000000  0.041501 )  


     PseudoPot. # 1 for Cr read from file:
     ../pseudo/Cr.pbe-spn-rrkjus_psl.1.0.0.UPF
     MD5 check sum: 793d051e4f89dd1e3290b85340a92c0a
     Pseudo is Ultrasoft + core correction, Zval = 14.0
     Generated using "atomic" code by A. Dal Corso v.6.2.2
     Using radial grid of 1183 points,  6 beta functions with: 
                l(1) =   0
                l(2) =   0
                l(3) =   1
                l(4) =   1
                l(5) =   2
                l(6) =   2
     Q(r) pseudized with 0 coefficients 


     PseudoPot. # 2 for Ni read from file:
     ../pseudo/Ni.pbe-n-rrkjus_psl.1.0.0.UPF
     MD5 check sum: 9f76af1bddcd5839b31985483df98d0a
     Pseudo is Ultrasoft + core correction, Zval = 10.0
     Generated using "atomic" code by A. Dal Corso v.6.5
     Using radial grid of 1195 points,  6 beta functions with: 
                l(1) =   0
                l(2) =   0
                l(3) =   1
                l(4) =   1
                l(5) =   2
                l(6) =   2
     Q(r) pseudized with 0 coefficients 


     atomic species   valence    mass     pseudopotential
        Cr            14.00    51.99610     Cr( 1.00)
        Ni            10.00    58.69340     Ni( 1.00)

     Starting magnetic structure 
     atomic species   magnetization
        Cr           0.000
        Ni           0.500

     No symmetry found



   Cartesian axes

     site n.     atom                  positions (alat units)
         1           Cr  tau(   1) = (   0.0000000   0.0000000  10.0000000  )
         2           Cr  tau(   2) = (   2.4421947   0.0000000  10.0000000  )
         3           Ni  tau(   3) = (   1.2210974   2.2416162  10.0000000  )
         4           Ni  tau(   4) = (  -1.2210974   2.2416162  10.0000000  )
         5           Cr  tau(   5) = (   2.4421947   1.3303605  12.0480372  )
         6           Cr  tau(   6) = (   0.0000000   1.3303605  12.0480372  )
         7           Ni  tau(   7) = (  -1.2210974   3.5719767  12.0480372  )
         8           Ni  tau(   8) = (   1.2210974   3.5719767  12.0480372  )
         9           Cr  tau(   9) = (   0.0000042   2.7545499  14.0773731  )
        10           Cr  tau(  10) = (   2.4421904   2.7544870  14.0774686  )
        11           Ni  tau(  11) = (   3.6631294   0.5396188  14.0765953  )
        12           Ni  tau(  12) = (   1.2212600   0.5395655  14.0765486  )

     number of k points=    74  Fermi-Dirac smearing, width (Ry)=  0.0100
                       cart. coord. in units 2pi/alat
        k(    1) = (   0.0000000   0.0000000   0.0000000), wk =   0.0069444
        k(    2) = (   0.0000000   0.0185878   0.0000000), wk =   0.0138889
        k(    3) = (   0.0000000   0.0371756   0.0000000), wk =   0.0138889
        k(    4) = (   0.0000000   0.0557633   0.0000000), wk =   0.0138889
        k(    5) = (   0.0000000   0.0743511   0.0000000), wk =   0.0138889
        k(    6) = (   0.0000000   0.0929389   0.0000000), wk =   0.0138889
        k(    7) = (   0.0000000  -0.1115267   0.0000000), wk =   0.0069444
        k(    8) = (   0.0170612   0.0092939   0.0000000), wk =   0.0138889
        k(    9) = (   0.0170612   0.0278817   0.0000000), wk =   0.0138889
        k(   10) = (   0.0170612   0.0464695   0.0000000), wk =   0.0138889
        k(   11) = (   0.0170612   0.0650572   0.0000000), wk =   0.0138889
        k(   12) = (   0.0170612   0.0836450   0.0000000), wk =   0.0138889
        k(   13) = (   0.0170612   0.1022328   0.0000000), wk =   0.0138889
        k(   14) = (   0.0170612  -0.1022328   0.0000000), wk =   0.0138889
        k(   15) = (   0.0170612  -0.0836450   0.0000000), wk =   0.0138889
        k(   16) = (   0.0170612  -0.0650572   0.0000000), wk =   0.0138889
        k(   17) = (   0.0170612  -0.0464694   0.0000000), wk =   0.0138889
        k(   18) = (   0.0170612  -0.0278817   0.0000000), wk =   0.0138889
        k(   19) = (   0.0170612  -0.0092939   0.0000000), wk =   0.0138889
        k(   20) = (   0.0341223   0.0185878   0.0000000), wk =   0.0138889
        k(   21) = (   0.0341223   0.0371756   0.0000000), wk =   0.0138889
        k(   22) = (   0.0341223   0.0557633   0.0000000), wk =   0.0138889
        k(   23) = (   0.0341223   0.0743511   0.0000000), wk =   0.0138889
        k(   24) = (   0.0341223   0.0929389   0.0000000), wk =   0.0138889
        k(   25) = (   0.0341223   0.1115267   0.0000000), wk =   0.0138889
        k(   26) = (   0.0341223  -0.0929389   0.0000000), wk =   0.0138889
        k(   27) = (   0.0341223  -0.0743511   0.0000000), wk =   0.0138889
        k(   28) = (   0.0341223  -0.0557633   0.0000000), wk =   0.0138889
        k(   29) = (   0.0341223  -0.0371756   0.0000000), wk =   0.0138889
        k(   30) = (   0.0341223  -0.0185878   0.0000000), wk =   0.0138889
        k(   31) = (   0.0341223   0.0000000   0.0000000), wk =   0.0138889
        k(   32) = (   0.0511835   0.0278817   0.0000000), wk =   0.0138889
        k(   33) = (   0.0511835   0.0464695   0.0000000), wk =   0.0138889
        k(   34) = (   0.0511835   0.0650572   0.0000000), wk =   0.0138889
        k(   35) = (   0.0511835   0.0836450   0.0000000), wk =   0.0138889
        k(   36) = (   0.0511835   0.1022328   0.0000000), wk =   0.0138889
        k(   37) = (   0.0511835   0.1208206   0.0000000), wk =   0.0138889
        k(   38) = (   0.0511835  -0.0836450   0.0000000), wk =   0.0138889
        k(   39) = (   0.0511835  -0.0650572   0.0000000), wk =   0.0138889
        k(   40) = (   0.0511835  -0.0464694   0.0000000), wk =   0.0138889
        k(   41) = (   0.0511835  -0.0278817   0.0000000), wk =   0.0138889
        k(   42) = (   0.0511835  -0.0092939   0.0000000), wk =   0.0138889
        k(   43) = (   0.0511835   0.0092939   0.0000000), wk =   0.0138889
        k(   44) = (   0.0682446   0.0371756   0.0000000), wk =   0.0138889
        k(   45) = (   0.0682446   0.0557633   0.0000000), wk =   0.0138889
        k(   46) = (   0.0682446   0.0743511   0.0000000), wk =   0.0138889
        k(   47) = (   0.0682446   0.0929389   0.0000000), wk =   0.0138889
        k(   48) = (   0.0682446   0.1115267   0.0000000), wk =   0.0138889
        k(   49) = (   0.0682446   0.1301145   0.0000000), wk =   0.0138889
        k(   50) = (   0.0682446  -0.0743511   0.0000000), wk =   0.0138889
        k(   51) = (   0.0682446  -0.0557633   0.0000000), wk =   0.0138889
        k(   52) = (   0.0682446  -0.0371756   0.0000000), wk =   0.0138889
        k(   53) = (   0.0682446  -0.0185878   0.0000000), wk =   0.0138889
        k(   54) = (   0.0682446   0.0000000   0.0000000), wk =   0.0138889
        k(   55) = (   0.0682446   0.0185878   0.0000000), wk =   0.0138889
        k(   56) = (   0.0853058   0.0464695   0.0000000), wk =   0.0138889
        k(   57) = (   0.0853058   0.0650572   0.0000000), wk =   0.0138889
        k(   58) = (   0.0853058   0.0836450   0.0000000), wk =   0.0138889
        k(   59) = (   0.0853058   0.1022328   0.0000000), wk =   0.0138889
        k(   60) = (   0.0853058   0.1208206   0.0000000), wk =   0.0138889
        k(   61) = (   0.0853058   0.1394084   0.0000000), wk =   0.0138889
        k(   62) = (   0.0853058  -0.0650572   0.0000000), wk =   0.0138889
        k(   63) = (   0.0853058  -0.0464694   0.0000000), wk =   0.0138889
        k(   64) = (   0.0853058  -0.0278817   0.0000000), wk =   0.0138889
        k(   65) = (   0.0853058  -0.0092939   0.0000000), wk =   0.0138889
        k(   66) = (   0.0853058   0.0092939   0.0000000), wk =   0.0138889
        k(   67) = (   0.0853058   0.0278817   0.0000000), wk =   0.0138889
        k(   68) = (  -0.1023669  -0.0557634   0.0000000), wk =   0.0069444
        k(   69) = (  -0.1023669  -0.0371756   0.0000000), wk =   0.0138889
        k(   70) = (  -0.1023669  -0.0185878   0.0000000), wk =   0.0138889
        k(   71) = (  -0.1023669  -0.0000000   0.0000000), wk =   0.0138889
        k(   72) = (  -0.1023669   0.0185878   0.0000000), wk =   0.0138889
        k(   73) = (  -0.1023669   0.0371756   0.0000000), wk =   0.0138889
        k(   74) = (  -0.1023669  -0.1672900   0.0000000), wk =   0.0069444

     Dense  grid:   778089 G-vectors     FFT dimensions: (  72,  75, 360)

     Smooth grid:   196699 G-vectors     FFT dimensions: (  45,  45, 216)

     Estimated max dynamical RAM per process >     225.17 MB

     Estimated total dynamical RAM >       8.14 GB
     Generating pointlists ...
     new r_m :   1.0074 (alat units)  1.9037 (a.u.) for type    1
     new r_m :   1.0073 (alat units)  1.9035 (a.u.) for type    2

     Initial potential from superposition of free atoms

     starting charge  143.99388, renormalised to  144.00000


     %%%%%%%%%%%%%%%%%%%%%%%%%%%%%%%%%%%%%%%%%%%%%%%%%%%%%%%%%%%%%%%%%%%%%%%%
     %                                                                      %
     % You are using vdW-DF, which was implemented by the Thonhauser group. %
     % Please cite the following two papers that made this development      %
     % possible and the two reviews that describe the various versions:     %
     %                                                                      %
     %   T. Thonhauser et al., PRL 115, 136402 (2015).                      %
     %   T. Thonhauser et al., PRB 76, 125112 (2007).                       %
     %   K. Berland et al., Rep. Prog. Phys. 78, 066501 (2015).             %
     %   D.C. Langreth et al., J. Phys.: Condens. Matter 21, 084203 (2009). %
     %                                                                      %
     %                                                                      %
     % If you are calculating the stress with vdW-DF, please also cite:     %
     %                                                                      %
     %   R. Sabatini et al., J. Phys.: Condens. Matter 24, 424209 (2012).   %
     %                                                                      %
     %%%%%%%%%%%%%%%%%%%%%%%%%%%%%%%%%%%%%%%%%%%%%%%%%%%%%%%%%%%%%%%%%%%%%%%%



     Adding external electric field

     Computed dipole along edir(3) : 
        Dipole                0.0000 Ry au,          0.0000 Debye
        Dipole field          0.0000 Ry au, 

        Potential amp.       -0.0000 Ry
        Total length         44.3966 bohr


     Adding external electric field

     Computed dipole along edir(3) : 
        Dipole                0.0000 Ry au,          0.0000 Debye
        Dipole field          0.0000 Ry au, 

        Potential amp.       -0.0000 Ry
        Total length         44.3966 bohr

     Starting wfcs are  114 randomized atomic wfcs

     total cpu time spent up to now is      237.2 secs

     Self-consistent Calculation

     iteration #  1     ecut=    55.12 Ry     beta= 0.10
     Davidson diagonalization with overlap
     ethr =  1.00E-02,  avg # of iterations =  2.0

     Adding external electric field

     Computed dipole along edir(3) : 
        Dipole               -0.0715 Ry au,         -0.1818 Debye
        Dipole field         -0.0003 Ry au, 

        Potential amp.        0.0224 Ry
        Total length         44.3966 bohr


     Adding external electric field

     Computed dipole along edir(3) : 
        Dipole               -0.0715 Ry au,         -0.1818 Debye
        Dipole field         -0.0003 Ry au, 

        Potential amp.        0.0224 Ry
        Total length         44.3966 bohr


     total cpu time spent up to now is      711.2 secs

     total energy              =   -1664.15852406 Ry
     estimated scf accuracy    <       6.61558590 Ry

     total magnetization       =     9.55 Bohr mag/cell
     absolute magnetization    =     9.58 Bohr mag/cell

     iteration #  2     ecut=    55.12 Ry     beta= 0.10
     Davidson diagonalization with overlap
     ethr =  4.59E-03,  avg # of iterations =  2.2

     Adding external electric field

     Computed dipole along edir(3) : 
        Dipole                0.1248 Ry au,          0.3173 Debye
        Dipole field          0.0004 Ry au, 

        Potential amp.       -0.0391 Ry
        Total length         44.3966 bohr


     Adding external electric field

     Computed dipole along edir(3) : 
        Dipole                0.1248 Ry au,          0.3173 Debye
        Dipole field          0.0004 Ry au, 

        Potential amp.       -0.0391 Ry
        Total length         44.3966 bohr


     total cpu time spent up to now is     1023.8 secs

     total energy              =   -1664.60297516 Ry
     estimated scf accuracy    <      15.88993694 Ry

     total magnetization       =     8.28 Bohr mag/cell
     absolute magnetization    =     8.84 Bohr mag/cell

     iteration #  3     ecut=    55.12 Ry     beta= 0.10
     Davidson diagonalization with overlap
     ethr =  4.59E-03,  avg # of iterations =  1.1

     Adding external electric field

     Computed dipole along edir(3) : 
        Dipole               -0.1557 Ry au,         -0.3958 Debye
        Dipole field         -0.0005 Ry au, 

        Potential amp.        0.0488 Ry
        Total length         44.3966 bohr


     Adding external electric field

     Computed dipole along edir(3) : 
        Dipole               -0.1557 Ry au,         -0.3958 Debye
        Dipole field         -0.0005 Ry au, 

        Potential amp.        0.0488 Ry
        Total length         44.3966 bohr


     total cpu time spent up to now is     1235.7 secs

     total energy              =   -1665.36814235 Ry
     estimated scf accuracy    <       5.89252877 Ry

     total magnetization       =     7.69 Bohr mag/cell
     absolute magnetization    =     7.74 Bohr mag/cell

     iteration #  4     ecut=    55.12 Ry     beta= 0.10
     Davidson diagonalization with overlap
     ethr =  4.09E-03,  avg # of iterations =  1.0

     Adding external electric field

     Computed dipole along edir(3) : 
        Dipole                0.0374 Ry au,          0.0951 Debye
        Dipole field          0.0001 Ry au, 

        Potential amp.       -0.0117 Ry
        Total length         44.3966 bohr


     Adding external electric field

     Computed dipole along edir(3) : 
        Dipole                0.0374 Ry au,          0.0951 Debye
        Dipole field          0.0001 Ry au, 

        Potential amp.       -0.0117 Ry
        Total length         44.3966 bohr


     total cpu time spent up to now is     1434.6 secs

     total energy              =   -1665.49317696 Ry
     estimated scf accuracy    <       7.58557938 Ry

     total magnetization       =     7.84 Bohr mag/cell
     absolute magnetization    =     7.91 Bohr mag/cell

     iteration #  5     ecut=    55.12 Ry     beta= 0.10
     Davidson diagonalization with overlap
     ethr =  4.09E-03,  avg # of iterations =  1.0

     Adding external electric field

     Computed dipole along edir(3) : 
        Dipole                0.0117 Ry au,          0.0298 Debye
        Dipole field          0.0000 Ry au, 

        Potential amp.       -0.0037 Ry
        Total length         44.3966 bohr


     Adding external electric field

     Computed dipole along edir(3) : 
        Dipole                0.0117 Ry au,          0.0298 Debye
        Dipole field          0.0000 Ry au, 

        Potential amp.       -0.0037 Ry
        Total length         44.3966 bohr


     total cpu time spent up to now is     1636.2 secs

     total energy              =   -1665.13683530 Ry
     estimated scf accuracy    <       1.50260646 Ry

     total magnetization       =     8.68 Bohr mag/cell
     absolute magnetization    =     8.76 Bohr mag/cell

     iteration #  6     ecut=    55.12 Ry     beta= 0.10
     Davidson diagonalization with overlap
     ethr =  1.04E-03,  avg # of iterations =  1.8

     Adding external electric field

     Computed dipole along edir(3) : 
        Dipole                0.0190 Ry au,          0.0482 Debye
        Dipole field          0.0001 Ry au, 

        Potential amp.       -0.0059 Ry
        Total length         44.3966 bohr


     Adding external electric field

     Computed dipole along edir(3) : 
        Dipole                0.0190 Ry au,          0.0482 Debye
        Dipole field          0.0001 Ry au, 

        Potential amp.       -0.0059 Ry
        Total length         44.3966 bohr


     total cpu time spent up to now is     1860.1 secs

     total energy              =   -1665.28956521 Ry
     estimated scf accuracy    <       0.89666543 Ry

     total magnetization       =     7.31 Bohr mag/cell
     absolute magnetization    =     7.48 Bohr mag/cell

     iteration #  7     ecut=    55.12 Ry     beta= 0.10
     Davidson diagonalization with overlap
     ethr =  6.23E-04,  avg # of iterations =  1.4

     Adding external electric field

     Computed dipole along edir(3) : 
        Dipole                0.0186 Ry au,          0.0474 Debye
        Dipole field          0.0001 Ry au, 

        Potential amp.       -0.0058 Ry
        Total length         44.3966 bohr


     Adding external electric field

     Computed dipole along edir(3) : 
        Dipole                0.0186 Ry au,          0.0474 Debye
        Dipole field          0.0001 Ry au, 

        Potential amp.       -0.0058 Ry
        Total length         44.3966 bohr


     total cpu time spent up to now is     2098.5 secs

     total energy              =   -1665.95336608 Ry
     estimated scf accuracy    <       0.70556508 Ry

     total magnetization       =     6.79 Bohr mag/cell
     absolute magnetization    =     7.02 Bohr mag/cell

     iteration #  8     ecut=    55.12 Ry     beta= 0.10
     Davidson diagonalization with overlap
     ethr =  4.90E-04,  avg # of iterations =  1.5

     Adding external electric field

     Computed dipole along edir(3) : 
        Dipole                0.0274 Ry au,          0.0697 Debye
        Dipole field          0.0001 Ry au, 

        Potential amp.       -0.0086 Ry
        Total length         44.3966 bohr


     Adding external electric field

     Computed dipole along edir(3) : 
        Dipole                0.0274 Ry au,          0.0697 Debye
        Dipole field          0.0001 Ry au, 

        Potential amp.       -0.0086 Ry
        Total length         44.3966 bohr


     total cpu time spent up to now is     2310.1 secs

     total energy              =   -1667.36073384 Ry
     estimated scf accuracy    <       0.48023555 Ry

     total magnetization       =     5.84 Bohr mag/cell
     absolute magnetization    =     6.16 Bohr mag/cell

     iteration #  9     ecut=    55.12 Ry     beta= 0.10
     Davidson diagonalization with overlap
     ethr =  3.33E-04,  avg # of iterations =  4.1

     Adding external electric field

     Computed dipole along edir(3) : 
        Dipole                0.0281 Ry au,          0.0714 Debye
        Dipole field          0.0001 Ry au, 

        Potential amp.       -0.0088 Ry
        Total length         44.3966 bohr


     Adding external electric field

     Computed dipole along edir(3) : 
        Dipole                0.0281 Ry au,          0.0714 Debye
        Dipole field          0.0001 Ry au, 

        Potential amp.       -0.0088 Ry
        Total length         44.3966 bohr


     total cpu time spent up to now is     2592.8 secs

     total energy              =   -1667.48595429 Ry
     estimated scf accuracy    <       0.42670867 Ry

     total magnetization       =     3.67 Bohr mag/cell
     absolute magnetization    =     4.45 Bohr mag/cell

     iteration # 10     ecut=    55.12 Ry     beta= 0.10
     Davidson diagonalization with overlap
     ethr =  2.96E-04,  avg # of iterations =  1.1

     Adding external electric field

     Computed dipole along edir(3) : 
        Dipole                0.0279 Ry au,          0.0709 Debye
        Dipole field          0.0001 Ry au, 

        Potential amp.       -0.0087 Ry
        Total length         44.3966 bohr


     Adding external electric field

     Computed dipole along edir(3) : 
        Dipole                0.0279 Ry au,          0.0709 Debye
        Dipole field          0.0001 Ry au, 

        Potential amp.       -0.0087 Ry
        Total length         44.3966 bohr


     total cpu time spent up to now is     2788.6 secs

     total energy              =   -1667.51508521 Ry
     estimated scf accuracy    <       0.35636943 Ry

     total magnetization       =     3.35 Bohr mag/cell
     absolute magnetization    =     4.12 Bohr mag/cell

     iteration # 11     ecut=    55.12 Ry     beta= 0.10
     Davidson diagonalization with overlap
     ethr =  2.47E-04,  avg # of iterations =  1.2

     Adding external electric field

     Computed dipole along edir(3) : 
        Dipole                0.0220 Ry au,          0.0560 Debye
        Dipole field          0.0001 Ry au, 

        Potential amp.       -0.0069 Ry
        Total length         44.3966 bohr


     Adding external electric field

     Computed dipole along edir(3) : 
        Dipole                0.0220 Ry au,          0.0560 Debye
        Dipole field          0.0001 Ry au, 

        Potential amp.       -0.0069 Ry
        Total length         44.3966 bohr


     total cpu time spent up to now is     2943.3 secs

     total energy              =   -1667.46999933 Ry
     estimated scf accuracy    <       0.22673209 Ry

     total magnetization       =     2.77 Bohr mag/cell
     absolute magnetization    =     3.54 Bohr mag/cell

     iteration # 12     ecut=    55.12 Ry     beta= 0.10
     Davidson diagonalization with overlap
     ethr =  1.57E-04,  avg # of iterations =  1.2

     Adding external electric field

     Computed dipole along edir(3) : 
        Dipole                0.0050 Ry au,          0.0127 Debye
        Dipole field          0.0000 Ry au, 

        Potential amp.       -0.0016 Ry
        Total length         44.3966 bohr


     Adding external electric field

     Computed dipole along edir(3) : 
        Dipole                0.0050 Ry au,          0.0127 Debye
        Dipole field          0.0000 Ry au, 

        Potential amp.       -0.0016 Ry
        Total length         44.3966 bohr


     total cpu time spent up to now is     3069.9 secs

     total energy              =   -1667.33261862 Ry
     estimated scf accuracy    <       0.14138093 Ry

     total magnetization       =     2.44 Bohr mag/cell
     absolute magnetization    =     3.20 Bohr mag/cell

     iteration # 13     ecut=    55.12 Ry     beta= 0.10
     Davidson diagonalization with overlap
     c_bands:  3 eigenvalues not converged
     ethr =  9.82E-05,  avg # of iterations =  2.1

     Adding external electric field

     Computed dipole along edir(3) : 
        Dipole                0.0068 Ry au,          0.0173 Debye
        Dipole field          0.0000 Ry au, 

        Potential amp.       -0.0021 Ry
        Total length         44.3966 bohr


     Adding external electric field

     Computed dipole along edir(3) : 
        Dipole                0.0068 Ry au,          0.0173 Debye
        Dipole field          0.0000 Ry au, 

        Potential amp.       -0.0021 Ry
        Total length         44.3966 bohr


     total cpu time spent up to now is     3221.9 secs

     total energy              =   -1667.10840915 Ry
     estimated scf accuracy    <       0.03270724 Ry

     total magnetization       =     1.84 Bohr mag/cell
     absolute magnetization    =     2.57 Bohr mag/cell

     iteration # 14     ecut=    55.12 Ry     beta= 0.10
     Davidson diagonalization with overlap
     ethr =  2.27E-05,  avg # of iterations =  9.1

     Adding external electric field

     Computed dipole along edir(3) : 
        Dipole                0.0103 Ry au,          0.0261 Debye
        Dipole field          0.0000 Ry au, 

        Potential amp.       -0.0032 Ry
        Total length         44.3966 bohr


     Adding external electric field

     Computed dipole along edir(3) : 
        Dipole                0.0103 Ry au,          0.0261 Debye
        Dipole field          0.0000 Ry au, 

        Potential amp.       -0.0032 Ry
        Total length         44.3966 bohr


     total cpu time spent up to now is     3669.6 secs

     total energy              =   -1666.96338466 Ry
     estimated scf accuracy    <       0.02081721 Ry

     total magnetization       =     1.75 Bohr mag/cell
     absolute magnetization    =     2.42 Bohr mag/cell

     iteration # 15     ecut=    55.12 Ry     beta= 0.10
     Davidson diagonalization with overlap
     ethr =  1.45E-05,  avg # of iterations =  2.2

     Adding external electric field

     Computed dipole along edir(3) : 
        Dipole                0.0091 Ry au,          0.0231 Debye
        Dipole field          0.0000 Ry au, 

        Potential amp.       -0.0029 Ry
        Total length         44.3966 bohr


     Adding external electric field

     Computed dipole along edir(3) : 
        Dipole                0.0091 Ry au,          0.0231 Debye
        Dipole field          0.0000 Ry au, 

        Potential amp.       -0.0029 Ry
        Total length         44.3966 bohr


     total cpu time spent up to now is     3887.8 secs

     total energy              =   -1666.73330208 Ry
     estimated scf accuracy    <       0.01566549 Ry

     total magnetization       =     1.80 Bohr mag/cell
     absolute magnetization    =     2.42 Bohr mag/cell

     iteration # 16     ecut=    55.12 Ry     beta= 0.10
     Davidson diagonalization with overlap
     ethr =  1.09E-05,  avg # of iterations =  3.8

     Adding external electric field

     Computed dipole along edir(3) : 
        Dipole                0.0117 Ry au,          0.0298 Debye
        Dipole field          0.0000 Ry au, 

        Potential amp.       -0.0037 Ry
        Total length         44.3966 bohr


     Adding external electric field

     Computed dipole along edir(3) : 
        Dipole                0.0117 Ry au,          0.0298 Debye
        Dipole field          0.0000 Ry au, 

        Potential amp.       -0.0037 Ry
        Total length         44.3966 bohr


     total cpu time spent up to now is     4144.5 secs

     total energy              =   -1666.68122840 Ry
     estimated scf accuracy    <       0.01965607 Ry

     total magnetization       =     1.34 Bohr mag/cell
     absolute magnetization    =     1.88 Bohr mag/cell

     iteration # 17     ecut=    55.12 Ry     beta= 0.10
     Davidson diagonalization with overlap
     ethr =  1.09E-05,  avg # of iterations =  1.2

     Adding external electric field

     Computed dipole along edir(3) : 
        Dipole                0.0057 Ry au,          0.0144 Debye
        Dipole field          0.0000 Ry au, 

        Potential amp.       -0.0018 Ry
        Total length         44.3966 bohr


     Adding external electric field

     Computed dipole along edir(3) : 
        Dipole                0.0057 Ry au,          0.0144 Debye
        Dipole field          0.0000 Ry au, 

        Potential amp.       -0.0018 Ry
        Total length         44.3966 bohr


     total cpu time spent up to now is     4368.6 secs

     total energy              =   -1666.65867240 Ry
     estimated scf accuracy    <       0.01336364 Ry

     total magnetization       =     1.18 Bohr mag/cell
     absolute magnetization    =     1.71 Bohr mag/cell

     iteration # 18     ecut=    55.12 Ry     beta= 0.10
     Davidson diagonalization with overlap
     ethr =  9.28E-06,  avg # of iterations =  1.3

     Adding external electric field

     Computed dipole along edir(3) : 
        Dipole                0.0059 Ry au,          0.0151 Debye
        Dipole field          0.0000 Ry au, 

        Potential amp.       -0.0019 Ry
        Total length         44.3966 bohr


     Adding external electric field

     Computed dipole along edir(3) : 
        Dipole                0.0059 Ry au,          0.0151 Debye
        Dipole field          0.0000 Ry au, 

        Potential amp.       -0.0019 Ry
        Total length         44.3966 bohr


     total cpu time spent up to now is     4787.2 secs

     total energy              =   -1666.57122940 Ry
     estimated scf accuracy    <       0.00408010 Ry

     total magnetization       =     1.09 Bohr mag/cell
     absolute magnetization    =     1.61 Bohr mag/cell

     iteration # 19     ecut=    55.12 Ry     beta= 0.10
     Davidson diagonalization with overlap
     c_bands:  1 eigenvalues not converged
     c_bands:  1 eigenvalues not converged
     c_bands:  2 eigenvalues not converged
     ethr =  2.83E-06,  avg # of iterations =  5.9

     Adding external electric field

     Computed dipole along edir(3) : 
        Dipole                0.0066 Ry au,          0.0168 Debye
        Dipole field          0.0000 Ry au, 

        Potential amp.       -0.0021 Ry
        Total length         44.3966 bohr


     Adding external electric field

     Computed dipole along edir(3) : 
        Dipole                0.0066 Ry au,          0.0168 Debye
        Dipole field          0.0000 Ry au, 

        Potential amp.       -0.0021 Ry
        Total length         44.3966 bohr


     total cpu time spent up to now is     5053.8 secs

     total energy              =   -1666.41972363 Ry
     estimated scf accuracy    <       0.00209956 Ry

     total magnetization       =     1.05 Bohr mag/cell
     absolute magnetization    =     1.55 Bohr mag/cell

     iteration # 20     ecut=    55.12 Ry     beta= 0.10
     Davidson diagonalization with overlap
     ethr =  1.46E-06,  avg # of iterations =  2.1

     Adding external electric field

     Computed dipole along edir(3) : 
        Dipole                0.0064 Ry au,          0.0162 Debye
        Dipole field          0.0000 Ry au, 

        Potential amp.       -0.0020 Ry
        Total length         44.3966 bohr


     Adding external electric field

     Computed dipole along edir(3) : 
        Dipole                0.0064 Ry au,          0.0162 Debye
        Dipole field          0.0000 Ry au, 

        Potential amp.       -0.0020 Ry
        Total length         44.3966 bohr


     total cpu time spent up to now is     5280.1 secs

     total energy              =   -1666.34634555 Ry
     estimated scf accuracy    <       0.00110254 Ry

     total magnetization       =     1.16 Bohr mag/cell
     absolute magnetization    =     1.62 Bohr mag/cell

     iteration # 21     ecut=    55.12 Ry     beta= 0.10
     Davidson diagonalization with overlap
     c_bands:  1 eigenvalues not converged
     ethr =  7.66E-07,  avg # of iterations =  3.1

     Adding external electric field

     Computed dipole along edir(3) : 
        Dipole                0.0064 Ry au,          0.0162 Debye
        Dipole field          0.0000 Ry au, 

        Potential amp.       -0.0020 Ry
        Total length         44.3966 bohr


     Adding external electric field

     Computed dipole along edir(3) : 
        Dipole                0.0064 Ry au,          0.0162 Debye
        Dipole field          0.0000 Ry au, 

        Potential amp.       -0.0020 Ry
        Total length         44.3966 bohr


     total cpu time spent up to now is     5503.5 secs

     total energy              =   -1666.14258181 Ry
     estimated scf accuracy    <       0.00080296 Ry

     total magnetization       =     1.12 Bohr mag/cell
     absolute magnetization    =     1.56 Bohr mag/cell

     iteration # 22     ecut=    55.12 Ry     beta= 0.10
     Davidson diagonalization with overlap
     ethr =  5.58E-07,  avg # of iterations =  3.7

     Adding external electric field

     Computed dipole along edir(3) : 
        Dipole                0.0061 Ry au,          0.0155 Debye
        Dipole field          0.0000 Ry au, 

        Potential amp.       -0.0019 Ry
        Total length         44.3966 bohr


     Adding external electric field

     Computed dipole along edir(3) : 
        Dipole                0.0061 Ry au,          0.0155 Debye
        Dipole field          0.0000 Ry au, 

        Potential amp.       -0.0019 Ry
        Total length         44.3966 bohr


     total cpu time spent up to now is     5747.8 secs

     total energy              =   -1666.14641612 Ry
     estimated scf accuracy    <       0.00075232 Ry

     total magnetization       =     1.13 Bohr mag/cell
     absolute magnetization    =     1.54 Bohr mag/cell

     iteration # 23     ecut=    55.12 Ry     beta= 0.10
     Davidson diagonalization with overlap
     ethr =  5.22E-07,  avg # of iterations =  5.9

     Adding external electric field

     Computed dipole along edir(3) : 
        Dipole                0.0060 Ry au,          0.0152 Debye
        Dipole field          0.0000 Ry au, 

        Potential amp.       -0.0019 Ry
        Total length         44.3966 bohr


     Adding external electric field

     Computed dipole along edir(3) : 
        Dipole                0.0060 Ry au,          0.0152 Debye
        Dipole field          0.0000 Ry au, 

        Potential amp.       -0.0019 Ry
        Total length         44.3966 bohr


     total cpu time spent up to now is     6072.5 secs

     total energy              =   -1666.07034185 Ry
     estimated scf accuracy    <       0.00051173 Ry

     total magnetization       =     1.17 Bohr mag/cell
     absolute magnetization    =     1.55 Bohr mag/cell

     iteration # 24     ecut=    55.12 Ry     beta= 0.10
     Davidson diagonalization with overlap
     ethr =  3.55E-07,  avg # of iterations =  1.8

     Adding external electric field

     Computed dipole along edir(3) : 
        Dipole                0.0062 Ry au,          0.0157 Debye
        Dipole field          0.0000 Ry au, 

        Potential amp.       -0.0019 Ry
        Total length         44.3966 bohr


     Adding external electric field

     Computed dipole along edir(3) : 
        Dipole                0.0062 Ry au,          0.0157 Debye
        Dipole field          0.0000 Ry au, 

        Potential amp.       -0.0019 Ry
        Total length         44.3966 bohr


     total cpu time spent up to now is     6236.0 secs

     total energy              =   -1665.99844674 Ry
     estimated scf accuracy    <       0.00041122 Ry

     total magnetization       =     1.18 Bohr mag/cell
     absolute magnetization    =     1.56 Bohr mag/cell

     iteration # 25     ecut=    55.12 Ry     beta= 0.10
     Davidson diagonalization with overlap
     ethr =  2.86E-07,  avg # of iterations =  1.3

     Adding external electric field

     Computed dipole along edir(3) : 
        Dipole                0.0063 Ry au,          0.0161 Debye
        Dipole field          0.0000 Ry au, 

        Potential amp.       -0.0020 Ry
        Total length         44.3966 bohr


     Adding external electric field

     Computed dipole along edir(3) : 
        Dipole                0.0063 Ry au,          0.0161 Debye
        Dipole field          0.0000 Ry au, 

        Potential amp.       -0.0020 Ry
        Total length         44.3966 bohr


     total cpu time spent up to now is     6449.3 secs

     total energy              =   -1665.92632416 Ry
     estimated scf accuracy    <       0.00040795 Ry

     total magnetization       =     1.20 Bohr mag/cell
     absolute magnetization    =     1.58 Bohr mag/cell

     iteration # 26     ecut=    55.12 Ry     beta= 0.10
     Davidson diagonalization with overlap
     ethr =  2.83E-07,  avg # of iterations =  1.3

     Adding external electric field

     Computed dipole along edir(3) : 
        Dipole                0.0063 Ry au,          0.0159 Debye
        Dipole field          0.0000 Ry au, 

        Potential amp.       -0.0020 Ry
        Total length         44.3966 bohr


     Adding external electric field

     Computed dipole along edir(3) : 
        Dipole                0.0063 Ry au,          0.0159 Debye
        Dipole field          0.0000 Ry au, 

        Potential amp.       -0.0020 Ry
        Total length         44.3966 bohr


     total cpu time spent up to now is     6626.9 secs

     total energy              =   -1665.83705502 Ry
     estimated scf accuracy    <       0.00041487 Ry

     total magnetization       =     1.22 Bohr mag/cell
     absolute magnetization    =     1.61 Bohr mag/cell

     iteration # 27     ecut=    55.12 Ry     beta= 0.10
     Davidson diagonalization with overlap
     ethr =  2.83E-07,  avg # of iterations =  1.1

     Adding external electric field

     Computed dipole along edir(3) : 
        Dipole                0.0062 Ry au,          0.0158 Debye
        Dipole field          0.0000 Ry au, 

        Potential amp.       -0.0019 Ry
        Total length         44.3966 bohr


     Adding external electric field

     Computed dipole along edir(3) : 
        Dipole                0.0062 Ry au,          0.0158 Debye
        Dipole field          0.0000 Ry au, 

        Potential amp.       -0.0019 Ry
        Total length         44.3966 bohr


     total cpu time spent up to now is     6860.2 secs

     total energy              =   -1665.79560547 Ry
     estimated scf accuracy    <       0.00042634 Ry

     total magnetization       =     1.20 Bohr mag/cell
     absolute magnetization    =     1.59 Bohr mag/cell

     iteration # 28     ecut=    55.12 Ry     beta= 0.10
     Davidson diagonalization with overlap
     ethr =  2.83E-07,  avg # of iterations =  1.4

     Adding external electric field

     Computed dipole along edir(3) : 
        Dipole                0.0061 Ry au,          0.0155 Debye
        Dipole field          0.0000 Ry au, 

        Potential amp.       -0.0019 Ry
        Total length         44.3966 bohr


     Adding external electric field

     Computed dipole along edir(3) : 
        Dipole                0.0061 Ry au,          0.0155 Debye
        Dipole field          0.0000 Ry au, 

        Potential amp.       -0.0019 Ry
        Total length         44.3966 bohr


     total cpu time spent up to now is     7061.1 secs

     total energy              =   -1665.75585195 Ry
     estimated scf accuracy    <       0.00044950 Ry

     total magnetization       =     1.22 Bohr mag/cell
     absolute magnetization    =     1.62 Bohr mag/cell

     iteration # 29     ecut=    55.12 Ry     beta= 0.10
     Davidson diagonalization with overlap
     ethr =  2.83E-07,  avg # of iterations =  1.0

     Adding external electric field

     Computed dipole along edir(3) : 
        Dipole                0.0054 Ry au,          0.0138 Debye
        Dipole field          0.0000 Ry au, 

        Potential amp.       -0.0017 Ry
        Total length         44.3966 bohr


     Adding external electric field

     Computed dipole along edir(3) : 
        Dipole                0.0054 Ry au,          0.0138 Debye
        Dipole field          0.0000 Ry au, 

        Potential amp.       -0.0017 Ry
        Total length         44.3966 bohr


     total cpu time spent up to now is     7252.5 secs

     total energy              =   -1665.72404173 Ry
     estimated scf accuracy    <       0.00045714 Ry

     total magnetization       =     1.23 Bohr mag/cell
     absolute magnetization    =     1.63 Bohr mag/cell

     iteration # 30     ecut=    55.12 Ry     beta= 0.10
     Davidson diagonalization with overlap
     ethr =  2.83E-07,  avg # of iterations =  1.4

     Adding external electric field

     Computed dipole along edir(3) : 
        Dipole                0.0067 Ry au,          0.0169 Debye
        Dipole field          0.0000 Ry au, 

        Potential amp.       -0.0021 Ry
        Total length         44.3966 bohr


     Adding external electric field

     Computed dipole along edir(3) : 
        Dipole                0.0067 Ry au,          0.0169 Debye
        Dipole field          0.0000 Ry au, 

        Potential amp.       -0.0021 Ry
        Total length         44.3966 bohr


     total cpu time spent up to now is     7456.9 secs

     total energy              =   -1665.78822106 Ry
     estimated scf accuracy    <       0.00065406 Ry

     total magnetization       =     1.23 Bohr mag/cell
     absolute magnetization    =     1.63 Bohr mag/cell

     iteration # 31     ecut=    55.12 Ry     beta= 0.10
     Davidson diagonalization with overlap
     ethr =  2.83E-07,  avg # of iterations =  1.3

     Adding external electric field

     Computed dipole along edir(3) : 
        Dipole                0.0061 Ry au,          0.0154 Debye
        Dipole field          0.0000 Ry au, 

        Potential amp.       -0.0019 Ry
        Total length         44.3966 bohr


     Adding external electric field

     Computed dipole along edir(3) : 
        Dipole                0.0061 Ry au,          0.0154 Debye
        Dipole field          0.0000 Ry au, 

        Potential amp.       -0.0019 Ry
        Total length         44.3966 bohr


     total cpu time spent up to now is     7657.9 secs

     total energy              =   -1665.96901754 Ry
     estimated scf accuracy    <       0.00047501 Ry

     total magnetization       =     1.17 Bohr mag/cell
     absolute magnetization    =     1.52 Bohr mag/cell

     iteration # 32     ecut=    55.12 Ry     beta= 0.10
     Davidson diagonalization with overlap
     ethr =  2.83E-07,  avg # of iterations =  2.2

     Adding external electric field

     Computed dipole along edir(3) : 
        Dipole                0.0065 Ry au,          0.0165 Debye
        Dipole field          0.0000 Ry au, 

        Potential amp.       -0.0020 Ry
        Total length         44.3966 bohr


     Adding external electric field

     Computed dipole along edir(3) : 
        Dipole                0.0065 Ry au,          0.0165 Debye
        Dipole field          0.0000 Ry au, 

        Potential amp.       -0.0020 Ry
        Total length         44.3966 bohr


     total cpu time spent up to now is     7870.1 secs

     total energy              =   -1665.98755427 Ry
     estimated scf accuracy    <       0.00042080 Ry

     total magnetization       =     1.10 Bohr mag/cell
     absolute magnetization    =     1.41 Bohr mag/cell

     iteration # 33     ecut=    55.12 Ry     beta= 0.10
     Davidson diagonalization with overlap
     ethr =  2.83E-07,  avg # of iterations =  1.0

     Adding external electric field

     Computed dipole along edir(3) : 
        Dipole                0.0063 Ry au,          0.0161 Debye
        Dipole field          0.0000 Ry au, 

        Potential amp.       -0.0020 Ry
        Total length         44.3966 bohr


     Adding external electric field

     Computed dipole along edir(3) : 
        Dipole                0.0063 Ry au,          0.0161 Debye
        Dipole field          0.0000 Ry au, 

        Potential amp.       -0.0020 Ry
        Total length         44.3966 bohr


     total cpu time spent up to now is     8063.5 secs

     total energy              =   -1665.92703364 Ry
     estimated scf accuracy    <       0.00043066 Ry

     total magnetization       =     1.10 Bohr mag/cell
     absolute magnetization    =     1.41 Bohr mag/cell

     iteration # 34     ecut=    55.12 Ry     beta= 0.10
     Davidson diagonalization with overlap
     ethr =  2.83E-07,  avg # of iterations =  1.0

     Adding external electric field

     Computed dipole along edir(3) : 
        Dipole                0.0049 Ry au,          0.0124 Debye
        Dipole field          0.0000 Ry au, 

        Potential amp.       -0.0015 Ry
        Total length         44.3966 bohr


     Adding external electric field

     Computed dipole along edir(3) : 
        Dipole                0.0049 Ry au,          0.0124 Debye
        Dipole field          0.0000 Ry au, 

        Potential amp.       -0.0015 Ry
        Total length         44.3966 bohr


     total cpu time spent up to now is     8254.0 secs

     total energy              =   -1665.87849679 Ry
     estimated scf accuracy    <       0.00041749 Ry

     total magnetization       =     1.12 Bohr mag/cell
     absolute magnetization    =     1.44 Bohr mag/cell

     iteration # 35     ecut=    55.12 Ry     beta= 0.10
     Davidson diagonalization with overlap
     ethr =  2.83E-07,  avg # of iterations =  1.0

     Adding external electric field

     Computed dipole along edir(3) : 
        Dipole                0.0057 Ry au,          0.0144 Debye
        Dipole field          0.0000 Ry au, 

        Potential amp.       -0.0018 Ry
        Total length         44.3966 bohr


     Adding external electric field

     Computed dipole along edir(3) : 
        Dipole                0.0057 Ry au,          0.0144 Debye
        Dipole field          0.0000 Ry au, 

        Potential amp.       -0.0018 Ry
        Total length         44.3966 bohr


     total cpu time spent up to now is     8460.2 secs

     total energy              =   -1665.75165652 Ry
     estimated scf accuracy    <       0.00043165 Ry

     total magnetization       =     1.12 Bohr mag/cell
     absolute magnetization    =     1.42 Bohr mag/cell

     iteration # 36     ecut=    55.12 Ry     beta= 0.10
     Davidson diagonalization with overlap
     ethr =  2.83E-07,  avg # of iterations =  1.4

     Adding external electric field

     Computed dipole along edir(3) : 
        Dipole                0.0051 Ry au,          0.0129 Debye
        Dipole field          0.0000 Ry au, 

        Potential amp.       -0.0016 Ry
        Total length         44.3966 bohr


     Adding external electric field

     Computed dipole along edir(3) : 
        Dipole                0.0051 Ry au,          0.0129 Debye
        Dipole field          0.0000 Ry au, 

        Potential amp.       -0.0016 Ry
        Total length         44.3966 bohr


     total cpu time spent up to now is     8652.9 secs

     total energy              =   -1665.74546920 Ry
     estimated scf accuracy    <       0.00044626 Ry

     total magnetization       =     1.15 Bohr mag/cell
     absolute magnetization    =     1.46 Bohr mag/cell

     iteration # 37     ecut=    55.12 Ry     beta= 0.10
     Davidson diagonalization with overlap
     ethr =  2.83E-07,  avg # of iterations =  1.2

     Adding external electric field

     Computed dipole along edir(3) : 
        Dipole                0.0048 Ry au,          0.0123 Debye
        Dipole field          0.0000 Ry au, 

        Potential amp.       -0.0015 Ry
        Total length         44.3966 bohr


     Adding external electric field

     Computed dipole along edir(3) : 
        Dipole                0.0048 Ry au,          0.0123 Debye
        Dipole field          0.0000 Ry au, 

        Potential amp.       -0.0015 Ry
        Total length         44.3966 bohr


     total cpu time spent up to now is     8843.5 secs

     total energy              =   -1665.75333740 Ry
     estimated scf accuracy    <       0.00043879 Ry

     total magnetization       =     1.20 Bohr mag/cell
     absolute magnetization    =     1.52 Bohr mag/cell

     iteration # 38     ecut=    55.12 Ry     beta= 0.10
     Davidson diagonalization with overlap
     ethr =  2.83E-07,  avg # of iterations =  1.0

     Adding external electric field

     Computed dipole along edir(3) : 
        Dipole                0.0048 Ry au,          0.0122 Debye
        Dipole field          0.0000 Ry au, 

        Potential amp.       -0.0015 Ry
        Total length         44.3966 bohr


     Adding external electric field

     Computed dipole along edir(3) : 
        Dipole                0.0048 Ry au,          0.0122 Debye
        Dipole field          0.0000 Ry au, 

        Potential amp.       -0.0015 Ry
        Total length         44.3966 bohr


     total cpu time spent up to now is     9008.2 secs

     total energy              =   -1665.72208209 Ry
     estimated scf accuracy    <       0.00044303 Ry

     total magnetization       =     1.19 Bohr mag/cell
     absolute magnetization    =     1.50 Bohr mag/cell

     iteration # 39     ecut=    55.12 Ry     beta= 0.10
     Davidson diagonalization with overlap
     ethr =  2.83E-07,  avg # of iterations =  1.0

     Adding external electric field

     Computed dipole along edir(3) : 
        Dipole                0.0050 Ry au,          0.0128 Debye
        Dipole field          0.0000 Ry au, 

        Potential amp.       -0.0016 Ry
        Total length         44.3966 bohr


     Adding external electric field

     Computed dipole along edir(3) : 
        Dipole                0.0050 Ry au,          0.0128 Debye
        Dipole field          0.0000 Ry au, 

        Potential amp.       -0.0016 Ry
        Total length         44.3966 bohr


     total cpu time spent up to now is     9223.4 secs

     total energy              =   -1665.76164101 Ry
     estimated scf accuracy    <       0.00045117 Ry

     total magnetization       =     1.20 Bohr mag/cell
     absolute magnetization    =     1.52 Bohr mag/cell

     iteration # 40     ecut=    55.12 Ry     beta= 0.10
     Davidson diagonalization with overlap
     ethr =  2.83E-07,  avg # of iterations =  1.0

     Adding external electric field

     Computed dipole along edir(3) : 
        Dipole                0.0053 Ry au,          0.0135 Debye
        Dipole field          0.0000 Ry au, 

        Potential amp.       -0.0017 Ry
        Total length         44.3966 bohr


     Adding external electric field

     Computed dipole along edir(3) : 
        Dipole                0.0053 Ry au,          0.0135 Debye
        Dipole field          0.0000 Ry au, 

        Potential amp.       -0.0017 Ry
        Total length         44.3966 bohr


     total cpu time spent up to now is     9420.5 secs

     total energy              =   -1665.91298935 Ry
     estimated scf accuracy    <       0.00045478 Ry

     total magnetization       =     1.19 Bohr mag/cell
     absolute magnetization    =     1.49 Bohr mag/cell

     iteration # 41     ecut=    55.12 Ry     beta= 0.10
     Davidson diagonalization with overlap
     ethr =  2.83E-07,  avg # of iterations =  1.0

     Adding external electric field

     Computed dipole along edir(3) : 
        Dipole                0.0051 Ry au,          0.0129 Debye
        Dipole field          0.0000 Ry au, 

        Potential amp.       -0.0016 Ry
        Total length         44.3966 bohr


     Adding external electric field

     Computed dipole along edir(3) : 
        Dipole                0.0051 Ry au,          0.0129 Debye
        Dipole field          0.0000 Ry au, 

        Potential amp.       -0.0016 Ry
        Total length         44.3966 bohr


     total cpu time spent up to now is     9618.5 secs

     total energy              =   -1665.89528053 Ry
     estimated scf accuracy    <       0.00042984 Ry

     total magnetization       =     1.13 Bohr mag/cell
     absolute magnetization    =     1.41 Bohr mag/cell

     iteration # 42     ecut=    55.12 Ry     beta= 0.10
     Davidson diagonalization with overlap
     ethr =  2.83E-07,  avg # of iterations =  1.0

     Adding external electric field

     Computed dipole along edir(3) : 
        Dipole                0.0062 Ry au,          0.0156 Debye
        Dipole field          0.0000 Ry au, 

        Potential amp.       -0.0019 Ry
        Total length         44.3966 bohr


     Adding external electric field

     Computed dipole along edir(3) : 
        Dipole                0.0062 Ry au,          0.0156 Debye
        Dipole field          0.0000 Ry au, 

        Potential amp.       -0.0019 Ry
        Total length         44.3966 bohr


     total cpu time spent up to now is     9807.3 secs

     total energy              =   -1666.07013930 Ry
     estimated scf accuracy    <       0.00042086 Ry

     total magnetization       =     1.13 Bohr mag/cell
     absolute magnetization    =     1.41 Bohr mag/cell

     iteration # 43     ecut=    55.12 Ry     beta= 0.10
     Davidson diagonalization with overlap
     ethr =  2.83E-07,  avg # of iterations =  1.0

     Adding external electric field

     Computed dipole along edir(3) : 
        Dipole                0.0062 Ry au,          0.0157 Debye
        Dipole field          0.0000 Ry au, 

        Potential amp.       -0.0019 Ry
        Total length         44.3966 bohr


     Adding external electric field

     Computed dipole along edir(3) : 
        Dipole                0.0062 Ry au,          0.0157 Debye
        Dipole field          0.0000 Ry au, 

        Potential amp.       -0.0019 Ry
        Total length         44.3966 bohr


     total cpu time spent up to now is    10005.2 secs

     total energy              =   -1666.11541747 Ry
     estimated scf accuracy    <       0.00037745 Ry

     total magnetization       =     1.06 Bohr mag/cell
     absolute magnetization    =     1.32 Bohr mag/cell

     iteration # 44     ecut=    55.12 Ry     beta= 0.10
     Davidson diagonalization with overlap
     ethr =  2.62E-07,  avg # of iterations =  1.0

     Adding external electric field

     Computed dipole along edir(3) : 
        Dipole                0.0068 Ry au,          0.0172 Debye
        Dipole field          0.0000 Ry au, 

        Potential amp.       -0.0021 Ry
        Total length         44.3966 bohr


     Adding external electric field

     Computed dipole along edir(3) : 
        Dipole                0.0068 Ry au,          0.0172 Debye
        Dipole field          0.0000 Ry au, 

        Potential amp.       -0.0021 Ry
        Total length         44.3966 bohr


     total cpu time spent up to now is    10180.2 secs

     total energy              =   -1666.27521319 Ry
     estimated scf accuracy    <       0.00036320 Ry

     total magnetization       =     1.04 Bohr mag/cell
     absolute magnetization    =     1.29 Bohr mag/cell

     iteration # 45     ecut=    55.12 Ry     beta= 0.10
     Davidson diagonalization with overlap
     ethr =  2.52E-07,  avg # of iterations =  1.8

     Adding external electric field

     Computed dipole along edir(3) : 
        Dipole                0.0055 Ry au,          0.0139 Debye
        Dipole field          0.0000 Ry au, 

        Potential amp.       -0.0017 Ry
        Total length         44.3966 bohr


     Adding external electric field

     Computed dipole along edir(3) : 
        Dipole                0.0055 Ry au,          0.0139 Debye
        Dipole field          0.0000 Ry au, 

        Potential amp.       -0.0017 Ry
        Total length         44.3966 bohr


     total cpu time spent up to now is    10379.1 secs

     total energy              =   -1666.67520223 Ry
     estimated scf accuracy    <       0.00032446 Ry

     total magnetization       =     0.96 Bohr mag/cell
     absolute magnetization    =     1.18 Bohr mag/cell

     iteration # 46     ecut=    55.12 Ry     beta= 0.10
     Davidson diagonalization with overlap
     c_bands:  1 eigenvalues not converged
     ethr =  2.25E-07,  avg # of iterations =  7.1

     Adding external electric field

     Computed dipole along edir(3) : 
        Dipole                0.0064 Ry au,          0.0162 Debye
        Dipole field          0.0000 Ry au, 

        Potential amp.       -0.0020 Ry
        Total length         44.3966 bohr


     Adding external electric field

     Computed dipole along edir(3) : 
        Dipole                0.0064 Ry au,          0.0162 Debye
        Dipole field          0.0000 Ry au, 

        Potential amp.       -0.0020 Ry
        Total length         44.3966 bohr


     total cpu time spent up to now is    10672.8 secs

     total energy              =   -1667.08526274 Ry
     estimated scf accuracy    <       0.00025456 Ry

     total magnetization       =     0.81 Bohr mag/cell
     absolute magnetization    =     0.97 Bohr mag/cell

     iteration # 47     ecut=    55.12 Ry     beta= 0.10
     Davidson diagonalization with overlap
     ethr =  1.77E-07,  avg # of iterations =  5.7

     Adding external electric field

     Computed dipole along edir(3) : 
        Dipole                0.0067 Ry au,          0.0171 Debye
        Dipole field          0.0000 Ry au, 

        Potential amp.       -0.0021 Ry
        Total length         44.3966 bohr


     Adding external electric field

     Computed dipole along edir(3) : 
        Dipole                0.0067 Ry au,          0.0171 Debye
        Dipole field          0.0000 Ry au, 

        Potential amp.       -0.0021 Ry
        Total length         44.3966 bohr


     total cpu time spent up to now is    10916.7 secs

     total energy              =   -1667.53211389 Ry
     estimated scf accuracy    <       0.00022628 Ry

     total magnetization       =     0.66 Bohr mag/cell
     absolute magnetization    =     0.77 Bohr mag/cell

     iteration # 48     ecut=    55.12 Ry     beta= 0.10
     Davidson diagonalization with overlap
     ethr =  1.57E-07,  avg # of iterations =  6.0

     Adding external electric field

     Computed dipole along edir(3) : 
        Dipole                0.0076 Ry au,          0.0194 Debye
        Dipole field          0.0000 Ry au, 

        Potential amp.       -0.0024 Ry
        Total length         44.3966 bohr


     Adding external electric field

     Computed dipole along edir(3) : 
        Dipole                0.0076 Ry au,          0.0194 Debye
        Dipole field          0.0000 Ry au, 

        Potential amp.       -0.0024 Ry
        Total length         44.3966 bohr


     total cpu time spent up to now is    11209.5 secs

     total energy              =   -1667.66312556 Ry
     estimated scf accuracy    <       0.00017649 Ry

     total magnetization       =     0.50 Bohr mag/cell
     absolute magnetization    =     0.57 Bohr mag/cell

     iteration # 49     ecut=    55.12 Ry     beta= 0.10
     Davidson diagonalization with overlap
     ethr =  1.23E-07,  avg # of iterations =  3.2

     Adding external electric field

     Computed dipole along edir(3) : 
        Dipole                0.0074 Ry au,          0.0188 Debye
        Dipole field          0.0000 Ry au, 

        Potential amp.       -0.0023 Ry
        Total length         44.3966 bohr


     Adding external electric field

     Computed dipole along edir(3) : 
        Dipole                0.0074 Ry au,          0.0188 Debye
        Dipole field          0.0000 Ry au, 

        Potential amp.       -0.0023 Ry
        Total length         44.3966 bohr


     total cpu time spent up to now is    11427.8 secs

     total energy              =   -1667.79039255 Ry
     estimated scf accuracy    <       0.00011730 Ry

     total magnetization       =     0.47 Bohr mag/cell
     absolute magnetization    =     0.51 Bohr mag/cell

     iteration # 50     ecut=    55.12 Ry     beta= 0.10
     Davidson diagonalization with overlap
     ethr =  8.15E-08,  avg # of iterations =  4.0

     Adding external electric field

     Computed dipole along edir(3) : 
        Dipole                0.0070 Ry au,          0.0177 Debye
        Dipole field          0.0000 Ry au, 

        Potential amp.       -0.0022 Ry
        Total length         44.3966 bohr


     Adding external electric field

     Computed dipole along edir(3) : 
        Dipole                0.0070 Ry au,          0.0177 Debye
        Dipole field          0.0000 Ry au, 

        Potential amp.       -0.0022 Ry
        Total length         44.3966 bohr


     total cpu time spent up to now is    11655.3 secs

     total energy              =   -1668.14476865 Ry
     estimated scf accuracy    <       0.00008065 Ry

     total magnetization       =     0.39 Bohr mag/cell
     absolute magnetization    =     0.42 Bohr mag/cell

     iteration # 51     ecut=    55.12 Ry     beta= 0.10
     Davidson diagonalization with overlap
     ethr =  5.60E-08,  avg # of iterations =  7.2

     Adding external electric field

     Computed dipole along edir(3) : 
        Dipole                0.0057 Ry au,          0.0146 Debye
        Dipole field          0.0000 Ry au, 

        Potential amp.       -0.0018 Ry
        Total length         44.3966 bohr


     Adding external electric field

     Computed dipole along edir(3) : 
        Dipole                0.0057 Ry au,          0.0146 Debye
        Dipole field          0.0000 Ry au, 

        Potential amp.       -0.0018 Ry
        Total length         44.3966 bohr


     total cpu time spent up to now is    12008.0 secs

     total energy              =   -1668.17347266 Ry
     estimated scf accuracy    <       0.00005523 Ry

     total magnetization       =     0.23 Bohr mag/cell
     absolute magnetization    =     0.25 Bohr mag/cell

     iteration # 52     ecut=    55.12 Ry     beta= 0.10
     Davidson diagonalization with overlap
     ethr =  3.84E-08,  avg # of iterations =  2.9

     Adding external electric field

     Computed dipole along edir(3) : 
        Dipole                0.0060 Ry au,          0.0153 Debye
        Dipole field          0.0000 Ry au, 

        Potential amp.       -0.0019 Ry
        Total length         44.3966 bohr


     Adding external electric field

     Computed dipole along edir(3) : 
        Dipole                0.0060 Ry au,          0.0153 Debye
        Dipole field          0.0000 Ry au, 

        Potential amp.       -0.0019 Ry
        Total length         44.3966 bohr


     total cpu time spent up to now is    12219.2 secs

     total energy              =   -1668.01408334 Ry
     estimated scf accuracy    <       0.00004002 Ry

     total magnetization       =     0.18 Bohr mag/cell
     absolute magnetization    =     0.22 Bohr mag/cell

     iteration # 53     ecut=    55.12 Ry     beta= 0.10
     Davidson diagonalization with overlap
     ethr =  2.78E-08,  avg # of iterations =  3.8

     Adding external electric field

     Computed dipole along edir(3) : 
        Dipole                0.0057 Ry au,          0.0144 Debye
        Dipole field          0.0000 Ry au, 

        Potential amp.       -0.0018 Ry
        Total length         44.3966 bohr


     Adding external electric field

     Computed dipole along edir(3) : 
        Dipole                0.0057 Ry au,          0.0144 Debye
        Dipole field          0.0000 Ry au, 

        Potential amp.       -0.0018 Ry
        Total length         44.3966 bohr


     total cpu time spent up to now is    12411.5 secs

     total energy              =   -1667.83274319 Ry
     estimated scf accuracy    <       0.00002588 Ry

     total magnetization       =     0.13 Bohr mag/cell
     absolute magnetization    =     0.19 Bohr mag/cell

     iteration # 54     ecut=    55.12 Ry     beta= 0.10
     Davidson diagonalization with overlap
     ethr =  1.80E-08,  avg # of iterations =  3.1

     Adding external electric field

     Computed dipole along edir(3) : 
        Dipole                0.0072 Ry au,          0.0183 Debye
        Dipole field          0.0000 Ry au, 

        Potential amp.       -0.0023 Ry
        Total length         44.3966 bohr


     Adding external electric field

     Computed dipole along edir(3) : 
        Dipole                0.0072 Ry au,          0.0183 Debye
        Dipole field          0.0000 Ry au, 

        Potential amp.       -0.0023 Ry
        Total length         44.3966 bohr


     total cpu time spent up to now is    12625.0 secs

     total energy              =   -1667.63651857 Ry
     estimated scf accuracy    <       0.00003321 Ry

     total magnetization       =     0.12 Bohr mag/cell
     absolute magnetization    =     0.19 Bohr mag/cell

     iteration # 55     ecut=    55.12 Ry     beta= 0.10
     Davidson diagonalization with overlap
     ethr =  1.80E-08,  avg # of iterations =  4.2

     Adding external electric field

     Computed dipole along edir(3) : 
        Dipole                0.0069 Ry au,          0.0175 Debye
        Dipole field          0.0000 Ry au, 

        Potential amp.       -0.0022 Ry
        Total length         44.3966 bohr


     Adding external electric field

     Computed dipole along edir(3) : 
        Dipole                0.0069 Ry au,          0.0175 Debye
        Dipole field          0.0000 Ry au, 

        Potential amp.       -0.0022 Ry
        Total length         44.3966 bohr


     total cpu time spent up to now is    12866.3 secs

     total energy              =   -1667.41042581 Ry
     estimated scf accuracy    <       0.00008171 Ry

     total magnetization       =     0.10 Bohr mag/cell
     absolute magnetization    =     0.17 Bohr mag/cell

     iteration # 56     ecut=    55.12 Ry     beta= 0.10
     Davidson diagonalization with overlap
     ethr =  1.80E-08,  avg # of iterations =  1.7

     Adding external electric field

     Computed dipole along edir(3) : 
        Dipole                0.0070 Ry au,          0.0178 Debye
        Dipole field          0.0000 Ry au, 

        Potential amp.       -0.0022 Ry
        Total length         44.3966 bohr


     Adding external electric field

     Computed dipole along edir(3) : 
        Dipole                0.0070 Ry au,          0.0178 Debye
        Dipole field          0.0000 Ry au, 

        Potential amp.       -0.0022 Ry
        Total length         44.3966 bohr


     total cpu time spent up to now is    13054.1 secs

     total energy              =   -1667.26420280 Ry
     estimated scf accuracy    <       0.00001583 Ry

     total magnetization       =     0.10 Bohr mag/cell
     absolute magnetization    =     0.17 Bohr mag/cell

     iteration # 57     ecut=    55.12 Ry     beta= 0.10
     Davidson diagonalization with overlap
     ethr =  1.10E-08,  avg # of iterations =  6.7

     Adding external electric field

     Computed dipole along edir(3) : 
        Dipole                0.0053 Ry au,          0.0135 Debye
        Dipole field          0.0000 Ry au, 

        Potential amp.       -0.0017 Ry
        Total length         44.3966 bohr


     Adding external electric field

     Computed dipole along edir(3) : 
        Dipole                0.0053 Ry au,          0.0135 Debye
        Dipole field          0.0000 Ry au, 

        Potential amp.       -0.0017 Ry
        Total length         44.3966 bohr


     Magnetic moment per site:
     atom:    1    charge:   12.0643    magn:    0.0128    constr:    0.0000
     atom:    2    charge:   12.0639    magn:   -0.0140    constr:    0.0000
     atom:    3    charge:    8.6197    magn:   -0.0030    constr:    0.0000
     atom:    4    charge:    8.6198    magn:   -0.0030    constr:    0.0000
     atom:    5    charge:   12.1315    magn:    0.0280    constr:    0.0000
     atom:    6    charge:   12.1316    magn:    0.0215    constr:    0.0000
     atom:    7    charge:    8.7043    magn:    0.0045    constr:    0.0000
     atom:    8    charge:    8.7041    magn:    0.0046    constr:    0.0000
     atom:    9    charge:   12.0658    magn:    0.0127    constr:    0.0000
     atom:   10    charge:   12.0653    magn:    0.0053    constr:    0.0000
     atom:   11    charge:    8.6287    magn:   -0.0057    constr:    0.0000
     atom:   12    charge:    8.6285    magn:   -0.0056    constr:    0.0000

     total cpu time spent up to now is    13329.1 secs

     End of self-consistent calculation

     Number of k-points >= 100: set verbosity='high' to print the bands.

     the Fermi energy is     0.4166 ev

!    total energy              =   -1665.30809199 Ry
     estimated scf accuracy    <       0.00000809 Ry
     smearing contrib. (-TS)   =      -0.08836987 Ry
     internal energy E=F+TS    =   -1665.21972211 Ry

     The total energy is F=E-TS. E is the sum of the following terms:
     one-electron contribution =  -14874.27217976 Ry
     hartree contribution      =    7493.01258295 Ry
     xc contribution           =    -396.71170943 Ry
     ewald contribution        =    6112.75158403 Ry
     electric field correction =       0.00000010 Ry

     total magnetization       =     0.07 Bohr mag/cell
     absolute magnetization    =     0.15 Bohr mag/cell

     convergence has been achieved in  57 iterations

     Forces acting on atoms (cartesian axes, Ry/au):

     atom    1 type  1   force =    -0.00000719    0.00582212    0.01829402
     atom    2 type  1   force =    -0.00001534    0.00580364    0.01834192
     atom    3 type  2   force =    -0.00001255   -0.01554006   -0.00058206
     atom    4 type  2   force =     0.00001301   -0.01555819   -0.00060638
     atom    5 type  1   force =     0.00005334    0.00475337   -0.00705875
     atom    6 type  1   force =     0.00002742    0.00476234   -0.00700404
     atom    7 type  2   force =    -0.00006614    0.00511298    0.00082059
     atom    8 type  2   force =     0.00007610    0.00507961    0.00079138
     atom    9 type  1   force =    -0.00004222   -0.00299611   -0.01448436
     atom   10 type  1   force =    -0.00003559   -0.00292795   -0.01451887
     atom   11 type  2   force =     0.00005976    0.00282841    0.00298841
     atom   12 type  2   force =    -0.00005058    0.00285984    0.00301812

     Total force =     0.043505     Total SCF correction =     0.005488
     SCF correction compared to forces is large: reduce conv_thr to get better values

     Writing output data file ./Cr2Ni2/Cr2Ni2_beef.save/

     init_run     :    224.04s CPU    224.97s WALL (       1 calls)
     electrons    :  12952.06s CPU  13092.97s WALL (       1 calls)
     forces       :     85.67s CPU     86.06s WALL (       1 calls)

     Called by init_run:
     wfcinit      :    195.60s CPU    196.33s WALL (       1 calls)
     potinit      :     22.97s CPU     23.06s WALL (       1 calls)
     hinit0       :      3.54s CPU      3.55s WALL (       1 calls)

     Called by electrons:
     c_bands      :  11002.63s CPU  11117.30s WALL (      57 calls)
     sum_band     :   1787.13s CPU   1804.00s WALL (      57 calls)
     v_of_rho     :    110.95s CPU    115.35s WALL (      58 calls)
     newd         :     66.78s CPU     71.32s WALL (      58 calls)
     mix_rho      :      3.95s CPU      4.08s WALL (      57 calls)
     vdW_kernel   :     12.63s CPU     12.64s WALL (       1 calls)

     Called by c_bands:
     init_us_2    :     49.24s CPU     49.79s WALL (   17168 calls)
     cegterg      :  10838.38s CPU  10942.02s WALL (    8436 calls)

     Called by *egterg:
     cdiaghg      :    620.19s CPU    621.09s WALL (   29558 calls)
     h_psi        :   6369.34s CPU   6459.96s WALL (   29706 calls)
     s_psi        :   1522.83s CPU   1523.94s WALL (   29706 calls)
     g_psi        :      6.10s CPU      6.17s WALL (   21122 calls)

     Called by h_psi:
     h_psi:calbec :   2041.53s CPU   2050.66s WALL (   29706 calls)
     vloc_psi     :   2704.37s CPU   2784.33s WALL (   29706 calls)
     add_vuspsi   :   1605.95s CPU   1607.37s WALL (   29706 calls)

     General routines
     calbec       :   3031.13s CPU   3043.72s WALL (   38734 calls)
     fft          :     72.69s CPU     75.11s WALL (    5239 calls)
     ffts         :      0.75s CPU      0.75s WALL (     230 calls)
     fftw         :   3252.24s CPU   3338.28s WALL ( 3872044 calls)
     interpolate  :      1.67s CPU      1.72s WALL (     116 calls)

     Parallel routines
     fft_scatt_xy :    174.21s CPU    176.78s WALL ( 3877513 calls)
     fft_scatt_yz :   1569.88s CPU   1629.70s WALL ( 3877513 calls)

     PWSCF        :      3h43m CPU      3h46m WALL


   This run was terminated on:  18:32:47  26Jun2022            

=------------------------------------------------------------------------------=
   JOB DONE.
=------------------------------------------------------------------------------=
