
     Program PWSCF v.6.6 starts on 23Jun2022 at 17:10:42 

     This program is part of the open-source Quantum ESPRESSO suite
     for quantum simulation of materials; please cite
         "P. Giannozzi et al., J. Phys.:Condens. Matter 21 395502 (2009);
         "P. Giannozzi et al., J. Phys.:Condens. Matter 29 465901 (2017);
          URL http://www.quantum-espresso.org", 
     in publications or presentations arising from this work. More details at
     http://www.quantum-espresso.org/quote

     Parallel version (MPI), running on    37 processors

     MPI processes distributed on     2 nodes
     R & G space division:  proc/nbgrp/npool/nimage =      37
     Fft bands division:     nmany     =       1
     Reading input from Cr2Pd2.in
Warning: card &CELL ignored
Warning: card / ignored

     Current dimensions of program PWSCF are:
     Max number of different atomic species (ntypx) = 10
     Max number of k-points (npk) =  40000
     Max angular momentum in pseudopotentials (lmaxx) =  3
     Presently stress not available with electric field and gates

     Message from routine cell_base_init:
     DEPRECATED: use true lattice parameter, not A to a.u. conversion factor
     file Cr.pbe-spn-rrkjus_psl.1.0.0.UPF: wavefunction(s)  3P renormalized
     file Pd.pbe-n-rrkjus_psl.1.0.0.UPF: wavefunction(s)  4D renormalized

     **************************************************************************
     Initializing libbeef V0.1.2 with the BEEF-vdW functional.
     Citation: Wellendorff et al., PRB 85, 235149 (2012).
     **************************************************************************


     IMPORTANT: XC functional enforced from input :
     Exchange-correlation= BEEF-VDW
                           (   1   4  43  14   2   0   0)
     Any further DFT definition will be discarded
     Please, verify this is what you really want


     Subspace diagonalization in iterative solution of the eigenvalue problem:
     a serial algorithm will be used


     Parallelization info
     --------------------
     sticks:   dense  smooth     PW     G-vecs:    dense   smooth      PW
     Min         105      42     12                24261     6138     968
     Max         106      43     13                24290     6153     977
     Sum        3919    1581    459               898219   227321   35999



     bravais-lattice index     =            0
     lattice parameter (alat)  =       1.8897  a.u.
     unit-cell volume          =    4110.1105 (a.u.)^3
     number of atoms/cell      =           12
     number of atomic types    =            2
     number of electrons       =       144.00
     number of Kohn-Sham states=           86
     kinetic-energy cutoff     =      55.1240  Ry
     charge density cutoff     =     551.2396  Ry
     convergence threshold     =      1.0E-05
     mixing beta               =       0.1000
     number of iterations used =           10  plain     mixing
     Exchange-correlation= BEEF-VDW
                           (   1   4  43  14   2   0   0)

     celldm(1)=   1.889726  celldm(2)=   0.000000  celldm(3)=   0.000000
     celldm(4)=   0.000000  celldm(5)=   0.000000  celldm(6)=   0.000000

     crystal axes: (cart. coord. in units of alat)
               a(1) = (   5.279715   0.000000   0.000000 )  
               a(2) = (  -2.639858   4.731360   0.000000 )  
               a(3) = (   0.000000   0.000000  24.381505 )  

     reciprocal axes: (cart. coord. in units 2 pi/alat)
               b(1) = (  0.189404  0.105678 -0.000000 )  
               b(2) = (  0.000000  0.211356  0.000000 )  
               b(3) = (  0.000000 -0.000000  0.041015 )  


     PseudoPot. # 1 for Cr read from file:
     ../pseudo/Cr.pbe-spn-rrkjus_psl.1.0.0.UPF
     MD5 check sum: 793d051e4f89dd1e3290b85340a92c0a
     Pseudo is Ultrasoft + core correction, Zval = 14.0
     Generated using "atomic" code by A. Dal Corso v.6.2.2
     Using radial grid of 1183 points,  6 beta functions with: 
                l(1) =   0
                l(2) =   0
                l(3) =   1
                l(4) =   1
                l(5) =   2
                l(6) =   2
     Q(r) pseudized with 0 coefficients 


     PseudoPot. # 2 for Pd read from file:
     ../pseudo/Pd.pbe-n-rrkjus_psl.1.0.0.UPF
     MD5 check sum: d9f693bf1c5b493397a6bd6f2231cfc3
     Pseudo is Ultrasoft + core correction, Zval = 10.0
     Generated using "atomic" code by A. Dal Corso v.6.3
     Using radial grid of 1235 points,  6 beta functions with: 
                l(1) =   0
                l(2) =   0
                l(3) =   1
                l(4) =   1
                l(5) =   2
                l(6) =   2
     Q(r) pseudized with 0 coefficients 


     atomic species   valence    mass     pseudopotential
        Cr            14.00    51.99610     Cr( 1.00)
        Pd            10.00   106.42000     Pd( 1.00)

     No symmetry found



   Cartesian axes

     site n.     atom                  positions (alat units)
         1           Cr  tau(   1) = (   0.0000000   0.0000000  10.0000000  )
         2           Cr  tau(   2) = (   2.6398577   0.0000000  10.0000000  )
         3           Pd  tau(   3) = (   1.3199289   2.3656802  10.0000000  )
         4           Pd  tau(   4) = (  -1.3199289   2.3656802  10.0000000  )
         5           Cr  tau(   5) = (   2.6398577   1.4729059  12.1907526  )
         6           Cr  tau(   6) = (  -0.0000000   1.4729059  12.1907526  )
         7           Pd  tau(   7) = (  -1.3199289   3.8385861  12.1907526  )
         8           Pd  tau(   8) = (   1.3199289   3.8385861  12.1907526  )
         9           Cr  tau(   9) = (  -0.0000013   2.8470234  14.1672086  )
        10           Cr  tau(  10) = (   2.6398592   2.8467489  14.1672692  )
        11           Pd  tau(  11) = (   3.9586326   0.6201095  14.4218620  )
        12           Pd  tau(  12) = (   1.3210822   0.6201099  14.4218617  )

     number of k points=    74  Fermi-Dirac smearing, width (Ry)=  0.0100
                       cart. coord. in units 2pi/alat
        k(    1) = (   0.0000000   0.0000000   0.0000000), wk =   0.0138889
        k(    2) = (   0.0000000   0.0176130   0.0000000), wk =   0.0277778
        k(    3) = (   0.0000000   0.0352260   0.0000000), wk =   0.0277778
        k(    4) = (   0.0000000   0.0528389   0.0000000), wk =   0.0277778
        k(    5) = (   0.0000000   0.0704519   0.0000000), wk =   0.0277778
        k(    6) = (   0.0000000   0.0880649   0.0000000), wk =   0.0277778
        k(    7) = (   0.0000000  -0.1056779   0.0000000), wk =   0.0138889
        k(    8) = (   0.0157837   0.0088065   0.0000000), wk =   0.0277778
        k(    9) = (   0.0157837   0.0264195   0.0000000), wk =   0.0277778
        k(   10) = (   0.0157837   0.0440324   0.0000000), wk =   0.0277778
        k(   11) = (   0.0157837   0.0616454   0.0000000), wk =   0.0277778
        k(   12) = (   0.0157837   0.0792584   0.0000000), wk =   0.0277778
        k(   13) = (   0.0157837   0.0968714   0.0000000), wk =   0.0277778
        k(   14) = (   0.0157837  -0.0968714   0.0000000), wk =   0.0277778
        k(   15) = (   0.0157837  -0.0792584   0.0000000), wk =   0.0277778
        k(   16) = (   0.0157837  -0.0616454   0.0000000), wk =   0.0277778
        k(   17) = (   0.0157837  -0.0440324   0.0000000), wk =   0.0277778
        k(   18) = (   0.0157837  -0.0264195   0.0000000), wk =   0.0277778
        k(   19) = (   0.0157837  -0.0088065   0.0000000), wk =   0.0277778
        k(   20) = (   0.0315674   0.0176130   0.0000000), wk =   0.0277778
        k(   21) = (   0.0315674   0.0352260   0.0000000), wk =   0.0277778
        k(   22) = (   0.0315674   0.0528389   0.0000000), wk =   0.0277778
        k(   23) = (   0.0315674   0.0704519   0.0000000), wk =   0.0277778
        k(   24) = (   0.0315674   0.0880649   0.0000000), wk =   0.0277778
        k(   25) = (   0.0315674   0.1056779   0.0000000), wk =   0.0277778
        k(   26) = (   0.0315674  -0.0880649   0.0000000), wk =   0.0277778
        k(   27) = (   0.0315674  -0.0704519   0.0000000), wk =   0.0277778
        k(   28) = (   0.0315674  -0.0528389   0.0000000), wk =   0.0277778
        k(   29) = (   0.0315674  -0.0352260   0.0000000), wk =   0.0277778
        k(   30) = (   0.0315674  -0.0176130   0.0000000), wk =   0.0277778
        k(   31) = (   0.0315674   0.0000000   0.0000000), wk =   0.0277778
        k(   32) = (   0.0473510   0.0264195   0.0000000), wk =   0.0277778
        k(   33) = (   0.0473510   0.0440324   0.0000000), wk =   0.0277778
        k(   34) = (   0.0473510   0.0616454   0.0000000), wk =   0.0277778
        k(   35) = (   0.0473510   0.0792584   0.0000000), wk =   0.0277778
        k(   36) = (   0.0473510   0.0968714   0.0000000), wk =   0.0277778
        k(   37) = (   0.0473510   0.1144844   0.0000000), wk =   0.0277778
        k(   38) = (   0.0473510  -0.0792584   0.0000000), wk =   0.0277778
        k(   39) = (   0.0473510  -0.0616454   0.0000000), wk =   0.0277778
        k(   40) = (   0.0473510  -0.0440324   0.0000000), wk =   0.0277778
        k(   41) = (   0.0473510  -0.0264195   0.0000000), wk =   0.0277778
        k(   42) = (   0.0473510  -0.0088065   0.0000000), wk =   0.0277778
        k(   43) = (   0.0473510   0.0088065   0.0000000), wk =   0.0277778
        k(   44) = (   0.0631347   0.0352260   0.0000000), wk =   0.0277778
        k(   45) = (   0.0631347   0.0528389   0.0000000), wk =   0.0277778
        k(   46) = (   0.0631347   0.0704519   0.0000000), wk =   0.0277778
        k(   47) = (   0.0631347   0.0880649   0.0000000), wk =   0.0277778
        k(   48) = (   0.0631347   0.1056779   0.0000000), wk =   0.0277778
        k(   49) = (   0.0631347   0.1232908   0.0000000), wk =   0.0277778
        k(   50) = (   0.0631347  -0.0704519   0.0000000), wk =   0.0277778
        k(   51) = (   0.0631347  -0.0528389   0.0000000), wk =   0.0277778
        k(   52) = (   0.0631347  -0.0352259   0.0000000), wk =   0.0277778
        k(   53) = (   0.0631347  -0.0176130   0.0000000), wk =   0.0277778
        k(   54) = (   0.0631347   0.0000000   0.0000000), wk =   0.0277778
        k(   55) = (   0.0631347   0.0176130   0.0000000), wk =   0.0277778
        k(   56) = (   0.0789184   0.0440325   0.0000000), wk =   0.0277778
        k(   57) = (   0.0789184   0.0616454   0.0000000), wk =   0.0277778
        k(   58) = (   0.0789184   0.0792584   0.0000000), wk =   0.0277778
        k(   59) = (   0.0789184   0.0968714   0.0000000), wk =   0.0277778
        k(   60) = (   0.0789184   0.1144844   0.0000000), wk =   0.0277778
        k(   61) = (   0.0789184   0.1320973   0.0000000), wk =   0.0277778
        k(   62) = (   0.0789184  -0.0616454   0.0000000), wk =   0.0277778
        k(   63) = (   0.0789184  -0.0440324   0.0000000), wk =   0.0277778
        k(   64) = (   0.0789184  -0.0264195   0.0000000), wk =   0.0277778
        k(   65) = (   0.0789184  -0.0088065   0.0000000), wk =   0.0277778
        k(   66) = (   0.0789184   0.0088065   0.0000000), wk =   0.0277778
        k(   67) = (   0.0789184   0.0264195   0.0000000), wk =   0.0277778
        k(   68) = (  -0.0947021  -0.0528389   0.0000000), wk =   0.0138889
        k(   69) = (  -0.0947021  -0.0352260   0.0000000), wk =   0.0277778
        k(   70) = (  -0.0947021  -0.0176130   0.0000000), wk =   0.0277778
        k(   71) = (  -0.0947021  -0.0000000   0.0000000), wk =   0.0277778
        k(   72) = (  -0.0947021   0.0176130   0.0000000), wk =   0.0277778
        k(   73) = (  -0.0947021   0.0352259   0.0000000), wk =   0.0277778
        k(   74) = (  -0.0947021  -0.1585168   0.0000000), wk =   0.0138889

     Dense  grid:   898219 G-vectors     FFT dimensions: (  75,  80, 360)

     Smooth grid:   227321 G-vectors     FFT dimensions: (  48,  50, 225)

     Estimated max dynamical RAM per process >     173.14 MB

     Estimated total dynamical RAM >       6.26 GB

     Initial potential from superposition of free atoms

     starting charge  143.99193, renormalised to  144.00000

     negative rho (up, down):  3.537E-03 0.000E+00


     %%%%%%%%%%%%%%%%%%%%%%%%%%%%%%%%%%%%%%%%%%%%%%%%%%%%%%%%%%%%%%%%%%%%%%%%
     %                                                                      %
     % You are using vdW-DF, which was implemented by the Thonhauser group. %
     % Please cite the following two papers that made this development      %
     % possible and the two reviews that describe the various versions:     %
     %                                                                      %
     %   T. Thonhauser et al., PRL 115, 136402 (2015).                      %
     %   T. Thonhauser et al., PRB 76, 125112 (2007).                       %
     %   K. Berland et al., Rep. Prog. Phys. 78, 066501 (2015).             %
     %   D.C. Langreth et al., J. Phys.: Condens. Matter 21, 084203 (2009). %
     %                                                                      %
     %                                                                      %
     % If you are calculating the stress with vdW-DF, please also cite:     %
     %                                                                      %
     %   R. Sabatini et al., J. Phys.: Condens. Matter 24, 424209 (2012).   %
     %                                                                      %
     %%%%%%%%%%%%%%%%%%%%%%%%%%%%%%%%%%%%%%%%%%%%%%%%%%%%%%%%%%%%%%%%%%%%%%%%



     Adding external electric field

     Computed dipole along edir(3) : 
        Dipole                0.0000 Ry au,          0.0000 Debye
        Dipole field          0.0000 Ry au, 

        Potential amp.       -0.0000 Ry
        Total length         44.9225 bohr

     Starting wfcs are  114 randomized atomic wfcs

     total cpu time spent up to now is       57.5 secs

     Self-consistent Calculation

     iteration #  1     ecut=    55.12 Ry     beta= 0.10
     Davidson diagonalization with overlap
     ethr =  1.00E-02,  avg # of iterations =  2.0

     negative rho (up, down):  3.491E-03 0.000E+00

     Adding external electric field

     Computed dipole along edir(3) : 
        Dipole               -0.2328 Ry au,         -0.5918 Debye
        Dipole field         -0.0007 Ry au, 

        Potential amp.        0.0640 Ry
        Total length         44.9225 bohr


     total cpu time spent up to now is      148.0 secs

     total energy              =   -1463.54963546 Ry
     estimated scf accuracy    <      13.95628755 Ry

     iteration #  2     ecut=    55.12 Ry     beta= 0.10
     Davidson diagonalization with overlap
     ethr =  9.69E-03,  avg # of iterations =  2.0

     negative rho (up, down):  3.508E-03 0.000E+00

     Adding external electric field

     Computed dipole along edir(3) : 
        Dipole                1.0024 Ry au,          2.5477 Debye
        Dipole field          0.0031 Ry au, 

        Potential amp.       -0.2753 Ry
        Total length         44.9225 bohr


     total cpu time spent up to now is      233.8 secs

     total energy              =   -1464.09430161 Ry
     estimated scf accuracy    <      20.60431627 Ry

     iteration #  3     ecut=    55.12 Ry     beta= 0.10
     Davidson diagonalization with overlap
     ethr =  9.69E-03,  avg # of iterations =  2.1

     negative rho (up, down):  3.541E-03 0.000E+00

     Adding external electric field

     Computed dipole along edir(3) : 
        Dipole               -0.0461 Ry au,         -0.1172 Debye
        Dipole field         -0.0001 Ry au, 

        Potential amp.        0.0127 Ry
        Total length         44.9225 bohr


     total cpu time spent up to now is      316.6 secs

     total energy              =   -1464.47367447 Ry
     estimated scf accuracy    <      91.85862910 Ry

     iteration #  4     ecut=    55.12 Ry     beta= 0.10
     Davidson diagonalization with overlap
     ethr =  9.69E-03,  avg # of iterations =  1.2

     negative rho (up, down):  3.682E-03 0.000E+00

     Adding external electric field

     Computed dipole along edir(3) : 
        Dipole                0.0241 Ry au,          0.0614 Debye
        Dipole field          0.0001 Ry au, 

        Potential amp.       -0.0066 Ry
        Total length         44.9225 bohr


     total cpu time spent up to now is      393.2 secs

     total energy              =   -1465.33900677 Ry
     estimated scf accuracy    <       5.21321336 Ry

     iteration #  5     ecut=    55.12 Ry     beta= 0.10
     Davidson diagonalization with overlap
     ethr =  3.62E-03,  avg # of iterations =  1.1

     negative rho (up, down):  3.811E-03 0.000E+00

     Adding external electric field

     Computed dipole along edir(3) : 
        Dipole               -0.0259 Ry au,         -0.0659 Debye
        Dipole field         -0.0001 Ry au, 

        Potential amp.        0.0071 Ry
        Total length         44.9225 bohr


     total cpu time spent up to now is      468.4 secs

     total energy              =   -1465.39661569 Ry
     estimated scf accuracy    <       1.49036646 Ry

     iteration #  6     ecut=    55.12 Ry     beta= 0.10
     Davidson diagonalization with overlap
     ethr =  1.03E-03,  avg # of iterations =  1.3

     negative rho (up, down):  3.661E-03 0.000E+00

     Adding external electric field

     Computed dipole along edir(3) : 
        Dipole                0.1489 Ry au,          0.3784 Debye
        Dipole field          0.0005 Ry au, 

        Potential amp.       -0.0409 Ry
        Total length         44.9225 bohr


     total cpu time spent up to now is      546.3 secs

     total energy              =   -1465.24652509 Ry
     estimated scf accuracy    <       0.45950469 Ry

     iteration #  7     ecut=    55.12 Ry     beta= 0.10
     Davidson diagonalization with overlap
     ethr =  3.19E-04,  avg # of iterations =  5.3

     negative rho (up, down):  3.573E-03 0.000E+00

     Adding external electric field

     Computed dipole along edir(3) : 
        Dipole                0.0763 Ry au,          0.1939 Debye
        Dipole field          0.0002 Ry au, 

        Potential amp.       -0.0210 Ry
        Total length         44.9225 bohr


     total cpu time spent up to now is      665.2 secs

     total energy              =   -1465.43471333 Ry
     estimated scf accuracy    <       3.99035100 Ry

     iteration #  8     ecut=    55.12 Ry     beta= 0.10
     Davidson diagonalization with overlap
     ethr =  3.19E-04,  avg # of iterations =  1.0

     negative rho (up, down):  3.563E-03 0.000E+00

     Adding external electric field

     Computed dipole along edir(3) : 
        Dipole               -0.0131 Ry au,         -0.0333 Debye
        Dipole field         -0.0000 Ry au, 

        Potential amp.        0.0036 Ry
        Total length         44.9225 bohr


     total cpu time spent up to now is      740.6 secs

     total energy              =   -1465.27028986 Ry
     estimated scf accuracy    <       1.64622399 Ry

     iteration #  9     ecut=    55.12 Ry     beta= 0.10
     Davidson diagonalization with overlap
     ethr =  3.19E-04,  avg # of iterations =  3.0

     negative rho (up, down):  3.514E-03 0.000E+00

     Adding external electric field

     Computed dipole along edir(3) : 
        Dipole               -0.0048 Ry au,         -0.0123 Debye
        Dipole field         -0.0000 Ry au, 

        Potential amp.        0.0013 Ry
        Total length         44.9225 bohr


     total cpu time spent up to now is      831.5 secs

     total energy              =   -1465.37479705 Ry
     estimated scf accuracy    <       0.04850591 Ry

     iteration # 10     ecut=    55.12 Ry     beta= 0.10
     Davidson diagonalization with overlap
     ethr =  3.37E-05,  avg # of iterations =  8.5

     negative rho (up, down):  3.488E-03 0.000E+00

     Adding external electric field

     Computed dipole along edir(3) : 
        Dipole                0.0028 Ry au,          0.0070 Debye
        Dipole field          0.0000 Ry au, 

        Potential amp.       -0.0008 Ry
        Total length         44.9225 bohr


     total cpu time spent up to now is      960.6 secs

     total energy              =   -1465.38202204 Ry
     estimated scf accuracy    <       0.09345734 Ry

     iteration # 11     ecut=    55.12 Ry     beta= 0.10
     Davidson diagonalization with overlap
     ethr =  3.37E-05,  avg # of iterations =  1.0

     negative rho (up, down):  3.605E-03 0.000E+00

     Adding external electric field

     Computed dipole along edir(3) : 
        Dipole               -0.0072 Ry au,         -0.0183 Debye
        Dipole field         -0.0000 Ry au, 

        Potential amp.        0.0020 Ry
        Total length         44.9225 bohr


     total cpu time spent up to now is     1035.5 secs

     total energy              =   -1465.38176272 Ry
     estimated scf accuracy    <       0.09067646 Ry

     iteration # 12     ecut=    55.12 Ry     beta= 0.10
     Davidson diagonalization with overlap
     ethr =  3.37E-05,  avg # of iterations =  1.2

     negative rho (up, down):  3.669E-03 0.000E+00

     Adding external electric field

     Computed dipole along edir(3) : 
        Dipole               -0.0085 Ry au,         -0.0216 Debye
        Dipole field         -0.0000 Ry au, 

        Potential amp.        0.0023 Ry
        Total length         44.9225 bohr


     total cpu time spent up to now is     1111.8 secs

     total energy              =   -1465.37743383 Ry
     estimated scf accuracy    <       0.04675561 Ry

     iteration # 13     ecut=    55.12 Ry     beta= 0.10
     Davidson diagonalization with overlap
     ethr =  3.25E-05,  avg # of iterations =  1.5

     negative rho (up, down):  3.919E-03 0.000E+00

     Adding external electric field

     Computed dipole along edir(3) : 
        Dipole               -0.0326 Ry au,         -0.0829 Debye
        Dipole field         -0.0001 Ry au, 

        Potential amp.        0.0090 Ry
        Total length         44.9225 bohr


     total cpu time spent up to now is     1190.4 secs

     total energy              =   -1465.38065116 Ry
     estimated scf accuracy    <       0.00596361 Ry

     iteration # 14     ecut=    55.12 Ry     beta= 0.10
     Davidson diagonalization with overlap
     ethr =  4.14E-06,  avg # of iterations =  6.5

     negative rho (up, down):  3.783E-03 0.000E+00

     Adding external electric field

     Computed dipole along edir(3) : 
        Dipole               -0.0109 Ry au,         -0.0276 Debye
        Dipole field         -0.0000 Ry au, 

        Potential amp.        0.0030 Ry
        Total length         44.9225 bohr


     total cpu time spent up to now is     1295.9 secs

     total energy              =   -1465.38062004 Ry
     estimated scf accuracy    <       0.06146142 Ry

     iteration # 15     ecut=    55.12 Ry     beta= 0.10
     Davidson diagonalization with overlap
     ethr =  4.14E-06,  avg # of iterations =  1.3

     negative rho (up, down):  3.847E-03 0.000E+00

     Adding external electric field

     Computed dipole along edir(3) : 
        Dipole               -0.0114 Ry au,         -0.0289 Debye
        Dipole field         -0.0000 Ry au, 

        Potential amp.        0.0031 Ry
        Total length         44.9225 bohr


     total cpu time spent up to now is     1373.2 secs

     total energy              =   -1465.38129518 Ry
     estimated scf accuracy    <       0.00525647 Ry

     iteration # 16     ecut=    55.12 Ry     beta= 0.10
     Davidson diagonalization with overlap
     ethr =  3.65E-06,  avg # of iterations =  1.0

     negative rho (up, down):  3.835E-03 0.000E+00

     Adding external electric field

     Computed dipole along edir(3) : 
        Dipole               -0.0109 Ry au,         -0.0276 Debye
        Dipole field         -0.0000 Ry au, 

        Potential amp.        0.0030 Ry
        Total length         44.9225 bohr


     total cpu time spent up to now is     1447.6 secs

     total energy              =   -1465.38141212 Ry
     estimated scf accuracy    <       0.00124774 Ry

     iteration # 17     ecut=    55.12 Ry     beta= 0.10
     Davidson diagonalization with overlap
     ethr =  8.66E-07,  avg # of iterations =  2.4

     negative rho (up, down):  3.877E-03 0.000E+00

     Adding external electric field

     Computed dipole along edir(3) : 
        Dipole               -0.0106 Ry au,         -0.0269 Debye
        Dipole field         -0.0000 Ry au, 

        Potential amp.        0.0029 Ry
        Total length         44.9225 bohr


     total cpu time spent up to now is     1531.3 secs

     total energy              =   -1465.38141536 Ry
     estimated scf accuracy    <       0.00082131 Ry

     iteration # 18     ecut=    55.12 Ry     beta= 0.10
     Davidson diagonalization with overlap
     ethr =  5.70E-07,  avg # of iterations =  3.1

     negative rho (up, down):  3.814E-03 0.000E+00

     Adding external electric field

     Computed dipole along edir(3) : 
        Dipole               -0.0134 Ry au,         -0.0340 Debye
        Dipole field         -0.0000 Ry au, 

        Potential amp.        0.0037 Ry
        Total length         44.9225 bohr


     total cpu time spent up to now is     1621.8 secs

     total energy              =   -1465.38149400 Ry
     estimated scf accuracy    <       0.00013372 Ry

     iteration # 19     ecut=    55.12 Ry     beta= 0.10
     Davidson diagonalization with overlap
     ethr =  9.29E-08,  avg # of iterations =  7.5

     negative rho (up, down):  3.779E-03 0.000E+00

     Adding external electric field

     Computed dipole along edir(3) : 
        Dipole               -0.0166 Ry au,         -0.0422 Debye
        Dipole field         -0.0001 Ry au, 

        Potential amp.        0.0046 Ry
        Total length         44.9225 bohr


     total cpu time spent up to now is     1745.0 secs

     total energy              =   -1465.38152260 Ry
     estimated scf accuracy    <       0.00008263 Ry

     iteration # 20     ecut=    55.12 Ry     beta= 0.10
     Davidson diagonalization with overlap
     ethr =  5.74E-08,  avg # of iterations =  2.5

     negative rho (up, down):  3.715E-03 0.000E+00

     Adding external electric field

     Computed dipole along edir(3) : 
        Dipole               -0.0143 Ry au,         -0.0363 Debye
        Dipole field         -0.0000 Ry au, 

        Potential amp.        0.0039 Ry
        Total length         44.9225 bohr


     total cpu time spent up to now is     1838.0 secs

     total energy              =   -1465.38151923 Ry
     estimated scf accuracy    <       0.00023048 Ry

     iteration # 21     ecut=    55.12 Ry     beta= 0.10
     Davidson diagonalization with overlap
     ethr =  5.74E-08,  avg # of iterations =  2.9

     negative rho (up, down):  3.660E-03 0.000E+00

     Adding external electric field

     Computed dipole along edir(3) : 
        Dipole               -0.0138 Ry au,         -0.0351 Debye
        Dipole field         -0.0000 Ry au, 

        Potential amp.        0.0038 Ry
        Total length         44.9225 bohr


     total cpu time spent up to now is     1926.6 secs

     total energy              =   -1465.38152986 Ry
     estimated scf accuracy    <       0.00002517 Ry

     iteration # 22     ecut=    55.12 Ry     beta= 0.10
     Davidson diagonalization with overlap
     ethr =  1.75E-08,  avg # of iterations =  2.3

     negative rho (up, down):  3.393E-03 0.000E+00

     Adding external electric field

     Computed dipole along edir(3) : 
        Dipole               -0.0119 Ry au,         -0.0303 Debye
        Dipole field         -0.0000 Ry au, 

        Potential amp.        0.0033 Ry
        Total length         44.9225 bohr


     total cpu time spent up to now is     2009.6 secs

     End of self-consistent calculation

          k = 0.0000 0.0000 0.0000 ( 28371 PWs)   bands (ev):

   -71.3778 -71.3383 -71.2132 -71.2052 -71.1743 -71.1663 -42.7990 -42.7783
   -42.7388 -42.7066 -42.6727 -42.5826 -42.5711 -42.5498 -42.5484 -42.5371
   -42.5314 -42.5164 -42.4826 -42.4745 -42.3589 -42.3301 -42.2257 -42.2088
    -6.2971  -4.9131  -4.7773  -4.7660  -4.7071  -4.6270  -4.3284  -4.1033
    -4.0498  -4.0168  -3.9601  -3.9034  -3.8456  -3.7332  -3.2539  -3.0676
    -2.7682  -2.7301  -2.5992  -2.4575  -2.3657  -2.1651  -2.0145  -2.0139
    -1.9255  -1.7023  -1.5595  -1.3999  -1.3893  -0.9471  -0.8179  -0.6478
    -0.6064  -0.5915  -0.4721  -0.2219  -0.1344  -0.1298  -0.0863   0.1264
     0.2147   0.5019   0.5424   0.5694   0.7643   0.7967   0.8316   1.0439
     1.2304   1.2442   1.3664   1.4362   1.5056   1.5110   1.5425   1.7192
     1.7563   1.7708   1.9713   2.0117   2.0358   2.1380

          k = 0.0000 0.0176 0.0000 ( 28395 PWs)   bands (ev):

   -71.3778 -71.3383 -71.2132 -71.2052 -71.1743 -71.1663 -42.7991 -42.7784
   -42.7389 -42.7068 -42.6728 -42.5826 -42.5712 -42.5499 -42.5484 -42.5372
   -42.5314 -42.5165 -42.4826 -42.4745 -42.3589 -42.3301 -42.2257 -42.2089
    -6.2442  -4.8870  -4.7557  -4.7535  -4.6617  -4.5928  -4.3158  -4.0964
    -4.0275  -3.9885  -3.9313  -3.8837  -3.8266  -3.7107  -3.2569  -3.0350
    -2.7801  -2.7076  -2.6112  -2.4565  -2.3164  -2.2137  -2.0018  -1.9890
    -1.9116  -1.7401  -1.5629  -1.3874  -1.3703  -0.9590  -0.8237  -0.7175
    -0.6206  -0.5897  -0.4953  -0.2581  -0.1874  -0.1828  -0.1104   0.1384
     0.1482   0.3790   0.5026   0.5849   0.6801   0.8396   0.8864   0.9120
     1.0711   1.2298   1.3288   1.3818   1.3889   1.4471   1.5634   1.7239
     1.7379   1.7971   1.9346   1.9353   2.0060   2.0889

          k = 0.0000 0.0352 0.0000 ( 28379 PWs)   bands (ev):

   -71.3777 -71.3383 -71.2132 -71.2051 -71.1743 -71.1663 -42.7993 -42.7787
   -42.7390 -42.7073 -42.6728 -42.5826 -42.5715 -42.5500 -42.5484 -42.5375
   -42.5316 -42.5168 -42.4828 -42.4745 -42.3590 -42.3302 -42.2257 -42.2089
    -6.0894  -4.8165  -4.7239  -4.6827  -4.5422  -4.4946  -4.2808  -4.0737
    -3.9687  -3.9031  -3.8502  -3.8236  -3.7692  -3.6468  -3.2677  -2.9439
    -2.7867  -2.6704  -2.6231  -2.4530  -2.3212  -2.2000  -1.9709  -1.9532
    -1.8700  -1.8289  -1.5854  -1.3518  -1.3166  -0.9970  -0.9094  -0.8402
    -0.6854  -0.5844  -0.5701  -0.3510  -0.3378  -0.2806  -0.1794  -0.0326
     0.0651   0.2702   0.3761   0.4838   0.5788   0.6500   0.6924   0.8097
     0.9794   1.1756   1.2027   1.2448   1.2832   1.2930   1.5432   1.5899
     1.6662   1.6921   1.7413   1.8531   1.9098   1.9608

          k = 0.0000 0.0528 0.0000 ( 28393 PWs)   bands (ev):

   -71.3777 -71.3383 -71.2132 -71.2051 -71.1743 -71.1663 -42.7996 -42.7792
   -42.7392 -42.7081 -42.6730 -42.5825 -42.5718 -42.5502 -42.5484 -42.5378
   -42.5319 -42.5172 -42.4830 -42.4746 -42.3590 -42.3302 -42.2258 -42.2089
    -5.8456  -4.7234  -4.6792  -4.5667  -4.3853  -4.3569  -4.2322  -4.0255
    -3.8877  -3.7711  -3.7403  -3.7176  -3.6683  -3.5509  -3.2886  -2.8273
    -2.7745  -2.6363  -2.6008  -2.4580  -2.4454  -2.1047  -1.9407  -1.9330
    -1.8797  -1.8044  -1.6342  -1.3000  -1.2381  -1.2309  -1.0351  -0.8648
    -0.7977  -0.7207  -0.5758  -0.5676  -0.4818  -0.3668  -0.2817  -0.2524
    -0.1040   0.1570   0.1987   0.2184   0.3334   0.4432   0.5704   0.7402
     0.7965   0.8134   0.8371   1.1371   1.1406   1.4554   1.4743   1.5589
     1.5681   1.5961   1.6478   1.7499   1.8106   1.8144

          k = 0.0000 0.0705 0.0000 ( 28449 PWs)   bands (ev):

   -71.3776 -71.3383 -71.2131 -71.2050 -71.1743 -71.1662 -42.7999 -42.7796
   -42.7395 -42.7088 -42.6731 -42.5824 -42.5722 -42.5504 -42.5485 -42.5382
   -42.5322 -42.5176 -42.4832 -42.4747 -42.3591 -42.3303 -42.2258 -42.2090
    -5.5415  -4.6365  -4.6341  -4.4213  -4.2564  -4.2428  -4.1619  -3.9446
    -3.8073  -3.6391  -3.6185  -3.5662  -3.5275  -3.4342  -3.3179  -2.7691
    -2.7591  -2.6451  -2.5323  -2.5053  -2.4331  -2.1628  -1.9899  -1.8984
    -1.7371  -1.7296  -1.6988  -1.5620  -1.2443  -1.1523  -1.1089  -0.9533
    -0.9319  -0.8921  -0.8381  -0.6611  -0.5658  -0.4451  -0.4152  -0.4126
    -0.2193  -0.1165  -0.0404   0.0103   0.1205   0.1696   0.4194   0.4479
     0.5934   0.7488   0.7763   1.0239   1.0347   1.1596   1.3577   1.4903
     1.4939   1.5140   1.6050   1.6473   1.7653   1.8468

          k = 0.0000 0.0881 0.0000 ( 28399 PWs)   bands (ev):

   -71.3776 -71.3383 -71.2131 -71.2050 -71.1743 -71.1662 -42.8001 -42.7799
   -42.7396 -42.7093 -42.6732 -42.5823 -42.5724 -42.5505 -42.5486 -42.5384
   -42.5324 -42.5179 -42.4834 -42.4747 -42.3592 -42.3303 -42.2259 -42.2091
    -5.2417  -4.6146  -4.5693  -4.2883  -4.2524  -4.1633  -4.0488  -3.8709
    -3.7576  -3.5650  -3.4836  -3.4405  -3.4020  -3.3475  -3.3147  -2.8499
    -2.7753  -2.5705  -2.4645  -2.4413  -2.4192  -2.1423  -2.1398  -1.8741
    -1.8390  -1.7750  -1.6688  -1.5267  -1.2014  -1.1974  -1.1713  -1.0864
    -1.0827  -1.0206  -0.9145  -0.8851  -0.5901  -0.5574  -0.5106  -0.5093
    -0.3114  -0.2597  -0.2280  -0.1525  -0.0541   0.0031   0.2085   0.2669
     0.6107   0.7364   0.7608   0.8699   0.9528   0.9819   1.2668   1.4166
     1.4197   1.5067   1.5634   1.5707   1.7444   1.8407

          k = 0.0000-0.1057 0.0000 ( 28406 PWs)   bands (ev):

   -71.3776 -71.3383 -71.2131 -71.2050 -71.1743 -71.1662 -42.8002 -42.7800
   -42.7397 -42.7095 -42.6732 -42.5823 -42.5725 -42.5505 -42.5486 -42.5385
   -42.5325 -42.5180 -42.4834 -42.4747 -42.3592 -42.3303 -42.2259 -42.2091
    -5.0948  -4.6171  -4.5454  -4.2703  -4.2309  -4.1359  -3.9930  -3.8490
    -3.7456  -3.5371  -3.4156  -3.4129  -3.3710  -3.3512  -3.2558  -2.8969
    -2.7858  -2.4968  -2.4466  -2.4125  -2.3596  -2.1792  -2.0837  -2.0611
    -1.8653  -1.8189  -1.6451  -1.4053  -1.2598  -1.2261  -1.2115  -1.1855
    -1.0551  -1.0340  -1.0149  -0.9236  -0.6983  -0.5541  -0.5424  -0.5367
    -0.3752  -0.2978  -0.2617  -0.2022  -0.1311  -0.0255   0.1242   0.1991
     0.6896   0.7065   0.7360   0.7552   0.9215   0.9740   1.2303   1.3889
     1.3918   1.5061   1.5348   1.5549   1.7382   1.8417

          k = 0.0158 0.0088 0.0000 ( 28353 PWs)   bands (ev):

   -71.3771 -71.3390 -71.2125 -71.2045 -71.1750 -71.1670 -42.7936 -42.7777
   -42.7395 -42.7060 -42.6734 -42.5821 -42.5706 -42.5489 -42.5444 -42.5377
   -42.5260 -42.5159 -42.4832 -42.4801 -42.3584 -42.3306 -42.2313 -42.2144
    -6.2387  -4.8807  -4.7457  -4.7206  -4.6519  -4.5915  -4.2966  -4.0706
    -4.0229  -4.0030  -3.9424  -3.8625  -3.8208  -3.7276  -3.2289  -3.0495
    -2.7706  -2.7146  -2.6013  -2.4419  -2.3541  -2.2035  -2.0702  -2.0003
    -1.9424  -1.7180  -1.5794  -1.4404  -1.4296  -0.9513  -0.8701  -0.6451
    -0.6304  -0.5750  -0.4870  -0.2047  -0.1980  -0.1347  -0.1047   0.1315
     0.1403   0.4783   0.4845   0.5494   0.6685   0.8018   0.8460   0.9798
     1.0123   1.2422   1.2661   1.4094   1.4325   1.5025   1.5890   1.6875
     1.7442   1.7671   1.9158   1.9224   2.0216   2.0491

          k = 0.0158 0.0264 0.0000 ( 28383 PWs)   bands (ev):

   -71.3771 -71.3390 -71.2125 -71.2045 -71.1750 -71.1670 -42.7938 -42.7779
   -42.7396 -42.7064 -42.6734 -42.5820 -42.5708 -42.5489 -42.5445 -42.5379
   -42.5261 -42.5161 -42.4833 -42.4801 -42.3585 -42.3306 -42.2313 -42.2145
    -6.1343  -4.8309  -4.6996  -4.6990  -4.5666  -4.5251  -4.2709  -4.0579
    -3.9828  -3.9490  -3.8867  -3.8244  -3.7822  -3.6846  -3.2347  -2.9876
    -2.7842  -2.6837  -2.6204  -2.4363  -2.2798  -2.2671  -2.0490  -1.9749
    -1.9151  -1.7865  -1.5884  -1.4172  -1.3998  -0.9722  -0.8810  -0.7777
    -0.6351  -0.6092  -0.5359  -0.2697  -0.2681  -0.2135  -0.1925   0.0163
     0.1371   0.3340   0.3909   0.5268   0.5653   0.7516   0.7862   0.8099
     1.0869   1.1009   1.1998   1.3045   1.3370   1.3441   1.5524   1.6065
     1.6394   1.7058   1.7852   1.8902   1.9637   2.0607

          k = 0.0158 0.0440 0.0000 ( 28397 PWs)   bands (ev):

   -71.3770 -71.3390 -71.2125 -71.2044 -71.1750 -71.1669 -42.7940 -42.7783
   -42.7398 -42.7071 -42.6735 -42.5819 -42.5711 -42.5490 -42.5447 -42.5382
   -42.5264 -42.5165 -42.4834 -42.4802 -42.3585 -42.3307 -42.2314 -42.2145
    -5.9332  -4.7458  -4.6590  -4.6078  -4.4250  -4.4027  -4.2239  -4.0273
    -3.9151  -3.8464  -3.7846  -3.7469  -3.7046  -3.6060  -3.2483  -2.8805
    -2.7847  -2.6511  -2.6222  -2.4296  -2.3990  -2.1445  -2.0189  -1.9506
    -1.8740  -1.8712  -1.6218  -1.3778  -1.3492  -1.0548  -0.9906  -0.8966
    -0.7052  -0.6557  -0.6284  -0.4510  -0.3811  -0.3069  -0.2868  -0.1589
     0.0161   0.1925   0.2639   0.3301   0.4402   0.5588   0.6029   0.7760
     0.8198   0.9020   1.0236   1.1920   1.2017   1.3462   1.4922   1.5005
     1.5824   1.6003   1.7533   1.8083   1.8276   1.9697

          k = 0.0158 0.0616 0.0000 ( 28416 PWs)   bands (ev):

   -71.3770 -71.3390 -71.2125 -71.2044 -71.1749 -71.1669 -42.7943 -42.7787
   -42.7400 -42.7079 -42.6736 -42.5819 -42.5714 -42.5491 -42.5448 -42.5386
   -42.5266 -42.5169 -42.4837 -42.4802 -42.3586 -42.3307 -42.2314 -42.2146
    -5.6543  -4.6513  -4.6132  -4.4750  -4.2771  -4.2664  -4.1634  -3.9629
    -3.8370  -3.7220  -3.6564  -3.6259  -3.5890  -3.5041  -3.2685  -2.7883
    -2.7682  -2.6370  -2.5677  -2.5207  -2.4184  -2.1311  -1.9997  -1.9547
    -1.8271  -1.8183  -1.6784  -1.3848  -1.3193  -1.2990  -1.0377  -0.9264
    -0.8752  -0.8319  -0.7055  -0.6299  -0.5252  -0.4261  -0.3462  -0.3127
    -0.1164  -0.0523   0.0484   0.1377   0.2219   0.3363   0.4729   0.5494
     0.6330   0.7561   0.8197   1.0547   1.0823   1.2449   1.4176   1.4516
     1.5289   1.6039   1.6625   1.7498   1.7625   1.8835

          k = 0.0158 0.0793 0.0000 ( 28456 PWs)   bands (ev):

   -71.3769 -71.3390 -71.2125 -71.2043 -71.1749 -71.1669 -42.7946 -42.7791
   -42.7402 -42.7085 -42.6737 -42.5818 -42.5717 -42.5491 -42.5450 -42.5389
   -42.5269 -42.5172 -42.4839 -42.4803 -42.3587 -42.3308 -42.2315 -42.2146
    -5.3386  -4.5797  -4.5717  -4.3273  -4.2243  -4.1602  -4.0644  -3.8741
    -3.7775  -3.6181  -3.5248  -3.4870  -3.4608  -3.3990  -3.2796  -2.8112
    -2.7701  -2.6324  -2.5046  -2.4800  -2.4027  -2.1797  -2.0785  -1.9657
    -1.7733  -1.7532  -1.6565  -1.6344  -1.3045  -1.2729  -1.1260  -1.0880
    -0.9909  -0.9689  -0.8996  -0.7409  -0.6146  -0.5315  -0.4632  -0.3935
    -0.2547  -0.2061  -0.1831  -0.0212   0.0569   0.0862   0.2196   0.3763
     0.6084   0.7280   0.7669   0.9560   0.9922   1.0098   1.3131   1.4126
     1.5120   1.5194   1.5869   1.6406   1.7312   1.7939

          k = 0.0158 0.0969 0.0000 ( 28432 PWs)   bands (ev):

   -71.3769 -71.3390 -71.2125 -71.2043 -71.1749 -71.1669 -42.7947 -42.7793
   -42.7403 -42.7089 -42.6738 -42.5817 -42.5719 -42.5492 -42.5451 -42.5391
   -42.5270 -42.5174 -42.4840 -42.4803 -42.3587 -42.3308 -42.2315 -42.2147
    -5.0843  -4.5774  -4.5256  -4.2450  -4.2197  -4.1065  -3.9675  -3.8235
    -3.7576  -3.5607  -3.4306  -3.4237  -3.3810  -3.3467  -3.2466  -2.8994
    -2.7816  -2.5014  -2.4957  -2.3942  -2.3825  -2.2210  -2.1008  -2.0272
    -1.8624  -1.8175  -1.7353  -1.4626  -1.3179  -1.2826  -1.2685  -1.1690
    -1.1350  -1.0237  -0.9330  -0.8713  -0.6581  -0.6213  -0.5630  -0.4206
    -0.3557  -0.3392  -0.1874  -0.0993  -0.0529  -0.0108   0.0527   0.2615
     0.6648   0.7261   0.7490   0.7862   0.9273   0.9758   1.2444   1.3860
     1.4263   1.5087   1.5546   1.5664   1.7182   1.7915

          k = 0.0158-0.0969 0.0000 ( 28432 PWs)   bands (ev):

   -71.3769 -71.3390 -71.2125 -71.2043 -71.1749 -71.1669 -42.7947 -42.7793
   -42.7403 -42.7089 -42.6738 -42.5817 -42.5719 -42.5492 -42.5451 -42.5391
   -42.5270 -42.5174 -42.4840 -42.4803 -42.3587 -42.3308 -42.2315 -42.2147
    -5.0843  -4.5774  -4.5256  -4.2450  -4.2197  -4.1065  -3.9675  -3.8235
    -3.7576  -3.5607  -3.4306  -3.4237  -3.3810  -3.3467  -3.2466  -2.8994
    -2.7816  -2.5014  -2.4957  -2.3942  -2.3825  -2.2210  -2.1008  -2.0272
    -1.8624  -1.8175  -1.7353  -1.4626  -1.3179  -1.2826  -1.2685  -1.1690
    -1.1350  -1.0237  -0.9330  -0.8713  -0.6581  -0.6213  -0.5630  -0.4206
    -0.3557  -0.3392  -0.1874  -0.0993  -0.0529  -0.0108   0.0527   0.2615
     0.6648   0.7261   0.7490   0.7862   0.9273   0.9758   1.2444   1.3860
     1.4263   1.5087   1.5546   1.5664   1.7182   1.7915

          k = 0.0158-0.0793 0.0000 ( 28456 PWs)   bands (ev):

   -71.3769 -71.3390 -71.2125 -71.2043 -71.1749 -71.1669 -42.7946 -42.7791
   -42.7402 -42.7085 -42.6737 -42.5818 -42.5717 -42.5491 -42.5450 -42.5389
   -42.5269 -42.5172 -42.4839 -42.4803 -42.3587 -42.3308 -42.2315 -42.2146
    -5.3386  -4.5797  -4.5717  -4.3273  -4.2243  -4.1602  -4.0644  -3.8741
    -3.7775  -3.6181  -3.5248  -3.4870  -3.4608  -3.3990  -3.2796  -2.8112
    -2.7701  -2.6324  -2.5046  -2.4800  -2.4027  -2.1797  -2.0785  -1.9657
    -1.7733  -1.7532  -1.6565  -1.6344  -1.3045  -1.2729  -1.1260  -1.0880
    -0.9909  -0.9689  -0.8996  -0.7409  -0.6146  -0.5315  -0.4632  -0.3935
    -0.2547  -0.2061  -0.1831  -0.0212   0.0569   0.0862   0.2196   0.3763
     0.6084   0.7280   0.7669   0.9560   0.9922   1.0098   1.3131   1.4126
     1.5120   1.5194   1.5869   1.6406   1.7312   1.7939

          k = 0.0158-0.0616 0.0000 ( 28416 PWs)   bands (ev):

   -71.3770 -71.3390 -71.2125 -71.2044 -71.1749 -71.1669 -42.7943 -42.7787
   -42.7400 -42.7079 -42.6736 -42.5819 -42.5714 -42.5491 -42.5448 -42.5386
   -42.5266 -42.5169 -42.4837 -42.4802 -42.3586 -42.3307 -42.2314 -42.2146
    -5.6543  -4.6513  -4.6132  -4.4750  -4.2771  -4.2664  -4.1634  -3.9629
    -3.8370  -3.7220  -3.6564  -3.6259  -3.5890  -3.5041  -3.2685  -2.7883
    -2.7682  -2.6370  -2.5677  -2.5207  -2.4184  -2.1311  -1.9997  -1.9547
    -1.8271  -1.8183  -1.6784  -1.3848  -1.3193  -1.2990  -1.0377  -0.9264
    -0.8752  -0.8319  -0.7055  -0.6299  -0.5252  -0.4261  -0.3462  -0.3127
    -0.1164  -0.0523   0.0484   0.1377   0.2219   0.3363   0.4729   0.5494
     0.6330   0.7561   0.8197   1.0547   1.0823   1.2449   1.4176   1.4516
     1.5289   1.6039   1.6625   1.7498   1.7625   1.8835

          k = 0.0158-0.0440 0.0000 ( 28397 PWs)   bands (ev):

   -71.3770 -71.3390 -71.2125 -71.2044 -71.1750 -71.1669 -42.7940 -42.7783
   -42.7398 -42.7071 -42.6735 -42.5819 -42.5711 -42.5490 -42.5447 -42.5382
   -42.5264 -42.5165 -42.4835 -42.4802 -42.3585 -42.3307 -42.2314 -42.2145
    -5.9332  -4.7458  -4.6590  -4.6078  -4.4250  -4.4027  -4.2239  -4.0273
    -3.9151  -3.8464  -3.7846  -3.7469  -3.7046  -3.6060  -3.2483  -2.8805
    -2.7847  -2.6511  -2.6222  -2.4296  -2.3990  -2.1445  -2.0189  -1.9506
    -1.8740  -1.8712  -1.6218  -1.3778  -1.3492  -1.0548  -0.9906  -0.8966
    -0.7052  -0.6557  -0.6284  -0.4510  -0.3811  -0.3069  -0.2868  -0.1589
     0.0161   0.1925   0.2639   0.3301   0.4402   0.5588   0.6029   0.7760
     0.8198   0.9021   1.0236   1.1920   1.2017   1.3462   1.4922   1.5005
     1.5824   1.6003   1.7533   1.8083   1.8276   1.9697

          k = 0.0158-0.0264 0.0000 ( 28383 PWs)   bands (ev):

   -71.3771 -71.3390 -71.2125 -71.2045 -71.1750 -71.1670 -42.7938 -42.7779
   -42.7396 -42.7064 -42.6734 -42.5820 -42.5708 -42.5489 -42.5445 -42.5379
   -42.5261 -42.5161 -42.4833 -42.4801 -42.3585 -42.3306 -42.2313 -42.2145
    -6.1343  -4.8309  -4.6996  -4.6990  -4.5666  -4.5251  -4.2709  -4.0579
    -3.9828  -3.9490  -3.8867  -3.8244  -3.7822  -3.6846  -3.2347  -2.9876
    -2.7842  -2.6837  -2.6204  -2.4363  -2.2798  -2.2671  -2.0490  -1.9749
    -1.9151  -1.7865  -1.5884  -1.4172  -1.3998  -0.9722  -0.8810  -0.7777
    -0.6351  -0.6092  -0.5359  -0.2697  -0.2681  -0.2135  -0.1925   0.0163
     0.1371   0.3340   0.3909   0.5268   0.5653   0.7516   0.7862   0.8099
     1.0869   1.1009   1.1998   1.3045   1.3370   1.3441   1.5524   1.6065
     1.6394   1.7058   1.7851   1.8902   1.9637   2.0607

          k = 0.0158-0.0088 0.0000 ( 28353 PWs)   bands (ev):

   -71.3771 -71.3390 -71.2125 -71.2045 -71.1750 -71.1670 -42.7936 -42.7777
   -42.7395 -42.7060 -42.6734 -42.5821 -42.5706 -42.5489 -42.5444 -42.5377
   -42.5260 -42.5159 -42.4832 -42.4801 -42.3584 -42.3306 -42.2313 -42.2144
    -6.2387  -4.8807  -4.7457  -4.7206  -4.6519  -4.5915  -4.2966  -4.0706
    -4.0229  -4.0030  -3.9424  -3.8625  -3.8208  -3.7276  -3.2289  -3.0495
    -2.7706  -2.7146  -2.6013  -2.4419  -2.3541  -2.2035  -2.0702  -2.0003
    -1.9424  -1.7180  -1.5794  -1.4404  -1.4296  -0.9513  -0.8701  -0.6451
    -0.6304  -0.5750  -0.4870  -0.2047  -0.1980  -0.1347  -0.1047   0.1315
     0.1403   0.4783   0.4845   0.5494   0.6685   0.8018   0.8460   0.9798
     1.0123   1.2422   1.2661   1.4094   1.4325   1.5025   1.5890   1.6874
     1.7442   1.7671   1.9159   1.9224   2.0218   2.0490

          k = 0.0316 0.0176 0.0000 ( 28356 PWs)   bands (ev):

   -71.3751 -71.3410 -71.2106 -71.2026 -71.1769 -71.1689 -42.7777 -42.7759
   -42.7416 -42.7045 -42.6752 -42.5803 -42.5690 -42.5506 -42.5396 -42.5285
   -42.5144 -42.5101 -42.4965 -42.4850 -42.3570 -42.3321 -42.2478 -42.2309
    -6.0670  -4.7865  -4.6540  -4.5864  -4.5134  -4.4734  -4.2131  -3.9909
    -3.9607  -3.9283  -3.8922  -3.7521  -3.7416  -3.7003  -3.1578  -2.9989
    -2.7805  -2.6785  -2.6097  -2.4084  -2.3097  -2.3055  -2.2115  -2.0188
    -1.9475  -1.7643  -1.6348  -1.5679  -1.5369  -1.1042  -0.8469  -0.7486
    -0.6290  -0.5513  -0.4893  -0.4558  -0.1876  -0.1427  -0.1258  -0.0601
     0.1708   0.2500   0.3494   0.4529   0.5396   0.7181   0.7684   0.8508
     0.9095   1.0780   1.1911   1.2800   1.3387   1.3804   1.5080   1.5539
     1.6255   1.6730   1.6963   1.7757   1.9013   1.9787

          k = 0.0316 0.0352 0.0000 ( 28401 PWs)   bands (ev):

   -71.3751 -71.3410 -71.2106 -71.2025 -71.1769 -71.1689 -42.7779 -42.7762
   -42.7418 -42.7051 -42.6753 -42.5803 -42.5693 -42.5507 -42.5398 -42.5286
   -42.5147 -42.5103 -42.4966 -42.4851 -42.3571 -42.3321 -42.2478 -42.2309
    -5.9148  -4.7179  -4.5914  -4.5537  -4.4176  -4.3635  -4.1707  -3.9456
    -3.9409  -3.8621  -3.8173  -3.6962  -3.6914  -3.6392  -3.1648  -2.9188
    -2.7924  -2.6607  -2.6314  -2.3874  -2.3815  -2.2125  -2.1932  -2.0168
    -1.9139  -1.8460  -1.6488  -1.5457  -1.5147  -1.1217  -0.8701  -0.8373
    -0.7426  -0.6842  -0.5581  -0.4883  -0.3146  -0.2609  -0.1782  -0.1691
     0.0808   0.1313   0.2680   0.3494   0.4667   0.6058   0.6525   0.7775
     0.8495   0.8854   1.1129   1.1548   1.2254   1.2354   1.3848   1.5123
     1.6079   1.6108   1.7561   1.7893   1.8454   1.8535

          k = 0.0316 0.0528 0.0000 ( 28406 PWs)   bands (ev):

   -71.3750 -71.3410 -71.2106 -71.2025 -71.1769 -71.1689 -42.7782 -42.7765
   -42.7419 -42.7057 -42.6753 -42.5802 -42.5696 -42.5507 -42.5401 -42.5288
   -42.5151 -42.5106 -42.4966 -42.4853 -42.3571 -42.3321 -42.2478 -42.2309
    -5.6738  -4.6241  -4.5084  -4.4864  -4.2919  -4.2197  -4.0947  -3.9101
    -3.8765  -3.7659  -3.7047  -3.6119  -3.6098  -3.5472  -3.1770  -2.8227
    -2.7939  -2.6558  -2.6173  -2.4914  -2.3671  -2.1825  -2.1330  -2.0068
    -1.8891  -1.8814  -1.6868  -1.5265  -1.4980  -1.1719  -1.1119  -0.9138
    -0.8703  -0.7618  -0.6730  -0.5994  -0.4971  -0.3685  -0.2894  -0.2136
    -0.1288   0.0397   0.0680   0.2527   0.2961   0.4821   0.5252   0.5508
     0.6367   0.7680   0.9064   1.0847   1.1142   1.1829   1.3153   1.4721
     1.5385   1.6000   1.7347   1.7377   1.8553   1.9443

          k = 0.0316 0.0705 0.0000 ( 28434 PWs)   bands (ev):

   -71.3750 -71.3409 -71.2106 -71.2024 -71.1769 -71.1689 -42.7785 -42.7769
   -42.7421 -42.7064 -42.6754 -42.5801 -42.5699 -42.5508 -42.5404 -42.5290
   -42.5154 -42.5109 -42.4966 -42.4855 -42.3572 -42.3322 -42.2479 -42.2310
    -5.3687  -4.5332  -4.4675  -4.3443  -4.1905  -4.1118  -3.9922  -3.8252
    -3.8244  -3.6685  -3.5751  -3.5147  -3.5138  -3.4315  -3.1870  -2.8154
    -2.7776  -2.6709  -2.5468  -2.5416  -2.3495  -2.1993  -2.1760  -2.0188
    -1.8776  -1.7757  -1.7222  -1.5682  -1.5090  -1.4027  -1.1800  -1.1499
    -0.9223  -0.8479  -0.8091  -0.7430  -0.5920  -0.5338  -0.3930  -0.3183
    -0.2226  -0.1687  -0.0298   0.0450   0.1433   0.2651   0.2878   0.4561
     0.6239   0.7126   0.7871   0.9848   1.0089   1.0622   1.3653   1.3657
     1.5220   1.5821   1.6495   1.6906   1.7572   1.9494

          k = 0.0316 0.0881 0.0000 ( 28425 PWs)   bands (ev):

   -71.3749 -71.3409 -71.2105 -71.2024 -71.1769 -71.1688 -42.7787 -42.7772
   -42.7422 -42.7069 -42.6754 -42.5800 -42.5701 -42.5509 -42.5407 -42.5291
   -42.5156 -42.5111 -42.4967 -42.4856 -42.3573 -42.3322 -42.2479 -42.2310
    -5.0558  -4.4676  -4.4580  -4.1969  -4.1774  -4.0430  -3.8864  -3.8151
    -3.7324  -3.6001  -3.4723  -3.4473  -3.4338  -3.3177  -3.1828  -2.9191
    -2.7786  -2.5880  -2.5128  -2.4947  -2.3401  -2.2525  -2.1673  -2.0689
    -1.8888  -1.8213  -1.7376  -1.5838  -1.5366  -1.4988  -1.3736  -1.1753
    -1.0756  -0.9932  -0.8246  -0.8069  -0.6809  -0.6581  -0.5396  -0.4217
    -0.3178  -0.2136  -0.1533  -0.0567   0.0897   0.1102   0.1594   0.3377
     0.6663   0.6716   0.7721   0.8790   0.9682   0.9834   1.2755   1.3747
     1.5144   1.5183   1.5699   1.6626   1.6675   1.7271

          k = 0.0316 0.1057 0.0000 ( 28438 PWs)   bands (ev):

   -71.3749 -71.3409 -71.2105 -71.2024 -71.1769 -71.1688 -42.7788 -42.7773
   -42.7423 -42.7071 -42.6755 -42.5800 -42.5702 -42.5509 -42.5407 -42.5292
   -42.5157 -42.5111 -42.4967 -42.4856 -42.3573 -42.3322 -42.2479 -42.2310
    -4.8883  -4.4819  -4.4434  -4.1952  -4.1223  -4.0165  -3.8308  -3.8270
    -3.7068  -3.5760  -3.4424  -3.4408  -3.3928  -3.2650  -3.1765  -2.9665
    -2.7840  -2.5284  -2.5030  -2.4333  -2.3372  -2.2950  -2.1200  -2.0944
    -1.9559  -1.8612  -1.8026  -1.5773  -1.5442  -1.5166  -1.3921  -1.1929
    -1.1860  -0.9966  -0.8685  -0.8202  -0.7164  -0.6802  -0.6336  -0.4582
    -0.3450  -0.2261  -0.2071  -0.0592   0.0554   0.0785   0.1152   0.2845
     0.6661   0.6900   0.7707   0.8429   0.9290   0.9778   1.2390   1.3821
     1.4431   1.5117   1.5452   1.6169   1.6606   1.6848

          k = 0.0316-0.0881 0.0000 ( 28425 PWs)   bands (ev):

   -71.3749 -71.3409 -71.2105 -71.2024 -71.1769 -71.1688 -42.7787 -42.7772
   -42.7422 -42.7069 -42.6754 -42.5800 -42.5701 -42.5509 -42.5407 -42.5291
   -42.5156 -42.5111 -42.4967 -42.4856 -42.3573 -42.3322 -42.2479 -42.2310
    -5.0558  -4.4676  -4.4580  -4.1969  -4.1774  -4.0430  -3.8864  -3.8151
    -3.7324  -3.6001  -3.4723  -3.4473  -3.4338  -3.3177  -3.1828  -2.9191
    -2.7786  -2.5880  -2.5128  -2.4947  -2.3401  -2.2525  -2.1673  -2.0689
    -1.8888  -1.8213  -1.7375  -1.5838  -1.5366  -1.4988  -1.3736  -1.1753
    -1.0756  -0.9932  -0.8246  -0.8069  -0.6809  -0.6581  -0.5396  -0.4217
    -0.3178  -0.2136  -0.1533  -0.0567   0.0897   0.1102   0.1594   0.3377
     0.6663   0.6716   0.7721   0.8790   0.9682   0.9834   1.2755   1.3746
     1.5144   1.5183   1.5699   1.6626   1.6675   1.7271

          k = 0.0316-0.0705 0.0000 ( 28434 PWs)   bands (ev):

   -71.3750 -71.3409 -71.2106 -71.2024 -71.1769 -71.1689 -42.7785 -42.7769
   -42.7421 -42.7064 -42.6754 -42.5801 -42.5699 -42.5508 -42.5404 -42.5290
   -42.5154 -42.5109 -42.4966 -42.4855 -42.3572 -42.3322 -42.2479 -42.2310
    -5.3687  -4.5332  -4.4675  -4.3443  -4.1905  -4.1118  -3.9922  -3.8252
    -3.8244  -3.6685  -3.5751  -3.5147  -3.5138  -3.4315  -3.1870  -2.8154
    -2.7776  -2.6709  -2.5468  -2.5416  -2.3495  -2.1993  -2.1760  -2.0188
    -1.8776  -1.7757  -1.7222  -1.5682  -1.5090  -1.4027  -1.1800  -1.1499
    -0.9223  -0.8479  -0.8091  -0.7430  -0.5920  -0.5338  -0.3930  -0.3183
    -0.2226  -0.1687  -0.0298   0.0450   0.1433   0.2651   0.2878   0.4561
     0.6239   0.7126   0.7871   0.9848   1.0089   1.0622   1.3653   1.3657
     1.5220   1.5821   1.6495   1.6906   1.7573   1.9495

          k = 0.0316-0.0528 0.0000 ( 28406 PWs)   bands (ev):

   -71.3750 -71.3410 -71.2106 -71.2025 -71.1769 -71.1689 -42.7782 -42.7765
   -42.7419 -42.7057 -42.6753 -42.5802 -42.5696 -42.5507 -42.5401 -42.5288
   -42.5151 -42.5106 -42.4966 -42.4853 -42.3571 -42.3321 -42.2478 -42.2309
    -5.6738  -4.6241  -4.5084  -4.4864  -4.2919  -4.2197  -4.0947  -3.9101
    -3.8765  -3.7659  -3.7047  -3.6119  -3.6098  -3.5472  -3.1770  -2.8227
    -2.7939  -2.6558  -2.6173  -2.4914  -2.3671  -2.1825  -2.1330  -2.0068
    -1.8891  -1.8814  -1.6868  -1.5265  -1.4980  -1.1719  -1.1119  -0.9138
    -0.8703  -0.7618  -0.6730  -0.5994  -0.4971  -0.3685  -0.2894  -0.2136
    -0.1288   0.0397   0.0680   0.2527   0.2961   0.4821   0.5252   0.5508
     0.6367   0.7680   0.9064   1.0847   1.1142   1.1829   1.3153   1.4721
     1.5385   1.6000   1.7347   1.7377   1.8553   1.9443

          k = 0.0316-0.0352 0.0000 ( 28401 PWs)   bands (ev):

   -71.3751 -71.3410 -71.2106 -71.2025 -71.1769 -71.1689 -42.7779 -42.7762
   -42.7418 -42.7051 -42.6753 -42.5803 -42.5693 -42.5507 -42.5398 -42.5286
   -42.5147 -42.5103 -42.4966 -42.4851 -42.3571 -42.3321 -42.2478 -42.2309
    -5.9148  -4.7179  -4.5914  -4.5537  -4.4176  -4.3635  -4.1707  -3.9456
    -3.9409  -3.8621  -3.8173  -3.6962  -3.6914  -3.6392  -3.1648  -2.9188
    -2.7924  -2.6607  -2.6314  -2.3874  -2.3815  -2.2125  -2.1932  -2.0168
    -1.9139  -1.8460  -1.6488  -1.5457  -1.5147  -1.1217  -0.8701  -0.8373
    -0.7426  -0.6842  -0.5580  -0.4883  -0.3146  -0.2609  -0.1782  -0.1691
     0.0808   0.1313   0.2680   0.3494   0.4667   0.6058   0.6525   0.7775
     0.8496   0.8854   1.1129   1.1548   1.2254   1.2354   1.3848   1.5123
     1.6079   1.6108   1.7561   1.7893   1.8454   1.8535

          k = 0.0316-0.0176 0.0000 ( 28356 PWs)   bands (ev):

   -71.3751 -71.3410 -71.2106 -71.2026 -71.1769 -71.1689 -42.7777 -42.7759
   -42.7416 -42.7045 -42.6752 -42.5803 -42.5690 -42.5506 -42.5396 -42.5285
   -42.5144 -42.5101 -42.4965 -42.4850 -42.3570 -42.3321 -42.2478 -42.2309
    -6.0670  -4.7865  -4.6540  -4.5864  -4.5134  -4.4734  -4.2131  -3.9909
    -3.9607  -3.9283  -3.8922  -3.7521  -3.7416  -3.7003  -3.1578  -2.9989
    -2.7805  -2.6785  -2.6097  -2.4084  -2.3097  -2.3055  -2.2115  -2.0188
    -1.9475  -1.7643  -1.6348  -1.5679  -1.5369  -1.1042  -0.8469  -0.7486
    -0.6290  -0.5513  -0.4893  -0.4558  -0.1876  -0.1427  -0.1258  -0.0601
     0.1709   0.2500   0.3494   0.4529   0.5396   0.7181   0.7684   0.8508
     0.9095   1.0780   1.1911   1.2800   1.3387   1.3804   1.5080   1.5539
     1.6255   1.6730   1.6963   1.7757   1.9011   1.9787

          k = 0.0316 0.0000 0.0000 ( 28349 PWs)   bands (ev):

   -71.3751 -71.3410 -71.2106 -71.2026 -71.1769 -71.1689 -42.7776 -42.7757
   -42.7416 -42.7043 -42.6752 -42.5804 -42.5689 -42.5506 -42.5395 -42.5284
   -42.5143 -42.5101 -42.4965 -42.4849 -42.3570 -42.3321 -42.2478 -42.2308
    -6.1188  -4.8113  -4.6749  -4.5972  -4.5515  -4.5106  -4.2269  -4.0097
    -3.9653  -3.9513  -3.9183  -3.7708  -3.7588  -3.7222  -3.1558  -3.0282
    -2.7718  -2.6896  -2.5893  -2.4388  -2.3309  -2.2817  -2.2201  -2.0102
    -1.9704  -1.7253  -1.6370  -1.5767  -1.5466  -1.0979  -0.8425  -0.7457
    -0.5472  -0.5112  -0.4799  -0.4456  -0.1597  -0.0907  -0.0723  -0.0200
     0.1620   0.3229   0.3501   0.5636   0.5659   0.7108   0.7661   0.8504
     0.9873   1.1046   1.2384   1.3392   1.3706   1.4126   1.5468   1.5495
     1.6386   1.6697   1.7420   1.9096   2.0153   2.0326

          k = 0.0474 0.0264 0.0000 ( 28380 PWs)   bands (ev):

   -71.3720 -71.3441 -71.2075 -71.1995 -71.1800 -71.1720 -42.7729 -42.7525
   -42.7448 -42.7021 -42.6781 -42.5776 -42.5665 -42.5533 -42.5425 -42.5231
   -42.5115 -42.5031 -42.4878 -42.4849 -42.3548 -42.3344 -42.2739 -42.2569
    -5.7937  -4.6421  -4.5132  -4.3777  -4.3630  -4.2436  -4.1004  -3.9822
    -3.8278  -3.7890  -3.7548  -3.7115  -3.5783  -3.5457  -3.0530  -2.9268
    -2.8175  -2.6587  -2.6262  -2.4724  -2.3804  -2.3749  -2.2063  -2.0585
    -1.9443  -1.8339  -1.7556  -1.7143  -1.7029  -1.3293  -0.9892  -0.9313
    -0.7411  -0.6534  -0.5840  -0.4209  -0.3756  -0.2086  -0.1936  -0.1841
    -0.0447   0.1289   0.1696   0.4372   0.4630   0.5565   0.6930   0.7487
     0.7721   0.9160   0.9334   1.1373   1.1454   1.2601   1.2953   1.3613
     1.5391   1.6159   1.6712   1.7351   1.7941   1.8978

          k = 0.0474 0.0440 0.0000 ( 28402 PWs)   bands (ev):

   -71.3719 -71.3441 -71.2075 -71.1994 -71.1800 -71.1720 -42.7732 -42.7527
   -42.7449 -42.7026 -42.6781 -42.5775 -42.5668 -42.5534 -42.5427 -42.5231
   -42.5118 -42.5033 -42.4880 -42.4851 -42.3548 -42.3344 -42.2739 -42.2569
    -5.6013  -4.5621  -4.4489  -4.3306  -4.2725  -4.1316  -4.0218  -3.9381
    -3.7615  -3.7404  -3.7088  -3.6506  -3.4984  -3.4926  -3.0603  -2.8483
    -2.8326  -2.6910  -2.6421  -2.5245  -2.3683  -2.3118  -2.1553  -2.0688
    -1.9242  -1.8917  -1.7536  -1.7309  -1.6952  -1.3418  -1.1561  -0.9684
    -0.8892  -0.7414  -0.6591  -0.4928  -0.4920  -0.4247  -0.3041  -0.2178
    -0.0947   0.0002   0.1352   0.3373   0.3596   0.5381   0.5395   0.5994
     0.6242   0.7706   0.9485   1.0151   1.1183   1.1340   1.1960   1.4318
     1.4658   1.5444   1.6452   1.7208   1.7442   1.8506

          k = 0.0474 0.0616 0.0000 ( 28411 PWs)   bands (ev):

   -71.3719 -71.3441 -71.2075 -71.1994 -71.1800 -71.1720 -42.7735 -42.7530
   -42.7450 -42.7033 -42.6781 -42.5775 -42.5670 -42.5535 -42.5430 -42.5232
   -42.5121 -42.5034 -42.4881 -42.4854 -42.3549 -42.3344 -42.2739 -42.2569
    -5.3303  -4.4625  -4.3512  -4.2836  -4.1676  -4.0502  -3.8945  -3.8641
    -3.7076  -3.6959  -3.6102  -3.5634  -3.4360  -3.3892  -3.0692  -2.8677
    -2.7910  -2.7199  -2.6132  -2.5855  -2.3705  -2.2781  -2.1587  -2.0716
    -1.9192  -1.8515  -1.7845  -1.7597  -1.7097  -1.3771  -1.3703  -1.1832
    -0.9640  -0.7979  -0.7614  -0.7012  -0.6005  -0.5067  -0.4095  -0.3457
    -0.1829  -0.0987   0.0644   0.1173   0.2713   0.3364   0.4455   0.5081
     0.6192   0.7244   0.7997   0.9763   1.0411   1.0696   1.2143   1.3694
     1.4932   1.5725   1.6070   1.6687   1.7002   1.8065

          k = 0.0474 0.0793 0.0000 ( 28434 PWs)   bands (ev):

   -71.3719 -71.3441 -71.2075 -71.1993 -71.1800 -71.1719 -42.7738 -42.7532
   -42.7452 -42.7038 -42.6781 -42.5774 -42.5672 -42.5535 -42.5432 -42.5232
   -42.5123 -42.5036 -42.4882 -42.4856 -42.3549 -42.3345 -42.2739 -42.2569
    -5.0109  -4.3769  -4.2630  -4.2165  -4.1037  -3.9859  -3.8846  -3.7342
    -3.6492  -3.6068  -3.5474  -3.4423  -3.4142  -3.2669  -3.0731  -2.9681
    -2.7862  -2.6864  -2.6197  -2.5647  -2.3653  -2.2571  -2.1961  -2.0883
    -1.9514  -1.8519  -1.8428  -1.7550  -1.7223  -1.5469  -1.4592  -1.3418
    -0.9857  -0.9757  -0.8909  -0.8225  -0.6583  -0.5561  -0.4930  -0.4772
    -0.3711  -0.1804  -0.0462   0.0922   0.1970   0.2416   0.3925   0.4073
     0.6302   0.6652   0.7978   0.9323   0.9992   1.0172   1.2823   1.2828
     1.4923   1.5627   1.6086   1.6184   1.6570   1.7389

          k = 0.0474 0.0969 0.0000 ( 28426 PWs)   bands (ev):

   -71.3718 -71.3441 -71.2075 -71.1993 -71.1800 -71.1719 -42.7740 -42.7533
   -42.7452 -42.7041 -42.6781 -42.5773 -42.5674 -42.5536 -42.5433 -42.5232
   -42.5125 -42.5037 -42.4883 -42.4858 -42.3550 -42.3345 -42.2739 -42.2569
    -4.7179  -4.3286  -4.3197  -4.0951  -4.0668  -3.9426  -3.9423  -3.6563
    -3.6272  -3.5183  -3.4934  -3.4554  -3.3486  -3.1635  -3.0829  -3.0671
    -2.8032  -2.6562  -2.5656  -2.5530  -2.3313  -2.2605  -2.1789  -2.1340
    -2.0393  -1.8874  -1.8804  -1.7973  -1.7717  -1.5777  -1.5042  -1.3942
    -1.1192  -0.9889  -0.9882  -0.8542  -0.7256  -0.6156  -0.5375  -0.5306
    -0.4556  -0.2872   0.0050   0.0633   0.1144   0.2467   0.3228   0.3849
     0.6074   0.6719   0.8087   0.9397   0.9832   1.0209   1.2231   1.3391
     1.4883   1.4912   1.5322   1.6030   1.6552   1.6938

          k = 0.0474 0.1145 0.0000 ( 28426 PWs)   bands (ev):

   -71.3718 -71.3441 -71.2075 -71.1993 -71.1800 -71.1719 -42.7740 -42.7533
   -42.7452 -42.7041 -42.6781 -42.5773 -42.5674 -42.5536 -42.5433 -42.5232
   -42.5125 -42.5037 -42.4883 -42.4858 -42.3550 -42.3345 -42.2739 -42.2569
    -4.7179  -4.3286  -4.3197  -4.0951  -4.0668  -3.9426  -3.9423  -3.6563
    -3.6272  -3.5183  -3.4934  -3.4554  -3.3486  -3.1635  -3.0829  -3.0671
    -2.8032  -2.6562  -2.5656  -2.5530  -2.3313  -2.2605  -2.1789  -2.1340
    -2.0393  -1.8874  -1.8804  -1.7973  -1.7717  -1.5777  -1.5042  -1.3942
    -1.1192  -0.9889  -0.9882  -0.8542  -0.7256  -0.6156  -0.5375  -0.5306
    -0.4556  -0.2872   0.0050   0.0633   0.1144   0.2467   0.3228   0.3849
     0.6074   0.6719   0.8087   0.9397   0.9832   1.0209   1.2231   1.3391
     1.4883   1.4912   1.5322   1.6030   1.6551   1.6938

          k = 0.0474-0.0793 0.0000 ( 28434 PWs)   bands (ev):

   -71.3719 -71.3441 -71.2075 -71.1993 -71.1800 -71.1719 -42.7738 -42.7532
   -42.7452 -42.7038 -42.6781 -42.5774 -42.5672 -42.5535 -42.5432 -42.5232
   -42.5123 -42.5036 -42.4882 -42.4856 -42.3549 -42.3345 -42.2739 -42.2569
    -5.0109  -4.3769  -4.2630  -4.2165  -4.1037  -3.9859  -3.8846  -3.7342
    -3.6492  -3.6068  -3.5474  -3.4423  -3.4142  -3.2669  -3.0731  -2.9681
    -2.7862  -2.6864  -2.6197  -2.5647  -2.3653  -2.2571  -2.1961  -2.0883
    -1.9514  -1.8519  -1.8428  -1.7550  -1.7223  -1.5469  -1.4592  -1.3418
    -0.9857  -0.9757  -0.8909  -0.8225  -0.6583  -0.5561  -0.4930  -0.4772
    -0.3711  -0.1804  -0.0462   0.0922   0.1970   0.2416   0.3925   0.4073
     0.6302   0.6652   0.7978   0.9323   0.9992   1.0172   1.2823   1.2828
     1.4923   1.5627   1.6086   1.6184   1.6570   1.7389

          k = 0.0474-0.0616 0.0000 ( 28411 PWs)   bands (ev):

   -71.3719 -71.3441 -71.2075 -71.1994 -71.1800 -71.1720 -42.7735 -42.7530
   -42.7450 -42.7033 -42.6781 -42.5775 -42.5670 -42.5535 -42.5430 -42.5232
   -42.5121 -42.5034 -42.4881 -42.4854 -42.3549 -42.3344 -42.2739 -42.2569
    -5.3303  -4.4625  -4.3512  -4.2836  -4.1676  -4.0502  -3.8945  -3.8641
    -3.7076  -3.6959  -3.6102  -3.5634  -3.4360  -3.3892  -3.0692  -2.8677
    -2.7910  -2.7199  -2.6132  -2.5855  -2.3705  -2.2781  -2.1587  -2.0716
    -1.9192  -1.8515  -1.7845  -1.7597  -1.7097  -1.3771  -1.3703  -1.1832
    -0.9640  -0.7979  -0.7614  -0.7012  -0.6005  -0.5067  -0.4095  -0.3457
    -0.1829  -0.0987   0.0644   0.1173   0.2713   0.3365   0.4455   0.5081
     0.6192   0.7244   0.7997   0.9763   1.0411   1.0696   1.2143   1.3694
     1.4932   1.5725   1.6070   1.6687   1.7002   1.8065

          k = 0.0474-0.0440 0.0000 ( 28402 PWs)   bands (ev):

   -71.3719 -71.3441 -71.2075 -71.1994 -71.1800 -71.1720 -42.7732 -42.7527
   -42.7449 -42.7026 -42.6781 -42.5775 -42.5668 -42.5534 -42.5427 -42.5231
   -42.5118 -42.5033 -42.4880 -42.4851 -42.3548 -42.3344 -42.2739 -42.2569
    -5.6013  -4.5621  -4.4489  -4.3306  -4.2725  -4.1316  -4.0218  -3.9381
    -3.7615  -3.7404  -3.7088  -3.6506  -3.4984  -3.4926  -3.0603  -2.8483
    -2.8326  -2.6910  -2.6421  -2.5245  -2.3683  -2.3118  -2.1553  -2.0688
    -1.9242  -1.8917  -1.7536  -1.7309  -1.6952  -1.3418  -1.1561  -0.9684
    -0.8892  -0.7414  -0.6591  -0.4928  -0.4920  -0.4247  -0.3041  -0.2178
    -0.0947   0.0002   0.1352   0.3373   0.3596   0.5381   0.5395   0.5994
     0.6242   0.7706   0.9485   1.0151   1.1183   1.1340   1.1960   1.4318
     1.4658   1.5444   1.6452   1.7208   1.7442   1.8506

          k = 0.0474-0.0264 0.0000 ( 28380 PWs)   bands (ev):

   -71.3720 -71.3441 -71.2075 -71.1995 -71.1800 -71.1720 -42.7729 -42.7525
   -42.7448 -42.7021 -42.6781 -42.5776 -42.5665 -42.5533 -42.5425 -42.5231
   -42.5115 -42.5031 -42.4878 -42.4849 -42.3548 -42.3344 -42.2739 -42.2569
    -5.7937  -4.6421  -4.5132  -4.3777  -4.3630  -4.2436  -4.1004  -3.9822
    -3.8278  -3.7890  -3.7548  -3.7115  -3.5783  -3.5457  -3.0530  -2.9268
    -2.8175  -2.6587  -2.6262  -2.4724  -2.3804  -2.3749  -2.2063  -2.0585
    -1.9443  -1.8339  -1.7556  -1.7143  -1.7029  -1.3293  -0.9892  -0.9313
    -0.7411  -0.6534  -0.5840  -0.4209  -0.3756  -0.2086  -0.1936  -0.1841
    -0.0447   0.1289   0.1696   0.4372   0.4630   0.5565   0.6930   0.7487
     0.7721   0.9161   0.9334   1.1373   1.1454   1.2601   1.2953   1.3613
     1.5391   1.6159   1.6712   1.7351   1.7941   1.8978

          k = 0.0474-0.0088 0.0000 ( 28335 PWs)   bands (ev):

   -71.3720 -71.3441 -71.2075 -71.1995 -71.1800 -71.1720 -42.7727 -42.7523
   -42.7447 -42.7017 -42.6781 -42.5777 -42.5664 -42.5533 -42.5423 -42.5231
   -42.5113 -42.5030 -42.4878 -42.4848 -42.3547 -42.3344 -42.2739 -42.2569
    -5.8930  -4.6847  -4.5461  -4.4250  -4.3932  -4.3187  -4.1286  -4.0079
    -3.8709  -3.8274  -3.7612  -3.7453  -3.6207  -3.5763  -3.0499  -2.9760
    -2.8084  -2.6383  -2.5863  -2.4562  -2.4538  -2.3899  -2.2268  -2.0374
    -1.9701  -1.7713  -1.7638  -1.7201  -1.7134  -1.3229  -0.9197  -0.9079
    -0.7416  -0.5602  -0.4915  -0.3708  -0.3288  -0.1597  -0.1179  -0.0449
    -0.0403   0.1709   0.2042   0.4611   0.5227   0.5904   0.7111   0.8461
     0.8864   0.8932   1.0390   1.1129   1.2249   1.3304   1.3759   1.3979
     1.6145   1.6680   1.7557   1.8024   1.8636   1.8777

          k = 0.0474 0.0088 0.0000 ( 28335 PWs)   bands (ev):

   -71.3720 -71.3441 -71.2075 -71.1995 -71.1800 -71.1720 -42.7727 -42.7523
   -42.7447 -42.7017 -42.6781 -42.5777 -42.5664 -42.5533 -42.5423 -42.5231
   -42.5113 -42.5030 -42.4878 -42.4848 -42.3547 -42.3344 -42.2739 -42.2569
    -5.8930  -4.6847  -4.5461  -4.4250  -4.3932  -4.3187  -4.1286  -4.0079
    -3.8709  -3.8274  -3.7612  -3.7453  -3.6207  -3.5763  -3.0499  -2.9760
    -2.8084  -2.6383  -2.5863  -2.4562  -2.4538  -2.3899  -2.2268  -2.0374
    -1.9701  -1.7713  -1.7638  -1.7201  -1.7134  -1.3229  -0.9197  -0.9079
    -0.7416  -0.5602  -0.4915  -0.3708  -0.3288  -0.1597  -0.1179  -0.0449
    -0.0403   0.1709   0.2042   0.4611   0.5227   0.5904   0.7111   0.8461
     0.8864   0.8932   1.0390   1.1129   1.2249   1.3304   1.3759   1.3979
     1.6145   1.6680   1.7557   1.8024   1.8636   1.8777

          k = 0.0631 0.0352 0.0000 ( 28408 PWs)   bands (ev):

   -71.3679 -71.3482 -71.2035 -71.1954 -71.1840 -71.1760 -42.7690 -42.7493
   -42.7191 -42.6988 -42.6819 -42.5741 -42.5633 -42.5569 -42.5569 -42.5462
   -42.5084 -42.4915 -42.4700 -42.4520 -42.3519 -42.3374 -42.3079 -42.2907
    -5.4425  -4.4902  -4.3456  -4.2202  -4.1050  -4.0079  -3.9848  -3.9419
    -3.7542  -3.7125  -3.6074  -3.4816  -3.3918  -3.2868  -2.9448  -2.8955
    -2.8459  -2.7612  -2.6515  -2.6402  -2.4113  -2.3446  -2.1035  -2.0821
    -2.0525  -1.9173  -1.9072  -1.8568  -1.8035  -1.5498  -1.5414  -1.1279
    -0.9961  -0.7454  -0.7267  -0.6297  -0.5963  -0.3312  -0.3213  -0.1088
     0.0072   0.0552   0.1638   0.3213   0.4376   0.4790   0.5341   0.5648
     0.6845   0.7612   0.8559   0.9079   1.0314   1.1537   1.1733   1.2127
     1.3327   1.4409   1.6558   1.6920   1.7121   1.7122

          k = 0.0631 0.0528 0.0000 ( 28423 PWs)   bands (ev):

   -71.3679 -71.3482 -71.2035 -71.1954 -71.1840 -71.1760 -42.7692 -42.7493
   -42.7193 -42.6993 -42.6818 -42.5740 -42.5635 -42.5570 -42.5568 -42.5464
   -42.5086 -42.4916 -42.4701 -42.4522 -42.3519 -42.3374 -42.3079 -42.2907
    -5.2247  -4.4342  -4.2993  -4.1454  -4.0463  -3.9634  -3.9386  -3.8127
    -3.7107  -3.6680  -3.5189  -3.4876  -3.3073  -3.2303  -2.9523  -2.9220
    -2.8151  -2.7896  -2.6918  -2.6457  -2.4072  -2.2688  -2.1166  -2.1027
    -2.0606  -1.9451  -1.9012  -1.8415  -1.8242  -1.6690  -1.5616  -1.1565
    -1.1246  -0.9538  -0.8260  -0.6423  -0.6343  -0.5013  -0.4220  -0.1706
    -0.1118  -0.0180   0.0942   0.2187   0.3572   0.3953   0.5100   0.5852
     0.6153   0.7343   0.7887   0.9030   1.0101   1.0500   1.1365   1.1871
     1.2739   1.4111   1.6478   1.6694   1.6875   1.7042

          k = 0.0631 0.0705 0.0000 ( 28420 PWs)   bands (ev):

   -71.3678 -71.3482 -71.2035 -71.1954 -71.1840 -71.1760 -42.7695 -42.7494
   -42.7195 -42.6998 -42.6817 -42.5739 -42.5636 -42.5570 -42.5568 -42.5465
   -42.5088 -42.4916 -42.4703 -42.4524 -42.3520 -42.3374 -42.3078 -42.2907
    -4.9427  -4.3634  -4.2404  -4.0875  -3.9789  -3.9273  -3.8879  -3.6873
    -3.6601  -3.6328  -3.5034  -3.4012  -3.2039  -3.1887  -2.9821  -2.9552
    -2.8490  -2.7855  -2.7068  -2.6149  -2.4113  -2.2280  -2.1643  -2.1520
    -2.0748  -1.9873  -1.9241  -1.8576  -1.8548  -1.7109  -1.5877  -1.2599
    -1.1925  -1.1626  -0.9206  -0.8220  -0.6612  -0.5252  -0.4845  -0.2969
    -0.2452  -0.1227   0.0486   0.2301   0.2510   0.3655   0.4787   0.5473
     0.6255   0.6725   0.8105   0.9262   0.9925   1.0353   1.1396   1.1798
     1.2573   1.4000   1.6115   1.6480   1.6504   1.7084

          k = 0.0631 0.0881 0.0000 ( 28434 PWs)   bands (ev):

   -71.3678 -71.3482 -71.2035 -71.1953 -71.1840 -71.1760 -42.7697 -42.7494
   -42.7197 -42.7002 -42.6816 -42.5738 -42.5637 -42.5571 -42.5568 -42.5467
   -42.5090 -42.4917 -42.4704 -42.4525 -42.3520 -42.3374 -42.3078 -42.2907
    -4.6308  -4.2986  -4.1862  -4.1144  -3.9288  -3.8917  -3.8415  -3.6980
    -3.6160  -3.5535  -3.5201  -3.2792  -3.1732  -3.0996  -3.0574  -2.9565
    -2.8702  -2.8348  -2.6579  -2.5752  -2.3882  -2.2568  -2.2333  -2.1734
    -2.1272  -2.0295  -2.0102  -1.8967  -1.8810  -1.6250  -1.6107  -1.3584
    -1.3555  -1.1745  -1.0250  -0.9642  -0.7047  -0.5494  -0.5138  -0.3639
    -0.3241  -0.2201   0.1502   0.1682   0.1975   0.3639   0.3763   0.5872
     0.6283   0.6637   0.8406   0.9681   0.9943   1.0952   1.1330   1.2148
     1.2803   1.3918   1.5447   1.5706   1.6231   1.7250

          k = 0.0631 0.1057 0.0000 ( 28444 PWs)   bands (ev):

   -71.3678 -71.3482 -71.2035 -71.1953 -71.1840 -71.1760 -42.7698 -42.7495
   -42.7198 -42.7004 -42.6816 -42.5738 -42.5638 -42.5571 -42.5568 -42.5467
   -42.5091 -42.4917 -42.4704 -42.4526 -42.3520 -42.3375 -42.3078 -42.2907
    -4.4092  -4.2713  -4.2265  -4.1630  -3.9140  -3.8719  -3.8158  -3.7177
    -3.6116  -3.5504  -3.4974  -3.2184  -3.1605  -3.0985  -3.0201  -2.9904
    -2.8806  -2.8706  -2.5973  -2.5552  -2.3874  -2.2952  -2.2532  -2.1795
    -2.1712  -2.0770  -2.0154  -1.9122  -1.8880  -1.6135  -1.5786  -1.4318
    -1.3890  -1.1712  -1.0946  -0.9992  -0.7211  -0.5810  -0.5068  -0.4070
    -0.3166  -0.2454   0.1384   0.1687   0.2151   0.3303   0.3681   0.5807
     0.6342   0.6672   0.8604   0.9589   1.0452   1.1076   1.1395   1.2911
     1.3423   1.3882   1.4569   1.5155   1.6127   1.7282

          k = 0.0631 0.1233 0.0000 ( 28434 PWs)   bands (ev):

   -71.3678 -71.3482 -71.2035 -71.1953 -71.1840 -71.1760 -42.7697 -42.7494
   -42.7197 -42.7002 -42.6816 -42.5738 -42.5637 -42.5571 -42.5568 -42.5467
   -42.5090 -42.4917 -42.4704 -42.4525 -42.3520 -42.3374 -42.3078 -42.2907
    -4.6308  -4.2986  -4.1862  -4.1144  -3.9288  -3.8917  -3.8415  -3.6980
    -3.6160  -3.5535  -3.5201  -3.2792  -3.1732  -3.0996  -3.0574  -2.9565
    -2.8702  -2.8348  -2.6580  -2.5752  -2.3882  -2.2568  -2.2333  -2.1734
    -2.1272  -2.0295  -2.0102  -1.8967  -1.8810  -1.6250  -1.6107  -1.3584
    -1.3555  -1.1745  -1.0250  -0.9642  -0.7047  -0.5494  -0.5138  -0.3639
    -0.3241  -0.2201   0.1502   0.1682   0.1975   0.3639   0.3763   0.5872
     0.6283   0.6637   0.8406   0.9681   0.9943   1.0952   1.1330   1.2148
     1.2803   1.3918   1.5448   1.5707   1.6231   1.7218

          k = 0.0631-0.0705 0.0000 ( 28420 PWs)   bands (ev):

   -71.3678 -71.3482 -71.2035 -71.1954 -71.1840 -71.1760 -42.7695 -42.7494
   -42.7195 -42.6998 -42.6817 -42.5739 -42.5636 -42.5570 -42.5568 -42.5465
   -42.5088 -42.4916 -42.4703 -42.4524 -42.3520 -42.3374 -42.3078 -42.2907
    -4.9427  -4.3634  -4.2404  -4.0875  -3.9789  -3.9273  -3.8879  -3.6873
    -3.6601  -3.6328  -3.5034  -3.4012  -3.2039  -3.1887  -2.9821  -2.9552
    -2.8490  -2.7855  -2.7068  -2.6149  -2.4113  -2.2280  -2.1643  -2.1520
    -2.0748  -1.9873  -1.9241  -1.8576  -1.8548  -1.7109  -1.5877  -1.2599
    -1.1925  -1.1626  -0.9206  -0.8220  -0.6612  -0.5252  -0.4845  -0.2969
    -0.2452  -0.1227   0.0486   0.2301   0.2510   0.3655   0.4787   0.5473
     0.6255   0.6725   0.8105   0.9263   0.9925   1.0353   1.1396   1.1798
     1.2573   1.4000   1.6115   1.6480   1.6504   1.7084

          k = 0.0631-0.0528 0.0000 ( 28423 PWs)   bands (ev):

   -71.3679 -71.3482 -71.2035 -71.1954 -71.1840 -71.1760 -42.7692 -42.7493
   -42.7193 -42.6993 -42.6818 -42.5740 -42.5635 -42.5570 -42.5568 -42.5464
   -42.5086 -42.4916 -42.4701 -42.4522 -42.3519 -42.3374 -42.3079 -42.2907
    -5.2247  -4.4342  -4.2993  -4.1454  -4.0463  -3.9634  -3.9386  -3.8127
    -3.7107  -3.6680  -3.5189  -3.4876  -3.3073  -3.2303  -2.9523  -2.9220
    -2.8151  -2.7895  -2.6918  -2.6457  -2.4072  -2.2688  -2.1166  -2.1027
    -2.0606  -1.9451  -1.9012  -1.8415  -1.8242  -1.6690  -1.5616  -1.1565
    -1.1246  -0.9538  -0.8260  -0.6423  -0.6343  -0.5013  -0.4220  -0.1706
    -0.1118  -0.0180   0.0942   0.2187   0.3572   0.3953   0.5100   0.5852
     0.6153   0.7343   0.7887   0.9030   1.0101   1.0500   1.1365   1.1871
     1.2739   1.4111   1.6478   1.6694   1.6875   1.7042

          k = 0.0631-0.0352 0.0000 ( 28408 PWs)   bands (ev):

   -71.3679 -71.3482 -71.2035 -71.1954 -71.1840 -71.1760 -42.7690 -42.7493
   -42.7191 -42.6988 -42.6819 -42.5741 -42.5633 -42.5569 -42.5569 -42.5462
   -42.5084 -42.4915 -42.4700 -42.4520 -42.3519 -42.3374 -42.3079 -42.2907
    -5.4425  -4.4902  -4.3456  -4.2202  -4.1050  -4.0079  -3.9848  -3.9419
    -3.7542  -3.7125  -3.6074  -3.4816  -3.3918  -3.2868  -2.9448  -2.8955
    -2.8459  -2.7612  -2.6515  -2.6402  -2.4113  -2.3446  -2.1035  -2.0821
    -2.0525  -1.9173  -1.9072  -1.8568  -1.8035  -1.5498  -1.5414  -1.1279
    -0.9961  -0.7454  -0.7267  -0.6297  -0.5963  -0.3312  -0.3213  -0.1088
     0.0072   0.0552   0.1638   0.3213   0.4376   0.4790   0.5341   0.5648
     0.6845   0.7612   0.8559   0.9079   1.0314   1.1537   1.1733   1.2127
     1.3327   1.4409   1.6558   1.6920   1.7121   1.7121

          k = 0.0631-0.0176 0.0000 ( 28374 PWs)   bands (ev):

   -71.3679 -71.3482 -71.2035 -71.1955 -71.1840 -71.1760 -42.7688 -42.7492
   -42.7189 -42.6984 -42.6819 -42.5741 -42.5632 -42.5569 -42.5568 -42.5460
   -42.5082 -42.4914 -42.4698 -42.4518 -42.3518 -42.3374 -42.3079 -42.2908
    -5.5788  -4.5239  -4.3729  -4.2755  -4.1421  -4.0771  -4.0172  -3.9932
    -3.7990  -3.7412  -3.6628  -3.4770  -3.4459  -3.3337  -2.9399  -2.9017
    -2.8866  -2.7167  -2.6052  -2.5996  -2.4460  -2.4414  -2.0954  -2.0854
    -2.0445  -1.9164  -1.8810  -1.8734  -1.7943  -1.5436  -1.4530  -1.1074
    -0.9077  -0.6858  -0.6537  -0.6031  -0.5320  -0.2214  -0.1201  -0.1136
     0.0769   0.0862   0.1934   0.4310   0.4410   0.5242   0.5658   0.6141
     0.6829   0.8216   0.8382   1.0271   1.0577   1.2188   1.2209   1.3273
     1.4099   1.5725   1.6603   1.6951   1.7309   1.7773

          k = 0.0631 0.0000 0.0000 ( 28374 PWs)   bands (ev):

   -71.3679 -71.3482 -71.2035 -71.1955 -71.1840 -71.1760 -42.7687 -42.7492
   -42.7189 -42.6983 -42.6819 -42.5742 -42.5631 -42.5569 -42.5568 -42.5460
   -42.5081 -42.4914 -42.4698 -42.4517 -42.3518 -42.3374 -42.3079 -42.2908
    -5.6250  -4.5349  -4.3816  -4.2953  -4.1532  -4.1105  -4.0288  -4.0041
    -3.8180  -3.7492  -3.6830  -3.4741  -3.4644  -3.3525  -2.9402  -2.9220
    -2.8844  -2.7017  -2.5610  -2.5599  -2.5108  -2.4810  -2.0919  -2.0871
    -2.0388  -1.9222  -1.8917  -1.8547  -1.7930  -1.5413  -1.4233  -1.1005
    -0.8771  -0.6626  -0.6530  -0.6076  -0.4670  -0.1546  -0.1341  -0.0067
     0.0465   0.0794   0.2668   0.3720   0.4852   0.5611   0.5756   0.6093
     0.6667   0.8481   0.8879   0.9747   1.1427   1.2354   1.2513   1.3480
     1.4428   1.6489   1.6647   1.7370   1.7553   1.9377

          k = 0.0631 0.0176 0.0000 ( 28374 PWs)   bands (ev):

   -71.3679 -71.3482 -71.2035 -71.1955 -71.1840 -71.1760 -42.7688 -42.7492
   -42.7189 -42.6984 -42.6819 -42.5741 -42.5632 -42.5569 -42.5568 -42.5460
   -42.5082 -42.4914 -42.4698 -42.4518 -42.3518 -42.3374 -42.3079 -42.2908
    -5.5788  -4.5239  -4.3729  -4.2755  -4.1421  -4.0771  -4.0172  -3.9932
    -3.7990  -3.7412  -3.6628  -3.4770  -3.4459  -3.3337  -2.9399  -2.9017
    -2.8866  -2.7167  -2.6052  -2.5996  -2.4460  -2.4414  -2.0954  -2.0854
    -2.0445  -1.9164  -1.8810  -1.8734  -1.7943  -1.5436  -1.4530  -1.1074
    -0.9077  -0.6858  -0.6537  -0.6031  -0.5320  -0.2214  -0.1201  -0.1136
     0.0769   0.0862   0.1934   0.4310   0.4410   0.5242   0.5658   0.6141
     0.6829   0.8216   0.8382   1.0271   1.0577   1.2188   1.2209   1.3273
     1.4099   1.5725   1.6603   1.6951   1.7309   1.7773

          k = 0.0789 0.0440 0.0000 ( 28446 PWs)   bands (ev):

   -71.3631 -71.3529 -71.1988 -71.1907 -71.1887 -71.1807 -42.7643 -42.7541
   -42.6949 -42.6862 -42.6803 -42.5964 -42.5699 -42.5610 -42.5592 -42.5504
   -42.5044 -42.4957 -42.4312 -42.4134 -42.3498 -42.3459 -42.3409 -42.3299
    -5.0561  -4.4830  -4.1623  -4.0920  -3.9475  -3.9307  -3.8179  -3.7477
    -3.7080  -3.6516  -3.4348  -3.3339  -3.2173  -3.1314  -2.9067  -2.9054
    -2.7917  -2.7516  -2.6999  -2.6337  -2.3705  -2.3350  -2.2652  -2.1804
    -2.0946  -2.0479  -2.0297  -1.8691  -1.8497  -1.8111  -1.7148  -1.5641
    -1.3306  -1.2440  -0.7826  -0.6950  -0.5425  -0.4356  -0.3153  -0.0693
    -0.0576   0.0214   0.0842   0.3392   0.3512   0.4873   0.5450   0.6365
     0.6516   0.6890   0.7581   0.7864   0.9255   0.9626   0.9943   1.0653
     1.1690   1.3089   1.5327   1.5812   1.6954   1.7023

          k = 0.0789 0.0616 0.0000 ( 28422 PWs)   bands (ev):

   -71.3631 -71.3529 -71.1988 -71.1907 -71.1887 -71.1807 -42.7645 -42.7541
   -42.6953 -42.6859 -42.6805 -42.5963 -42.5698 -42.5611 -42.5593 -42.5505
   -42.5046 -42.4957 -42.4313 -42.4136 -42.3498 -42.3459 -42.3409 -42.3298
    -4.8417  -4.5361  -4.1166  -4.0513  -3.8994  -3.8933  -3.7525  -3.7369
    -3.6668  -3.6098  -3.4039  -3.3544  -3.1734  -3.1391  -2.8911  -2.8827
    -2.8001  -2.7440  -2.7057  -2.6227  -2.4049  -2.2948  -2.2911  -2.2009
    -2.1327  -2.0849  -2.0422  -1.8608  -1.8552  -1.7874  -1.7253  -1.6626
    -1.3671  -1.2962  -0.9385  -0.7384  -0.5323  -0.5282  -0.3271  -0.1528
    -0.1482  -0.1064   0.1287   0.2610   0.3613   0.5092   0.5490   0.6098
     0.6342   0.6947   0.7942   0.8690   0.8737   0.9364   0.9521   1.0121
     1.1536   1.2909   1.5204   1.5863   1.6762   1.6912

          k = 0.0789 0.0793 0.0000 ( 28436 PWs)   bands (ev):

   -71.3631 -71.3529 -71.1988 -71.1907 -71.1887 -71.1807 -42.7647 -42.7541
   -42.6957 -42.6858 -42.6806 -42.5963 -42.5697 -42.5612 -42.5594 -42.5506
   -42.5047 -42.4957 -42.4314 -42.4137 -42.3497 -42.3459 -42.3409 -42.3298
    -4.5849  -4.5712  -4.0569  -4.0362  -3.8644  -3.8550  -3.7293  -3.7072
    -3.6244  -3.5935  -3.5058  -3.2546  -3.1445  -3.1396  -2.8808  -2.8525
    -2.8003  -2.7927  -2.6755  -2.5810  -2.4482  -2.3535  -2.3051  -2.2370
    -2.1732  -2.1322  -2.0313  -1.9103  -1.8540  -1.7583  -1.7489  -1.7109
    -1.4039  -1.3452  -1.0600  -0.8496  -0.5471  -0.5215  -0.3588  -0.2442
    -0.1455  -0.1264   0.1939   0.2241   0.3335   0.4369   0.4811   0.6099
     0.6823   0.7810   0.8156   0.8405   0.9438   0.9667   0.9961   1.0867
     1.1612   1.2684   1.5284   1.5735   1.6266   1.6698

          k = 0.0789 0.0969 0.0000 ( 28441 PWs)   bands (ev):

   -71.3631 -71.3529 -71.1988 -71.1907 -71.1887 -71.1807 -42.7648 -42.7541
   -42.6959 -42.6856 -42.6808 -42.5962 -42.5697 -42.5612 -42.5594 -42.5507
   -42.5048 -42.4957 -42.4315 -42.4138 -42.3497 -42.3459 -42.3409 -42.3297
    -4.5880  -4.3243  -4.1115  -4.0081  -3.8486  -3.8273  -3.7274  -3.6875
    -3.6047  -3.5950  -3.5871  -3.1902  -3.1435  -3.0717  -2.9350  -2.8902
    -2.7726  -2.7688  -2.6330  -2.5410  -2.5124  -2.3687  -2.3360  -2.2897
    -2.2180  -2.1614  -2.0257  -1.9435  -1.8536  -1.8069  -1.7697  -1.6529
    -1.4353  -1.3780  -1.1131  -0.9265  -0.5653  -0.5015  -0.3874  -0.2795
    -0.1591  -0.0733   0.1656   0.2856   0.3557   0.3576   0.4586   0.6026
     0.6227   0.8134   0.8642   0.8991   0.9290   0.9947   1.0457   1.2191
     1.2512   1.3487   1.4995   1.5396   1.5751   1.6500

          k = 0.0789 0.1145 0.0000 ( 28441 PWs)   bands (ev):

   -71.3631 -71.3529 -71.1988 -71.1907 -71.1887 -71.1807 -42.7648 -42.7541
   -42.6959 -42.6856 -42.6808 -42.5962 -42.5697 -42.5612 -42.5594 -42.5507
   -42.5048 -42.4957 -42.4315 -42.4138 -42.3497 -42.3459 -42.3409 -42.3297
    -4.5880  -4.3243  -4.1115  -4.0081  -3.8486  -3.8273  -3.7274  -3.6875
    -3.6047  -3.5950  -3.5871  -3.1902  -3.1435  -3.0717  -2.9350  -2.8902
    -2.7726  -2.7688  -2.6330  -2.5410  -2.5124  -2.3687  -2.3360  -2.2897
    -2.2180  -2.1614  -2.0257  -1.9435  -1.8536  -1.8069  -1.7697  -1.6529
    -1.4353  -1.3780  -1.1131  -0.9265  -0.5653  -0.5015  -0.3874  -0.2795
    -0.1591  -0.0733   0.1656   0.2856   0.3557   0.3576   0.4586   0.6026
     0.6227   0.8134   0.8642   0.8991   0.9290   0.9947   1.0457   1.2191
     1.2512   1.3487   1.4995   1.5395   1.5751   1.6500

          k = 0.0789 0.1321 0.0000 ( 28436 PWs)   bands (ev):

   -71.3631 -71.3529 -71.1988 -71.1907 -71.1887 -71.1807 -42.7647 -42.7541
   -42.6957 -42.6858 -42.6806 -42.5963 -42.5697 -42.5612 -42.5594 -42.5506
   -42.5047 -42.4957 -42.4314 -42.4137 -42.3497 -42.3459 -42.3409 -42.3298
    -4.5849  -4.5712  -4.0569  -4.0362  -3.8644  -3.8550  -3.7293  -3.7072
    -3.6244  -3.5935  -3.5058  -3.2546  -3.1445  -3.1396  -2.8808  -2.8525
    -2.8003  -2.7927  -2.6755  -2.5810  -2.4482  -2.3535  -2.3050  -2.2370
    -2.1732  -2.1322  -2.0313  -1.9103  -1.8540  -1.7583  -1.7489  -1.7109
    -1.4039  -1.3452  -1.0600  -0.8496  -0.5471  -0.5215  -0.3588  -0.2442
    -0.1455  -0.1264   0.1939   0.2241   0.3335   0.4369   0.4811   0.6099
     0.6823   0.7810   0.8156   0.8405   0.9438   0.9667   0.9961   1.0867
     1.1612   1.2684   1.5284   1.5735   1.6266   1.6698

          k = 0.0789-0.0616 0.0000 ( 28422 PWs)   bands (ev):

   -71.3631 -71.3529 -71.1988 -71.1907 -71.1887 -71.1807 -42.7645 -42.7541
   -42.6953 -42.6859 -42.6805 -42.5963 -42.5698 -42.5611 -42.5593 -42.5505
   -42.5046 -42.4957 -42.4313 -42.4136 -42.3498 -42.3459 -42.3409 -42.3298
    -4.8417  -4.5361  -4.1166  -4.0513  -3.8994  -3.8933  -3.7525  -3.7369
    -3.6668  -3.6098  -3.4039  -3.3544  -3.1734  -3.1391  -2.8911  -2.8827
    -2.8001  -2.7440  -2.7057  -2.6227  -2.4049  -2.2948  -2.2911  -2.2009
    -2.1327  -2.0849  -2.0422  -1.8608  -1.8552  -1.7874  -1.7253  -1.6626
    -1.3671  -1.2962  -0.9385  -0.7384  -0.5323  -0.5282  -0.3271  -0.1528
    -0.1482  -0.1064   0.1287   0.2610   0.3613   0.5092   0.5490   0.6098
     0.6342   0.6947   0.7942   0.8690   0.8737   0.9363   0.9521   1.0121
     1.1536   1.2909   1.5204   1.5863   1.6762   1.6912

          k = 0.0789-0.0440 0.0000 ( 28446 PWs)   bands (ev):

   -71.3631 -71.3529 -71.1988 -71.1907 -71.1887 -71.1807 -42.7643 -42.7541
   -42.6949 -42.6862 -42.6803 -42.5964 -42.5699 -42.5610 -42.5592 -42.5504
   -42.5044 -42.4957 -42.4312 -42.4134 -42.3498 -42.3459 -42.3409 -42.3299
    -5.0561  -4.4830  -4.1623  -4.0920  -3.9475  -3.9307  -3.8179  -3.7477
    -3.7080  -3.6516  -3.4348  -3.3339  -3.2173  -3.1314  -2.9067  -2.9054
    -2.7917  -2.7516  -2.6999  -2.6337  -2.3705  -2.3350  -2.2652  -2.1804
    -2.0946  -2.0479  -2.0297  -1.8691  -1.8497  -1.8111  -1.7148  -1.5641
    -1.3306  -1.2440  -0.7826  -0.6950  -0.5425  -0.4356  -0.3153  -0.0693
    -0.0576   0.0214   0.0842   0.3392   0.3512   0.4873   0.5450   0.6365
     0.6517   0.6890   0.7581   0.7864   0.9255   0.9626   0.9943   1.0653
     1.1690   1.3089   1.5326   1.5812   1.6954   1.7023

          k = 0.0789-0.0264 0.0000 ( 28403 PWs)   bands (ev):

   -71.3632 -71.3529 -71.1988 -71.1908 -71.1887 -71.1807 -42.7642 -42.7541
   -42.6945 -42.6863 -42.6801 -42.5965 -42.5700 -42.5610 -42.5591 -42.5503
   -42.5043 -42.4957 -42.4311 -42.4132 -42.3498 -42.3459 -42.3409 -42.3300
    -5.2078  -4.4209  -4.1836  -4.1262  -4.0033  -3.9600  -3.8800  -3.7589
    -3.7388  -3.7026  -3.4856  -3.2897  -3.2571  -3.1313  -2.9463  -2.9002
    -2.8075  -2.7838  -2.6393  -2.6143  -2.4111  -2.3787  -2.2621  -2.1847
    -2.0652  -2.0426  -1.9751  -1.9055  -1.8706  -1.7938  -1.6995  -1.4868
    -1.3008  -1.2052  -0.7087  -0.6766  -0.5489  -0.2737  -0.2533  -0.0222
     0.0412   0.0923   0.1716   0.3121   0.4144   0.4383   0.5281   0.5866
     0.6494   0.7210   0.7529   0.7988   0.9738   1.0431   1.1315   1.1644
     1.2343   1.3609   1.5800   1.5912   1.6616   1.7038

          k = 0.0789-0.0088 0.0000 ( 28404 PWs)   bands (ev):

   -71.3632 -71.3529 -71.1988 -71.1908 -71.1887 -71.1807 -42.7641 -42.7542
   -42.6943 -42.6864 -42.6801 -42.5965 -42.5700 -42.5609 -42.5591 -42.5503
   -42.5042 -42.4957 -42.4310 -42.4132 -42.3498 -42.3459 -42.3409 -42.3300
    -5.2860  -4.3748  -4.1792  -4.1438  -4.0547  -3.9761  -3.9170  -3.7723
    -3.7550  -3.7302  -3.5101  -3.2780  -3.2645  -3.1367  -2.9737  -2.8885
    -2.8548  -2.7842  -2.5875  -2.5539  -2.4800  -2.4286  -2.2680  -2.1916
    -2.0503  -2.0320  -1.9432  -1.9383  -1.8828  -1.7829  -1.6839  -1.4468
    -1.2860  -1.1851  -0.7230  -0.6465  -0.5316  -0.1838  -0.1444  -0.0122
     0.0593   0.1446   0.2606   0.3020   0.4073   0.4727   0.4767   0.5709
     0.5970   0.7115   0.7776   0.8466   0.9937   1.1167   1.1605   1.2413
     1.3611   1.5240   1.6142   1.6193   1.6872   1.7117

          k = 0.0789 0.0088 0.0000 ( 28404 PWs)   bands (ev):

   -71.3632 -71.3529 -71.1988 -71.1908 -71.1887 -71.1807 -42.7641 -42.7542
   -42.6943 -42.6864 -42.6801 -42.5965 -42.5700 -42.5609 -42.5591 -42.5503
   -42.5042 -42.4957 -42.4310 -42.4132 -42.3498 -42.3459 -42.3409 -42.3300
    -5.2860  -4.3748  -4.1792  -4.1438  -4.0547  -3.9761  -3.9170  -3.7723
    -3.7550  -3.7302  -3.5101  -3.2780  -3.2645  -3.1367  -2.9737  -2.8885
    -2.8548  -2.7842  -2.5875  -2.5539  -2.4800  -2.4286  -2.2680  -2.1916
    -2.0503  -2.0320  -1.9432  -1.9383  -1.8828  -1.7829  -1.6839  -1.4468
    -1.2860  -1.1851  -0.7230  -0.6465  -0.5316  -0.1838  -0.1444  -0.0122
     0.0593   0.1446   0.2606   0.3020   0.4073   0.4727   0.4767   0.5709
     0.5970   0.7115   0.7776   0.8466   0.9937   1.1167   1.1605   1.2413
     1.3611   1.5240   1.6142   1.6193   1.6872   1.7116

          k = 0.0789 0.0264 0.0000 ( 28403 PWs)   bands (ev):

   -71.3632 -71.3529 -71.1988 -71.1908 -71.1887 -71.1807 -42.7642 -42.7541
   -42.6945 -42.6863 -42.6801 -42.5965 -42.5700 -42.5610 -42.5591 -42.5503
   -42.5043 -42.4957 -42.4311 -42.4132 -42.3498 -42.3459 -42.3409 -42.3300
    -5.2078  -4.4209  -4.1836  -4.1262  -4.0033  -3.9600  -3.8800  -3.7589
    -3.7388  -3.7026  -3.4856  -3.2897  -3.2571  -3.1313  -2.9463  -2.9002
    -2.8075  -2.7838  -2.6393  -2.6143  -2.4111  -2.3787  -2.2621  -2.1847
    -2.0652  -2.0426  -1.9751  -1.9055  -1.8706  -1.7938  -1.6995  -1.4868
    -1.3008  -1.2052  -0.7087  -0.6766  -0.5489  -0.2737  -0.2533  -0.0222
     0.0412   0.0923   0.1716   0.3121   0.4144   0.4383   0.5281   0.5866
     0.6494   0.7210   0.7529   0.7988   0.9738   1.0431   1.1315   1.1644
     1.2343   1.3609   1.5800   1.5912   1.6616   1.7038

          k =-0.0947-0.0528 0.0000 ( 28410 PWs)   bands (ev):

   -71.3582 -71.3579 -71.1939 -71.1937 -71.1859 -71.1855 -42.7594 -42.7592
   -42.6907 -42.6904 -42.6386 -42.6384 -42.5655 -42.5654 -42.5552 -42.5546
   -42.5003 -42.4999 -42.3895 -42.3893 -42.3719 -42.3718 -42.3446 -42.3445
    -4.7045  -4.7039  -4.0423  -4.0419  -3.8775  -3.8765  -3.8083  -3.8081
    -3.5194  -3.5190  -3.3445  -3.3431  -3.2320  -3.2301  -2.8782  -2.8758
    -2.7097  -2.7082  -2.5876  -2.5863  -2.3675  -2.3659  -2.2578  -2.2556
    -2.1473  -2.1443  -2.0324  -2.0276  -1.8466  -1.8460  -1.7716  -1.7677
    -1.4664  -1.4656  -0.7744  -0.7741  -0.4931  -0.4927  -0.2117  -0.2112
    -0.0951  -0.0947   0.2224   0.2228   0.5156   0.5159   0.6392   0.6398
     0.6885   0.6894   0.7293   0.7294   0.8302   0.8315   0.8815   0.8822
     1.2222   1.2223   1.5192   1.5194   1.7003   1.7005

          k =-0.0947-0.0352 0.0000 ( 28405 PWs)   bands (ev):

   -71.3582 -71.3579 -71.1939 -71.1937 -71.1859 -71.1855 -42.7594 -42.7591
   -42.6909 -42.6902 -42.6387 -42.6383 -42.5656 -42.5654 -42.5552 -42.5546
   -42.5003 -42.4999 -42.3896 -42.3893 -42.3720 -42.3717 -42.3446 -42.3445
    -4.8331  -4.5389  -4.0468  -4.0290  -3.8913  -3.8762  -3.8225  -3.7965
    -3.5804  -3.4800  -3.3576  -3.3379  -3.2346  -3.2031  -2.9088  -2.8426
    -2.7298  -2.7137  -2.5957  -2.5606  -2.4134  -2.3479  -2.2734  -2.2572
    -2.1783  -2.1179  -2.0731  -1.9952  -1.8865  -1.8418  -1.7577  -1.7496
    -1.4948  -1.4410  -0.8352  -0.7479  -0.5298  -0.4288  -0.2389  -0.1840
    -0.0607  -0.0356   0.1705   0.2924   0.4802   0.5053   0.5840   0.6455
     0.6489   0.6771   0.7050   0.7767   0.8312   0.9015   0.9426   1.0218
     1.2083   1.2289   1.5186   1.5395   1.6720   1.6985

          k =-0.0947-0.0176 0.0000 ( 28414 PWs)   bands (ev):

   -71.3582 -71.3579 -71.1939 -71.1937 -71.1859 -71.1855 -42.7595 -42.7591
   -42.6911 -42.6900 -42.6387 -42.6382 -42.5656 -42.5653 -42.5552 -42.5546
   -42.5003 -42.4999 -42.3896 -42.3892 -42.3721 -42.3716 -42.3446 -42.3445
    -4.9142  -4.3585  -4.0700  -4.0077  -3.9191  -3.8803  -3.8381  -3.7894
    -3.6433  -3.4568  -3.3638  -3.3501  -3.2321  -3.1465  -2.9041  -2.8898
    -2.7724  -2.6738  -2.5904  -2.5284  -2.4550  -2.3674  -2.3096  -2.2584
    -2.2169  -2.1031  -2.1012  -1.9781  -1.9396  -1.8351  -1.7431  -1.7172
    -1.5205  -1.4268  -0.8775  -0.7749  -0.5165  -0.3794  -0.2208  -0.1912
    -0.0184   0.0896   0.1531   0.3721   0.3997   0.4969   0.5585   0.5914
     0.6365   0.6497   0.6605   0.7550   0.9607   0.9952   1.0569   1.1778
     1.2534   1.3310   1.5358   1.5470   1.6122   1.6792

          k =-0.0947-0.0000 0.0000 ( 28418 PWs)   bands (ev):

   -71.3582 -71.3579 -71.1939 -71.1937 -71.1859 -71.1855 -42.7595 -42.7590
   -42.6912 -42.6899 -42.6388 -42.6382 -42.5656 -42.5653 -42.5552 -42.5546
   -42.5003 -42.4999 -42.3896 -42.3892 -42.3721 -42.3716 -42.3446 -42.3445
    -4.9417  -4.2309  -4.1328  -3.9955  -3.9318  -3.8835  -3.8458  -3.7887
    -3.6686  -3.4474  -3.3650  -3.3591  -3.2307  -3.1072  -2.9337  -2.8799
    -2.8207  -2.6287  -2.5893  -2.5070  -2.4692  -2.3979  -2.3257  -2.2588
    -2.2403  -2.1104  -2.0965  -1.9742  -1.9613  -1.8292  -1.7439  -1.6966
    -1.5314  -1.4240  -0.8914  -0.7893  -0.5071  -0.3614  -0.2086  -0.1940
    -0.0015   0.1526   0.1656   0.3507   0.3946   0.5496   0.5521   0.5565
     0.5919   0.6317   0.6480   0.7515   0.9875   1.0540   1.1255   1.1612
     1.3457   1.4408   1.5478   1.5486   1.6660   1.7010

          k =-0.0947 0.0176 0.0000 ( 28414 PWs)   bands (ev):

   -71.3582 -71.3579 -71.1939 -71.1937 -71.1859 -71.1855 -42.7595 -42.7591
   -42.6911 -42.6900 -42.6387 -42.6382 -42.5656 -42.5653 -42.5552 -42.5546
   -42.5003 -42.4999 -42.3896 -42.3892 -42.3721 -42.3716 -42.3446 -42.3445
    -4.9142  -4.3585  -4.0700  -4.0077  -3.9191  -3.8803  -3.8381  -3.7894
    -3.6433  -3.4568  -3.3638  -3.3501  -3.2321  -3.1465  -2.9041  -2.8898
    -2.7724  -2.6738  -2.5904  -2.5284  -2.4550  -2.3674  -2.3096  -2.2584
    -2.2169  -2.1031  -2.1012  -1.9781  -1.9396  -1.8351  -1.7431  -1.7172
    -1.5205  -1.4268  -0.8775  -0.7749  -0.5165  -0.3794  -0.2208  -0.1912
    -0.0184   0.0896   0.1531   0.3721   0.3997   0.4969   0.5585   0.5914
     0.6365   0.6497   0.6605   0.7550   0.9607   0.9952   1.0569   1.1778
     1.2534   1.3310   1.5358   1.5470   1.6122   1.6792

          k =-0.0947 0.0352 0.0000 ( 28405 PWs)   bands (ev):

   -71.3582 -71.3579 -71.1939 -71.1937 -71.1859 -71.1855 -42.7594 -42.7591
   -42.6909 -42.6902 -42.6387 -42.6383 -42.5656 -42.5654 -42.5552 -42.5546
   -42.5003 -42.4999 -42.3896 -42.3893 -42.3720 -42.3717 -42.3446 -42.3445
    -4.8331  -4.5389  -4.0468  -4.0290  -3.8913  -3.8762  -3.8225  -3.7965
    -3.5804  -3.4800  -3.3576  -3.3379  -3.2346  -3.2031  -2.9088  -2.8426
    -2.7298  -2.7137  -2.5957  -2.5606  -2.4134  -2.3479  -2.2734  -2.2572
    -2.1783  -2.1179  -2.0731  -1.9952  -1.8865  -1.8418  -1.7577  -1.7496
    -1.4948  -1.4410  -0.8352  -0.7479  -0.5298  -0.4288  -0.2389  -0.1840
    -0.0607  -0.0356   0.1705   0.2924   0.4802   0.5053   0.5840   0.6455
     0.6489   0.6771   0.7049   0.7767   0.8312   0.9015   0.9427   1.0218
     1.2083   1.2289   1.5186   1.5395   1.6720   1.6985

          k =-0.0947-0.1585 0.0000 ( 28410 PWs)   bands (ev):

   -71.3582 -71.3579 -71.1939 -71.1937 -71.1859 -71.1855 -42.7594 -42.7592
   -42.6907 -42.6904 -42.6386 -42.6384 -42.5655 -42.5654 -42.5552 -42.5546
   -42.5003 -42.4999 -42.3895 -42.3893 -42.3719 -42.3718 -42.3446 -42.3445
    -4.7045  -4.7039  -4.0423  -4.0419  -3.8775  -3.8765  -3.8083  -3.8081
    -3.5194  -3.5190  -3.3445  -3.3431  -3.2320  -3.2301  -2.8783  -2.8758
    -2.7097  -2.7082  -2.5876  -2.5863  -2.3675  -2.3659  -2.2578  -2.2555
    -2.1473  -2.1443  -2.0324  -2.0276  -1.8466  -1.8460  -1.7716  -1.7677
    -1.4664  -1.4656  -0.7744  -0.7741  -0.4931  -0.4927  -0.2117  -0.2112
    -0.0951  -0.0947   0.2224   0.2228   0.5156   0.5159   0.6392   0.6398
     0.6885   0.6894   0.7293   0.7294   0.8302   0.8315   0.8815   0.8822
     1.2222   1.2223   1.5192   1.5194   1.7003   1.7005

     the Fermi energy is     0.6580 ev

!    total energy              =   -1465.38153077 Ry
     estimated scf accuracy    <       0.00000518 Ry
     smearing contrib. (-TS)   =      -0.09981921 Ry
     internal energy E=F+TS    =   -1465.28171156 Ry

     The total energy is F=E-TS. E is the sum of the following terms:
     one-electron contribution =  -12871.62527948 Ry
     hartree contribution      =    6470.18577961 Ry
     xc contribution           =    -273.02916634 Ry
     ewald contribution        =    5209.18695422 Ry
     electric field correction =       0.00000043 Ry

     convergence has been achieved in  22 iterations

     negative rho (up, down):  3.393E-03 0.000E+00

     Forces acting on atoms (cartesian axes, Ry/au):

     atom    1 type  1   force =    -0.00000805    0.01702024    0.02589258
     atom    2 type  1   force =    -0.00000185    0.01705581    0.02585308
     atom    3 type  2   force =    -0.00000231   -0.03024595   -0.02010903
     atom    4 type  2   force =    -0.00000256   -0.03025150   -0.02011001
     atom    5 type  1   force =    -0.00010960    0.00105873    0.00082058
     atom    6 type  1   force =     0.00010526    0.00087669    0.00077908
     atom    7 type  2   force =     0.00000064    0.01322172   -0.01007389
     atom    8 type  2   force =    -0.00000229    0.01321670   -0.01007595
     atom    9 type  1   force =    -0.00001650   -0.00014447    0.00040769
     atom   10 type  1   force =     0.00003970    0.00006601    0.00029953
     atom   11 type  2   force =     0.00104083   -0.00093881    0.00315881
     atom   12 type  2   force =    -0.00104329   -0.00093516    0.00315753

     Total force =     0.071680     Total SCF correction =     0.008495
     SCF correction compared to forces is large: reduce conv_thr to get better values

     Writing output data file ./Cr2Pd2/Cr2Pd2_beef.save/

     init_run     :     27.96s CPU     50.44s WALL (       1 calls)
     electrons    :   1087.61s CPU   1952.20s WALL (       1 calls)
     forces       :     10.22s CPU     20.72s WALL (       1 calls)

     Called by init_run:
     wfcinit      :     21.33s CPU     38.82s WALL (       1 calls)
     potinit      :      4.58s CPU      7.40s WALL (       1 calls)
     hinit0       :      1.32s CPU      2.84s WALL (       1 calls)

     Called by electrons:
     c_bands      :    958.24s CPU   1679.45s WALL (      22 calls)
     sum_band     :    114.30s CPU    239.88s WALL (      22 calls)
     v_of_rho     :     11.96s CPU     24.72s WALL (      23 calls)
     newd         :      6.90s CPU     13.81s WALL (      23 calls)
     mix_rho      :      0.31s CPU      0.90s WALL (      22 calls)
     vdW_kernel   :      3.58s CPU      5.72s WALL (       1 calls)

     Called by c_bands:
     init_us_2    :      3.16s CPU      3.28s WALL (    3404 calls)
     cegterg      :    943.19s CPU   1644.78s WALL (    1628 calls)

     Called by *egterg:
     cdiaghg      :     98.31s CPU    115.05s WALL (    6105 calls)
     h_psi        :    475.10s CPU    883.22s WALL (    6179 calls)
     s_psi        :    103.02s CPU    103.19s WALL (    6179 calls)
     g_psi        :      0.84s CPU      0.91s WALL (    4477 calls)

     Called by h_psi:
     h_psi:calbec :     96.49s CPU    203.14s WALL (    6179 calls)
     vloc_psi     :    273.24s CPU    573.92s WALL (    6179 calls)
     add_vuspsi   :    104.81s CPU    105.36s WALL (    6179 calls)

     General routines
     calbec       :    145.29s CPU    307.41s WALL (    8103 calls)
     fft          :      6.73s CPU     25.65s WALL (    1508 calls)
     ffts         :      0.05s CPU      0.14s WALL (      45 calls)
     fftw         :    327.00s CPU    689.31s WALL (  775350 calls)
     interpolate  :      0.10s CPU      0.26s WALL (      23 calls)

     Parallel routines
     fft_scatt_xy :     11.95s CPU     21.52s WALL (  776903 calls)
     fft_scatt_yz :    200.49s CPU    484.59s WALL (  776903 calls)

     PWSCF        :  18m55.70s CPU  34m44.83s WALL


   This run was terminated on:  17:45:26  23Jun2022            

=------------------------------------------------------------------------------=
   JOB DONE.
=------------------------------------------------------------------------------=
