
     Program PWSCF v.6.6 starts on 10Jul2022 at 18: 8:58 

     This program is part of the open-source Quantum ESPRESSO suite
     for quantum simulation of materials; please cite
         "P. Giannozzi et al., J. Phys.:Condens. Matter 21 395502 (2009);
         "P. Giannozzi et al., J. Phys.:Condens. Matter 29 465901 (2017);
          URL http://www.quantum-espresso.org", 
     in publications or presentations arising from this work. More details at
     http://www.quantum-espresso.org/quote

     Parallel version (MPI), running on    37 processors

     MPI processes distributed on     3 nodes
     R & G space division:  proc/nbgrp/npool/nimage =      37
     Fft bands division:     nmany     =       1
     Reading input from Cr2Rh2.in
Warning: card &CELL ignored
Warning: card / ignored

     Current dimensions of program PWSCF are:
     Max number of different atomic species (ntypx) = 10
     Max number of k-points (npk) =  40000
     Max angular momentum in pseudopotentials (lmaxx) =  3
     Presently stress not available with electric field and gates

     Message from routine cell_base_init:
     DEPRECATED: use true lattice parameter, not A to a.u. conversion factor
     file Cr.pbe-spn-rrkjus_psl.1.0.0.UPF: wavefunction(s)  3P renormalized
     file Rh.pbe-spn-rrkjus_psl.1.0.0.UPF: wavefunction(s)  4S 5S renormalized

     **************************************************************************
     Initializing libbeef V0.1.2 with the BEEF-vdW functional.
     Citation: Wellendorff et al., PRB 85, 235149 (2012).
     **************************************************************************


     IMPORTANT: XC functional enforced from input :
     Exchange-correlation= BEEF-VDW
                           (   1   4  43  14   2   0   0)
     Any further DFT definition will be discarded
     Please, verify this is what you really want


     Subspace diagonalization in iterative solution of the eigenvalue problem:
     a serial algorithm will be used

     Found symmetry operation: I + ( -0.5000  0.5000  0.0000)
     This is a supercell, fractional translations are disabled

     Parallelization info
     --------------------
     sticks:   dense  smooth     PW     G-vecs:    dense   smooth      PW
     Min         102      40     11                23434     5910     913
     Max         103      41     12                23459     5943     940
     Sum        3793    1515    437               867363   219523   34357



     bravais-lattice index     =            0
     lattice parameter (alat)  =       1.8897  a.u.
     unit-cell volume          =    3968.3136 (a.u.)^3
     number of atoms/cell      =           12
     number of atomic types    =            2
     number of electrons       =       186.00
     number of Kohn-Sham states=          112
     kinetic-energy cutoff     =      55.1240  Ry
     charge density cutoff     =     551.2396  Ry
     convergence threshold     =      1.0E-05
     mixing beta               =       0.1000
     number of iterations used =           10  plain     mixing
     Exchange-correlation= BEEF-VDW
                           (   1   4  43  14   2   0   0)

     celldm(1)=   1.889726  celldm(2)=   0.000000  celldm(3)=   0.000000
     celldm(4)=   0.000000  celldm(5)=   0.000000  celldm(6)=   0.000000

     crystal axes: (cart. coord. in units of alat)
               a(1) = (   5.273061   0.000000   0.000000 )  
               a(2) = (   2.601785   4.586490   0.000000 )  
               a(3) = (   0.000000   0.000000  24.314549 )  

     reciprocal axes: (cart. coord. in units 2 pi/alat)
               b(1) = (  0.189643 -0.107579  0.000000 )  
               b(2) = (  0.000000  0.218032  0.000000 )  
               b(3) = (  0.000000  0.000000  0.041128 )  


     PseudoPot. # 1 for Cr read from file:
     ../pseudo/Cr.pbe-spn-rrkjus_psl.1.0.0.UPF
     MD5 check sum: 793d051e4f89dd1e3290b85340a92c0a
     Pseudo is Ultrasoft + core correction, Zval = 14.0
     Generated using "atomic" code by A. Dal Corso v.6.2.2
     Using radial grid of 1183 points,  6 beta functions with: 
                l(1) =   0
                l(2) =   0
                l(3) =   1
                l(4) =   1
                l(5) =   2
                l(6) =   2
     Q(r) pseudized with 0 coefficients 


     PseudoPot. # 2 for Rh read from file:
     ../pseudo/Rh.pbe-spn-rrkjus_psl.1.0.0.UPF
     MD5 check sum: 912a852783f0c9b7bd5e9eb06cc0cc10
     Pseudo is Ultrasoft + core correction, Zval = 17.0
     Generated using "atomic" code by A. Dal Corso v.6.3
     Using radial grid of 1233 points,  6 beta functions with: 
                l(1) =   0
                l(2) =   0
                l(3) =   1
                l(4) =   1
                l(5) =   2
                l(6) =   2
     Q(r) pseudized with 0 coefficients 


     atomic species   valence    mass     pseudopotential
        Cr            14.00    51.99610     Cr( 1.00)
        Rh            17.00   102.90550     Rh( 1.00)

     No symmetry found



   Cartesian axes

     site n.     atom                  positions (alat units)
         1           Cr  tau(   1) = (   0.0000000   0.0000000  10.0000000  )
         2           Cr  tau(   2) = (   3.9374232   2.2932448  10.0000000  )
         3           Rh  tau(   3) = (   2.6365305   0.0000000  10.0000000  )
         4           Rh  tau(   4) = (   1.3008927   2.2932448  10.0000000  )
         5           Cr  tau(   5) = (   5.2730611   3.0711506  12.1572747  )
         6           Cr  tau(   6) = (   1.3356379   0.7779059  12.1572747  )
         7           Rh  tau(   7) = (   2.6365305   3.0711506  12.1572747  )
         8           Rh  tau(   8) = (   3.9721684   0.7779059  12.1572747  )
         9           Cr  tau(   9) = (   2.6382412   1.5365716  14.1597522  )
        10           Cr  tau(  10) = (   6.5756740   3.8298226  14.1597681  )
        11           Rh  tau(  11) = (   5.3535627   1.5824822  14.2750137  )
        12           Rh  tau(  12) = (   4.0179435   3.8756957  14.2750137  )

     number of k points=    74  Fermi-Dirac smearing, width (Ry)=  0.0100
                       cart. coord. in units 2pi/alat
        k(    1) = (   0.0000000   0.0000000   0.0000000), wk =   0.0138889
        k(    2) = (   0.0000000   0.0181693   0.0000000), wk =   0.0277778
        k(    3) = (   0.0000000   0.0363386   0.0000000), wk =   0.0277778
        k(    4) = (   0.0000000   0.0545079   0.0000000), wk =   0.0277778
        k(    5) = (   0.0000000   0.0726772   0.0000000), wk =   0.0277778
        k(    6) = (   0.0000000   0.0908465   0.0000000), wk =   0.0277778
        k(    7) = (   0.0000000  -0.1090158   0.0000000), wk =   0.0138889
        k(    8) = (   0.0158036  -0.0089649   0.0000000), wk =   0.0277778
        k(    9) = (   0.0158036   0.0092044   0.0000000), wk =   0.0277778
        k(   10) = (   0.0158036   0.0273737   0.0000000), wk =   0.0277778
        k(   11) = (   0.0158036   0.0455430   0.0000000), wk =   0.0277778
        k(   12) = (   0.0158036   0.0637123   0.0000000), wk =   0.0277778
        k(   13) = (   0.0158036   0.0818816   0.0000000), wk =   0.0277778
        k(   14) = (   0.0158036  -0.1179808   0.0000000), wk =   0.0277778
        k(   15) = (   0.0158036  -0.0998115   0.0000000), wk =   0.0277778
        k(   16) = (   0.0158036  -0.0816421   0.0000000), wk =   0.0277778
        k(   17) = (   0.0158036  -0.0634728   0.0000000), wk =   0.0277778
        k(   18) = (   0.0158036  -0.0453035   0.0000000), wk =   0.0277778
        k(   19) = (   0.0158036  -0.0271342   0.0000000), wk =   0.0277778
        k(   20) = (   0.0316072  -0.0179299   0.0000000), wk =   0.0277778
        k(   21) = (   0.0316072   0.0002394   0.0000000), wk =   0.0277778
        k(   22) = (   0.0316072   0.0184087   0.0000000), wk =   0.0277778
        k(   23) = (   0.0316072   0.0365781   0.0000000), wk =   0.0277778
        k(   24) = (   0.0316072   0.0547474   0.0000000), wk =   0.0277778
        k(   25) = (   0.0316072   0.0729167   0.0000000), wk =   0.0277778
        k(   26) = (   0.0316072  -0.1269457   0.0000000), wk =   0.0277778
        k(   27) = (   0.0316072  -0.1087764   0.0000000), wk =   0.0277778
        k(   28) = (   0.0316072  -0.0906071   0.0000000), wk =   0.0277778
        k(   29) = (   0.0316072  -0.0724378   0.0000000), wk =   0.0277778
        k(   30) = (   0.0316072  -0.0542685   0.0000000), wk =   0.0277778
        k(   31) = (   0.0316072  -0.0360992   0.0000000), wk =   0.0277778
        k(   32) = (   0.0474108  -0.0268948   0.0000000), wk =   0.0277778
        k(   33) = (   0.0474108  -0.0087255   0.0000000), wk =   0.0277778
        k(   34) = (   0.0474108   0.0094438   0.0000000), wk =   0.0277778
        k(   35) = (   0.0474108   0.0276131   0.0000000), wk =   0.0277778
        k(   36) = (   0.0474108   0.0457824   0.0000000), wk =   0.0277778
        k(   37) = (   0.0474108   0.0639517   0.0000000), wk =   0.0277778
        k(   38) = (   0.0474108  -0.1359106   0.0000000), wk =   0.0277778
        k(   39) = (   0.0474108  -0.1177413   0.0000000), wk =   0.0277778
        k(   40) = (   0.0474108  -0.0995720   0.0000000), wk =   0.0277778
        k(   41) = (   0.0474108  -0.0814027   0.0000000), wk =   0.0277778
        k(   42) = (   0.0474108  -0.0632334   0.0000000), wk =   0.0277778
        k(   43) = (   0.0474108  -0.0450641   0.0000000), wk =   0.0277778
        k(   44) = (   0.0632144  -0.0358597   0.0000000), wk =   0.0277778
        k(   45) = (   0.0632144  -0.0176904   0.0000000), wk =   0.0277778
        k(   46) = (   0.0632144   0.0004789   0.0000000), wk =   0.0277778
        k(   47) = (   0.0632144   0.0186482   0.0000000), wk =   0.0277778
        k(   48) = (   0.0632144   0.0368175   0.0000000), wk =   0.0277778
        k(   49) = (   0.0632144   0.0549868   0.0000000), wk =   0.0277778
        k(   50) = (   0.0632144  -0.1448755   0.0000000), wk =   0.0277778
        k(   51) = (   0.0632144  -0.1267062   0.0000000), wk =   0.0277778
        k(   52) = (   0.0632144  -0.1085369   0.0000000), wk =   0.0277778
        k(   53) = (   0.0632144  -0.0903676   0.0000000), wk =   0.0277778
        k(   54) = (   0.0632144  -0.0721983   0.0000000), wk =   0.0277778
        k(   55) = (   0.0632144  -0.0540290   0.0000000), wk =   0.0277778
        k(   56) = (   0.0790180  -0.0448247   0.0000000), wk =   0.0277778
        k(   57) = (   0.0790180  -0.0266553   0.0000000), wk =   0.0277778
        k(   58) = (   0.0790180  -0.0084860   0.0000000), wk =   0.0277778
        k(   59) = (   0.0790180   0.0096833   0.0000000), wk =   0.0277778
        k(   60) = (   0.0790180   0.0278526   0.0000000), wk =   0.0277778
        k(   61) = (   0.0790180   0.0460219   0.0000000), wk =   0.0277778
        k(   62) = (   0.0790180  -0.1538405   0.0000000), wk =   0.0277778
        k(   63) = (   0.0790180  -0.1356712   0.0000000), wk =   0.0277778
        k(   64) = (   0.0790180  -0.1175019   0.0000000), wk =   0.0277778
        k(   65) = (   0.0790180  -0.0993326   0.0000000), wk =   0.0277778
        k(   66) = (   0.0790180  -0.0811633   0.0000000), wk =   0.0277778
        k(   67) = (   0.0790180  -0.0629940   0.0000000), wk =   0.0277778
        k(   68) = (  -0.0948216   0.0537896   0.0000000), wk =   0.0138889
        k(   69) = (  -0.0948216   0.0719589   0.0000000), wk =   0.0277778
        k(   70) = (  -0.0948216   0.0901282   0.0000000), wk =   0.0277778
        k(   71) = (  -0.0948216   0.1082975   0.0000000), wk =   0.0277778
        k(   72) = (  -0.0948216   0.1264668   0.0000000), wk =   0.0277778
        k(   73) = (  -0.0948216   0.1446361   0.0000000), wk =   0.0277778
        k(   74) = (  -0.0948216  -0.0552262   0.0000000), wk =   0.0138889

     Dense  grid:   867363 G-vectors     FFT dimensions: (  75,  75, 360)

     Smooth grid:   219523 G-vectors     FFT dimensions: (  48,  48, 225)

     Estimated max dynamical RAM per process >     189.24 MB

     Estimated total dynamical RAM >       6.84 GB

     Check: negative core charge=   -0.000001

     Initial potential from superposition of free atoms

     starting charge  185.99242, renormalised to  186.00000

     negative rho (up, down):  3.421E-03 0.000E+00


     %%%%%%%%%%%%%%%%%%%%%%%%%%%%%%%%%%%%%%%%%%%%%%%%%%%%%%%%%%%%%%%%%%%%%%%%
     %                                                                      %
     % You are using vdW-DF, which was implemented by the Thonhauser group. %
     % Please cite the following two papers that made this development      %
     % possible and the two reviews that describe the various versions:     %
     %                                                                      %
     %   T. Thonhauser et al., PRL 115, 136402 (2015).                      %
     %   T. Thonhauser et al., PRB 76, 125112 (2007).                       %
     %   K. Berland et al., Rep. Prog. Phys. 78, 066501 (2015).             %
     %   D.C. Langreth et al., J. Phys.: Condens. Matter 21, 084203 (2009). %
     %                                                                      %
     %                                                                      %
     % If you are calculating the stress with vdW-DF, please also cite:     %
     %                                                                      %
     %   R. Sabatini et al., J. Phys.: Condens. Matter 24, 424209 (2012).   %
     %                                                                      %
     %%%%%%%%%%%%%%%%%%%%%%%%%%%%%%%%%%%%%%%%%%%%%%%%%%%%%%%%%%%%%%%%%%%%%%%%



     Adding external electric field

     Computed dipole along edir(3) : 
        Dipole               -0.0001 Ry au,         -0.0002 Debye
        Dipole field         -0.0000 Ry au, 

        Potential amp.        0.0000 Ry
        Total length         44.7991 bohr

     Starting wfcs are  120 randomized atomic wfcs

     total cpu time spent up to now is       70.9 secs

     Self-consistent Calculation

     iteration #  1     ecut=    55.12 Ry     beta= 0.10
     Davidson diagonalization with overlap
     ethr =  1.00E-02,  avg # of iterations =  2.2

     negative rho (up, down):  3.379E-03 0.000E+00

     Adding external electric field

     Computed dipole along edir(3) : 
        Dipole               -0.6225 Ry au,         -1.5823 Debye
        Dipole field         -0.0020 Ry au, 

        Potential amp.        0.1766 Ry
        Total length         44.7991 bohr


     total cpu time spent up to now is      263.8 secs

     total energy              =   -2418.36331104 Ry
     estimated scf accuracy    <       8.46317870 Ry

     iteration #  2     ecut=    55.12 Ry     beta= 0.10
     Davidson diagonalization with overlap
     ethr =  4.55E-03,  avg # of iterations =  2.4

     negative rho (up, down):  3.465E-03 0.000E+00

     Adding external electric field

     Computed dipole along edir(3) : 
        Dipole                0.5603 Ry au,          1.4241 Debye
        Dipole field          0.0018 Ry au, 

        Potential amp.       -0.1590 Ry
        Total length         44.7991 bohr


     total cpu time spent up to now is      432.9 secs

     total energy              =   -2417.82533109 Ry
     estimated scf accuracy    <      83.09357038 Ry

     iteration #  3     ecut=    55.12 Ry     beta= 0.10
     Davidson diagonalization with overlap
     ethr =  4.55E-03,  avg # of iterations =  1.5

     negative rho (up, down):  3.643E-03 0.000E+00

     Adding external electric field

     Computed dipole along edir(3) : 
        Dipole               -0.0480 Ry au,         -0.1220 Debye
        Dipole field         -0.0002 Ry au, 

        Potential amp.        0.0136 Ry
        Total length         44.7991 bohr


     total cpu time spent up to now is      585.4 secs

     total energy              =   -2418.61263605 Ry
     estimated scf accuracy    <      68.62001378 Ry

     iteration #  4     ecut=    55.12 Ry     beta= 0.10
     Davidson diagonalization with overlap
     ethr =  4.55E-03,  avg # of iterations =  1.0

     negative rho (up, down):  3.569E-03 0.000E+00

     Adding external electric field

     Computed dipole along edir(3) : 
        Dipole               -0.0072 Ry au,         -0.0183 Debye
        Dipole field         -0.0000 Ry au, 

        Potential amp.        0.0020 Ry
        Total length         44.7991 bohr


     total cpu time spent up to now is      726.0 secs

     total energy              =   -2419.31643339 Ry
     estimated scf accuracy    <       0.97185632 Ry

     iteration #  5     ecut=    55.12 Ry     beta= 0.10
     Davidson diagonalization with overlap
     ethr =  5.23E-04,  avg # of iterations =  2.0

     negative rho (up, down):  3.431E-03 0.000E+00

     Adding external electric field

     Computed dipole along edir(3) : 
        Dipole                0.0231 Ry au,          0.0587 Debye
        Dipole field          0.0001 Ry au, 

        Potential amp.       -0.0066 Ry
        Total length         44.7991 bohr


     total cpu time spent up to now is      889.2 secs

     total energy              =   -2419.29193549 Ry
     estimated scf accuracy    <       0.25893433 Ry

     iteration #  6     ecut=    55.12 Ry     beta= 0.10
     Davidson diagonalization with overlap
     ethr =  1.39E-04,  avg # of iterations =  4.0

     negative rho (up, down):  3.428E-03 0.000E+00

     Adding external electric field

     Computed dipole along edir(3) : 
        Dipole                0.0040 Ry au,          0.0102 Debye
        Dipole field          0.0000 Ry au, 

        Potential amp.       -0.0011 Ry
        Total length         44.7991 bohr


     total cpu time spent up to now is     1078.2 secs

     total energy              =   -2419.31502249 Ry
     estimated scf accuracy    <       0.09079677 Ry

     iteration #  7     ecut=    55.12 Ry     beta= 0.10
     Davidson diagonalization with overlap
     ethr =  4.88E-05,  avg # of iterations =  3.0

     negative rho (up, down):  3.667E-03 0.000E+00

     Adding external electric field

     Computed dipole along edir(3) : 
        Dipole                0.0096 Ry au,          0.0245 Debye
        Dipole field          0.0000 Ry au, 

        Potential amp.       -0.0027 Ry
        Total length         44.7991 bohr


     total cpu time spent up to now is     1246.9 secs

     total energy              =   -2419.31129323 Ry
     estimated scf accuracy    <       0.05210175 Ry

     iteration #  8     ecut=    55.12 Ry     beta= 0.10
     Davidson diagonalization with overlap
     ethr =  2.80E-05,  avg # of iterations =  3.8

     negative rho (up, down):  3.997E-03 0.000E+00

     Adding external electric field

     Computed dipole along edir(3) : 
        Dipole                0.0123 Ry au,          0.0312 Debye
        Dipole field          0.0000 Ry au, 

        Potential amp.       -0.0035 Ry
        Total length         44.7991 bohr


     total cpu time spent up to now is     1424.1 secs

     total energy              =   -2419.31476625 Ry
     estimated scf accuracy    <       0.05748713 Ry

     iteration #  9     ecut=    55.12 Ry     beta= 0.10
     Davidson diagonalization with overlap
     ethr =  2.80E-05,  avg # of iterations =  1.0

     negative rho (up, down):  3.924E-03 0.000E+00

     Adding external electric field

     Computed dipole along edir(3) : 
        Dipole                0.0103 Ry au,          0.0262 Debye
        Dipole field          0.0000 Ry au, 

        Potential amp.       -0.0029 Ry
        Total length         44.7991 bohr


     total cpu time spent up to now is     1564.2 secs

     total energy              =   -2419.31517476 Ry
     estimated scf accuracy    <       0.02448648 Ry

     iteration # 10     ecut=    55.12 Ry     beta= 0.10
     Davidson diagonalization with overlap
     ethr =  1.32E-05,  avg # of iterations =  2.1

     negative rho (up, down):  4.357E-03 0.000E+00

     Adding external electric field

     Computed dipole along edir(3) : 
        Dipole                0.0016 Ry au,          0.0041 Debye
        Dipole field          0.0000 Ry au, 

        Potential amp.       -0.0005 Ry
        Total length         44.7991 bohr


     total cpu time spent up to now is     1717.8 secs

     total energy              =   -2419.31478054 Ry
     estimated scf accuracy    <       0.01033617 Ry

     iteration # 11     ecut=    55.12 Ry     beta= 0.10
     Davidson diagonalization with overlap
     ethr =  5.56E-06,  avg # of iterations =  6.8

     negative rho (up, down):  4.258E-03 0.000E+00

     Adding external electric field

     Computed dipole along edir(3) : 
        Dipole               -0.0003 Ry au,         -0.0008 Debye
        Dipole field         -0.0000 Ry au, 

        Potential amp.        0.0001 Ry
        Total length         44.7991 bohr


     total cpu time spent up to now is     1940.9 secs

     total energy              =   -2419.31712633 Ry
     estimated scf accuracy    <       0.01732459 Ry

     iteration # 12     ecut=    55.12 Ry     beta= 0.10
     Davidson diagonalization with overlap
     ethr =  5.56E-06,  avg # of iterations =  1.0

     negative rho (up, down):  4.213E-03 0.000E+00

     Adding external electric field

     Computed dipole along edir(3) : 
        Dipole               -0.0004 Ry au,         -0.0011 Debye
        Dipole field         -0.0000 Ry au, 

        Potential amp.        0.0001 Ry
        Total length         44.7991 bohr


     total cpu time spent up to now is     2081.6 secs

     total energy              =   -2419.31550019 Ry
     estimated scf accuracy    <       0.01992233 Ry

     iteration # 13     ecut=    55.12 Ry     beta= 0.10
     Davidson diagonalization with overlap
     ethr =  5.56E-06,  avg # of iterations =  2.0

     negative rho (up, down):  4.243E-03 0.000E+00

     Adding external electric field

     Computed dipole along edir(3) : 
        Dipole                0.0037 Ry au,          0.0093 Debye
        Dipole field          0.0000 Ry au, 

        Potential amp.       -0.0010 Ry
        Total length         44.7991 bohr


     total cpu time spent up to now is     2248.0 secs

     total energy              =   -2419.31572469 Ry
     estimated scf accuracy    <       0.00806876 Ry

     iteration # 14     ecut=    55.12 Ry     beta= 0.10
     Davidson diagonalization with overlap
     ethr =  4.34E-06,  avg # of iterations =  1.8

     negative rho (up, down):  4.101E-03 0.000E+00

     Adding external electric field

     Computed dipole along edir(3) : 
        Dipole                0.0041 Ry au,          0.0103 Debye
        Dipole field          0.0000 Ry au, 

        Potential amp.       -0.0012 Ry
        Total length         44.7991 bohr


     total cpu time spent up to now is     2407.6 secs

     total energy              =   -2419.31611691 Ry
     estimated scf accuracy    <       0.00043686 Ry

     iteration # 15     ecut=    55.12 Ry     beta= 0.10
     Davidson diagonalization with overlap
     ethr =  2.35E-07,  avg # of iterations =  5.4

     negative rho (up, down):  4.040E-03 0.000E+00

     Adding external electric field

     Computed dipole along edir(3) : 
        Dipole                0.0070 Ry au,          0.0179 Debye
        Dipole field          0.0000 Ry au, 

        Potential amp.       -0.0020 Ry
        Total length         44.7991 bohr


     total cpu time spent up to now is     2607.1 secs

     total energy              =   -2419.31613804 Ry
     estimated scf accuracy    <       0.00029680 Ry

     iteration # 16     ecut=    55.12 Ry     beta= 0.10
     Davidson diagonalization with overlap
     ethr =  1.60E-07,  avg # of iterations =  2.9

     negative rho (up, down):  3.951E-03 0.000E+00

     Adding external electric field

     Computed dipole along edir(3) : 
        Dipole                0.0049 Ry au,          0.0126 Debye
        Dipole field          0.0000 Ry au, 

        Potential amp.       -0.0014 Ry
        Total length         44.7991 bohr


     total cpu time spent up to now is     2798.1 secs

     total energy              =   -2419.31620897 Ry
     estimated scf accuracy    <       0.00065564 Ry

     iteration # 17     ecut=    55.12 Ry     beta= 0.10
     Davidson diagonalization with overlap
     ethr =  1.60E-07,  avg # of iterations =  2.0

     negative rho (up, down):  3.849E-03 0.000E+00

     Adding external electric field

     Computed dipole along edir(3) : 
        Dipole                0.0059 Ry au,          0.0149 Debye
        Dipole field          0.0000 Ry au, 

        Potential amp.       -0.0017 Ry
        Total length         44.7991 bohr


     total cpu time spent up to now is     2967.9 secs

     total energy              =   -2419.31617754 Ry
     estimated scf accuracy    <       0.00059815 Ry

     iteration # 18     ecut=    55.12 Ry     beta= 0.10
     Davidson diagonalization with overlap
     ethr =  1.60E-07,  avg # of iterations =  1.9

     negative rho (up, down):  3.818E-03 0.000E+00

     Adding external electric field

     Computed dipole along edir(3) : 
        Dipole                0.0062 Ry au,          0.0158 Debye
        Dipole field          0.0000 Ry au, 

        Potential amp.       -0.0018 Ry
        Total length         44.7991 bohr


     total cpu time spent up to now is     3126.6 secs

     total energy              =   -2419.31619082 Ry
     estimated scf accuracy    <       0.00015303 Ry

     iteration # 19     ecut=    55.12 Ry     beta= 0.10
     Davidson diagonalization with overlap
     ethr =  8.23E-08,  avg # of iterations =  3.0

     negative rho (up, down):  3.732E-03 0.000E+00

     Adding external electric field

     Computed dipole along edir(3) : 
        Dipole                0.0056 Ry au,          0.0142 Debye
        Dipole field          0.0000 Ry au, 

        Potential amp.       -0.0016 Ry
        Total length         44.7991 bohr


     total cpu time spent up to now is     3296.9 secs

     total energy              =   -2419.31619973 Ry
     estimated scf accuracy    <       0.00001726 Ry

     iteration # 20     ecut=    55.12 Ry     beta= 0.10
     Davidson diagonalization with overlap
     ethr =  9.28E-09,  avg # of iterations =  5.4

     negative rho (up, down):  3.299E-03 0.000E+00

     Adding external electric field

     Computed dipole along edir(3) : 
        Dipole                0.0044 Ry au,          0.0111 Debye
        Dipole field          0.0000 Ry au, 

        Potential amp.       -0.0012 Ry
        Total length         44.7991 bohr


     total cpu time spent up to now is     3501.1 secs

     End of self-consistent calculation

          k = 0.0000 0.0000 0.0000 ( 27443 PWs)   bands (ev):

   -77.4537 -77.4095 -76.8886 -76.8586 -76.8445 -76.8148 -70.3633 -70.3266
   -70.1985 -70.1817 -70.1623 -70.1454 -45.5099 -45.3764 -45.3397 -45.3232
   -45.2832 -45.0647 -44.9798 -44.9325 -44.8110 -44.7851 -44.7538 -44.7277
   -44.6854 -44.6461 -44.6400 -44.5993 -44.5379 -44.4934 -41.7729 -41.6807
   -41.6653 -41.6559 -41.6468 -41.5677 -41.5369 -41.5089 -41.4933 -41.4917
   -41.4840 -41.4786 -41.4732 -41.4547 -41.3742 -41.3517 -41.1957 -41.1909
    -5.2739  -3.8328  -3.6060  -3.5566  -3.5174  -3.5134  -3.1641  -2.8985
    -2.8919  -2.8023  -2.7483  -2.6732  -2.6304  -2.5597  -1.8732  -1.8314
    -1.4463  -1.0503  -0.9761  -0.8958  -0.7994  -0.5907  -0.5239  -0.4542
    -0.4309  -0.2320  -0.0296   0.0535   0.1596   0.4307   0.7173   0.8212
     0.8594   1.0472   1.0553   1.2215   1.2411   1.2773   1.4283   1.4844
     1.7335   1.9077   1.9782   2.0222   2.2664   2.3171   2.5399   2.5532
     2.5774   2.7903   2.8444   2.9029   2.9699   2.9833   3.0685   3.0985
     3.2071   3.2285   3.3412   3.3644   3.5168   3.5697   3.5986   3.6823

          k = 0.0000 0.0182 0.0000 ( 27436 PWs)   bands (ev):

   -77.4529 -77.4102 -76.8878 -76.8579 -76.8453 -76.8155 -70.3627 -70.3273
   -70.1979 -70.1811 -70.1629 -70.1460 -45.5024 -45.3754 -45.3383 -45.3240
   -45.2837 -45.0723 -44.9723 -44.9250 -44.8096 -44.7836 -44.7543 -44.7282
   -44.6848 -44.6452 -44.6410 -44.6000 -44.5454 -44.5009 -41.7682 -41.6808
   -41.6654 -41.6568 -41.6475 -41.5668 -41.5372 -41.5091 -41.4926 -41.4884
   -41.4839 -41.4793 -41.4734 -41.4556 -41.3740 -41.3523 -41.2010 -41.1963
    -5.2134  -3.7956  -3.5501  -3.5060  -3.4827  -3.4716  -3.1319  -2.8721
    -2.8576  -2.7849  -2.7324  -2.6311  -2.6075  -2.5115  -1.8469  -1.8079
    -1.4458  -1.0684  -0.9442  -0.8862  -0.7791  -0.6485  -0.5576  -0.4600
    -0.4326  -0.2518  -0.0523   0.0308   0.1286   0.4464   0.7303   0.8370
     0.8466   0.8860   1.0667   1.1278   1.2387   1.2803   1.3953   1.4779
     1.7317   1.8991   1.9001   1.9891   2.2595   2.2723   2.2983   2.5377
     2.5891   2.6966   2.7474   2.8704   2.9108   3.0003   3.0204   3.0393
     3.1223   3.1962   3.2857   3.3005   3.3860   3.4431   3.4815   3.5491

          k = 0.0000 0.0363 0.0000 ( 27419 PWs)   bands (ev):

   -77.4507 -77.4124 -76.8856 -76.8557 -76.8475 -76.8177 -70.3609 -70.3291
   -70.1961 -70.1793 -70.1648 -70.1478 -45.4802 -45.3724 -45.3342 -45.3264
   -45.2852 -45.0946 -44.9504 -44.9032 -44.8056 -44.7795 -44.7559 -44.7296
   -44.6831 -44.6438 -44.6426 -44.6020 -44.5675 -44.5228 -41.7544 -41.6810
   -41.6657 -41.6595 -41.6495 -41.5645 -41.5379 -41.5096 -41.4995 -41.4949
   -41.4744 -41.4742 -41.4656 -41.4580 -41.3732 -41.3537 -41.2165 -41.2120
    -5.0360  -3.6879  -3.3968  -3.3836  -3.3638  -3.3409  -3.0413  -2.8270
    -2.7512  -2.7304  -2.6453  -2.5802  -2.4867  -2.3697  -1.7740  -1.7369
    -1.4510  -1.1075  -0.8852  -0.8670  -0.7955  -0.7181  -0.6357  -0.5198
    -0.4169  -0.3181  -0.1070  -0.0391   0.0388   0.4531   0.6702   0.7622
     0.7735   0.8850   0.8882   0.9981   1.1714   1.3045   1.3096   1.4280
     1.6488   1.6806   1.8721   1.8956   1.9253   2.0443   2.3214   2.3677
     2.4219   2.4528   2.6944   2.7161   2.7809   2.7897   2.9124   2.9935
     3.0049   3.0245   3.0818   3.0997   3.1924   3.3564   3.3607   3.4513

          k = 0.0000 0.0545 0.0000 ( 27410 PWs)   bands (ev):

   -77.4472 -77.4159 -76.8821 -76.8522 -76.8510 -76.8212 -70.3580 -70.3321
   -70.1933 -70.1765 -70.1677 -70.1508 -45.4450 -45.3678 -45.3302 -45.3280
   -45.2879 -45.1301 -44.9154 -44.8684 -44.7994 -44.7731 -44.7588 -44.7323
   -44.6803 -44.6481 -44.6386 -44.6054 -44.6026 -44.5577 -41.7324 -41.6811
   -41.6656 -41.6635 -41.6522 -41.5609 -41.5393 -41.5242 -41.5101 -41.4983
   -41.4750 -41.4623 -41.4513 -41.4435 -41.3720 -41.3560 -41.2410 -41.2367
    -4.7544  -3.5249  -3.2419  -3.2074  -3.1532  -3.1000  -2.8996  -2.7952
    -2.6733  -2.5263  -2.5134  -2.4893  -2.2970  -2.1433  -1.6778  -1.6138
    -1.4787  -1.1555  -1.0259  -0.9701  -0.7684  -0.6654  -0.6209  -0.5957
    -0.4332  -0.4205  -0.1745  -0.1558  -0.0953   0.2726   0.3703   0.6690
     0.7523   0.8138   0.8184   0.9973   1.0983   1.1404   1.1726   1.3594
     1.3700   1.5042   1.5527   1.7423   1.8540   1.8813   1.9675   2.0101
     2.2850   2.3181   2.3853   2.5862   2.5965   2.6842   2.7238   2.8407
     2.8790   2.9380   3.0534   3.0547   3.1329   3.2122   3.3074   3.3130

          k = 0.0000 0.0727 0.0000 ( 27426 PWs)   bands (ev):

   -77.4426 -77.4205 -76.8775 -76.8555 -76.8477 -76.8257 -70.3543 -70.3359
   -70.1896 -70.1727 -70.1715 -70.1546 -45.3992 -45.3619 -45.3353 -45.3205
   -45.2920 -45.1763 -44.8699 -44.8232 -44.7920 -44.7653 -44.7630 -44.7362
   -44.6765 -44.6535 -44.6485 -44.6332 -44.6099 -44.6031 -41.7036 -41.6807
   -41.6681 -41.6650 -41.6552 -41.5577 -41.5547 -41.5414 -41.5103 -41.5021
   -41.4754 -41.4663 -41.4217 -41.4146 -41.3702 -41.3587 -41.2727 -41.2685
    -4.3931  -3.3600  -3.1075  -3.0203  -2.9151  -2.8139  -2.7485  -2.6867
    -2.5725  -2.4611  -2.3043  -2.2373  -2.0747  -1.8725  -1.5953  -1.5146
    -1.4423  -1.2713  -1.1906  -1.1522  -0.7213  -0.6931  -0.6039  -0.5845
    -0.5287  -0.4057  -0.3069  -0.2565  -0.2352  -0.1122   0.0448   0.5725
     0.6074   0.6861   0.7242   0.8002   0.8050   0.9785   1.0873   1.1522
     1.2807   1.4094   1.4916   1.5585   1.6149   1.7287   1.7939   1.8927
     2.0997   2.2255   2.2782   2.2883   2.3639   2.4986   2.5889   2.6686
     2.6934   2.8197   2.8715   2.9185   3.0716   3.1627   3.2861   3.3007

          k = 0.0000 0.0908 0.0000 ( 27434 PWs)   bands (ev):

   -77.4373 -77.4258 -76.8722 -76.8608 -76.8424 -76.8310 -70.3499 -70.3404
   -70.1853 -70.1759 -70.1684 -70.1590 -45.3552 -45.3464 -45.3407 -45.3124
   -45.2973 -45.2300 -44.8171 -44.7840 -44.7708 -44.7683 -44.7572 -44.7412
   -44.7020 -44.6713 -44.6595 -44.6560 -44.6272 -44.6153 -41.6795 -41.6752
   -41.6675 -41.6637 -41.6573 -41.5921 -41.5521 -41.5442 -41.5097 -41.5055
   -41.4748 -41.4701 -41.3869 -41.3803 -41.3679 -41.3615 -41.3092 -41.3048
    -3.9946  -3.3743  -2.9618  -2.8678  -2.7386  -2.6563  -2.5980  -2.5241
    -2.3804  -2.3538  -2.1204  -2.0562  -1.8788  -1.7521  -1.5757  -1.5186
    -1.3143  -1.2623  -1.2614  -1.1802  -0.8134  -0.8009  -0.6557  -0.6546
    -0.5245  -0.5087  -0.4340  -0.3165  -0.2851  -0.2276  -0.1302   0.0635
     0.1649   0.3349   0.6412   0.7536   0.8557   0.8832   0.9341   1.1022
     1.1610   1.2948   1.3313   1.6428   1.6706   1.7316   1.7570   1.8924
     1.9525   2.0100   2.1683   2.1809   2.2502   2.3040   2.3686   2.4943
     2.5425   2.6641   2.7890   2.8081   3.0894   3.1296   3.2950   3.2979

          k = 0.0000-0.1090 0.0000 ( 27446 PWs)   bands (ev):

   -77.4316 -77.4316 -76.8665 -76.8665 -76.8367 -76.8367 -70.3452 -70.3451
   -70.1806 -70.1805 -70.1637 -70.1637 -45.3483 -45.3483 -45.3052 -45.3052
   -45.2870 -45.2870 -44.7774 -44.7774 -44.7585 -44.7584 -44.7490 -44.7490
   -44.7128 -44.7128 -44.6655 -44.6655 -44.6212 -44.6212 -41.6771 -41.6770
   -41.6618 -41.6617 -41.6301 -41.6300 -41.5479 -41.5479 -41.5082 -41.5081
   -41.4731 -41.4731 -41.3657 -41.3656 -41.3475 -41.3475 -41.3429 -41.3429
    -3.6247  -3.6247  -2.8312  -2.8312  -2.6447  -2.6447  -2.5297  -2.5297
    -2.2200  -2.2199  -2.0014  -2.0014  -1.8616  -1.8615  -1.5532  -1.5532
    -1.2793  -1.2793  -1.0734  -1.0734  -0.9003  -0.9003  -0.6737  -0.6737
    -0.5119  -0.5119  -0.4031  -0.4031  -0.3607  -0.3607  -0.2068  -0.2068
     0.1158   0.1158   0.6502   0.6502   0.8610   0.8610   0.9431   0.9431
     1.1819   1.1819   1.4929   1.4929   1.7297   1.7298   1.8812   1.8812
     2.0144   2.0144   2.0773   2.0773   2.1387   2.1387   2.3529   2.3529
     2.5554   2.5555   2.7856   2.7857   3.1078   3.1078   3.2994   3.2994

          k = 0.0158-0.0090 0.0000 ( 27436 PWs)   bands (ev):

   -77.4529 -77.4102 -76.8878 -76.8579 -76.8453 -76.8155 -70.3627 -70.3273
   -70.1979 -70.1811 -70.1629 -70.1460 -45.5024 -45.3754 -45.3383 -45.3240
   -45.2837 -45.0723 -44.9723 -44.9250 -44.8096 -44.7836 -44.7543 -44.7282
   -44.6848 -44.6452 -44.6410 -44.6000 -44.5454 -44.5009 -41.7682 -41.6808
   -41.6654 -41.6568 -41.6475 -41.5668 -41.5372 -41.5091 -41.4926 -41.4884
   -41.4839 -41.4793 -41.4734 -41.4556 -41.3740 -41.3523 -41.2010 -41.1963
    -5.2134  -3.7956  -3.5501  -3.5060  -3.4827  -3.4716  -3.1319  -2.8721
    -2.8576  -2.7849  -2.7324  -2.6311  -2.6075  -2.5115  -1.8469  -1.8079
    -1.4458  -1.0684  -0.9442  -0.8862  -0.7791  -0.6485  -0.5576  -0.4600
    -0.4326  -0.2518  -0.0523   0.0308   0.1286   0.4464   0.7303   0.8370
     0.8466   0.8860   1.0667   1.1278   1.2387   1.2803   1.3953   1.4779
     1.7317   1.8991   1.9001   1.9891   2.2595   2.2723   2.2983   2.5377
     2.5891   2.6966   2.7474   2.8704   2.9108   3.0003   3.0204   3.0393
     3.1224   3.1962   3.2857   3.3005   3.3860   3.4431   3.4815   3.5491

          k = 0.0158 0.0092 0.0000 ( 27425 PWs)   bands (ev):

   -77.4536 -77.4095 -76.8886 -76.8586 -76.8445 -76.8148 -70.3633 -70.3266
   -70.1986 -70.1818 -70.1623 -70.1454 -45.5094 -45.3762 -45.3384 -45.3231
   -45.2826 -45.0646 -44.9792 -44.9319 -44.8097 -44.7837 -44.7533 -44.7271
   -44.6860 -44.6457 -44.6403 -44.5992 -44.5378 -44.4933 -41.7737 -41.6821
   -41.6665 -41.6566 -41.6474 -41.5669 -41.5365 -41.5102 -41.4940 -41.4924
   -41.4848 -41.4787 -41.4748 -41.4555 -41.3746 -41.3519 -41.1958 -41.1910
    -5.2146  -3.7978  -3.5675  -3.5233  -3.4846  -3.4669  -3.1436  -2.8875
    -2.8532  -2.7760  -2.7069  -2.6528  -2.5995  -2.5350  -1.8329  -1.8280
    -1.4416  -1.0732  -0.9678  -0.9018  -0.7331  -0.6431  -0.4908  -0.4174
    -0.4150  -0.2959  -0.0187   0.0759   0.1949   0.4158   0.6694   0.7844
     0.8191   1.0262   1.0351   1.1804   1.1818   1.2828   1.3527   1.4657
     1.6359   1.8823   1.8947   2.0356   2.2268   2.3000   2.4211   2.5238
     2.5463   2.6339   2.7609   2.8438   2.9682   3.0038   3.0206   3.0880
     3.1168   3.1684   3.2225   3.3095   3.4316   3.4715   3.5153   3.5420

          k = 0.0158 0.0274 0.0000 ( 27417 PWs)   bands (ev):

   -77.4529 -77.4102 -76.8878 -76.8579 -76.8452 -76.8155 -70.3628 -70.3273
   -70.1980 -70.1812 -70.1629 -70.1460 -45.5013 -45.3749 -45.3359 -45.3237
   -45.2826 -45.0722 -44.9713 -44.9240 -44.8073 -44.7810 -44.7534 -44.7272
   -44.6859 -44.6445 -44.6415 -44.5998 -44.5453 -44.5007 -41.7697 -41.6835
   -41.6677 -41.6583 -41.6485 -41.5653 -41.5364 -41.5116 -41.4939 -41.4898
   -41.4841 -41.4808 -41.4766 -41.4570 -41.3748 -41.3524 -41.2012 -41.1965
    -5.0967  -3.7281  -3.4907  -3.4276  -3.4198  -3.3802  -3.0912  -2.8369
    -2.7993  -2.7351  -2.6655  -2.5807  -2.5425  -2.4636  -1.8131  -1.7571
    -1.4378  -1.1003  -0.9320  -0.9106  -0.7186  -0.6599  -0.4930  -0.4457
    -0.3805  -0.3689  -0.0361   0.0720   0.1866   0.4207   0.6316   0.7633
     0.7714   0.8515   1.0202   1.0511   1.1724   1.2733   1.2775   1.4058
     1.5616   1.7488   1.8796   1.9732   1.9858   2.1859   2.3676   2.4605
     2.4996   2.5863   2.6447   2.6996   2.7625   2.8130   2.9426   2.9844
     3.0076   3.0602   3.1608   3.2143   3.2761   3.3542   3.5062   3.7384

          k = 0.0158 0.0455 0.0000 ( 27419 PWs)   bands (ev):

   -77.4507 -77.4124 -76.8856 -76.8557 -76.8475 -76.8177 -70.3610 -70.3291
   -70.1962 -70.1794 -70.1648 -70.1478 -45.4789 -45.3719 -45.3311 -45.3260
   -45.2839 -45.0945 -44.9490 -44.9018 -44.8025 -44.7759 -44.7549 -44.7285
   -44.6845 -44.6444 -44.6417 -44.6019 -44.5674 -44.5227 -41.7565 -41.6847
   -41.6684 -41.6613 -41.6505 -41.5626 -41.5371 -41.5130 -41.4997 -41.4965
   -41.4783 -41.4763 -41.4679 -41.4594 -41.3744 -41.3539 -41.2166 -41.2121
    -4.8666  -3.5954  -3.3317  -3.3023  -3.2436  -3.2068  -2.9802  -2.7488
    -2.7042  -2.6699  -2.5616  -2.5045  -2.3883  -2.3029  -1.7547  -1.6412
    -1.4450  -1.1391  -0.9655  -0.8527  -0.8498  -0.5755  -0.5517  -0.5247
    -0.4572  -0.3687  -0.0899   0.0063   0.0900   0.4122   0.5966   0.5991
     0.6675   0.7891   0.8502   0.9781   1.0880   1.1731   1.2769   1.3044
     1.4678   1.5027   1.7314   1.7769   1.8587   1.9313   2.0930   2.1247
     2.3359   2.4384   2.4553   2.5713   2.6084   2.7589   2.7700   2.8968
     2.9145   2.9952   3.0704   3.1309   3.1401   3.2590   3.2630   3.4681

          k = 0.0158 0.0637 0.0000 ( 27422 PWs)   bands (ev):

   -77.4472 -77.4159 -76.8821 -76.8522 -76.8510 -76.8212 -70.3581 -70.3321
   -70.1934 -70.1766 -70.1677 -70.1508 -45.4435 -45.3672 -45.3298 -45.3247
   -45.2868 -45.1302 -44.9139 -44.8668 -44.7962 -44.7693 -44.7579 -44.7314
   -44.6818 -44.6486 -44.6376 -44.6053 -44.6027 -44.5578 -41.7348 -41.6853
   -41.6683 -41.6652 -41.6530 -41.5590 -41.5385 -41.5242 -41.5136 -41.4996
   -41.4794 -41.4641 -41.4532 -41.4455 -41.3732 -41.3560 -41.2410 -41.2367
    -4.5417  -3.4217  -3.1698  -3.1191  -3.0325  -2.9466  -2.8168  -2.7245
    -2.5660  -2.4871  -2.4423  -2.3952  -2.1789  -2.0639  -1.6750  -1.4934
    -1.4811  -1.1763  -1.1166  -1.0418  -0.7497  -0.6561  -0.6205  -0.5724
    -0.4034  -0.4016  -0.1660  -0.1360  -0.0675   0.1835   0.2397   0.5544
     0.6671   0.7231   0.7746   0.9250   0.9619   1.0190   1.0786   1.1530
     1.3177   1.3737   1.4488   1.6070   1.6541   1.7005   1.8557   1.8874
     2.1647   2.2907   2.3197   2.3431   2.4258   2.5776   2.6033   2.7535
     2.8945   2.9191   2.9593   3.0022   3.1074   3.2180   3.3416   3.3534

          k = 0.0158 0.0819 0.0000 ( 27443 PWs)   bands (ev):

   -77.4426 -77.4205 -76.8775 -76.8555 -76.8476 -76.8258 -70.3544 -70.3359
   -70.1897 -70.1728 -70.1715 -70.1545 -45.3977 -45.3614 -45.3350 -45.3174
   -45.2915 -45.1766 -44.8685 -44.8216 -44.7890 -44.7627 -44.7618 -44.7360
   -44.6779 -44.6538 -44.6487 -44.6323 -44.6100 -44.6035 -41.7058 -41.6845
   -41.6690 -41.6672 -41.6555 -41.5560 -41.5545 -41.5410 -41.5135 -41.5027
   -41.4793 -41.4671 -41.4237 -41.4166 -41.3713 -41.3586 -41.2723 -41.2680
    -4.1539  -3.3033  -3.0631  -2.9289  -2.8118  -2.6757  -2.6607  -2.5967
    -2.4877  -2.3679  -2.2311  -2.2203  -1.9605  -1.7911  -1.6058  -1.5191
    -1.3334  -1.3226  -1.2506  -1.1882  -0.7582  -0.7160  -0.6774  -0.5869
    -0.5142  -0.3425  -0.3007  -0.2736  -0.2313  -0.1890   0.0221   0.4357
     0.4582   0.5533   0.5845   0.7614   0.7821   0.8796   0.8909   1.0993
     1.1350   1.2736   1.3001   1.5811   1.6335   1.6664   1.7507   1.8917
     1.9698   2.0666   2.1497   2.2123   2.3883   2.3917   2.5422   2.5478
     2.6635   2.8261   2.8556   2.8803   3.0384   3.1095   3.2315   3.2951

          k = 0.0158-0.1180 0.0000 ( 27436 PWs)   bands (ev):

   -77.4373 -77.4259 -76.8722 -76.8608 -76.8424 -76.8310 -70.3500 -70.3404
   -70.1853 -70.1758 -70.1685 -70.1589 -45.3549 -45.3453 -45.3404 -45.3101
   -45.2978 -45.2307 -44.8159 -44.7817 -44.7695 -44.7689 -44.7544 -44.7419
   -44.7028 -44.6723 -44.6594 -44.6566 -44.6265 -44.6156 -41.6822 -41.6757
   -41.6685 -41.6651 -41.6572 -41.5913 -41.5510 -41.5443 -41.5121 -41.5051
   -41.4777 -41.4697 -41.3886 -41.3821 -41.3688 -41.3611 -41.3085 -41.3039
    -3.7578  -3.4465  -2.8971  -2.8143  -2.6733  -2.6029  -2.5155  -2.4908
    -2.3139  -2.2473  -2.1145  -2.0568  -1.8345  -1.7483  -1.5533  -1.5220
    -1.3522  -1.2687  -1.2177  -1.1060  -0.8736  -0.8508  -0.6887  -0.6630
    -0.6259  -0.4966  -0.4273  -0.3367  -0.3016  -0.1837  -0.1615  -0.0675
     0.1424   0.2563   0.5032   0.6808   0.7892   0.8295   0.9133   1.0018
     1.1177   1.2097   1.3627   1.5935   1.6469   1.7628   1.7850   1.9101
     1.9607   1.9752   2.1057   2.1426   2.1978   2.2793   2.3899   2.4622
     2.5437   2.6338   2.7591   2.8165   3.0670   3.0824   3.2415   3.2810

          k = 0.0158-0.0998 0.0000 ( 27448 PWs)   bands (ev):

   -77.4316 -77.4315 -76.8666 -76.8665 -76.8367 -76.8367 -70.3452 -70.3451
   -70.1807 -70.1805 -70.1638 -70.1636 -45.3483 -45.3482 -45.3063 -45.3038
   -45.2881 -45.2863 -44.7785 -44.7760 -44.7592 -44.7580 -44.7503 -44.7474
   -44.7140 -44.7118 -44.6659 -44.6650 -44.6217 -44.6207 -41.6784 -41.6756
   -41.6624 -41.6609 -41.6315 -41.6291 -41.5484 -41.5473 -41.5095 -41.5067
   -41.4746 -41.4714 -41.3661 -41.3651 -41.3486 -41.3467 -41.3443 -41.3416
    -3.7703  -3.4340  -2.8392  -2.8054  -2.6592  -2.6374  -2.5479  -2.5322
    -2.3011  -2.1683  -2.0065  -1.9858  -1.8597  -1.8530  -1.5840  -1.5060
    -1.3139  -1.2737  -1.1139  -1.0579  -0.8857  -0.8738  -0.7246  -0.6652
    -0.5841  -0.4965  -0.4644  -0.3901  -0.3888  -0.3577  -0.2206  -0.1562
     0.0217   0.1992   0.5887   0.6439   0.8652   0.9111   0.9641   0.9875
     1.1052   1.3521   1.4104   1.5480   1.7127   1.7313   1.8331   1.8796
     1.9151   2.0840   2.1070   2.1601   2.2098   2.2716   2.2948   2.4681
     2.5702   2.6390   2.7223   2.8034   3.0632   3.0985   3.2423   3.2751

          k = 0.0158-0.0816 0.0000 ( 27439 PWs)   bands (ev):

   -77.4373 -77.4258 -76.8723 -76.8608 -76.8424 -76.8310 -70.3498 -70.3404
   -70.1852 -70.1759 -70.1683 -70.1590 -45.3555 -45.3472 -45.3410 -45.3144
   -45.2971 -45.2295 -44.8181 -44.7860 -44.7718 -44.7678 -44.7595 -44.7409
   -44.7013 -44.6705 -44.6595 -44.6556 -44.6278 -44.6150 -41.6771 -41.6742
   -41.6668 -41.6622 -41.6579 -41.5930 -41.5530 -41.5442 -41.5076 -41.5058
   -41.4722 -41.4704 -41.3854 -41.3789 -41.3672 -41.3620 -41.3099 -41.3056
    -4.1611  -3.2889  -2.9834  -2.9065  -2.7882  -2.7378  -2.6820  -2.5541
    -2.4405  -2.4323  -2.1670  -2.0046  -1.9274  -1.7963  -1.5588  -1.5172
    -1.3576  -1.3297  -1.2021  -1.1889  -0.7747  -0.7447  -0.6845  -0.6339
    -0.5497  -0.4919  -0.4482  -0.3782  -0.3080  -0.2687  -0.0736   0.1352
     0.2130   0.4009   0.7016   0.7461   0.8598   1.0364   1.0471   1.1912
     1.2336   1.3485   1.4699   1.5948   1.6597   1.7077   1.7258   1.9580
     2.0049   2.0066   2.2255   2.2394   2.3464   2.3702   2.5833   2.5845
     2.6566   2.7120   2.8099   2.8905   3.0421   3.1443   3.2371   3.2716

          k = 0.0158-0.0635 0.0000 ( 27413 PWs)   bands (ev):

   -77.4426 -77.4205 -76.8776 -76.8555 -76.8477 -76.8257 -70.3542 -70.3359
   -70.1895 -70.1727 -70.1715 -70.1546 -45.4002 -45.3622 -45.3355 -45.3227
   -45.2923 -45.1761 -44.8710 -44.8243 -44.7941 -44.7679 -44.7632 -44.7364
   -44.6755 -44.6533 -44.6485 -44.6338 -44.6098 -44.6028 -41.7017 -41.6780
   -41.6675 -41.6633 -41.6550 -41.5592 -41.5547 -41.5417 -41.5079 -41.5015
   -41.4725 -41.4656 -41.4204 -41.4131 -41.3694 -41.3589 -41.2730 -41.2689
    -4.5427  -3.3968  -3.1187  -3.0843  -2.9790  -2.9296  -2.8228  -2.7322
    -2.6338  -2.5173  -2.3648  -2.2410  -2.1457  -1.9356  -1.6178  -1.5187
    -1.5125  -1.2392  -1.1805  -1.0405  -0.7254  -0.7014  -0.6335  -0.5729
    -0.5553  -0.4263  -0.3164  -0.2660  -0.2641  -0.0385   0.0715   0.6090
     0.6735   0.7757   0.8267   0.8441   0.8607   1.0859   1.1584   1.2438
     1.3842   1.4425   1.5517   1.6936   1.7002   1.7553   1.8132   1.9394
     2.1285   2.2853   2.3226   2.3764   2.5258   2.5902   2.6393   2.7525
     2.7796   2.8736   2.9557   3.0149   3.1965   3.2289   3.2760   3.3685

          k = 0.0158-0.0453 0.0000 ( 27417 PWs)   bands (ev):

   -77.4472 -77.4159 -76.8821 -76.8522 -76.8510 -76.8212 -70.3580 -70.3321
   -70.1933 -70.1764 -70.1677 -70.1508 -45.4459 -45.3681 -45.3304 -45.3300
   -45.2885 -45.1301 -44.9163 -44.8694 -44.8013 -44.7753 -44.7593 -44.7328
   -44.6794 -44.6478 -44.6393 -44.6054 -44.6025 -44.5576 -41.7310 -41.6788
   -41.6639 -41.6626 -41.6518 -41.5621 -41.5397 -41.5242 -41.5080 -41.4975
   -41.4724 -41.4611 -41.4504 -41.4423 -41.3713 -41.3560 -41.2411 -41.2368
    -4.8642  -3.5782  -3.2797  -3.2644  -3.2126  -3.1894  -2.9356  -2.8400
    -2.7257  -2.5683  -2.5441  -2.5270  -2.3584  -2.1875  -1.7304  -1.6368
    -1.4796  -1.1309  -0.9883  -0.8753  -0.7784  -0.7505  -0.7168  -0.5807
    -0.4653  -0.3038  -0.2172  -0.1780  -0.1221   0.2943   0.4673   0.6658
     0.8100   0.8230   0.9316   1.0376   1.1627   1.2307   1.2836   1.2919
     1.5042   1.5795   1.6608   1.7835   1.9041   1.9090   2.1189   2.1691
     2.3159   2.3464   2.4434   2.6109   2.7158   2.7512   2.8181   2.8435
     2.9542   2.9771   2.9986   3.1138   3.1706   3.2892   3.3199   3.4319

          k = 0.0158-0.0271 0.0000 ( 27422 PWs)   bands (ev):

   -77.4507 -77.4124 -76.8856 -76.8557 -76.8475 -76.8177 -70.3609 -70.3291
   -70.1961 -70.1793 -70.1648 -70.1479 -45.4807 -45.3726 -45.3354 -45.3265
   -45.2857 -45.0947 -44.9508 -44.9037 -44.8067 -44.7807 -44.7563 -44.7300
   -44.6826 -44.6436 -44.6430 -44.6021 -44.5675 -44.5228 -41.7537 -41.6797
   -41.6645 -41.6588 -41.6491 -41.5652 -41.5382 -41.5084 -41.4994 -41.4944
   -41.4736 -41.4727 -41.4648 -41.4575 -41.3728 -41.3537 -41.2165 -41.2119
    -5.0938  -3.7200  -3.4313  -3.4117  -3.3962  -3.3876  -3.0614  -2.8581
    -2.7763  -2.7392  -2.6749  -2.6057  -2.5201  -2.3929  -1.8128  -1.7399
    -1.4532  -1.0884  -0.8644  -0.8502  -0.7886  -0.7727  -0.6814  -0.5061
    -0.4478  -0.2382  -0.1382  -0.0565   0.0171   0.4686   0.6722   0.8184
     0.8447   0.8895   0.9172   1.0058   1.2517   1.2591   1.3656   1.4743
     1.7160   1.7887   1.8894   1.8973   1.9744   2.0994   2.3001   2.4684
     2.5160   2.5656   2.6513   2.6969   2.8169   2.8488   2.9512   2.9864
     2.9981   3.0945   3.1036   3.1231   3.2962   3.3965   3.4562   3.7857

          k = 0.0316-0.0179 0.0000 ( 27419 PWs)   bands (ev):

   -77.4507 -77.4124 -76.8856 -76.8557 -76.8475 -76.8177 -70.3609 -70.3291
   -70.1961 -70.1793 -70.1648 -70.1478 -45.4802 -45.3724 -45.3342 -45.3264
   -45.2852 -45.0946 -44.9504 -44.9032 -44.8056 -44.7795 -44.7559 -44.7296
   -44.6831 -44.6438 -44.6426 -44.6020 -44.5675 -44.5228 -41.7544 -41.6810
   -41.6657 -41.6595 -41.6495 -41.5645 -41.5379 -41.5096 -41.4995 -41.4949
   -41.4744 -41.4742 -41.4656 -41.4580 -41.3732 -41.3537 -41.2165 -41.2120
    -5.0360  -3.6879  -3.3968  -3.3836  -3.3638  -3.3409  -3.0413  -2.8270
    -2.7512  -2.7304  -2.6453  -2.5802  -2.4867  -2.3697  -1.7740  -1.7369
    -1.4510  -1.1075  -0.8852  -0.8670  -0.7955  -0.7181  -0.6357  -0.5198
    -0.4169  -0.3181  -0.1070  -0.0391   0.0388   0.4531   0.6702   0.7622
     0.7735   0.8850   0.8882   0.9981   1.1714   1.3045   1.3096   1.4280
     1.6488   1.6806   1.8721   1.8956   1.9253   2.0443   2.3214   2.3677
     2.4219   2.4528   2.6945   2.7161   2.7809   2.7897   2.9124   2.9935
     3.0049   3.0245   3.0818   3.0997   3.1924   3.3564   3.3607   3.4513

          k = 0.0316 0.0002 0.0000 ( 27417 PWs)   bands (ev):

   -77.4529 -77.4102 -76.8878 -76.8579 -76.8452 -76.8155 -70.3628 -70.3273
   -70.1980 -70.1812 -70.1629 -70.1460 -45.5013 -45.3749 -45.3359 -45.3237
   -45.2826 -45.0722 -44.9713 -44.9240 -44.8073 -44.7810 -44.7534 -44.7272
   -44.6859 -44.6445 -44.6415 -44.5998 -44.5453 -44.5007 -41.7697 -41.6835
   -41.6677 -41.6583 -41.6485 -41.5653 -41.5364 -41.5116 -41.4939 -41.4898
   -41.4841 -41.4808 -41.4766 -41.4570 -41.3748 -41.3524 -41.2012 -41.1965
    -5.0967  -3.7281  -3.4907  -3.4276  -3.4198  -3.3802  -3.0912  -2.8369
    -2.7993  -2.7351  -2.6655  -2.5807  -2.5425  -2.4636  -1.8131  -1.7571
    -1.4378  -1.1003  -0.9320  -0.9106  -0.7186  -0.6599  -0.4930  -0.4457
    -0.3805  -0.3689  -0.0361   0.0720   0.1866   0.4207   0.6316   0.7633
     0.7714   0.8515   1.0202   1.0511   1.1724   1.2733   1.2775   1.4058
     1.5616   1.7488   1.8796   1.9732   1.9858   2.1859   2.3676   2.4605
     2.4996   2.5863   2.6447   2.6996   2.7625   2.8130   2.9426   2.9844
     3.0076   3.0602   3.1608   3.2143   3.2761   3.3542   3.5062   3.7385

          k = 0.0316 0.0184 0.0000 ( 27433 PWs)   bands (ev):

   -77.4536 -77.4095 -76.8885 -76.8586 -76.8445 -76.8148 -70.3634 -70.3266
   -70.1986 -70.1818 -70.1623 -70.1454 -45.5079 -45.3755 -45.3350 -45.3226
   -45.2810 -45.0644 -44.9778 -44.9304 -44.8064 -44.7798 -44.7519 -44.7256
   -44.6875 -44.6447 -44.6411 -44.5989 -44.5376 -44.4931 -41.7759 -41.6863
   -41.6696 -41.6589 -41.6488 -41.5648 -41.5355 -41.5139 -41.4961 -41.4942
   -41.4871 -41.4794 -41.4791 -41.4576 -41.3759 -41.3521 -41.1961 -41.1914
    -5.0412  -3.6988  -3.5004  -3.3913  -3.3891  -3.3337  -3.0844  -2.8529
    -2.7412  -2.7024  -2.5927  -2.5858  -2.5097  -2.4627  -1.8387  -1.6986
    -1.4280  -1.1068  -0.9433  -0.9335  -0.7392  -0.5800  -0.4422  -0.3960
    -0.3796  -0.3545  -0.0174   0.1403   0.2972   0.3694   0.5221   0.6824
     0.6972   0.9487   1.0013   1.0583   1.0589   1.2022   1.3000   1.3370
     1.4151   1.6895   1.8326   1.9075   1.9927   2.1096   2.2625   2.4665
     2.4725   2.5462   2.5488   2.6757   2.7123   2.8910   2.9323   2.9574
     3.0141   3.0465   3.0533   3.0928   3.1627   3.3335   3.3882   3.5518

          k = 0.0316 0.0366 0.0000 ( 27394 PWs)   bands (ev):

   -77.4528 -77.4102 -76.8878 -76.8578 -76.8452 -76.8155 -70.3629 -70.3273
   -70.1981 -70.1813 -70.1630 -70.1460 -45.4996 -45.3742 -45.3318 -45.3231
   -45.2807 -45.0720 -44.9695 -44.9221 -44.8033 -44.7763 -44.7518 -44.7254
   -44.6877 -44.6433 -44.6424 -44.5995 -44.5451 -44.5006 -41.7724 -41.6887
   -41.6710 -41.6610 -41.6500 -41.5630 -41.5353 -41.5160 -41.4961 -41.4922
   -41.4845 -41.4835 -41.4820 -41.4594 -41.3763 -41.3527 -41.2015 -41.1968
    -4.8717  -3.6052  -3.4195  -3.2999  -3.2554  -3.2138  -3.0123  -2.7909
    -2.6761  -2.6346  -2.5520  -2.4696  -2.4161  -2.3715  -1.8214  -1.5979
    -1.4240  -1.1275  -0.9775  -0.9028  -0.8080  -0.5631  -0.4568  -0.4170
    -0.3818  -0.3275  -0.0431   0.1447   0.2703   0.3736   0.4487   0.5843
     0.6552   0.8052   0.9184   0.9338   1.0991   1.1088   1.2179   1.2344
     1.3656   1.5126   1.6685   1.8196   1.8741   1.9360   2.0644   2.2001
     2.2621   2.4548   2.4606   2.5477   2.6638   2.7555   2.8352   2.8594
     2.9116   2.9909   3.0127   3.0635   3.1493   3.1924   3.4442   3.4941

          k = 0.0316 0.0547 0.0000 ( 27397 PWs)   bands (ev):

   -77.4506 -77.4124 -76.8855 -76.8556 -76.8475 -76.8177 -70.3611 -70.3292
   -70.1963 -70.1795 -70.1648 -70.1478 -45.4770 -45.3711 -45.3268 -45.3254
   -45.2822 -45.0944 -44.9472 -44.8998 -44.7984 -44.7711 -44.7534 -44.7269
   -44.6864 -44.6452 -44.6405 -44.6017 -44.5674 -44.5227 -41.7594 -41.6903
   -41.6715 -41.6640 -41.6518 -41.5603 -41.5360 -41.5175 -41.4999 -41.4985
   -41.4839 -41.4788 -41.4709 -41.4615 -41.3758 -41.3541 -41.2168 -41.2124
    -4.5982  -3.4576  -3.2535  -3.1746  -3.0662  -3.0251  -2.8680  -2.6609
    -2.6520  -2.5217  -2.4439  -2.3842  -2.2321  -2.2026  -1.7654  -1.4811
    -1.4420  -1.1514  -1.0723  -0.9182  -0.8228  -0.6710  -0.5448  -0.4668
    -0.3439  -0.3328  -0.1001   0.0470   0.1300   0.3319   0.3339   0.4353
     0.6158   0.6633   0.7606   0.9579   0.9891   1.0326   1.0708   1.2038
     1.2554   1.3573   1.4691   1.5439   1.6383   1.7113   1.8822   1.9206
     2.1361   2.2502   2.3502   2.4052   2.5088   2.5739   2.6622   2.7706
     2.9011   2.9573   2.9601   2.9861   3.1288   3.3622   3.3753   3.5586

          k = 0.0316 0.0729 0.0000 ( 27425 PWs)   bands (ev):

   -77.4471 -77.4160 -76.8821 -76.8521 -76.8510 -76.8212 -70.3583 -70.3321
   -70.1935 -70.1767 -70.1677 -70.1507 -45.4417 -45.3666 -45.3293 -45.3208
   -45.2856 -45.1303 -44.9122 -44.8649 -44.7924 -44.7648 -44.7570 -44.7303
   -44.6835 -44.6493 -44.6365 -44.6053 -44.6028 -44.5579 -41.7374 -41.6903
   -41.6709 -41.6672 -41.6539 -41.5571 -41.5377 -41.5243 -41.5176 -41.5010
   -41.4844 -41.4657 -41.4559 -41.4480 -41.3745 -41.3561 -41.2409 -41.2366
    -4.2420  -3.2797  -3.0732  -3.0318  -2.8754  -2.8209  -2.6454  -2.6386
    -2.4387  -2.4229  -2.3352  -2.2789  -2.0164  -1.9722  -1.6846  -1.5087
    -1.3833  -1.2017  -1.1589  -1.1116  -0.7808  -0.7005  -0.6895  -0.5768
    -0.3932  -0.2473  -0.1719  -0.1640  -0.0956  -0.0462   0.2111   0.3544
     0.5333   0.6057   0.7065   0.8080   0.8404   0.8553   0.9359   1.0399
     1.0772   1.2634   1.2765   1.4426   1.5538   1.5982   1.8087   1.8971
     1.9369   2.0635   2.1520   2.2728   2.4510   2.4558   2.5829   2.6550
     2.8581   2.8876   2.9431   2.9520   3.1035   3.1083   3.3203   3.4275

          k = 0.0316-0.1269 0.0000 ( 27461 PWs)   bands (ev):

   -77.4425 -77.4205 -76.8775 -76.8555 -76.8476 -76.8258 -70.3545 -70.3359
   -70.1898 -70.1729 -70.1714 -70.1545 -45.3961 -45.3610 -45.3347 -45.3143
   -45.2911 -45.1770 -44.8669 -44.8199 -44.7859 -44.7625 -44.7582 -44.7358
   -44.6793 -44.6541 -44.6490 -44.6315 -44.6101 -44.6039 -41.7078 -41.6885
   -41.6701 -41.6691 -41.6560 -41.5552 -41.5536 -41.5406 -41.5167 -41.5031
   -41.4832 -41.4676 -41.4258 -41.4189 -41.3723 -41.3584 -41.2720 -41.2677
    -3.8433  -3.2406  -2.9838  -2.8550  -2.6975  -2.5856  -2.5669  -2.4412
    -2.4101  -2.2809  -2.2191  -2.1119  -1.8331  -1.7354  -1.5900  -1.5453
    -1.3738  -1.3235  -1.2923  -1.1374  -0.8116  -0.7810  -0.6945  -0.6531
    -0.5400  -0.4078  -0.4075  -0.3256  -0.2617  -0.1150  -0.0229   0.2410
     0.2938   0.4251   0.4654   0.6162   0.6235   0.8366   0.8980   0.9299
     1.0889   1.0917   1.3439   1.5396   1.6582   1.6590   1.7795   1.8096
     1.9041   1.9835   2.1177   2.2155   2.3120   2.4388   2.4988   2.5738
     2.7059   2.7909   2.8403   2.9033   2.9676   3.0283   3.1110   3.2493

          k = 0.0316-0.1088 0.0000 ( 27455 PWs)   bands (ev):

   -77.4372 -77.4259 -76.8722 -76.8609 -76.8423 -76.8310 -70.3501 -70.3403
   -70.1854 -70.1758 -70.1685 -70.1589 -45.3546 -45.3443 -45.3401 -45.3080
   -45.2983 -45.2313 -44.8146 -44.7796 -44.7698 -44.7677 -44.7519 -44.7428
   -44.7036 -44.6732 -44.6593 -44.6571 -44.6260 -44.6158 -41.6847 -41.6751
   -41.6699 -41.6663 -41.6576 -41.5908 -41.5501 -41.5443 -41.5141 -41.5047
   -41.4802 -41.4692 -41.3899 -41.3840 -41.3695 -41.3608 -41.3079 -41.3032
    -3.4945  -3.4705  -2.8025  -2.7951  -2.6048  -2.5689  -2.4728  -2.4719
    -2.2595  -2.1732  -2.1649  -1.9718  -1.8290  -1.7654  -1.4948  -1.4637
    -1.3823  -1.3570  -1.1513  -1.0371  -0.9052  -0.8734  -0.7875  -0.7379
    -0.6887  -0.5251  -0.5093  -0.4110  -0.3709  -0.2120  -0.2062  -0.0993
     0.1640   0.1869   0.3408   0.5593   0.7578   0.8665   0.9385   0.9494
     1.0368   1.2699   1.4767   1.4919   1.5913   1.7144   1.7581   1.9592
     1.9942   2.1089   2.1139   2.2152   2.2565   2.2767   2.4656   2.5183
     2.6455   2.6605   2.7011   2.8035   2.9947   3.0134   3.1153   3.2107

          k = 0.0316-0.0906 0.0000 ( 27450 PWs)   bands (ev):

   -77.4316 -77.4315 -76.8666 -76.8665 -76.8367 -76.8367 -70.3453 -70.3450
   -70.1807 -70.1805 -70.1638 -70.1636 -45.3484 -45.3481 -45.3070 -45.3024
   -45.2892 -45.2860 -44.7792 -44.7746 -44.7601 -44.7578 -44.7511 -44.7460
   -44.7151 -44.7113 -44.6662 -44.6647 -44.6220 -44.6204 -41.6793 -41.6744
   -41.6628 -41.6600 -41.6328 -41.6285 -41.5488 -41.5469 -41.5104 -41.5057
   -41.4757 -41.4701 -41.3662 -41.3645 -41.3498 -41.3462 -41.3452 -41.3407
    -3.8608  -3.2189  -2.8644  -2.7627  -2.6686  -2.6668  -2.5823  -2.5397
    -2.3704  -2.1503  -2.0097  -1.9718  -1.8514  -1.8095  -1.5648  -1.5510
    -1.3320  -1.2451  -1.1890  -1.0452  -0.8641  -0.8204  -0.7623  -0.7254
    -0.6496  -0.5607  -0.5059  -0.4471  -0.4076  -0.3389  -0.2462  -0.0642
    -0.0503   0.2247   0.5523   0.6093   0.8911   0.9216   1.0318   1.0414
     1.1394   1.3710   1.4910   1.6207   1.6413   1.7080   1.8163   1.8227
     1.8826   2.1441   2.1497   2.2650   2.2733   2.3157   2.5622   2.6108
     2.6456   2.7025   2.7927   2.8936   2.9806   3.0911   3.1218   3.1987

          k = 0.0316-0.0724 0.0000 ( 27434 PWs)   bands (ev):

   -77.4373 -77.4258 -76.8723 -76.8608 -76.8424 -76.8310 -70.3498 -70.3405
   -70.1852 -70.1759 -70.1683 -70.1591 -45.3556 -45.3476 -45.3412 -45.3155
   -45.2969 -45.2292 -44.8186 -44.7871 -44.7723 -44.7676 -44.7607 -44.7408
   -44.7010 -44.6700 -44.6596 -44.6554 -44.6281 -44.6149 -41.6757 -41.6733
   -41.6662 -41.6613 -41.6586 -41.5936 -41.5535 -41.5442 -41.5063 -41.5058
   -41.4707 -41.4705 -41.3846 -41.3781 -41.3667 -41.3623 -41.3104 -41.3061
    -4.2467  -3.2252  -2.9478  -2.9214  -2.8462  -2.8154  -2.7347  -2.5712
    -2.4811  -2.4602  -2.1944  -1.9567  -1.9475  -1.8518  -1.5430  -1.5198
    -1.4375  -1.3486  -1.2144  -1.0925  -0.7604  -0.7375  -0.7130  -0.6110
    -0.5943  -0.5068  -0.4382  -0.4349  -0.3296  -0.2975  -0.0159   0.1604
     0.2430   0.4043   0.7469   0.7616   0.8657   1.0698   1.1584   1.2251
     1.2882   1.4317   1.5529   1.5873   1.6176   1.7131   1.7164   1.9379
     2.0016   2.0411   2.2607   2.3122   2.4247   2.4699   2.5932   2.6769
     2.7296   2.8087   2.9670   2.9848   3.1028   3.2093   3.2103   3.4405

          k = 0.0316-0.0543 0.0000 ( 27394 PWs)   bands (ev):

   -77.4426 -77.4205 -76.8776 -76.8555 -76.8477 -76.8257 -70.3542 -70.3360
   -70.1895 -70.1727 -70.1715 -70.1546 -45.4006 -45.3624 -45.3356 -45.3235
   -45.2924 -45.1760 -44.8714 -44.8247 -44.7949 -44.7688 -44.7633 -44.7365
   -44.6751 -44.6532 -44.6485 -44.6340 -44.6098 -44.6027 -41.7010 -41.6771
   -41.6673 -41.6625 -41.6550 -41.5598 -41.5547 -41.5418 -41.5070 -41.5013
   -41.4714 -41.4653 -41.4199 -41.4126 -41.3691 -41.3589 -41.2732 -41.2690
    -4.5935  -3.4092  -3.1167  -3.1059  -2.9970  -2.9760  -2.8556  -2.7475
    -2.6549  -2.5351  -2.3876  -2.2420  -2.1688  -1.9589  -1.6453  -1.5217
    -1.5209  -1.2292  -1.1744  -0.9786  -0.7487  -0.7201  -0.6497  -0.5831
    -0.5697  -0.3939  -0.3251  -0.2801  -0.2765  -0.0132   0.0836   0.6122
     0.6801   0.7743   0.8588   0.8802   0.9519   1.1058   1.1705   1.2924
     1.3469   1.5180   1.5741   1.7273   1.7300   1.7875   1.8073   1.9546
     2.1357   2.3577   2.3596   2.3938   2.4881   2.6127   2.7051   2.7508
     2.8378   2.8999   2.9575   3.1231   3.1492   3.2461   3.3985   3.5603

          k = 0.0316-0.0361 0.0000 ( 27417 PWs)   bands (ev):

   -77.4472 -77.4159 -76.8821 -76.8522 -76.8510 -76.8212 -70.3580 -70.3321
   -70.1933 -70.1764 -70.1677 -70.1508 -45.4459 -45.3681 -45.3304 -45.3300
   -45.2885 -45.1301 -44.9163 -44.8694 -44.8013 -44.7753 -44.7593 -44.7328
   -44.6794 -44.6478 -44.6393 -44.6054 -44.6025 -44.5576 -41.7310 -41.6788
   -41.6639 -41.6626 -41.6518 -41.5621 -41.5397 -41.5242 -41.5080 -41.4975
   -41.4724 -41.4611 -41.4504 -41.4423 -41.3713 -41.3560 -41.2411 -41.2368
    -4.8642  -3.5782  -3.2797  -3.2644  -3.2126  -3.1894  -2.9356  -2.8400
    -2.7257  -2.5683  -2.5441  -2.5270  -2.3584  -2.1875  -1.7304  -1.6368
    -1.4796  -1.1309  -0.9883  -0.8753  -0.7784  -0.7505  -0.7168  -0.5807
    -0.4653  -0.3038  -0.2172  -0.1780  -0.1221   0.2943   0.4673   0.6658
     0.8100   0.8230   0.9316   1.0376   1.1627   1.2307   1.2836   1.2919
     1.5042   1.5795   1.6608   1.7835   1.9041   1.9090   2.1189   2.1691
     2.3159   2.3464   2.4434   2.6109   2.7158   2.7512   2.8181   2.8435
     2.9542   2.9771   2.9986   3.1138   3.1706   3.2892   3.3199   3.4319

          k = 0.0474-0.0269 0.0000 ( 27410 PWs)   bands (ev):

   -77.4472 -77.4159 -76.8821 -76.8522 -76.8510 -76.8212 -70.3580 -70.3321
   -70.1933 -70.1765 -70.1677 -70.1508 -45.4450 -45.3678 -45.3302 -45.3280
   -45.2879 -45.1301 -44.9154 -44.8684 -44.7994 -44.7731 -44.7588 -44.7323
   -44.6803 -44.6481 -44.6386 -44.6054 -44.6026 -44.5577 -41.7324 -41.6811
   -41.6656 -41.6635 -41.6522 -41.5609 -41.5393 -41.5242 -41.5101 -41.4983
   -41.4750 -41.4623 -41.4513 -41.4435 -41.3720 -41.3560 -41.2410 -41.2367
    -4.7544  -3.5249  -3.2419  -3.2074  -3.1532  -3.1000  -2.8996  -2.7952
    -2.6733  -2.5263  -2.5134  -2.4893  -2.2970  -2.1433  -1.6778  -1.6138
    -1.4787  -1.1555  -1.0259  -0.9701  -0.7684  -0.6654  -0.6209  -0.5957
    -0.4332  -0.4205  -0.1745  -0.1558  -0.0953   0.2726   0.3703   0.6690
     0.7523   0.8138   0.8184   0.9973   1.0983   1.1404   1.1726   1.3594
     1.3700   1.5042   1.5527   1.7423   1.8540   1.8813   1.9675   2.0101
     2.2850   2.3181   2.3853   2.5862   2.5965   2.6842   2.7238   2.8407
     2.8790   2.9380   3.0534   3.0547   3.1329   3.2122   3.3074   3.3130

          k = 0.0474-0.0087 0.0000 ( 27419 PWs)   bands (ev):

   -77.4507 -77.4124 -76.8856 -76.8557 -76.8475 -76.8177 -70.3610 -70.3291
   -70.1962 -70.1794 -70.1648 -70.1478 -45.4789 -45.3719 -45.3311 -45.3260
   -45.2839 -45.0945 -44.9490 -44.9018 -44.8025 -44.7759 -44.7549 -44.7285
   -44.6845 -44.6444 -44.6417 -44.6019 -44.5674 -44.5227 -41.7565 -41.6847
   -41.6684 -41.6613 -41.6505 -41.5626 -41.5371 -41.5130 -41.4997 -41.4965
   -41.4783 -41.4763 -41.4679 -41.4594 -41.3744 -41.3539 -41.2166 -41.2121
    -4.8666  -3.5954  -3.3317  -3.3023  -3.2436  -3.2068  -2.9802  -2.7488
    -2.7042  -2.6699  -2.5616  -2.5045  -2.3883  -2.3029  -1.7547  -1.6412
    -1.4450  -1.1391  -0.9655  -0.8527  -0.8498  -0.5755  -0.5517  -0.5247
    -0.4572  -0.3687  -0.0899   0.0063   0.0900   0.4122   0.5966   0.5991
     0.6675   0.7891   0.8502   0.9781   1.0880   1.1731   1.2769   1.3044
     1.4678   1.5027   1.7314   1.7769   1.8587   1.9313   2.0930   2.1247
     2.3359   2.4384   2.4553   2.5713   2.6084   2.7589   2.7700   2.8968
     2.9145   2.9952   3.0703   3.1309   3.1401   3.2590   3.2631   3.4681

          k = 0.0474 0.0094 0.0000 ( 27394 PWs)   bands (ev):

   -77.4528 -77.4102 -76.8878 -76.8578 -76.8452 -76.8155 -70.3629 -70.3273
   -70.1981 -70.1813 -70.1630 -70.1460 -45.4996 -45.3742 -45.3318 -45.3231
   -45.2807 -45.0720 -44.9695 -44.9221 -44.8033 -44.7763 -44.7518 -44.7254
   -44.6877 -44.6433 -44.6424 -44.5995 -44.5451 -44.5006 -41.7724 -41.6887
   -41.6710 -41.6610 -41.6500 -41.5630 -41.5353 -41.5160 -41.4961 -41.4922
   -41.4845 -41.4835 -41.4820 -41.4594 -41.3763 -41.3527 -41.2015 -41.1968
    -4.8717  -3.6052  -3.4195  -3.2999  -3.2554  -3.2138  -3.0123  -2.7909
    -2.6761  -2.6346  -2.5520  -2.4696  -2.4161  -2.3715  -1.8214  -1.5979
    -1.4240  -1.1275  -0.9775  -0.9028  -0.8080  -0.5631  -0.4568  -0.4170
    -0.3818  -0.3275  -0.0431   0.1447   0.2703   0.3736   0.4487   0.5843
     0.6552   0.8052   0.9184   0.9338   1.0991   1.1088   1.2179   1.2344
     1.3656   1.5126   1.6685   1.8196   1.8741   1.9360   2.0644   2.2001
     2.2621   2.4548   2.4606   2.5477   2.6638   2.7555   2.8352   2.8594
     2.9116   2.9909   3.0127   3.0635   3.1493   3.1924   3.4441   3.4941

          k = 0.0474 0.0276 0.0000 ( 27408 PWs)   bands (ev):

   -77.4536 -77.4095 -76.8885 -76.8585 -76.8445 -76.8148 -70.3636 -70.3267
   -70.1988 -70.1820 -70.1623 -70.1454 -45.5059 -45.3747 -45.3303 -45.3219
   -45.2788 -45.0641 -44.9758 -44.9283 -44.8018 -44.7745 -44.7500 -44.7235
   -44.6895 -44.6434 -44.6421 -44.5986 -44.5374 -44.4929 -41.7789 -41.6924
   -41.6731 -41.6621 -41.6504 -41.5623 -41.5341 -41.5189 -41.4989 -41.4965
   -41.4902 -41.4856 -41.4796 -41.4604 -41.3775 -41.3525 -41.1965 -41.1918
    -4.7678  -3.5565  -3.4268  -3.2400  -3.1929  -3.1425  -2.9955  -2.7788
    -2.5964  -2.5771  -2.4890  -2.4019  -2.3689  -2.3468  -1.8487  -1.5155
    -1.4119  -1.1223  -1.0159  -0.9051  -0.8360  -0.6466  -0.3660  -0.3300
    -0.3077  -0.2483  -0.0361   0.2339   0.2354   0.3362   0.4554   0.4818
     0.5492   0.8429   0.8937   0.9437   0.9548   1.0084   1.1126   1.1538
     1.3301   1.4207   1.5272   1.6292   1.8565   1.9080   1.9831   2.0725
     2.0892   2.3569   2.3724   2.5774   2.6485   2.6930   2.8075   2.8154
     2.8397   2.9570   3.0166   3.0422   3.0773   3.1539   3.2745   3.4481

          k = 0.0474 0.0458 0.0000 ( 27405 PWs)   bands (ev):

   -77.4528 -77.4102 -76.8877 -76.8578 -76.8452 -76.8155 -70.3630 -70.3273
   -70.1982 -70.1814 -70.1630 -70.1460 -45.4975 -45.3733 -45.3270 -45.3225
   -45.2785 -45.0717 -44.9675 -44.9199 -44.7986 -44.7709 -44.7500 -44.7234
   -44.6898 -44.6434 -44.6420 -44.5993 -44.5449 -44.5003 -41.7755 -41.6952
   -41.6743 -41.6643 -41.6515 -41.5607 -41.5340 -41.5210 -41.4986 -41.4949
   -41.4884 -41.4867 -41.4849 -41.4622 -41.3778 -41.3530 -41.2018 -41.1973
    -4.5590  -3.4542  -3.3486  -3.1336  -3.0581  -3.0231  -2.9045  -2.6860
    -2.5707  -2.4735  -2.4055  -2.3088  -2.2435  -2.2342  -1.8291  -1.4357
    -1.4218  -1.1113  -1.0768  -0.8956  -0.8624  -0.7504  -0.3877  -0.3084
    -0.2642  -0.2627  -0.0561   0.1557   0.2129   0.2860   0.3098   0.4641
     0.5138   0.7531   0.7631   0.8463   0.8980   0.9969   1.0394   1.0959
     1.2141   1.2799   1.3791   1.4390   1.6410   1.6532   1.8779   1.9495
     1.9960   2.1604   2.2910   2.4819   2.5034   2.6078   2.7094   2.7161
     2.8278   2.8402   2.9862   3.0062   3.0195   3.2421   3.3608   3.4099

          k = 0.0474 0.0640 0.0000 ( 27415 PWs)   bands (ev):

   -77.4506 -77.4124 -76.8855 -76.8556 -76.8475 -76.8177 -70.3613 -70.3292
   -70.1964 -70.1796 -70.1648 -70.1478 -45.4751 -45.3704 -45.3248 -45.3225
   -45.2804 -45.0943 -44.9453 -44.8978 -44.7942 -44.7661 -44.7520 -44.7253
   -44.6882 -44.6461 -44.6393 -44.6015 -44.5673 -44.5226 -41.7621 -41.6961
   -41.6743 -41.6668 -41.6529 -41.5584 -41.5349 -41.5219 -41.5004 -41.5003
   -41.4895 -41.4813 -41.4739 -41.4639 -41.3772 -41.3543 -41.2170 -41.2126
    -4.2570  -3.3056  -3.1954  -3.0090  -2.9033  -2.8807  -2.7067  -2.5890
    -2.5186  -2.3421  -2.3193  -2.2383  -2.0935  -2.0396  -1.7619  -1.4845
    -1.4054  -1.1409  -1.0938  -0.9871  -0.8526  -0.7517  -0.5745  -0.4487
    -0.3485  -0.2132  -0.0676   0.0122   0.0426   0.0897   0.2324   0.3737
     0.4405   0.5886   0.6703   0.8169   0.8621   0.8715   0.9167   0.9771
     1.1683   1.1927   1.2514   1.2751   1.4282   1.5421   1.8205   1.8651
     1.9223   1.9853   2.1363   2.3785   2.3990   2.5112   2.6307   2.6452
     2.8138   2.8270   2.9423   2.9436   3.0066   3.2524   3.3879   3.4612

          k = 0.0474-0.1359 0.0000 ( 27423 PWs)   bands (ev):

   -77.4471 -77.4160 -76.8820 -76.8521 -76.8510 -76.8212 -70.3584 -70.3321
   -70.1936 -70.1768 -70.1677 -70.1507 -45.4402 -45.3660 -45.3289 -45.3174
   -45.2846 -45.1304 -44.9106 -44.8633 -44.7891 -44.7608 -44.7562 -44.7295
   -44.6849 -44.6498 -44.6356 -44.6052 -44.6030 -44.5581 -41.7395 -41.6949
   -41.6729 -41.6691 -41.6546 -41.5556 -41.5370 -41.5245 -41.5210 -41.5020
   -41.4888 -41.4668 -41.4582 -41.4506 -41.3756 -41.3561 -41.2409 -41.2366
    -3.8865  -3.1287  -3.0102  -2.9698  -2.7507  -2.7318  -2.5732  -2.4361
    -2.3160  -2.3003  -2.2643  -2.1332  -1.9161  -1.8437  -1.6505  -1.6138
    -1.4001  -1.2047  -1.1533  -1.1281  -0.8514  -0.7106  -0.6421  -0.6158
    -0.4377  -0.3684  -0.2788  -0.2316  -0.1960  -0.0060   0.1204   0.1690
     0.4037   0.4731   0.5834   0.6522   0.6974   0.7696   0.8176   0.8903
     0.9474   1.0701   1.3468   1.3747   1.5809   1.6652   1.6790   1.7604
     1.8783   1.9394   2.1262   2.2840   2.3968   2.4003   2.5719   2.6409
     2.8083   2.8186   2.8673   2.9001   2.9840   3.1794   3.3012   3.3095

          k = 0.0474-0.1177 0.0000 ( 27454 PWs)   bands (ev):

   -77.4425 -77.4206 -76.8775 -76.8555 -76.8476 -76.8258 -70.3546 -70.3359
   -70.1898 -70.1730 -70.1714 -70.1545 -45.3950 -45.3606 -45.3345 -45.3120
   -45.2908 -45.1773 -44.8658 -44.8187 -44.7837 -44.7624 -44.7555 -44.7357
   -44.6803 -44.6543 -44.6493 -44.6308 -44.6101 -44.6043 -41.7091 -41.6914
   -41.6709 -41.6704 -41.6563 -41.5552 -41.5525 -41.5403 -41.5189 -41.5034
   -41.4860 -41.4679 -41.4273 -41.4208 -41.3731 -41.3584 -41.2718 -41.2674
    -3.4962  -3.1916  -2.8974  -2.8946  -2.6210  -2.5081  -2.4719  -2.3633
    -2.3105  -2.2776  -2.1882  -1.9725  -1.7554  -1.7327  -1.5599  -1.5141
    -1.4352  -1.4053  -1.2084  -1.1189  -0.8416  -0.7781  -0.7308  -0.7287
    -0.6299  -0.5369  -0.5106  -0.4074  -0.3162  -0.0825  -0.0361   0.0484
     0.1149   0.3092   0.4328   0.4973   0.6283   0.7623   0.8721   0.8811
     1.0112   1.0765   1.4467   1.5123   1.5313   1.6752   1.7143   1.8634
     1.9766   2.0097   2.2381   2.2578   2.2639   2.4660   2.5268   2.6727
     2.7196   2.7880   2.8152   2.8910   2.9075   2.9701   2.9830   3.1985

          k = 0.0474-0.0996 0.0000 ( 27431 PWs)   bands (ev):

   -77.4372 -77.4259 -76.8722 -76.8609 -76.8423 -76.8311 -70.3501 -70.3403
   -70.1854 -70.1758 -70.1686 -70.1589 -45.3545 -45.3436 -45.3400 -45.3068
   -45.2986 -45.2317 -44.8138 -44.7784 -44.7703 -44.7667 -44.7503 -44.7435
   -44.7041 -44.6738 -44.6593 -44.6574 -44.6256 -44.6160 -41.6860 -41.6737
   -41.6717 -41.6669 -41.6579 -41.5905 -41.5496 -41.5444 -41.5153 -41.5044
   -41.4816 -41.4688 -41.3906 -41.3852 -41.3699 -41.3607 -41.3077 -41.3028
    -3.5177  -3.1695  -2.9071  -2.7115  -2.5583  -2.5571  -2.4829  -2.4592
    -2.2724  -2.1665  -2.1282  -1.9163  -1.7747  -1.7727  -1.5437  -1.4880
    -1.3198  -1.2923  -1.1481  -1.0090  -0.9641  -0.8883  -0.8397  -0.7854
    -0.6974  -0.6860  -0.5499  -0.4605  -0.4320  -0.2745  -0.2338   0.0015
     0.0845   0.1349   0.2910   0.5112   0.7752   0.8829   0.9188   0.9559
     1.0188   1.3113   1.4499   1.5312   1.6137   1.6211   1.7509   1.9938
     2.0365   2.1102   2.1642   2.2269   2.2958   2.4714   2.5402   2.6429
     2.7020   2.7171   2.7915   2.8948   2.9106   2.9758   3.0512   3.1432

          k = 0.0474-0.0814 0.0000 ( 27440 PWs)   bands (ev):

   -77.4316 -77.4315 -76.8666 -76.8665 -76.8367 -76.8367 -70.3453 -70.3450
   -70.1807 -70.1804 -70.1638 -70.1636 -45.3484 -45.3481 -45.3072 -45.3018
   -45.2897 -45.2859 -44.7794 -44.7740 -44.7605 -44.7577 -44.7514 -44.7455
   -44.7155 -44.7112 -44.6663 -44.6646 -44.6222 -44.6202 -41.6796 -41.6740
   -41.6629 -41.6596 -41.6334 -41.6284 -41.5490 -41.5468 -41.5107 -41.5052
   -41.4761 -41.4696 -41.3663 -41.3643 -41.3504 -41.3460 -41.3456 -41.3404
    -3.8914  -3.0557  -2.9477  -2.7365  -2.6954  -2.6638  -2.6095  -2.5382
    -2.3944  -2.1475  -2.0117  -1.9696  -1.8458  -1.7542  -1.6384  -1.4887
    -1.4060  -1.2274  -1.1750  -1.0389  -0.8756  -0.7958  -0.7714  -0.7673
    -0.6457  -0.6208  -0.5214  -0.4782  -0.4099  -0.3191  -0.2715  -0.1007
     0.0237   0.1916   0.5428   0.6171   0.8988   0.9249   1.0263   1.0724
     1.1695   1.4047   1.5475   1.5734   1.6615   1.6923   1.7855   1.8168
     1.8775   2.1557   2.1883   2.2880   2.3356   2.3374   2.5952   2.6543
     2.7022   2.7334   2.9334   2.9466   2.9751   3.1509   3.2330   3.3112

          k = 0.0474-0.0632 0.0000 ( 27434 PWs)   bands (ev):

   -77.4373 -77.4258 -76.8723 -76.8608 -76.8424 -76.8310 -70.3498 -70.3405
   -70.1852 -70.1759 -70.1683 -70.1591 -45.3556 -45.3476 -45.3412 -45.3155
   -45.2969 -45.2292 -44.8186 -44.7871 -44.7723 -44.7676 -44.7607 -44.7408
   -44.7010 -44.6700 -44.6596 -44.6554 -44.6281 -44.6149 -41.6757 -41.6733
   -41.6662 -41.6613 -41.6586 -41.5936 -41.5535 -41.5442 -41.5063 -41.5058
   -41.4707 -41.4705 -41.3846 -41.3781 -41.3667 -41.3623 -41.3104 -41.3061
    -4.2467  -3.2252  -2.9478  -2.9214  -2.8462  -2.8154  -2.7347  -2.5712
    -2.4811  -2.4602  -2.1944  -1.9567  -1.9475  -1.8518  -1.5430  -1.5198
    -1.4375  -1.3486  -1.2144  -1.0925  -0.7604  -0.7375  -0.7130  -0.6110
    -0.5943  -0.5068  -0.4382  -0.4349  -0.3296  -0.2975  -0.0159   0.1604
     0.2430   0.4043   0.7469   0.7616   0.8657   1.0698   1.1584   1.2251
     1.2882   1.4317   1.5529   1.5873   1.6176   1.7131   1.7164   1.9379
     2.0016   2.0411   2.2607   2.3122   2.4247   2.4699   2.5932   2.6769
     2.7296   2.8087   2.9670   2.9848   3.1028   3.2093   3.2103   3.4405

          k = 0.0474-0.0451 0.0000 ( 27413 PWs)   bands (ev):

   -77.4426 -77.4205 -76.8776 -76.8555 -76.8477 -76.8257 -70.3542 -70.3359
   -70.1895 -70.1727 -70.1715 -70.1546 -45.4002 -45.3622 -45.3355 -45.3227
   -45.2923 -45.1761 -44.8710 -44.8243 -44.7941 -44.7679 -44.7632 -44.7364
   -44.6755 -44.6533 -44.6485 -44.6338 -44.6098 -44.6028 -41.7017 -41.6780
   -41.6675 -41.6633 -41.6550 -41.5592 -41.5547 -41.5417 -41.5079 -41.5015
   -41.4725 -41.4656 -41.4204 -41.4131 -41.3694 -41.3589 -41.2730 -41.2689
    -4.5427  -3.3968  -3.1187  -3.0842  -2.9790  -2.9296  -2.8228  -2.7322
    -2.6338  -2.5173  -2.3648  -2.2410  -2.1457  -1.9356  -1.6178  -1.5187
    -1.5125  -1.2392  -1.1805  -1.0405  -0.7254  -0.7014  -0.6335  -0.5729
    -0.5553  -0.4263  -0.3164  -0.2660  -0.2641  -0.0385   0.0715   0.6090
     0.6735   0.7757   0.8267   0.8441   0.8607   1.0859   1.1584   1.2438
     1.3842   1.4425   1.5517   1.6936   1.7002   1.7553   1.8132   1.9394
     2.1285   2.2853   2.3226   2.3764   2.5258   2.5902   2.6393   2.7525
     2.7796   2.8736   2.9557   3.0149   3.1965   3.2289   3.2760   3.3685

          k = 0.0632-0.0359 0.0000 ( 27426 PWs)   bands (ev):

   -77.4426 -77.4205 -76.8775 -76.8555 -76.8477 -76.8257 -70.3543 -70.3359
   -70.1896 -70.1727 -70.1715 -70.1546 -45.3992 -45.3619 -45.3353 -45.3205
   -45.2920 -45.1763 -44.8699 -44.8232 -44.7920 -44.7653 -44.7630 -44.7362
   -44.6765 -44.6535 -44.6485 -44.6332 -44.6099 -44.6031 -41.7036 -41.6807
   -41.6681 -41.6650 -41.6552 -41.5577 -41.5547 -41.5414 -41.5103 -41.5021
   -41.4754 -41.4663 -41.4217 -41.4146 -41.3702 -41.3587 -41.2727 -41.2685
    -4.3931  -3.3600  -3.1075  -3.0203  -2.9151  -2.8139  -2.7485  -2.6867
    -2.5725  -2.4611  -2.3043  -2.2373  -2.0747  -1.8725  -1.5953  -1.5146
    -1.4423  -1.2713  -1.1906  -1.1522  -0.7213  -0.6931  -0.6039  -0.5845
    -0.5287  -0.4057  -0.3069  -0.2565  -0.2352  -0.1122   0.0448   0.5725
     0.6074   0.6861   0.7242   0.8002   0.8050   0.9785   1.0873   1.1522
     1.2807   1.4094   1.4916   1.5585   1.6149   1.7287   1.7939   1.8927
     2.0997   2.2255   2.2782   2.2883   2.3639   2.4986   2.5889   2.6686
     2.6934   2.8197   2.8715   2.9185   3.0716   3.1627   3.2861   3.3007

          k = 0.0632-0.0177 0.0000 ( 27422 PWs)   bands (ev):

   -77.4472 -77.4159 -76.8821 -76.8522 -76.8510 -76.8212 -70.3581 -70.3321
   -70.1934 -70.1766 -70.1677 -70.1508 -45.4435 -45.3672 -45.3298 -45.3247
   -45.2868 -45.1302 -44.9139 -44.8668 -44.7962 -44.7693 -44.7579 -44.7314
   -44.6818 -44.6486 -44.6376 -44.6053 -44.6027 -44.5578 -41.7348 -41.6853
   -41.6683 -41.6652 -41.6530 -41.5590 -41.5385 -41.5242 -41.5136 -41.4996
   -41.4794 -41.4641 -41.4532 -41.4455 -41.3732 -41.3560 -41.2410 -41.2367
    -4.5417  -3.4217  -3.1698  -3.1191  -3.0325  -2.9466  -2.8168  -2.7245
    -2.5660  -2.4871  -2.4423  -2.3952  -2.1789  -2.0639  -1.6750  -1.4934
    -1.4811  -1.1763  -1.1166  -1.0418  -0.7497  -0.6561  -0.6205  -0.5724
    -0.4034  -0.4016  -0.1660  -0.1360  -0.0675   0.1835   0.2397   0.5544
     0.6671   0.7231   0.7746   0.9250   0.9619   1.0190   1.0786   1.1530
     1.3177   1.3737   1.4488   1.6070   1.6541   1.7005   1.8557   1.8874
     2.1647   2.2907   2.3196   2.3431   2.4258   2.5776   2.6033   2.7535
     2.8945   2.9191   2.9593   3.0022   3.1074   3.2180   3.3416   3.3534

          k = 0.0632 0.0005 0.0000 ( 27397 PWs)   bands (ev):

   -77.4506 -77.4124 -76.8855 -76.8556 -76.8475 -76.8177 -70.3611 -70.3292
   -70.1963 -70.1795 -70.1648 -70.1478 -45.4770 -45.3711 -45.3268 -45.3254
   -45.2822 -45.0944 -44.9472 -44.8998 -44.7984 -44.7711 -44.7534 -44.7269
   -44.6864 -44.6452 -44.6405 -44.6017 -44.5674 -44.5227 -41.7594 -41.6903
   -41.6715 -41.6640 -41.6518 -41.5603 -41.5360 -41.5175 -41.4999 -41.4985
   -41.4839 -41.4788 -41.4709 -41.4615 -41.3758 -41.3541 -41.2168 -41.2124
    -4.5982  -3.4576  -3.2535  -3.1746  -3.0662  -3.0251  -2.8680  -2.6609
    -2.6520  -2.5217  -2.4439  -2.3842  -2.2321  -2.2026  -1.7654  -1.4811
    -1.4420  -1.1514  -1.0723  -0.9182  -0.8228  -0.6710  -0.5448  -0.4668
    -0.3439  -0.3328  -0.1001   0.0470   0.1300   0.3319   0.3339   0.4353
     0.6158   0.6633   0.7606   0.9579   0.9891   1.0326   1.0708   1.2038
     1.2554   1.3573   1.4691   1.5439   1.6383   1.7113   1.8822   1.9206
     2.1361   2.2502   2.3502   2.4052   2.5088   2.5739   2.6622   2.7706
     2.9011   2.9573   2.9601   2.9861   3.1288   3.3622   3.3753   3.5586

          k = 0.0632 0.0186 0.0000 ( 27405 PWs)   bands (ev):

   -77.4528 -77.4102 -76.8877 -76.8578 -76.8452 -76.8155 -70.3630 -70.3273
   -70.1982 -70.1814 -70.1630 -70.1460 -45.4975 -45.3733 -45.3270 -45.3225
   -45.2785 -45.0717 -44.9675 -44.9199 -44.7986 -44.7709 -44.7500 -44.7234
   -44.6898 -44.6434 -44.6420 -44.5993 -44.5449 -44.5003 -41.7755 -41.6952
   -41.6743 -41.6643 -41.6515 -41.5607 -41.5340 -41.5210 -41.4986 -41.4949
   -41.4884 -41.4867 -41.4849 -41.4622 -41.3778 -41.3530 -41.2018 -41.1973
    -4.5590  -3.4542  -3.3486  -3.1336  -3.0581  -3.0231  -2.9045  -2.6860
    -2.5707  -2.4735  -2.4055  -2.3088  -2.2435  -2.2342  -1.8291  -1.4357
    -1.4218  -1.1113  -1.0768  -0.8956  -0.8624  -0.7504  -0.3877  -0.3084
    -0.2642  -0.2627  -0.0561   0.1557   0.2129   0.2860   0.3098   0.4641
     0.5138   0.7531   0.7631   0.8463   0.8980   0.9969   1.0394   1.0959
     1.2141   1.2799   1.3791   1.4390   1.6410   1.6532   1.8779   1.9495
     1.9960   2.1604   2.2910   2.4819   2.5034   2.6078   2.7094   2.7161
     2.8278   2.8402   2.9862   3.0062   3.0195   3.2421   3.3608   3.4099

          k = 0.0632 0.0368 0.0000 ( 27414 PWs)   bands (ev):

   -77.4535 -77.4095 -76.8885 -76.8585 -76.8445 -76.8148 -70.3637 -70.3267
   -70.1989 -70.1821 -70.1623 -70.1454 -45.5039 -45.3738 -45.3255 -45.3212
   -45.2765 -45.0638 -44.9738 -44.9261 -44.7973 -44.7691 -44.7481 -44.7214
   -44.6916 -44.6432 -44.6422 -44.5983 -44.5371 -44.4926 -41.7820 -41.6990
   -41.6762 -41.6655 -41.6518 -41.5602 -41.5329 -41.5238 -41.5017 -41.4989
   -41.4933 -41.4920 -41.4800 -41.4633 -41.3790 -41.3528 -41.1968 -41.1923
    -4.4244  -3.4067  -3.3716  -3.0534  -3.0099  -2.9744  -2.8831  -2.6221
    -2.4945  -2.4380  -2.3037  -2.1955  -2.1950  -2.1894  -1.8455  -1.4367
    -1.4108  -1.0909  -1.0493  -0.9258  -0.8595  -0.8337  -0.3118  -0.2767
    -0.2006  -0.0758  -0.0382  -0.0104   0.1894   0.2134   0.3347   0.4294
     0.6449   0.7168   0.7479   0.7580   0.8546   0.8778   0.9155   0.9438
[...]
     1.8905   1.9575   2.0803   2.2682   2.3965   2.5762   2.5816   2.6257
     2.6994   2.7335   2.7809   2.9245   2.9900   3.0647   3.1821   3.5033

          k = 0.0790 0.0460 0.0000 ( 27394 PWs)   bands (ev):

   -77.4535 -77.4095 -76.8884 -76.8585 -76.8445 -76.8148 -70.3638 -70.3267
   -70.1989 -70.1822 -70.1623 -70.1454 -45.5024 -45.3732 -45.3220 -45.3207
   -45.2749 -45.0636 -44.9724 -44.9246 -44.7939 -44.7650 -44.7468 -44.7198
   -44.6930 -44.6440 -44.6413 -44.5981 -44.5370 -44.4924 -41.7842 -41.7038
   -41.6783 -41.6681 -41.6528 -41.5588 -41.5320 -41.5272 -41.5038 -41.5007
   -41.4966 -41.4956 -41.4804 -41.4655 -41.3800 -41.3530 -41.1971 -41.1926
    -4.0735  -3.3861  -3.2927  -2.9209  -2.8907  -2.8655  -2.7348  -2.4551
    -2.4412  -2.3493  -2.0906  -2.0398  -2.0270  -1.9906  -1.7941  -1.5773
    -1.4851  -1.1163  -1.0247  -0.9542  -0.8151  -0.6950  -0.4942  -0.2359
    -0.2192  -0.1783  -0.0851   0.0450   0.0804   0.1587   0.3544   0.3967
     0.5001   0.5831   0.6059   0.6493   0.7464   0.8096   0.8649   0.8650
     0.9139   1.0571   1.0589   1.1130   1.2011   1.4082   1.5669   1.7967
     1.8453   1.9270   2.0489   2.1423   2.3300   2.4958   2.5922   2.5986
     2.6297   2.6529   2.7161   2.7411   3.0068   3.1132   3.1975   3.5475

          k = 0.0790-0.1538 0.0000 ( 27419 PWs)   bands (ev):

   -77.4527 -77.4103 -76.8877 -76.8577 -76.8453 -76.8155 -70.3632 -70.3274
   -70.1983 -70.1816 -70.1630 -70.1460 -45.4947 -45.3722 -45.3216 -45.3203
   -45.2755 -45.0714 -44.9648 -44.9170 -44.7923 -44.7633 -44.7475 -44.7205
   -44.6925 -44.6449 -44.6404 -44.5989 -44.5446 -44.5000 -41.7797 -41.7043
   -41.6783 -41.6689 -41.6533 -41.5580 -41.5324 -41.5276 -41.5014 -41.4991
   -41.4971 -41.4911 -41.4855 -41.4662 -41.3798 -41.3535 -41.2023 -41.1979
    -3.8891  -3.3840  -3.2334  -2.8874  -2.8263  -2.7722  -2.6433  -2.5068
    -2.3512  -2.3026  -2.0423  -2.0155  -1.9579  -1.8703  -1.7363  -1.6724
    -1.5344  -1.1925  -1.0007  -0.8878  -0.7889  -0.6332  -0.5521  -0.3714
    -0.3115  -0.2534  -0.1936  -0.1164   0.1937   0.2198   0.2587   0.3375
     0.3790   0.4949   0.5080   0.6456   0.6538   0.6868   0.7744   0.8984
     1.0389   1.0534   1.0648   1.1126   1.2622   1.3991   1.4740   1.7220
     1.8577   1.9211   1.9665   2.1764   2.2986   2.4756   2.5727   2.5811
     2.5934   2.6301   2.7005   2.7344   2.9853   3.0774   3.1609   3.5104

          k = 0.0790-0.1357 0.0000 ( 27452 PWs)   bands (ev):

   -77.4505 -77.4125 -76.8855 -76.8555 -76.8475 -76.8177 -70.3614 -70.3292
   -70.1965 -70.1797 -70.1648 -70.1478 -45.4732 -45.3696 -45.3243 -45.3181
   -45.2787 -45.0942 -44.9434 -44.8958 -44.7900 -44.7611 -44.7506 -44.7237
   -44.6900 -44.6470 -44.6382 -44.6013 -44.5673 -44.5225 -41.7649 -41.7021
   -41.6768 -41.6696 -41.6540 -41.5567 -41.5339 -41.5262 -41.5020 -41.5008
   -41.4950 -41.4840 -41.4764 -41.4667 -41.3785 -41.3545 -41.2172 -41.2129
    -3.6829  -3.3115  -3.1413  -2.8116  -2.7392  -2.6738  -2.6353  -2.4939
    -2.2649  -2.2071  -2.1014  -2.0100  -1.9631  -1.7622  -1.7500  -1.6467
    -1.5457  -1.2186  -1.0513  -0.8501  -0.7626  -0.7394  -0.5455  -0.5187
    -0.4172  -0.3942  -0.3168  -0.2929  -0.0333   0.0314   0.2141   0.3034
     0.3333   0.4413   0.4497   0.5598   0.6625   0.7166   0.7850   0.8769
     0.8812   1.0299   1.1752   1.3944   1.4034   1.4740   1.5446   1.6724
     1.8722   1.8895   2.0769   2.2796   2.2988   2.4875   2.5537   2.5783
     2.6295   2.7021   2.7072   2.7590   2.9259   2.9910   3.0848   3.4025

          k = 0.0790-0.1175 0.0000 ( 27459 PWs)   bands (ev):

   -77.4471 -77.4160 -76.8820 -76.8521 -76.8510 -76.8212 -70.3584 -70.3321
   -70.1936 -70.1768 -70.1677 -70.1507 -45.4393 -45.3657 -45.3287 -45.3154
   -45.2840 -45.1305 -44.9097 -44.8623 -44.7871 -44.7585 -44.7558 -44.7290
   -44.6857 -44.6501 -44.6351 -44.6052 -44.6031 -44.5582 -41.7408 -41.6975
   -41.6740 -41.6702 -41.6550 -41.5548 -41.5367 -41.5247 -41.5227 -41.5026
   -41.4913 -41.4672 -41.4594 -41.4524 -41.3762 -41.3562 -41.2409 -41.2366
    -3.5461  -3.1271  -3.0272  -2.8901  -2.6928  -2.6649  -2.5248  -2.3231
    -2.2831  -2.2228  -2.1241  -1.9972  -1.9249  -1.7670  -1.7027  -1.5700
    -1.4951  -1.2327  -1.1889  -1.0067  -0.7974  -0.7451  -0.6043  -0.5745
    -0.5537  -0.5261  -0.3789  -0.3532  -0.2586  -0.1733   0.1137   0.1275
     0.2956   0.4087   0.5306   0.5737   0.6446   0.6636   0.7618   0.8460
     0.9229   1.0018   1.2996   1.4817   1.5289   1.6472   1.6521   1.7422
     1.8581   1.9348   2.2250   2.2810   2.3662   2.4328   2.5220   2.6844
     2.7424   2.7658   2.8374   2.8478   2.8979   2.9805   3.0659   3.2213

          k = 0.0790-0.0993 0.0000 ( 27454 PWs)   bands (ev):

   -77.4425 -77.4206 -76.8775 -76.8555 -76.8476 -76.8258 -70.3546 -70.3359
   -70.1898 -70.1730 -70.1714 -70.1545 -45.3950 -45.3606 -45.3345 -45.3120
   -45.2908 -45.1773 -44.8658 -44.8187 -44.7837 -44.7624 -44.7555 -44.7357
   -44.6803 -44.6543 -44.6493 -44.6308 -44.6101 -44.6043 -41.7091 -41.6914
   -41.6709 -41.6704 -41.6563 -41.5552 -41.5525 -41.5403 -41.5189 -41.5034
   -41.4860 -41.4679 -41.4273 -41.4208 -41.3731 -41.3584 -41.2718 -41.2674
    -3.4962  -3.1916  -2.8974  -2.8946  -2.6210  -2.5081  -2.4719  -2.3633
    -2.3105  -2.2776  -2.1882  -1.9725  -1.7554  -1.7327  -1.5599  -1.5141
    -1.4352  -1.4053  -1.2084  -1.1189  -0.8416  -0.7781  -0.7308  -0.7287
    -0.6299  -0.5370  -0.5106  -0.4074  -0.3162  -0.0825  -0.0361   0.0484
     0.1149   0.3092   0.4328   0.4973   0.6283   0.7623   0.8721   0.8811
     1.0112   1.0765   1.4467   1.5123   1.5313   1.6752   1.7143   1.8634
     1.9766   2.0097   2.2381   2.2578   2.2639   2.4660   2.5268   2.6727
     2.7196   2.7880   2.8152   2.8910   2.9075   2.9701   2.9830   3.1985

          k = 0.0790-0.0812 0.0000 ( 27455 PWs)   bands (ev):

   -77.4372 -77.4259 -76.8722 -76.8609 -76.8423 -76.8310 -70.3501 -70.3403
   -70.1854 -70.1758 -70.1685 -70.1589 -45.3546 -45.3443 -45.3401 -45.3080
   -45.2983 -45.2313 -44.8146 -44.7796 -44.7698 -44.7677 -44.7519 -44.7428
   -44.7036 -44.6733 -44.6593 -44.6571 -44.6260 -44.6158 -41.6847 -41.6751
   -41.6699 -41.6663 -41.6576 -41.5908 -41.5501 -41.5443 -41.5141 -41.5047
   -41.4802 -41.4692 -41.3899 -41.3840 -41.3695 -41.3608 -41.3079 -41.3032
    -3.4945  -3.4705  -2.8025  -2.7951  -2.6048  -2.5689  -2.4728  -2.4719
    -2.2595  -2.1732  -2.1649  -1.9718  -1.8290  -1.7654  -1.4948  -1.4637
    -1.3823  -1.3570  -1.1513  -1.0371  -0.9052  -0.8734  -0.7875  -0.7379
    -0.6887  -0.5251  -0.5093  -0.4110  -0.3709  -0.2120  -0.2062  -0.0993
     0.1640   0.1869   0.3408   0.5593   0.7578   0.8665   0.9385   0.9494
     1.0368   1.2699   1.4767   1.4919   1.5913   1.7144   1.7581   1.9592
     1.9942   2.1089   2.1139   2.2152   2.2565   2.2767   2.4656   2.5183
     2.6455   2.6605   2.7011   2.8035   2.9947   3.0134   3.1153   3.2107

          k = 0.0790-0.0630 0.0000 ( 27448 PWs)   bands (ev):

   -77.4316 -77.4315 -76.8666 -76.8665 -76.8367 -76.8367 -70.3452 -70.3451
   -70.1807 -70.1805 -70.1638 -70.1636 -45.3483 -45.3482 -45.3063 -45.3038
   -45.2881 -45.2863 -44.7785 -44.7760 -44.7592 -44.7580 -44.7503 -44.7474
   -44.7140 -44.7118 -44.6659 -44.6650 -44.6217 -44.6207 -41.6784 -41.6756
   -41.6624 -41.6609 -41.6315 -41.6291 -41.5484 -41.5473 -41.5095 -41.5067
   -41.4746 -41.4714 -41.3661 -41.3651 -41.3486 -41.3467 -41.3443 -41.3416
    -3.7703  -3.4340  -2.8392  -2.8054  -2.6592  -2.6374  -2.5479  -2.5322
    -2.3011  -2.1683  -2.0065  -1.9858  -1.8597  -1.8530  -1.5840  -1.5060
    -1.3139  -1.2737  -1.1139  -1.0579  -0.8857  -0.8738  -0.7246  -0.6652
    -0.5841  -0.4965  -0.4644  -0.3901  -0.3888  -0.3577  -0.2206  -0.1562
     0.0217   0.1992   0.5887   0.6439   0.8652   0.9111   0.9641   0.9875
     1.1052   1.3521   1.4104   1.5480   1.7127   1.7313   1.8331   1.8796
     1.9151   2.0840   2.1070   2.1601   2.2098   2.2716   2.2948   2.4681
     2.5702   2.6390   2.7223   2.8034   3.0632   3.0985   3.2423   3.2751

          k =-0.0948 0.0538 0.0000 ( 27446 PWs)   bands (ev):

   -77.4316 -77.4316 -76.8665 -76.8665 -76.8367 -76.8367 -70.3452 -70.3451
   -70.1806 -70.1805 -70.1637 -70.1637 -45.3483 -45.3483 -45.3052 -45.3052
   -45.2870 -45.2870 -44.7774 -44.7774 -44.7585 -44.7584 -44.7490 -44.7490
   -44.7128 -44.7128 -44.6655 -44.6655 -44.6212 -44.6212 -41.6771 -41.6770
   -41.6618 -41.6617 -41.6301 -41.6300 -41.5479 -41.5479 -41.5082 -41.5081
   -41.4731 -41.4731 -41.3657 -41.3656 -41.3475 -41.3475 -41.3429 -41.3429
    -3.6247  -3.6247  -2.8312  -2.8312  -2.6447  -2.6447  -2.5297  -2.5297
    -2.2200  -2.2199  -2.0014  -2.0014  -1.8616  -1.8615  -1.5532  -1.5532
    -1.2793  -1.2793  -1.0734  -1.0734  -0.9003  -0.9003  -0.6737  -0.6737
    -0.5119  -0.5119  -0.4031  -0.4031  -0.3607  -0.3607  -0.2068  -0.2068
     0.1158   0.1158   0.6502   0.6502   0.8610   0.8610   0.9431   0.9431
     1.1819   1.1819   1.4929   1.4929   1.7297   1.7298   1.8812   1.8812
     2.0144   2.0144   2.0773   2.0773   2.1387   2.1387   2.3529   2.3529
     2.5554   2.5555   2.7856   2.7857   3.1078   3.1078   3.2994   3.2994

          k =-0.0948 0.0720 0.0000 ( 27436 PWs)   bands (ev):

   -77.4373 -77.4259 -76.8722 -76.8608 -76.8424 -76.8310 -70.3500 -70.3404
   -70.1853 -70.1758 -70.1685 -70.1589 -45.3549 -45.3453 -45.3404 -45.3101
   -45.2978 -45.2307 -44.8159 -44.7817 -44.7695 -44.7689 -44.7544 -44.7419
   -44.7028 -44.6723 -44.6594 -44.6566 -44.6265 -44.6156 -41.6822 -41.6757
   -41.6685 -41.6651 -41.6572 -41.5913 -41.5510 -41.5443 -41.5121 -41.5051
   -41.4777 -41.4697 -41.3886 -41.3821 -41.3688 -41.3611 -41.3085 -41.3039
    -3.7578  -3.4465  -2.8971  -2.8143  -2.6733  -2.6029  -2.5155  -2.4908
    -2.3139  -2.2473  -2.1145  -2.0568  -1.8345  -1.7483  -1.5533  -1.5220
    -1.3522  -1.2687  -1.2177  -1.1060  -0.8736  -0.8508  -0.6887  -0.6630
    -0.6259  -0.4966  -0.4273  -0.3367  -0.3016  -0.1837  -0.1615  -0.0675
     0.1424   0.2563   0.5032   0.6808   0.7892   0.8295   0.9133   1.0018
     1.1177   1.2096   1.3627   1.5935   1.6469   1.7628   1.7850   1.9101
     1.9607   1.9752   2.1057   2.1426   2.1978   2.2793   2.3899   2.4622
     2.5437   2.6338   2.7591   2.8165   3.0670   3.0824   3.2415   3.2810

          k =-0.0948 0.0901 0.0000 ( 27461 PWs)   bands (ev):

   -77.4425 -77.4205 -76.8775 -76.8555 -76.8476 -76.8258 -70.3545 -70.3359
   -70.1898 -70.1729 -70.1714 -70.1545 -45.3961 -45.3610 -45.3347 -45.3143
   -45.2911 -45.1770 -44.8669 -44.8199 -44.7859 -44.7625 -44.7582 -44.7358
   -44.6793 -44.6541 -44.6490 -44.6315 -44.6101 -44.6039 -41.7078 -41.6885
   -41.6701 -41.6691 -41.6560 -41.5552 -41.5536 -41.5406 -41.5167 -41.5031
   -41.4832 -41.4676 -41.4258 -41.4189 -41.3723 -41.3584 -41.2720 -41.2677
    -3.8433  -3.2406  -2.9838  -2.8550  -2.6975  -2.5856  -2.5669  -2.4412
    -2.4101  -2.2809  -2.2191  -2.1119  -1.8331  -1.7354  -1.5900  -1.5453
    -1.3738  -1.3235  -1.2923  -1.1374  -0.8116  -0.7810  -0.6945  -0.6531
    -0.5400  -0.4078  -0.4075  -0.3256  -0.2617  -0.1150  -0.0229   0.2410
     0.2938   0.4251   0.4654   0.6162   0.6235   0.8366   0.8980   0.9299
     1.0889   1.0917   1.3439   1.5396   1.6582   1.6590   1.7795   1.8096
     1.9041   1.9835   2.1177   2.2155   2.3120   2.4388   2.4988   2.5738
     2.7059   2.7909   2.8403   2.9033   2.9676   3.0283   3.1110   3.2493

          k =-0.0948 0.1083 0.0000 ( 27423 PWs)   bands (ev):

   -77.4471 -77.4160 -76.8820 -76.8521 -76.8510 -76.8212 -70.3584 -70.3321
   -70.1936 -70.1768 -70.1677 -70.1507 -45.4402 -45.3660 -45.3289 -45.3174
   -45.2846 -45.1304 -44.9106 -44.8633 -44.7891 -44.7608 -44.7562 -44.7295
   -44.6849 -44.6498 -44.6356 -44.6052 -44.6030 -44.5581 -41.7395 -41.6949
   -41.6729 -41.6691 -41.6546 -41.5556 -41.5370 -41.5245 -41.5210 -41.5020
   -41.4888 -41.4668 -41.4582 -41.4506 -41.3756 -41.3561 -41.2409 -41.2366
    -3.8865  -3.1287  -3.0102  -2.9698  -2.7507  -2.7318  -2.5732  -2.4361
    -2.3160  -2.3003  -2.2643  -2.1332  -1.9161  -1.8437  -1.6505  -1.6138
    -1.4001  -1.2047  -1.1533  -1.1281  -0.8514  -0.7106  -0.6421  -0.6158
    -0.4377  -0.3684  -0.2788  -0.2316  -0.1960  -0.0060   0.1204   0.1690
     0.4037   0.4731   0.5834   0.6522   0.6974   0.7696   0.8176   0.8903
     0.9474   1.0701   1.3468   1.3747   1.5809   1.6652   1.6790   1.7604
     1.8783   1.9394   2.1262   2.2840   2.3968   2.4003   2.5719   2.6409
     2.8083   2.8186   2.8673   2.9001   2.9840   3.1794   3.3012   3.3095

          k =-0.0948 0.1265 0.0000 ( 27436 PWs)   bands (ev):

   -77.4505 -77.4125 -76.8855 -76.8556 -76.8475 -76.8177 -70.3614 -70.3292
   -70.1965 -70.1797 -70.1648 -70.1478 -45.4737 -45.3698 -45.3244 -45.3193
   -45.2792 -45.0943 -44.9439 -44.8963 -44.7911 -44.7625 -44.7510 -44.7241
   -44.6895 -44.6467 -44.6385 -44.6013 -44.5673 -44.5225 -41.7642 -41.7005
   -41.6761 -41.6688 -41.6538 -41.5571 -41.5342 -41.5251 -41.5016 -41.5006
   -41.4936 -41.4833 -41.4758 -41.4659 -41.3782 -41.3545 -41.2171 -41.2128
    -3.8971  -3.2246  -3.1864  -2.8290  -2.8221  -2.7821  -2.5710  -2.5592
    -2.3074  -2.2757  -2.1594  -2.0919  -2.0157  -1.8597  -1.7023  -1.6294
    -1.4705  -1.1431  -1.0767  -0.9948  -0.8185  -0.6451  -0.6329  -0.4947
    -0.4156  -0.3202  -0.1964  -0.1322   0.0126   0.1031   0.1149   0.3289
     0.4029   0.4131   0.5837   0.6540   0.6969   0.7123   0.7884   0.9167
     0.9709   1.0577   1.1901   1.3101   1.4133   1.5340   1.5894   1.7389
     1.8872   1.8951   2.0683   2.2955   2.3362   2.4890   2.5726   2.5886
     2.7020   2.7370   2.8076   2.9297   2.9419   2.9927   3.1210   3.3986

          k =-0.0948 0.1446 0.0000 ( 27419 PWs)   bands (ev):

   -77.4527 -77.4103 -76.8877 -76.8577 -76.8453 -76.8155 -70.3632 -70.3274
   -70.1983 -70.1816 -70.1630 -70.1460 -45.4947 -45.3722 -45.3216 -45.3203
   -45.2755 -45.0714 -44.9648 -44.9170 -44.7923 -44.7633 -44.7475 -44.7205
   -44.6925 -44.6449 -44.6404 -44.5989 -44.5446 -44.5000 -41.7797 -41.7043
   -41.6783 -41.6689 -41.6533 -41.5580 -41.5324 -41.5276 -41.5014 -41.4991
   -41.4971 -41.4911 -41.4855 -41.4662 -41.3798 -41.3535 -41.2023 -41.1979
    -3.8891  -3.3840  -3.2334  -2.8874  -2.8263  -2.7722  -2.6433  -2.5068
    -2.3512  -2.3026  -2.0423  -2.0155  -1.9579  -1.8703  -1.7363  -1.6724
    -1.5344  -1.1925  -1.0007  -0.8878  -0.7889  -0.6332  -0.5521  -0.3714
    -0.3115  -0.2534  -0.1936  -0.1164   0.1937   0.2198   0.2587   0.3375
     0.3790   0.4949   0.5080   0.6456   0.6538   0.6868   0.7744   0.8984
     1.0389   1.0534   1.0648   1.1126   1.2622   1.3991   1.4740   1.7220
     1.8577   1.9211   1.9665   2.1764   2.2986   2.4756   2.5727   2.5811
     2.5934   2.6301   2.7005   2.7344   2.9853   3.0774   3.1609   3.5104

          k =-0.0948-0.0552 0.0000 ( 27404 PWs)   bands (ev):

   -77.4535 -77.4095 -76.8884 -76.8585 -76.8445 -76.8148 -70.3639 -70.3267
   -70.1990 -70.1822 -70.1623 -70.1454 -45.5018 -45.3730 -45.3207 -45.3206
   -45.2743 -45.0636 -44.9719 -44.9240 -44.7926 -44.7635 -44.7463 -44.7192
   -44.6935 -44.6443 -44.6410 -44.5980 -44.5369 -44.4923 -41.7850 -41.7056
   -41.6790 -41.6690 -41.6531 -41.5584 -41.5317 -41.5285 -41.5045 -41.5013
   -41.4983 -41.4965 -41.4805 -41.4663 -41.3804 -41.3531 -41.1972 -41.1928
    -3.8818  -3.4436  -3.2499  -2.9083  -2.8462  -2.7689  -2.6716  -2.4689
    -2.3717  -2.3158  -1.9865  -1.9847  -1.9056  -1.8691  -1.7491  -1.7079
    -1.5647  -1.2210  -0.9932  -0.7951  -0.7915  -0.6992  -0.4350  -0.3496
    -0.2751  -0.2204  -0.2063  -0.0156   0.1501   0.2599   0.3302   0.3334
     0.4091   0.5078   0.5114   0.6110   0.6724   0.7717   0.8586   0.8625
     0.9437   0.9844   1.0420   1.0527   1.0783   1.4134   1.4228   1.7175
     1.8489   1.8519   1.9784   2.1364   2.2708   2.4093   2.5245   2.5584
     2.5999   2.6058   2.7111   2.7146   3.0052   3.1153   3.1923   3.5511

     the Fermi energy is     1.7149 ev

!    total energy              =   -2419.31619787 Ry
     estimated scf accuracy    <       0.00000790 Ry
     smearing contrib. (-TS)   =      -0.08837014 Ry
     internal energy E=F+TS    =   -2419.22782773 Ry

     The total energy is F=E-TS. E is the sum of the following terms:
     one-electron contribution =  -22308.54660496 Ry
     hartree contribution      =   11150.22494152 Ry
     xc contribution           =    -322.94706574 Ry
     ewald contribution        =    9062.04090139 Ry
     electric field correction =       0.00000006 Ry

     convergence has been achieved in  20 iterations

     negative rho (up, down):  3.299E-03 0.000E+00

     Forces acting on atoms (cartesian axes, Ry/au):

     atom    1 type  1   force =     0.01138545    0.00663597    0.02403012
     atom    2 type  1   force =     0.01139985    0.00663940    0.02400009
     atom    3 type  2   force =    -0.01574199   -0.00915258    0.00271051
     atom    4 type  2   force =    -0.01572866   -0.00917802    0.00271008
     atom    5 type  1   force =     0.00484160    0.00282046   -0.00768110
     atom    6 type  1   force =     0.00491246    0.00286053   -0.00767960
     atom    7 type  2   force =     0.00076231    0.00048805   -0.01649447
     atom    8 type  2   force =     0.00080179    0.00042343   -0.01649552
     atom    9 type  1   force =    -0.00089885   -0.00052896   -0.00179268
     atom   10 type  1   force =    -0.00084233   -0.00049244   -0.00184152
     atom   11 type  2   force =    -0.00043675   -0.00027380   -0.00073359
     atom   12 type  2   force =    -0.00045488   -0.00024204   -0.00073233

     Total force =     0.054007     Total SCF correction =     0.012625
     SCF correction compared to forces is large: reduce conv_thr to get better values

     Writing output data file ./Cr2Rh2/Cr2Rh2_beef.save/

     init_run     :     55.47s CPU     68.36s WALL (       1 calls)
     electrons    :   2829.49s CPU   3430.44s WALL (       1 calls)
     forces       :     37.50s CPU     41.53s WALL (       1 calls)

     Called by init_run:
     wfcinit      :     45.74s CPU     57.22s WALL (       1 calls)
     potinit      :      7.03s CPU      7.50s WALL (       1 calls)
     hinit0       :      1.61s CPU      1.72s WALL (       1 calls)

     Called by electrons:
     c_bands      :   2525.29s CPU   3036.62s WALL (      20 calls)
     sum_band     :    278.97s CPU    355.77s WALL (      20 calls)
     v_of_rho     :     17.96s CPU     25.60s WALL (      21 calls)
     newd         :     13.25s CPU     18.08s WALL (      21 calls)
     mix_rho      :      0.48s CPU      1.16s WALL (      20 calls)
     vdW_kernel   :      5.61s CPU      5.74s WALL (       1 calls)

     Called by c_bands:
     init_us_2    :      6.76s CPU      6.92s WALL (    3108 calls)
     cegterg      :   2501.03s CPU   3004.05s WALL (    1480 calls)

     Called by *egterg:
     cdiaghg      :    222.91s CPU    236.80s WALL (    5568 calls)
     h_psi        :   1146.22s CPU   1514.28s WALL (    5642 calls)
     s_psi        :    338.11s CPU    338.21s WALL (    5642 calls)
     g_psi        :      1.09s CPU      1.14s WALL (    4088 calls)

     Called by h_psi:
     h_psi:calbec :    355.48s CPU    404.42s WALL (    5642 calls)
     vloc_psi     :    421.77s CPU    740.54s WALL (    5642 calls)
     add_vuspsi   :    364.22s CPU    364.43s WALL (    5642 calls)

     General routines
     calbec       :    544.97s CPU    614.44s WALL (    7418 calls)
     fft          :      7.30s CPU     14.22s WALL (    1382 calls)
     ffts         :      0.05s CPU      0.16s WALL (      41 calls)
     fftw         :    501.58s CPU    867.67s WALL (  901974 calls)
     interpolate  :      0.15s CPU      0.28s WALL (      21 calls)

     Parallel routines
     fft_scatt_xy :     22.94s CPU     37.13s WALL (  903397 calls)
     fft_scatt_yz :    218.53s CPU    473.18s WALL (  903397 calls)

     PWSCF        :  48m57.94s CPU      1h 1m WALL


   This run was terminated on:  19:10:22  10Jul2022            

=------------------------------------------------------------------------------=
   JOB DONE.
=------------------------------------------------------------------------------=
