
     Program PWSCF v.6.6 starts on 10Jul2022 at 19:15:40 

     This program is part of the open-source Quantum ESPRESSO suite
     for quantum simulation of materials; please cite
         "P. Giannozzi et al., J. Phys.:Condens. Matter 21 395502 (2009);
         "P. Giannozzi et al., J. Phys.:Condens. Matter 29 465901 (2017);
          URL http://www.quantum-espresso.org", 
     in publications or presentations arising from this work. More details at
     http://www.quantum-espresso.org/quote

     Parallel version (MPI), running on    37 processors

     MPI processes distributed on     1 nodes
     R & G space division:  proc/nbgrp/npool/nimage =      37
     Fft bands division:     nmany     =       1
     Reading input from Cr2Ru2.in
Warning: card &CELL ignored
Warning: card / ignored

     Current dimensions of program PWSCF are:
     Max number of different atomic species (ntypx) = 10
     Max number of k-points (npk) =  40000
     Max angular momentum in pseudopotentials (lmaxx) =  3
     Presently stress not available with electric field and gates

     Message from routine cell_base_init:
     DEPRECATED: use true lattice parameter, not A to a.u. conversion factor
     file Cr.pbe-spn-rrkjus_psl.1.0.0.UPF: wavefunction(s)  3P renormalized

     **************************************************************************
     Initializing libbeef V0.1.2 with the BEEF-vdW functional.
     Citation: Wellendorff et al., PRB 85, 235149 (2012).
     **************************************************************************


     IMPORTANT: XC functional enforced from input :
     Exchange-correlation= BEEF-VDW
                           (   1   4  43  14   2   0   0)
     Any further DFT definition will be discarded
     Please, verify this is what you really want


     Subspace diagonalization in iterative solution of the eigenvalue problem:
     a serial algorithm will be used


     Parallelization info
     --------------------
     sticks:   dense  smooth     PW     G-vecs:    dense   smooth      PW
     Min         101      40     11                23341     5894     909
     Max         102      41     12                23366     5921     934
     Sum        3763    1511    437               863961   218663   34161



     bravais-lattice index     =            0
     lattice parameter (alat)  =       1.8897  a.u.
     unit-cell volume          =    3954.7079 (a.u.)^3
     number of atoms/cell      =           12
     number of atomic types    =            2
     number of electrons       =       180.00
     number of Kohn-Sham states=          108
     kinetic-energy cutoff     =      55.1240  Ry
     charge density cutoff     =     551.2396  Ry
     convergence threshold     =      1.0E-05
     mixing beta               =       0.1000
     number of iterations used =           10  plain     mixing
     Exchange-correlation= BEEF-VDW
                           (   1   4  43  14   2   0   0)

     celldm(1)=   1.889726  celldm(2)=   0.000000  celldm(3)=   0.000000
     celldm(4)=   0.000000  celldm(5)=   0.000000  celldm(6)=   0.000000

     crystal axes: (cart. coord. in units of alat)
               a(1) = (   5.241237   0.000000   0.000000 )  
               a(2) = (   2.511725   4.600196   0.000000 )  
               a(3) = (   0.000000   0.000000  24.305679 )  

     reciprocal axes: (cart. coord. in units 2 pi/alat)
               b(1) = (  0.190795 -0.104175  0.000000 )  
               b(2) = (  0.000000  0.217382  0.000000 )  
               b(3) = (  0.000000  0.000000  0.041143 )  


     PseudoPot. # 1 for Cr read from file:
     ../pseudo/Cr.pbe-spn-rrkjus_psl.1.0.0.UPF
     MD5 check sum: 793d051e4f89dd1e3290b85340a92c0a
     Pseudo is Ultrasoft + core correction, Zval = 14.0
     Generated using "atomic" code by A. Dal Corso v.6.2.2
     Using radial grid of 1183 points,  6 beta functions with: 
                l(1) =   0
                l(2) =   0
                l(3) =   1
                l(4) =   1
                l(5) =   2
                l(6) =   2
     Q(r) pseudized with 0 coefficients 


     PseudoPot. # 2 for Ru read from file:
     ../pseudo/Ru.pbe-spn-rrkjus_psl.1.0.0.UPF
     MD5 check sum: fbaca725316a1a65f98761fd4ac95971
     Pseudo is Ultrasoft + core correction, Zval = 16.0
     Generated using "atomic" code by A. Dal Corso v.6.2.2
     Using radial grid of 1233 points,  6 beta functions with: 
                l(1) =   0
                l(2) =   0
                l(3) =   1
                l(4) =   1
                l(5) =   2
                l(6) =   2
     Q(r) pseudized with 0 coefficients 


     atomic species   valence    mass     pseudopotential
        Cr            14.00    51.99610     Cr( 1.00)
        Ru            16.00   101.07000     Ru( 1.00)

     No symmetry found



   Cartesian axes

     site n.     atom                  positions (alat units)
         1           Cr  tau(   1) = (   0.0000000   0.0000000  10.0000000  )
         2           Cr  tau(   2) = (   3.8764808   2.3000979  10.0000000  )
         3           Ru  tau(   3) = (   2.6206184   0.0000000  10.0000000  )
         4           Ru  tau(   4) = (   1.2558624   2.3000979  10.0000000  )
         5           Cr  tau(   5) = (   5.2412368   3.1098717  12.1528393  )
         6           Cr  tau(   6) = (   1.3647560   0.8097738  12.1528393  )
         7           Ru  tau(   7) = (   2.6206184   3.1098717  12.1528393  )
         8           Ru  tau(   8) = (   3.9853744   0.8097738  12.1528393  )
         9           Cr  tau(   9) = (   2.6460194   1.5700076  14.1433983  )
        10           Cr  tau(  10) = (   6.5224309   3.8700643  14.1433882  )
        11           Ru  tau(  11) = (   5.3069255   1.5942974  14.2629593  )
        12           Ru  tau(  12) = (   3.9425077   3.8938257  14.2629574  )

     number of k points=    74  Fermi-Dirac smearing, width (Ry)=  0.0100
                       cart. coord. in units 2pi/alat
        k(    1) = (   0.0000000   0.0000000   0.0000000), wk =   0.0138889
        k(    2) = (   0.0000000   0.0181152   0.0000000), wk =   0.0277778
        k(    3) = (   0.0000000   0.0362303   0.0000000), wk =   0.0277778
        k(    4) = (   0.0000000   0.0543455   0.0000000), wk =   0.0277778
        k(    5) = (   0.0000000   0.0724607   0.0000000), wk =   0.0277778
        k(    6) = (   0.0000000   0.0905759   0.0000000), wk =   0.0277778
        k(    7) = (   0.0000000  -0.1086910   0.0000000), wk =   0.0138889
        k(    8) = (   0.0158996  -0.0086812   0.0000000), wk =   0.0277778
        k(    9) = (   0.0158996   0.0094340   0.0000000), wk =   0.0277778
        k(   10) = (   0.0158996   0.0275491   0.0000000), wk =   0.0277778
        k(   11) = (   0.0158996   0.0456643   0.0000000), wk =   0.0277778
        k(   12) = (   0.0158996   0.0637795   0.0000000), wk =   0.0277778
        k(   13) = (   0.0158996   0.0818946   0.0000000), wk =   0.0277778
        k(   14) = (   0.0158996  -0.1173722   0.0000000), wk =   0.0277778
        k(   15) = (   0.0158996  -0.0992571   0.0000000), wk =   0.0277778
        k(   16) = (   0.0158996  -0.0811419   0.0000000), wk =   0.0277778
        k(   17) = (   0.0158996  -0.0630267   0.0000000), wk =   0.0277778
        k(   18) = (   0.0158996  -0.0449116   0.0000000), wk =   0.0277778
        k(   19) = (   0.0158996  -0.0267964   0.0000000), wk =   0.0277778
        k(   20) = (   0.0317991  -0.0173624   0.0000000), wk =   0.0277778
        k(   21) = (   0.0317991   0.0007527   0.0000000), wk =   0.0277778
        k(   22) = (   0.0317991   0.0188679   0.0000000), wk =   0.0277778
        k(   23) = (   0.0317991   0.0369831   0.0000000), wk =   0.0277778
        k(   24) = (   0.0317991   0.0550982   0.0000000), wk =   0.0277778
        k(   25) = (   0.0317991   0.0732134   0.0000000), wk =   0.0277778
        k(   26) = (   0.0317991  -0.1260535   0.0000000), wk =   0.0277778
        k(   27) = (   0.0317991  -0.1079383   0.0000000), wk =   0.0277778
        k(   28) = (   0.0317991  -0.0898231   0.0000000), wk =   0.0277778
        k(   29) = (   0.0317991  -0.0717079   0.0000000), wk =   0.0277778
        k(   30) = (   0.0317991  -0.0535928   0.0000000), wk =   0.0277778
        k(   31) = (   0.0317991  -0.0354776   0.0000000), wk =   0.0277778
        k(   32) = (   0.0476987  -0.0260437   0.0000000), wk =   0.0277778
        k(   33) = (   0.0476987  -0.0079285   0.0000000), wk =   0.0277778
        k(   34) = (   0.0476987   0.0101867   0.0000000), wk =   0.0277778
        k(   35) = (   0.0476987   0.0283019   0.0000000), wk =   0.0277778
        k(   36) = (   0.0476987   0.0464170   0.0000000), wk =   0.0277778
        k(   37) = (   0.0476987   0.0645322   0.0000000), wk =   0.0277778
        k(   38) = (   0.0476987  -0.1347347   0.0000000), wk =   0.0277778
        k(   39) = (   0.0476987  -0.1166195   0.0000000), wk =   0.0277778
        k(   40) = (   0.0476987  -0.0985043   0.0000000), wk =   0.0277778
        k(   41) = (   0.0476987  -0.0803892   0.0000000), wk =   0.0277778
        k(   42) = (   0.0476987  -0.0622740   0.0000000), wk =   0.0277778
        k(   43) = (   0.0476987  -0.0441588   0.0000000), wk =   0.0277778
        k(   44) = (   0.0635982  -0.0347249   0.0000000), wk =   0.0277778
        k(   45) = (   0.0635982  -0.0166097   0.0000000), wk =   0.0277778
        k(   46) = (   0.0635982   0.0015055   0.0000000), wk =   0.0277778
        k(   47) = (   0.0635982   0.0196206   0.0000000), wk =   0.0277778
        k(   48) = (   0.0635982   0.0377358   0.0000000), wk =   0.0277778
        k(   49) = (   0.0635982   0.0558510   0.0000000), wk =   0.0277778
        k(   50) = (   0.0635982  -0.1434159   0.0000000), wk =   0.0277778
        k(   51) = (   0.0635982  -0.1253007   0.0000000), wk =   0.0277778
        k(   52) = (   0.0635982  -0.1071856   0.0000000), wk =   0.0277778
        k(   53) = (   0.0635982  -0.0890704   0.0000000), wk =   0.0277778
        k(   54) = (   0.0635982  -0.0709552   0.0000000), wk =   0.0277778
        k(   55) = (   0.0635982  -0.0528400   0.0000000), wk =   0.0277778
        k(   56) = (   0.0794978  -0.0434061   0.0000000), wk =   0.0277778
        k(   57) = (   0.0794978  -0.0252909   0.0000000), wk =   0.0277778
        k(   58) = (   0.0794978  -0.0071758   0.0000000), wk =   0.0277778
        k(   59) = (   0.0794978   0.0109394   0.0000000), wk =   0.0277778
        k(   60) = (   0.0794978   0.0290546   0.0000000), wk =   0.0277778
        k(   61) = (   0.0794978   0.0471698   0.0000000), wk =   0.0277778
        k(   62) = (   0.0794978  -0.1520971   0.0000000), wk =   0.0277778
        k(   63) = (   0.0794978  -0.1339819   0.0000000), wk =   0.0277778
        k(   64) = (   0.0794978  -0.1158668   0.0000000), wk =   0.0277778
        k(   65) = (   0.0794978  -0.0977516   0.0000000), wk =   0.0277778
        k(   66) = (   0.0794978  -0.0796364   0.0000000), wk =   0.0277778
        k(   67) = (   0.0794978  -0.0615213   0.0000000), wk =   0.0277778
        k(   68) = (  -0.0953973   0.0520873   0.0000000), wk =   0.0138889
        k(   69) = (  -0.0953973   0.0702025   0.0000000), wk =   0.0277778
        k(   70) = (  -0.0953973   0.0883177   0.0000000), wk =   0.0277778
        k(   71) = (  -0.0953973   0.1064328   0.0000000), wk =   0.0277778
        k(   72) = (  -0.0953973   0.1245480   0.0000000), wk =   0.0277778
        k(   73) = (  -0.0953973   0.1426632   0.0000000), wk =   0.0277778
        k(   74) = (  -0.0953973  -0.0566037   0.0000000), wk =   0.0138889

     Dense  grid:   863961 G-vectors     FFT dimensions: (  75,  75, 360)

     Smooth grid:   218663 G-vectors     FFT dimensions: (  48,  48, 225)

     Estimated max dynamical RAM per process >     185.20 MB

     Estimated total dynamical RAM >       6.69 GB

     Check: negative core charge=   -0.000001

     Initial potential from superposition of free atoms

     starting charge  179.99154, renormalised to  180.00000

     negative rho (up, down):  3.427E-03 0.000E+00


     %%%%%%%%%%%%%%%%%%%%%%%%%%%%%%%%%%%%%%%%%%%%%%%%%%%%%%%%%%%%%%%%%%%%%%%%
     %                                                                      %
     % You are using vdW-DF, which was implemented by the Thonhauser group. %
     % Please cite the following two papers that made this development      %
     % possible and the two reviews that describe the various versions:     %
     %                                                                      %
     %   T. Thonhauser et al., PRL 115, 136402 (2015).                      %
     %   T. Thonhauser et al., PRB 76, 125112 (2007).                       %
     %   K. Berland et al., Rep. Prog. Phys. 78, 066501 (2015).             %
     %   D.C. Langreth et al., J. Phys.: Condens. Matter 21, 084203 (2009). %
     %                                                                      %
     %                                                                      %
     % If you are calculating the stress with vdW-DF, please also cite:     %
     %                                                                      %
     %   R. Sabatini et al., J. Phys.: Condens. Matter 24, 424209 (2012).   %
     %                                                                      %
     %%%%%%%%%%%%%%%%%%%%%%%%%%%%%%%%%%%%%%%%%%%%%%%%%%%%%%%%%%%%%%%%%%%%%%%%



     Adding external electric field

     Computed dipole along edir(3) : 
        Dipole               -0.0001 Ry au,         -0.0001 Debye
        Dipole field         -0.0000 Ry au, 

        Potential amp.        0.0000 Ry
        Total length         44.7828 bohr

     Starting wfcs are  120 randomized atomic wfcs

     total cpu time spent up to now is       85.8 secs

     Self-consistent Calculation

     iteration #  1     ecut=    55.12 Ry     beta= 0.10
     Davidson diagonalization with overlap
     ethr =  1.00E-02,  avg # of iterations =  2.1

     negative rho (up, down):  3.379E-03 0.000E+00

     Adding external electric field

     Computed dipole along edir(3) : 
        Dipole               -0.6480 Ry au,         -1.6471 Debye
        Dipole field         -0.0021 Ry au, 

        Potential amp.        0.1844 Ry
        Total length         44.7828 bohr


     total cpu time spent up to now is      313.7 secs

     total energy              =   -2241.90527174 Ry
     estimated scf accuracy    <       7.97011134 Ry

     iteration #  2     ecut=    55.12 Ry     beta= 0.10
     Davidson diagonalization with overlap
     ethr =  4.43E-03,  avg # of iterations =  3.9

     negative rho (up, down):  3.494E-03 0.000E+00

     Adding external electric field

     Computed dipole along edir(3) : 
        Dipole                0.5410 Ry au,          1.3751 Debye
        Dipole field          0.0017 Ry au, 

        Potential amp.       -0.1540 Ry
        Total length         44.7828 bohr


     total cpu time spent up to now is      523.2 secs

     total energy              =   -2241.46436702 Ry
     estimated scf accuracy    <      70.32174506 Ry

     iteration #  3     ecut=    55.12 Ry     beta= 0.10
     Davidson diagonalization with overlap
     ethr =  4.43E-03,  avg # of iterations =  1.8

     negative rho (up, down):  3.692E-03 0.000E+00

     Adding external electric field

     Computed dipole along edir(3) : 
        Dipole               -0.0345 Ry au,         -0.0877 Debye
        Dipole field         -0.0001 Ry au, 

        Potential amp.        0.0098 Ry
        Total length         44.7828 bohr


     total cpu time spent up to now is      708.4 secs

     total energy              =   -2242.28222720 Ry
     estimated scf accuracy    <      46.51826343 Ry

     iteration #  4     ecut=    55.12 Ry     beta= 0.10
     Davidson diagonalization with overlap
     ethr =  4.43E-03,  avg # of iterations =  1.0

     negative rho (up, down):  3.585E-03 0.000E+00

     Adding external electric field

     Computed dipole along edir(3) : 
        Dipole               -0.0065 Ry au,         -0.0166 Debye
        Dipole field         -0.0000 Ry au, 

        Potential amp.        0.0019 Ry
        Total length         44.7828 bohr


     total cpu time spent up to now is      873.1 secs

     total energy              =   -2242.77389646 Ry
     estimated scf accuracy    <       0.81263512 Ry

     iteration #  5     ecut=    55.12 Ry     beta= 0.10
     Davidson diagonalization with overlap
     ethr =  4.51E-04,  avg # of iterations =  2.9

     negative rho (up, down):  3.435E-03 0.000E+00

     Adding external electric field

     Computed dipole along edir(3) : 
        Dipole                0.0362 Ry au,          0.0921 Debye
        Dipole field          0.0001 Ry au, 

        Potential amp.       -0.0103 Ry
        Total length         44.7828 bohr


     total cpu time spent up to now is     1075.0 secs

     total energy              =   -2242.75659879 Ry
     estimated scf accuracy    <       0.34968462 Ry

     iteration #  6     ecut=    55.12 Ry     beta= 0.10
     Davidson diagonalization with overlap
     ethr =  1.94E-04,  avg # of iterations =  4.1

     negative rho (up, down):  3.396E-03 0.000E+00

     Adding external electric field

     Computed dipole along edir(3) : 
        Dipole                0.0261 Ry au,          0.0664 Debye
        Dipole field          0.0001 Ry au, 

        Potential amp.       -0.0074 Ry
        Total length         44.7828 bohr


     total cpu time spent up to now is     1285.8 secs

     total energy              =   -2242.77658012 Ry
     estimated scf accuracy    <       0.12730547 Ry

     iteration #  7     ecut=    55.12 Ry     beta= 0.10
     Davidson diagonalization with overlap
     ethr =  7.07E-05,  avg # of iterations =  5.4

     negative rho (up, down):  3.731E-03 0.000E+00

     Adding external electric field

     Computed dipole along edir(3) : 
        Dipole                0.0203 Ry au,          0.0516 Debye
        Dipole field          0.0001 Ry au, 

        Potential amp.       -0.0058 Ry
        Total length         44.7828 bohr


     total cpu time spent up to now is     1491.7 secs

     total energy              =   -2242.77143747 Ry
     estimated scf accuracy    <       0.06003365 Ry

     iteration #  8     ecut=    55.12 Ry     beta= 0.10
     Davidson diagonalization with overlap
     c_bands:  2 eigenvalues not converged
     c_bands:  2 eigenvalues not converged
     ethr =  3.34E-05,  avg # of iterations =  6.4

     negative rho (up, down):  3.917E-03 0.000E+00

     Adding external electric field

     Computed dipole along edir(3) : 
        Dipole                0.0212 Ry au,          0.0540 Debye
        Dipole field          0.0001 Ry au, 

        Potential amp.       -0.0060 Ry
        Total length         44.7828 bohr


     total cpu time spent up to now is     1735.7 secs

     total energy              =   -2242.78064823 Ry
     estimated scf accuracy    <       0.10396345 Ry

     iteration #  9     ecut=    55.12 Ry     beta= 0.10
     Davidson diagonalization with overlap
     ethr =  3.34E-05,  avg # of iterations =  1.0

     negative rho (up, down):  3.927E-03 0.000E+00

     Adding external electric field

     Computed dipole along edir(3) : 
        Dipole                0.0254 Ry au,          0.0645 Debye
        Dipole field          0.0001 Ry au, 

        Potential amp.       -0.0072 Ry
        Total length         44.7828 bohr


     total cpu time spent up to now is     1903.2 secs

     total energy              =   -2242.77555222 Ry
     estimated scf accuracy    <       0.05534562 Ry

     iteration # 10     ecut=    55.12 Ry     beta= 0.10
     Davidson diagonalization with overlap
     ethr =  3.07E-05,  avg # of iterations =  2.7

     negative rho (up, down):  3.828E-03 0.000E+00

     Adding external electric field

     Computed dipole along edir(3) : 
        Dipole                0.0233 Ry au,          0.0591 Debye
        Dipole field          0.0001 Ry au, 

        Potential amp.       -0.0066 Ry
        Total length         44.7828 bohr


     total cpu time spent up to now is     2101.9 secs

     total energy              =   -2242.77948074 Ry
     estimated scf accuracy    <       0.00624044 Ry

     iteration # 11     ecut=    55.12 Ry     beta= 0.10
     Davidson diagonalization with overlap
     c_bands:  1 eigenvalues not converged
     c_bands:  1 eigenvalues not converged
     c_bands:  1 eigenvalues not converged
     ethr =  3.47E-06,  avg # of iterations =  9.8

     negative rho (up, down):  3.803E-03 0.000E+00

     Adding external electric field

     Computed dipole along edir(3) : 
        Dipole                0.0206 Ry au,          0.0524 Debye
        Dipole field          0.0001 Ry au, 

        Potential amp.       -0.0059 Ry
        Total length         44.7828 bohr


     total cpu time spent up to now is     2354.0 secs

     total energy              =   -2242.77953081 Ry
     estimated scf accuracy    <       0.00387229 Ry

     iteration # 12     ecut=    55.12 Ry     beta= 0.10
     Davidson diagonalization with overlap
     ethr =  2.15E-06,  avg # of iterations =  2.9

     negative rho (up, down):  4.266E-03 0.000E+00

     Adding external electric field

     Computed dipole along edir(3) : 
        Dipole                0.0215 Ry au,          0.0546 Debye
        Dipole field          0.0001 Ry au, 

        Potential amp.       -0.0061 Ry
        Total length         44.7828 bohr


     total cpu time spent up to now is     2578.1 secs

     total energy              =   -2242.77976443 Ry
     estimated scf accuracy    <       0.00674991 Ry

     iteration # 13     ecut=    55.12 Ry     beta= 0.10
     Davidson diagonalization with overlap
     ethr =  2.15E-06,  avg # of iterations =  5.2

     negative rho (up, down):  4.198E-03 0.000E+00

     Adding external electric field

     Computed dipole along edir(3) : 
        Dipole                0.0208 Ry au,          0.0529 Debye
        Dipole field          0.0001 Ry au, 

        Potential amp.       -0.0059 Ry
        Total length         44.7828 bohr


     total cpu time spent up to now is     2830.4 secs

     total energy              =   -2242.78004531 Ry
     estimated scf accuracy    <       0.00486992 Ry

     iteration # 14     ecut=    55.12 Ry     beta= 0.10
     Davidson diagonalization with overlap
     ethr =  2.15E-06,  avg # of iterations =  2.0

     negative rho (up, down):  4.064E-03 0.000E+00

     Adding external electric field

     Computed dipole along edir(3) : 
        Dipole                0.0223 Ry au,          0.0567 Debye
        Dipole field          0.0001 Ry au, 

        Potential amp.       -0.0064 Ry
        Total length         44.7828 bohr


     total cpu time spent up to now is     3031.5 secs

     total energy              =   -2242.78029912 Ry
     estimated scf accuracy    <       0.00040676 Ry

     iteration # 15     ecut=    55.12 Ry     beta= 0.10
     Davidson diagonalization with overlap
     ethr =  2.26E-07,  avg # of iterations =  5.6

     negative rho (up, down):  3.930E-03 0.000E+00

     Adding external electric field

     Computed dipole along edir(3) : 
        Dipole                0.0227 Ry au,          0.0577 Debye
        Dipole field          0.0001 Ry au, 

        Potential amp.       -0.0065 Ry
        Total length         44.7828 bohr


     total cpu time spent up to now is     3277.3 secs

     total energy              =   -2242.78035590 Ry
     estimated scf accuracy    <       0.00023933 Ry

     iteration # 16     ecut=    55.12 Ry     beta= 0.10
     Davidson diagonalization with overlap
     ethr =  1.33E-07,  avg # of iterations =  2.0

     negative rho (up, down):  3.915E-03 0.000E+00

     Adding external electric field

     Computed dipole along edir(3) : 
        Dipole                0.0220 Ry au,          0.0560 Debye
        Dipole field          0.0001 Ry au, 

        Potential amp.       -0.0063 Ry
        Total length         44.7828 bohr


     total cpu time spent up to now is     3470.3 secs

     total energy              =   -2242.78038565 Ry
     estimated scf accuracy    <       0.00015906 Ry

     iteration # 17     ecut=    55.12 Ry     beta= 0.10
     Davidson diagonalization with overlap
     ethr =  8.84E-08,  avg # of iterations =  4.5

     negative rho (up, down):  3.818E-03 0.000E+00

     Adding external electric field

     Computed dipole along edir(3) : 
        Dipole                0.0250 Ry au,          0.0635 Debye
        Dipole field          0.0001 Ry au, 

        Potential amp.       -0.0071 Ry
        Total length         44.7828 bohr


     total cpu time spent up to now is     3675.5 secs

     total energy              =   -2242.78041187 Ry
     estimated scf accuracy    <       0.00081894 Ry

     iteration # 18     ecut=    55.12 Ry     beta= 0.10
     Davidson diagonalization with overlap
     ethr =  8.84E-08,  avg # of iterations =  1.1

     negative rho (up, down):  3.736E-03 0.000E+00

     Adding external electric field

     Computed dipole along edir(3) : 
        Dipole                0.0243 Ry au,          0.0619 Debye
        Dipole field          0.0001 Ry au, 

        Potential amp.       -0.0069 Ry
        Total length         44.7828 bohr


     total cpu time spent up to now is     3783.9 secs

     total energy              =   -2242.78040816 Ry
     estimated scf accuracy    <       0.00023553 Ry

     iteration # 19     ecut=    55.12 Ry     beta= 0.10
     Davidson diagonalization with overlap
     ethr =  8.84E-08,  avg # of iterations =  1.0

     negative rho (up, down):  3.687E-03 0.000E+00

     Adding external electric field

     Computed dipole along edir(3) : 
        Dipole                0.0239 Ry au,          0.0607 Debye
        Dipole field          0.0001 Ry au, 

        Potential amp.       -0.0068 Ry
        Total length         44.7828 bohr


     total cpu time spent up to now is     3891.4 secs

     total energy              =   -2242.78039078 Ry
     estimated scf accuracy    <       0.00010160 Ry

     iteration # 20     ecut=    55.12 Ry     beta= 0.10
     Davidson diagonalization with overlap
     ethr =  5.64E-08,  avg # of iterations =  4.7

     negative rho (up, down):  3.603E-03 0.000E+00

     Adding external electric field

     Computed dipole along edir(3) : 
        Dipole                0.0235 Ry au,          0.0597 Debye
        Dipole field          0.0001 Ry au, 

        Potential amp.       -0.0067 Ry
        Total length         44.7828 bohr


     total cpu time spent up to now is     4089.1 secs

     total energy              =   -2242.78040957 Ry
     estimated scf accuracy    <       0.00002147 Ry

     iteration # 21     ecut=    55.12 Ry     beta= 0.10
     Davidson diagonalization with overlap
     ethr =  1.19E-08,  avg # of iterations =  3.1

     negative rho (up, down):  3.540E-03 0.000E+00

     Adding external electric field

     Computed dipole along edir(3) : 
        Dipole                0.0233 Ry au,          0.0593 Debye
        Dipole field          0.0001 Ry au, 

        Potential amp.       -0.0066 Ry
        Total length         44.7828 bohr


     total cpu time spent up to now is     4266.1 secs

     total energy              =   -2242.78040824 Ry
     estimated scf accuracy    <       0.00001477 Ry

     iteration # 22     ecut=    55.12 Ry     beta= 0.10
     Davidson diagonalization with overlap
     ethr =  8.21E-09,  avg # of iterations =  2.3

     negative rho (up, down):  3.217E-03 0.000E+00

     Adding external electric field

     Computed dipole along edir(3) : 
        Dipole                0.0238 Ry au,          0.0606 Debye
        Dipole field          0.0001 Ry au, 

        Potential amp.       -0.0068 Ry
        Total length         44.7828 bohr


     total cpu time spent up to now is     4458.9 secs

     End of self-consistent calculation

          k = 0.0000 0.0000 0.0000 ( 27331 PWs)   bands (ev):

   -71.2463 -71.1801 -70.8287 -70.8148 -70.7641 -70.7501 -70.1188 -70.0916
   -70.0308 -70.0016 -69.9451 -69.9160 -41.7660 -41.7338 -41.7147 -41.6675
   -41.5530 -41.5498 -41.5418 -41.4479 -41.4078 -41.4069 -41.4038 -41.3826
   -41.3198 -41.3068 -41.2028 -41.1442 -41.1264 -41.0997 -41.0819 -41.0393
   -41.0327 -41.0035 -40.9211 -40.8957 -40.8600 -40.8451 -40.7780 -40.7264
   -40.6540 -40.6403 -40.6285 -40.5992 -40.5959 -40.5655 -40.4869 -40.4801
    -5.0252  -3.5869  -3.3638  -3.2211  -3.2091  -3.1405  -2.7899  -2.5682
    -2.5518  -2.4354  -2.4109  -2.3209  -2.2805  -2.1899  -1.5409  -1.4340
    -1.0271  -0.6659  -0.3927  -0.1816  -0.1772  -0.1012  -0.0114   0.1636
     0.2157   0.4493   0.5433   0.5556   0.6584   0.8414   1.0995   1.1413
     1.2939   1.3383   1.4309   1.5388   1.8195   1.9020   2.0941   2.1169
     2.1699   2.2598   2.3295   2.5124   2.7442   2.7508   2.7905   3.2033
     3.2400   3.2852   3.4160   3.4252   3.4629   3.5430   3.5791   3.7425
     3.7952   3.8284   3.8648   3.9811

          k = 0.0000 0.0181 0.0000 ( 27341 PWs)   bands (ev):

   -71.2451 -71.1811 -70.8275 -70.8136 -70.7651 -70.7512 -70.1184 -70.0922
   -70.0304 -70.0022 -69.9447 -69.9165 -41.7573 -41.7279 -41.7076 -41.6635
   -41.5493 -41.5464 -41.5381 -41.4433 -41.4085 -41.4024 -41.3970 -41.3826
   -41.3207 -41.3119 -41.2017 -41.1472 -41.1235 -41.1010 -41.0871 -41.0564
   -41.0257 -41.0025 -40.9227 -40.8929 -40.8582 -40.8538 -40.7754 -40.7256
   -40.6550 -40.6421 -40.6301 -40.6018 -40.5991 -40.5691 -40.4963 -40.4901
    -4.9637  -3.5463  -3.3042  -3.1770  -3.1574  -3.1036  -2.7534  -2.5483
    -2.5093  -2.4240  -2.3767  -2.2752  -2.2589  -2.1373  -1.5116  -1.4088
    -1.0244  -0.6728  -0.3624  -0.1860  -0.1666  -0.1384  -0.0374   0.1381
     0.2178   0.4015   0.5337   0.5495   0.6379   0.8585   1.1096   1.1294
     1.2800   1.3314   1.3760   1.4477   1.7935   1.8420   2.0675   2.0861
     2.1607   2.2036   2.3073   2.4788   2.5068   2.7876   2.8709   3.1258
     3.1910   3.2368   3.3182   3.3848   3.3930   3.4538   3.4929   3.5770
     3.7154   3.7487   3.8628   3.8683

          k = 0.0000 0.0362 0.0000 ( 27348 PWs)   bands (ev):

   -71.2417 -71.1843 -70.8242 -70.8103 -70.7682 -70.7543 -70.1173 -70.0937
   -70.0291 -70.0038 -69.9434 -69.9181 -41.7338 -41.7112 -41.6855 -41.6519
   -41.5391 -41.5374 -41.5290 -41.4308 -41.4106 -41.3942 -41.3841 -41.3716
   -41.3266 -41.3230 -41.1985 -41.1530 -41.1205 -41.1024 -41.1013 -41.0846
   -41.0270 -40.9990 -40.9271 -40.8845 -40.8782 -40.8528 -40.7684 -40.7234
   -40.6580 -40.6469 -40.6343 -40.6086 -40.6085 -40.5803 -40.5230 -40.5175
    -4.7834  -3.4288  -3.1336  -3.0506  -3.0078  -3.0008  -2.6495  -2.4996
    -2.3887  -2.3772  -2.2686  -2.2110  -2.1336  -1.9824  -1.4284  -1.3339
    -1.0229  -0.6935  -0.3100  -0.2810  -0.2132  -0.1180  -0.0656   0.0703
     0.2069   0.2722   0.5034   0.5256   0.5841   0.8964   1.0824   1.1018
     1.1583   1.2108   1.3255   1.4069   1.6856   1.6927   1.9102   1.9911
     2.0793   2.0873   2.1973   2.2639   2.4203   2.6416   2.7926   2.8528
     2.8733   3.1233   3.1955   3.2331   3.2714   3.3405   3.3530   3.3728
     3.5064   3.5498   3.6216   3.6427

          k = 0.0000 0.0543 0.0000 ( 27341 PWs)   bands (ev):

   -71.2362 -71.1894 -70.8189 -70.8050 -70.7732 -70.7593 -70.1154 -70.0962
   -70.0270 -70.0064 -69.9412 -69.9206 -41.7019 -41.6864 -41.6469 -41.6334
   -41.5281 -41.5245 -41.5189 -41.4210 -41.4066 -41.3900 -41.3729 -41.3493
   -41.3389 -41.3242 -41.1937 -41.1577 -41.1282 -41.1241 -41.1180 -41.0933
   -41.0383 -40.9924 -40.9367 -40.9109 -40.8697 -40.8427 -40.7593 -40.7208
   -40.6644 -40.6526 -40.6401 -40.6239 -40.6163 -40.6010 -40.5630 -40.5534
    -4.4976  -3.2511  -2.8959  -2.8650  -2.8425  -2.7822  -2.4849  -2.4441
    -2.3118  -2.1532  -2.1361  -2.0934  -1.9305  -1.7364  -1.3148  -1.2037
    -1.0377  -0.7244  -0.5216  -0.3928  -0.1826  -0.1312  -0.0365   0.0597
     0.1156   0.1406   0.4315   0.4707   0.5173   0.8014   0.8161   1.0631
     1.1211   1.1249   1.2995   1.4330   1.5049   1.5607   1.5848   1.7594
     1.9531   1.9908   2.0339   2.1201   2.2305   2.2919   2.3163   2.3749
     2.8169   2.9391   3.0123   3.0203   3.0941   3.1589   3.1714   3.3617
     3.3865   3.4441   3.4918   3.5998

          k = 0.0000 0.0725 0.0000 ( 27336 PWs)   bands (ev):

   -71.2292 -71.1961 -70.8120 -70.7982 -70.7797 -70.7658 -70.1128 -70.0993
   -70.0243 -70.0096 -69.9384 -69.9238 -41.6688 -41.6584 -41.6098 -41.5936
   -41.5297 -41.5095 -41.5073 -41.4269 -41.3935 -41.3928 -41.3729 -41.3566
   -41.3224 -41.2970 -41.1939 -41.1623 -41.1576 -41.1483 -41.1279 -41.0798
   -41.0572 -40.9824 -40.9666 -40.9310 -40.8471 -40.8262 -40.7513 -40.7183
   -40.6792 -40.6567 -40.6507 -40.6456 -40.6305 -40.6214 -40.6042 -40.5829
    -4.1317  -3.0688  -2.7655  -2.6790  -2.5661  -2.5220  -2.3511  -2.2439
    -2.2116  -2.0417  -1.8886  -1.8723  -1.6931  -1.4499  -1.2205  -1.0446
    -1.0063  -0.7703  -0.7431  -0.6196  -0.2636  -0.1467  -0.1059  -0.0054
     0.1139   0.1809   0.2933   0.3868   0.4277   0.4313   0.6060   1.0387
     1.0495   1.1262   1.1418   1.2126   1.2646   1.3866   1.4459   1.5574
     1.6932   1.7565   1.8380   1.8833   1.9627   2.1803   2.1908   2.3521
     2.6043   2.6724   2.7208   2.8054   2.8855   2.9301   2.9924   3.1733
     3.2327   3.3113   3.3634   3.3873

          k = 0.0000 0.0906 0.0000 ( 27371 PWs)   bands (ev):

   -71.2211 -71.2039 -70.8041 -70.7902 -70.7874 -70.7735 -70.1098 -70.1028
   -70.0209 -70.0133 -69.9351 -69.9275 -41.6405 -41.6348 -41.5854 -41.5470
   -41.5303 -41.4988 -41.4963 -41.4342 -41.4193 -41.4081 -41.3622 -41.3458
   -41.3023 -41.2585 -41.2247 -41.1903 -41.1589 -41.1528 -41.1244 -41.0811
   -41.0628 -41.0061 -40.9694 -40.9425 -40.8147 -40.8003 -40.7518 -40.7156
   -40.7141 -40.6915 -40.6586 -40.6483 -40.6474 -40.6306 -40.6214 -40.6022
    -3.7271  -3.0829  -2.6390  -2.5124  -2.3667  -2.2745  -2.2383  -2.1430
    -1.9301  -1.9260  -1.6874  -1.6771  -1.4769  -1.3135  -1.1849  -1.0343
    -0.8128  -0.8010  -0.7866  -0.6987  -0.3914  -0.3549  -0.1402  -0.1215
     0.0817   0.1189   0.1927   0.3115   0.3495   0.3673   0.4396   0.6554
     0.6693   0.9003   1.0287   1.1342   1.1818   1.2116   1.3327   1.3457
     1.4935   1.6696   1.7771   1.9722   2.0790   2.1305   2.2349   2.2393
     2.3992   2.4236   2.5476   2.6673   2.7627   2.7806   2.8409   2.9171
     2.9429   3.0757   3.3585   3.3626

          k = 0.0000-0.1087 0.0000 ( 27380 PWs)   bands (ev):

   -71.2125 -71.2125 -70.7957 -70.7957 -70.7819 -70.7817 -70.1064 -70.1062
   -70.0178 -70.0165 -69.9319 -69.9308 -41.6266 -41.6265 -41.5642 -41.5638
   -41.4976 -41.4973 -41.4691 -41.4688 -41.4249 -41.4246 -41.3490 -41.3487
   -41.2669 -41.2667 -41.2235 -41.2227 -41.1539 -41.1534 -41.1066 -41.1063
   -41.0393 -41.0392 -40.9553 -40.9553 -40.7762 -40.7760 -40.7627 -40.7620
   -40.7108 -40.7106 -40.6568 -40.6568 -40.6429 -40.6428 -40.6151 -40.6149
    -3.3476  -3.3474  -2.4926  -2.4924  -2.2552  -2.2549  -2.1423  -2.1421
    -1.8049  -1.8047  -1.5746  -1.5745  -1.3959  -1.3957  -1.1465  -1.1461
    -0.8064  -0.8059  -0.5780  -0.5776  -0.4721  -0.4720  -0.1190  -0.1188
     0.0358   0.0364   0.1395   0.1399   0.3104   0.3104   0.3741   0.3745
     0.7191   0.7196   1.0006   1.0010   1.1748   1.1750   1.2413   1.2414
     1.6353   1.6356   1.8799   1.8801   2.0598   2.0600   2.2632   2.2632
     2.4414   2.4416   2.5203   2.5214   2.6387   2.6394   2.7959   2.7963
     2.9393   2.9399   3.3591   3.3592

          k = 0.0159-0.0087 0.0000 ( 27341 PWs)   bands (ev):

   -71.2451 -71.1811 -70.8275 -70.8136 -70.7651 -70.7512 -70.1184 -70.0922
   -70.0304 -70.0022 -69.9447 -69.9165 -41.7573 -41.7279 -41.7076 -41.6635
   -41.5493 -41.5464 -41.5381 -41.4433 -41.4085 -41.4024 -41.3970 -41.3826
   -41.3207 -41.3119 -41.2017 -41.1472 -41.1235 -41.1010 -41.0871 -41.0564
   -41.0257 -41.0025 -40.9227 -40.8929 -40.8582 -40.8538 -40.7754 -40.7256
   -40.6550 -40.6421 -40.6301 -40.6018 -40.5991 -40.5691 -40.4963 -40.4901
    -4.9637  -3.5463  -3.3042  -3.1770  -3.1574  -3.1036  -2.7534  -2.5483
    -2.5093  -2.4240  -2.3767  -2.2752  -2.2589  -2.1373  -1.5116  -1.4088
    -1.0244  -0.6728  -0.3624  -0.1860  -0.1666  -0.1384  -0.0374   0.1381
     0.2178   0.4015   0.5337   0.5495   0.6379   0.8585   1.1096   1.1294
     1.2800   1.3314   1.3760   1.4477   1.7935   1.8420   2.0675   2.0861
     2.1607   2.2036   2.3073   2.4788   2.5068   2.7876   2.8709   3.1258
     3.1910   3.2368   3.3182   3.3848   3.3930   3.4538   3.4929   3.5770
     3.7154   3.7488   3.8629   3.8686

          k = 0.0159 0.0094 0.0000 ( 27306 PWs)   bands (ev):

   -71.2461 -71.1801 -70.8284 -70.8146 -70.7641 -70.7501 -70.1191 -70.0916
   -70.0311 -70.0016 -69.9453 -69.9160 -41.7591 -41.7240 -41.7086 -41.6631
   -41.5482 -41.5457 -41.5375 -41.4391 -41.4085 -41.4025 -41.3975 -41.3833
   -41.3198 -41.3053 -41.2020 -41.1533 -41.1215 -41.1060 -41.0816 -41.0406
   -41.0388 -41.0052 -40.9276 -40.9027 -40.8665 -40.8459 -40.7744 -40.7251
   -40.6571 -40.6437 -40.6298 -40.6035 -40.6035 -40.5740 -40.4878 -40.4810
    -4.9629  -3.5482  -3.3106  -3.1846  -3.1645  -3.1005  -2.7695  -2.5376
    -2.5277  -2.4053  -2.3637  -2.2971  -2.2459  -2.1599  -1.4929  -1.4314
    -1.0187  -0.6660  -0.3830  -0.2016  -0.1349  -0.1174   0.0294   0.1835
     0.2333   0.3367   0.5702   0.6039   0.7030   0.8242   1.0457   1.0917
     1.2520   1.3159   1.4049   1.4800   1.8149   1.8185   2.0693   2.0958
     2.1053   2.1630   2.3316   2.4655   2.5093   2.7497   2.9097   3.1880
     3.2204   3.2236   3.2384   3.3656   3.4053   3.4075   3.4918   3.5792
     3.8084   3.8127   3.8294   3.8460

          k = 0.0159 0.0275 0.0000 ( 27344 PWs)   bands (ev):

   -71.2447 -71.1812 -70.8271 -70.8132 -70.7651 -70.7512 -70.1190 -70.0922
   -70.0309 -70.0022 -69.9451 -69.9165 -41.7446 -41.7093 -41.6950 -41.6548
   -41.5406 -41.5387 -41.5302 -41.4266 -41.4097 -41.3970 -41.3875 -41.3789
   -41.3209 -41.3091 -41.1998 -41.1608 -41.1213 -41.1096 -41.0866 -41.0631
   -41.0345 -41.0054 -40.9339 -40.9068 -40.8710 -40.8551 -40.7691 -40.7233
   -40.6614 -40.6486 -40.6324 -40.6134 -40.6095 -40.5856 -40.4976 -40.4913
    -4.8410  -3.4717  -3.2043  -3.1059  -3.0671  -3.0279  -2.7127  -2.4825
    -2.4719  -2.3673  -2.2978  -2.2184  -2.1860  -2.0786  -1.4264  -1.3958
    -1.0095  -0.6731  -0.3459  -0.2590  -0.1584  -0.0757   0.0433   0.1696
     0.2254   0.2472   0.5848   0.6022   0.7120   0.8312   1.0043   1.0345
     1.2238   1.2769   1.3200   1.3758   1.6992   1.7634   1.9706   2.0121
     2.0770   2.0783   2.2239   2.2889   2.4307   2.7878   2.8128   2.9939
     3.0233   3.0566   3.2097   3.2678   3.3101   3.3165   3.3976   3.4023
     3.5932   3.5942   3.7155   3.7869

          k = 0.0159 0.0457 0.0000 ( 27333 PWs)   bands (ev):

   -71.2411 -71.1844 -70.8236 -70.8098 -70.7683 -70.7543 -70.1181 -70.0937
   -70.0297 -70.0038 -69.9439 -69.9181 -41.7187 -41.6864 -41.6649 -41.6387
   -41.5287 -41.5284 -41.5193 -41.4142 -41.4054 -41.3940 -41.3809 -41.3520
   -41.3236 -41.3235 -41.1950 -41.1668 -41.1291 -41.1040 -41.1029 -41.0936
   -41.0417 -41.0020 -40.9395 -40.9045 -40.8789 -40.8711 -40.7612 -40.7210
   -40.6685 -40.6543 -40.6370 -40.6271 -40.6168 -40.6027 -40.5235 -40.5177
    -4.6057  -3.3268  -3.0091  -2.9289  -2.9071  -2.8862  -2.5890  -2.4058
    -2.3440  -2.3086  -2.1678  -2.1222  -2.0222  -1.8984  -1.3596  -1.2673
    -1.0078  -0.6950  -0.4026  -0.2691  -0.2664  -0.0159   0.0040   0.0832
     0.1288   0.2335   0.5565   0.5592   0.6603   0.8539   0.9241   0.9701
     1.1143   1.1582   1.2818   1.3430   1.5268   1.6132   1.7240   1.8563
     1.9649   1.9722   2.1073   2.2343   2.2763   2.3403   2.5043   2.5119
     2.8607   3.0412   3.0693   3.1245   3.2142   3.2363   3.2689   3.2810
     3.3661   3.4793   3.5141   3.6623

          k = 0.0159 0.0638 0.0000 ( 27360 PWs)   bands (ev):

   -71.2356 -71.1895 -70.8183 -70.8044 -70.7733 -70.7594 -70.1163 -70.0961
   -70.0277 -70.0063 -69.9418 -69.9205 -41.6874 -41.6598 -41.6186 -41.6163
   -41.5241 -41.5159 -41.5066 -41.4168 -41.3998 -41.3850 -41.3668 -41.3476
   -41.3267 -41.3152 -41.1895 -41.1676 -41.1350 -41.1342 -41.1242 -41.0954
   -41.0572 -40.9944 -40.9469 -40.9111 -40.8935 -40.8643 -40.7532 -40.7192
   -40.6791 -40.6581 -40.6429 -40.6426 -40.6231 -40.6221 -40.5620 -40.5529
    -4.2751  -3.1378  -2.7949  -2.7789  -2.6789  -2.6321  -2.4095  -2.3405
    -2.2077  -2.1205  -2.0323  -1.9804  -1.7974  -1.6317  -1.2871  -1.0822
    -1.0281  -0.7197  -0.6159  -0.4759  -0.1823  -0.1568  -0.1037   0.0792
     0.1541   0.1842   0.4489   0.4794   0.5749   0.6266   0.7379   0.9528
     1.0824   1.0865   1.2293   1.3256   1.3466   1.3759   1.5554   1.7466
     1.7507   1.7853   1.8719   1.9452   1.9507   2.1552   2.1991   2.3191
     2.7339   2.7387   2.8660   2.8738   2.9932   3.0433   3.0588   3.2547
     3.3104   3.3859   3.4418   3.4773

          k = 0.0159 0.0819 0.0000 ( 27379 PWs)   bands (ev):

   -71.2285 -71.1963 -70.8114 -70.7976 -70.7799 -70.7660 -70.1137 -70.0990
   -70.0250 -70.0094 -69.9390 -69.9236 -41.6557 -41.6343 -41.5919 -41.5630
   -41.5314 -41.5063 -41.4935 -41.4209 -41.4170 -41.3860 -41.3587 -41.3510
   -41.3185 -41.2815 -41.1982 -41.1659 -41.1606 -41.1499 -41.1349 -41.0847
   -41.0772 -40.9823 -40.9687 -40.9359 -40.8700 -40.8462 -40.7486 -40.7183
   -40.6925 -40.6643 -40.6584 -40.6466 -40.6412 -40.6234 -40.6053 -40.5870
    -3.8817  -3.0096  -2.7278  -2.5705  -2.4411  -2.3518  -2.2323  -2.1580
    -2.1148  -1.9312  -1.8591  -1.7917  -1.5659  -1.3390  -1.2270  -1.0314
    -0.8762  -0.8473  -0.7203  -0.7139  -0.3096  -0.2652  -0.1477  -0.0294
     0.1012   0.2423   0.2827   0.3169   0.3989   0.4503   0.5513   0.8871
     0.8928   1.0194   1.0572   1.1303   1.1972   1.2614   1.3769   1.4161
     1.4831   1.5996   1.7456   1.9066   2.0085   2.1464   2.1851   2.3099
     2.3570   2.5144   2.5850   2.7665   2.8187   2.8817   2.9460   3.0159
     3.1622   3.2826   3.3551   3.3692

          k = 0.0159-0.1174 0.0000 ( 27360 PWs)   bands (ev):

   -71.2205 -71.2043 -70.8036 -70.7897 -70.7877 -70.7738 -70.1105 -70.1023
   -70.0216 -70.0129 -69.9356 -69.9272 -41.6315 -41.6166 -41.5714 -41.5520
   -41.5035 -41.5032 -41.4839 -41.4428 -41.4408 -41.4043 -41.3460 -41.3444
   -41.2954 -41.2491 -41.2358 -41.1963 -41.1557 -41.1533 -41.1224 -41.0984
   -41.0687 -41.0040 -40.9667 -40.9484 -40.8302 -40.8127 -40.7520 -40.7189
   -40.7151 -40.6874 -40.6562 -40.6556 -40.6463 -40.6377 -40.6194 -40.6116
    -3.4784  -3.1659  -2.5650  -2.4480  -2.2917  -2.1884  -2.1758  -2.0844
    -1.8518  -1.8135  -1.7101  -1.6150  -1.4261  -1.2830  -1.1613  -1.0816
    -0.8595  -0.7982  -0.7097  -0.5978  -0.4483  -0.4238  -0.1672  -0.1502
    -0.0469   0.0881   0.1645   0.2666   0.2972   0.3672   0.3939   0.5036
     0.7080   0.8102   0.9179   1.0217   1.1279   1.1835   1.2558   1.2782
     1.6121   1.6434   1.7210   2.0017   2.0287   2.1121   2.1554   2.3188
     2.3655   2.3693   2.5448   2.5928   2.7190   2.7880   2.7911   2.9410
     2.9428   3.0340   3.3131   3.3624

          k = 0.0159-0.0993 0.0000 ( 27363 PWs)   bands (ev):

   -71.2129 -71.2120 -70.7961 -70.7953 -70.7822 -70.7814 -70.1069 -70.1058
   -70.0180 -70.0164 -69.9320 -69.9306 -41.6280 -41.6178 -41.5719 -41.5537
   -41.5124 -41.4899 -41.4881 -41.4545 -41.4499 -41.3947 -41.3563 -41.3373
   -41.2772 -41.2578 -41.2324 -41.2179 -41.1612 -41.1521 -41.1147 -41.0950
   -41.0440 -41.0359 -40.9601 -40.9513 -40.7772 -40.7669 -40.7655 -40.7510
   -40.7188 -40.7047 -40.6657 -40.6512 -40.6481 -40.6396 -40.6241 -40.6104
    -3.5030  -3.1428  -2.5016  -2.4600  -2.2763  -2.2429  -2.1691  -2.1480
    -1.8753  -1.7501  -1.5763  -1.5689  -1.4016  -1.3819  -1.1769  -1.0774
    -0.8526  -0.8174  -0.6132  -0.5682  -0.4560  -0.4384  -0.1879  -0.1189
    -0.0404   0.0604   0.0632   0.1419   0.2581   0.2985   0.3648   0.4233
     0.6285   0.8238   0.9356   1.0187   1.2046   1.2197   1.2774   1.3137
     1.4782   1.7821   1.8252   1.9305   2.0764   2.0858   2.2259   2.2419
     2.3480   2.4902   2.5212   2.6775   2.6817   2.7396   2.8270   2.9135
     2.9494   3.0436   3.3072   3.3624

          k = 0.0159-0.0811 0.0000 ( 27350 PWs)   bands (ev):

   -71.2216 -71.2036 -70.8046 -70.7907 -70.7871 -70.7732 -70.1091 -70.1031
   -70.0204 -70.0136 -69.9346 -69.9277 -41.6471 -41.6390 -41.5956 -41.5645
   -41.5360 -41.5068 -41.4981 -41.4458 -41.4146 -41.3826 -41.3737 -41.3410
   -41.3107 -41.2730 -41.2153 -41.1885 -41.1658 -41.1546 -41.1192 -41.0651
   -41.0615 -41.0088 -40.9719 -40.9386 -40.7960 -40.7830 -40.7493 -40.7156
   -40.7077 -40.6922 -40.6630 -40.6492 -40.6431 -40.6274 -40.6265 -40.5979
    -3.9015  -2.9874  -2.6591  -2.5549  -2.4240  -2.3782  -2.3373  -2.1833
    -2.0093  -1.9942  -1.7450  -1.6275  -1.5321  -1.3871  -1.1646  -0.9940
    -0.9060  -0.8459  -0.7572  -0.7216  -0.3464  -0.2595  -0.1559  -0.1365
     0.0906   0.1155   0.1801   0.2543   0.2977   0.3434   0.5444   0.6470
     0.7721   0.9927   1.0937   1.1450   1.2277   1.3377   1.4283   1.4383
     1.5542   1.6584   1.9041   1.9715   2.0557   2.1004   2.1335   2.3558
     2.4078   2.5171   2.6761   2.7800   2.8167   2.8226   2.9862   3.0460
     3.1485   3.3027   3.3369   3.3861

          k = 0.0159-0.0630 0.0000 ( 27330 PWs)   bands (ev):

   -71.2297 -71.1959 -70.8125 -70.7986 -70.7795 -70.7657 -70.1122 -70.0995
   -70.0237 -70.0098 -69.9380 -69.9240 -41.6752 -41.6710 -41.6207 -41.6203
   -41.5275 -41.5166 -41.5142 -41.4319 -41.4023 -41.3807 -41.3758 -41.3559
   -41.3263 -41.3145 -41.1931 -41.1616 -41.1545 -41.1465 -41.1155 -41.0827
   -41.0415 -40.9826 -40.9644 -40.9288 -40.8283 -40.8086 -40.7542 -40.7199
   -40.6684 -40.6567 -40.6451 -40.6355 -40.6216 -40.6205 -40.6073 -40.5833
    -4.2879  -3.1102  -2.7578  -2.7502  -2.6716  -2.6229  -2.4622  -2.2991
    -2.2666  -2.1111  -1.9629  -1.8766  -1.7709  -1.5316  -1.2475  -1.0915
    -1.0586  -0.7572  -0.7140  -0.5310  -0.2239  -0.1344  -0.0491  -0.0174
     0.0498   0.1339   0.2893   0.3581   0.3806   0.5076   0.6700   1.0399
     1.0784   1.1650   1.2736   1.3181   1.3961   1.4566   1.5650   1.5918
     1.7764   1.8711   1.9688   1.9908   2.0218   2.1033   2.1804   2.4742
     2.6499   2.7504   2.8187   2.9444   2.9841   3.0504   3.1166   3.2509
     3.3079   3.3888   3.4736   3.4744

          k = 0.0159-0.0449 0.0000 ( 27310 PWs)   bands (ev):

   -71.2366 -71.1893 -70.8192 -70.8053 -70.7731 -70.7592 -70.1149 -70.0963
   -70.0266 -70.0065 -69.9409 -69.9207 -41.7069 -41.7015 -41.6647 -41.6412
   -41.5317 -41.5306 -41.5244 -41.4290 -41.4114 -41.3866 -41.3716 -41.3560
   -41.3509 -41.3245 -41.1957 -41.1510 -41.1276 -41.1145 -41.1110 -41.0986
   -41.0267 -40.9914 -40.9266 -40.9145 -40.8558 -40.8296 -40.7635 -40.7224
   -40.6577 -40.6499 -40.6388 -40.6132 -40.6100 -40.5831 -40.5662 -40.5577
    -4.6125  -3.3095  -2.9679  -2.9378  -2.9014  -2.8491  -2.5243  -2.5067
    -2.3593  -2.1893  -2.1692  -2.1588  -1.9991  -1.7933  -1.3772  -1.2307
    -1.0434  -0.7231  -0.4734  -0.3384  -0.1752  -0.1260  -0.0968  -0.0255
     0.1258   0.2392   0.4068   0.4378   0.4681   0.8357   0.9184   1.0539
     1.1268   1.2180   1.3339   1.5329   1.5928   1.6035   1.6872   1.8022
     2.0195   2.0559   2.1241   2.1814   2.2693   2.4347   2.4650   2.5069
     2.8304   2.9805   3.0795   3.1380   3.1859   3.2404   3.2783   3.3223
     3.3983   3.4219   3.5297   3.6402

          k = 0.0159-0.0268 0.0000 ( 27352 PWs)   bands (ev):

   -71.2419 -71.1843 -70.8244 -70.8105 -70.7682 -70.7543 -70.1170 -70.0938
   -70.0289 -70.0039 -69.9432 -69.9182 -41.7386 -41.7201 -41.6931 -41.6560
   -41.5432 -41.5408 -41.5323 -41.4386 -41.4100 -41.3932 -41.3860 -41.3795
   -41.3278 -41.3227 -41.1995 -41.1470 -41.1181 -41.1025 -41.1003 -41.0826
   -41.0213 -40.9979 -40.9216 -40.8784 -40.8774 -40.8461 -40.7714 -40.7245
   -40.6549 -40.6444 -40.6332 -40.6055 -40.6013 -40.5714 -40.5231 -40.5181
    -4.8439  -3.4642  -3.1838  -3.0957  -3.0417  -3.0333  -2.6705  -2.5342
    -2.4146  -2.3881  -2.3047  -2.2405  -2.1713  -2.0116  -1.4716  -1.3395
    -1.0281  -0.6916  -0.2833  -0.2798  -0.1749  -0.1698  -0.1084   0.0504
     0.1942   0.3925   0.4653   0.4813   0.5526   0.9124   1.1188   1.1408
     1.2062   1.2240   1.3545   1.4266   1.7090   1.7558   1.9857   2.0059
     2.1281   2.1602   2.2357   2.2591   2.4827   2.8136   2.8508   2.9237
     2.9578   3.0116   3.2185   3.2820   3.3198   3.3281   3.3328   3.4150
     3.5669   3.6595   3.6873   3.7681

          k = 0.0318-0.0174 0.0000 ( 27348 PWs)   bands (ev):

   -71.2417 -71.1843 -70.8242 -70.8103 -70.7682 -70.7543 -70.1173 -70.0937
   -70.0291 -70.0038 -69.9434 -69.9181 -41.7338 -41.7112 -41.6855 -41.6519
   -41.5391 -41.5374 -41.5290 -41.4308 -41.4106 -41.3942 -41.3841 -41.3716
   -41.3266 -41.3230 -41.1985 -41.1530 -41.1205 -41.1024 -41.1013 -41.0846
   -41.0270 -40.9990 -40.9271 -40.8845 -40.8782 -40.8528 -40.7684 -40.7234
   -40.6580 -40.6469 -40.6343 -40.6086 -40.6085 -40.5802 -40.5230 -40.5176
    -4.7834  -3.4288  -3.1336  -3.0506  -3.0078  -3.0008  -2.6495  -2.4996
    -2.3887  -2.3772  -2.2686  -2.2110  -2.1336  -1.9824  -1.4284  -1.3339
    -1.0229  -0.6935  -0.3100  -0.2810  -0.2132  -0.1180  -0.0656   0.0703
     0.2069   0.2722   0.5034   0.5256   0.5841   0.8964   1.0824   1.1018
     1.1583   1.2108   1.3255   1.4069   1.6856   1.6927   1.9102   1.9911
     2.0793   2.0873   2.1973   2.2639   2.4203   2.6416   2.7926   2.8528
     2.8733   3.1233   3.1955   3.2331   3.2714   3.3405   3.3530   3.3728
     3.5064   3.5498   3.6216   3.6427

          k = 0.0318 0.0008 0.0000 ( 27344 PWs)   bands (ev):

   -71.2447 -71.1812 -70.8271 -70.8132 -70.7651 -70.7512 -70.1190 -70.0922
   -70.0309 -70.0022 -69.9451 -69.9165 -41.7446 -41.7093 -41.6950 -41.6548
   -41.5406 -41.5387 -41.5302 -41.4266 -41.4097 -41.3970 -41.3875 -41.3789
   -41.3209 -41.3091 -41.1998 -41.1608 -41.1213 -41.1096 -41.0866 -41.0631
   -41.0345 -41.0054 -40.9339 -40.9068 -40.8710 -40.8551 -40.7691 -40.7233
   -40.6614 -40.6486 -40.6324 -40.6134 -40.6095 -40.5856 -40.4976 -40.4913
    -4.8410  -3.4717  -3.2043  -3.1059  -3.0671  -3.0279  -2.7127  -2.4825
    -2.4719  -2.3673  -2.2978  -2.2184  -2.1860  -2.0786  -1.4264  -1.3958
    -1.0095  -0.6731  -0.3459  -0.2590  -0.1584  -0.0757   0.0433   0.1696
     0.2254   0.2472   0.5848   0.6022   0.7120   0.8312   1.0043   1.0345
     1.2238   1.2769   1.3200   1.3758   1.6992   1.7634   1.9706   2.0121
     2.0770   2.0783   2.2239   2.2889   2.4307   2.7878   2.8128   2.9939
     3.0233   3.0566   3.2097   3.2678   3.3102   3.3165   3.3976   3.4023
     3.5932   3.5942   3.7155   3.7871

          k = 0.0318 0.0189 0.0000 ( 27348 PWs)   bands (ev):

   -71.2454 -71.1801 -70.8279 -70.8140 -70.7641 -70.7501 -70.1200 -70.0917
   -70.0318 -70.0016 -69.9459 -69.9160 -41.7391 -41.6969 -41.6912 -41.6493
   -41.5360 -41.5343 -41.5256 -41.4148 -41.4092 -41.3904 -41.3898 -41.3762
   -41.3196 -41.3010 -41.1989 -41.1699 -41.1246 -41.1159 -41.0807 -41.0655
   -41.0375 -41.0094 -40.9435 -40.9232 -40.8848 -40.8482 -40.7658 -40.7222
   -40.6678 -40.6538 -40.6334 -40.6233 -40.6149 -40.5976 -40.4902 -40.4836
    -4.7806  -3.4381  -3.1783  -3.0865  -3.0138  -2.9848  -2.7126  -2.4925
    -2.4117  -2.3223  -2.2252  -2.2241  -2.1452  -2.0727  -1.4255  -1.3544
    -0.9944  -0.6633  -0.3551  -0.2934  -0.1476  -0.0101   0.1306   0.1443
     0.2429   0.2653   0.6306   0.6484   0.7755   0.8345   0.8872   0.9557
     1.1519   1.2514   1.3117   1.3506   1.6184   1.7949   1.8792   1.9599
     1.9639   2.0858   2.1146   2.2721   2.4472   2.6216   2.7415   2.8242
     2.9791   3.1401   3.1752   3.2218   3.3169   3.3307   3.3513   3.4646
     3.5332   3.5619   3.5691   3.6744

          k = 0.0318 0.0370 0.0000 ( 27313 PWs)   bands (ev):

   -71.2439 -71.1812 -70.8264 -70.8126 -70.7652 -70.7512 -70.1200 -70.0922
   -70.0317 -70.0022 -69.9458 -69.9165 -41.7203 -41.6773 -41.6719 -41.6348
   -41.5275 -41.5255 -41.5160 -41.4102 -41.3952 -41.3947 -41.3805 -41.3574
   -41.3202 -41.3044 -41.1948 -41.1771 -41.1375 -41.1120 -41.0913 -41.0840
   -41.0411 -41.0096 -40.9502 -40.9330 -40.8940 -40.8575 -40.7600 -40.7207
   -40.6775 -40.6603 -40.6370 -40.6357 -40.6217 -40.6135 -40.5001 -40.4940
    -4.6047  -3.3340  -3.0696  -2.9531  -2.8849  -2.8783  -2.6396  -2.4230
    -2.3360  -2.2623  -2.1625  -2.0896  -2.0436  -1.9668  -1.4028  -1.2399
    -0.9823  -0.6694  -0.3846  -0.3134  -0.2053  -0.0067   0.0799   0.1480
     0.2290   0.2913   0.6107   0.6726   0.7507   0.8125   0.8572   0.8678
     1.1466   1.1981   1.2065   1.2797   1.4750   1.6488   1.7614   1.8320
     1.9015   1.9040   2.0806   2.2149   2.2553   2.3904   2.4687   2.5979
     2.7980   3.0175   3.0972   3.1432   3.2356   3.2571   3.2601   3.3117
     3.3582   3.4379   3.5521   3.6517

          k = 0.0318 0.0551 0.0000 ( 27322 PWs)   bands (ev):

   -71.2403 -71.1845 -70.8229 -70.8090 -70.7683 -70.7544 -70.1191 -70.0937
   -70.0306 -70.0037 -69.9446 -69.9180 -41.6933 -41.6545 -41.6359 -41.6122
   -41.5185 -41.5181 -41.5035 -41.4101 -41.4035 -41.3736 -41.3683 -41.3316
   -41.3206 -41.3199 -41.1879 -41.1794 -41.1456 -41.1230 -41.1076 -41.1010
   -41.0556 -41.0058 -40.9525 -40.9338 -40.8963 -40.8812 -40.7537 -40.7196
   -40.6895 -40.6649 -40.6487 -40.6421 -40.6295 -40.6268 -40.5255 -40.5198
    -4.3242  -3.1715  -2.8892  -2.7639  -2.7272  -2.6795  -2.4942  -2.2891
    -2.2782  -2.1620  -2.0278  -1.9784  -1.8435  -1.7711  -1.3491  -1.0917
    -0.9892  -0.6856  -0.5332  -0.3486  -0.2442  -0.1565   0.0040   0.1343
     0.1834   0.2846   0.5531   0.5943   0.6816   0.7005   0.7462   0.8986
     1.0521   1.0878   1.1750   1.3031   1.3124   1.4901   1.5470   1.7173
     1.7606   1.8474   1.8565   1.9541   1.9892   2.1217   2.1750   2.3683
     2.7409   2.7457   2.9083   2.9557   3.0644   3.0959   3.1244   3.2604
     3.3289   3.3459   3.3818   3.6398

          k = 0.0318 0.0732 0.0000 ( 27350 PWs)   bands (ev):

   -71.2348 -71.1897 -70.8175 -70.8037 -70.7734 -70.7595 -70.1173 -70.0959
   -70.0286 -70.0061 -69.9425 -69.9204 -41.6620 -41.6310 -41.5870 -41.5865
   -41.5215 -41.5114 -41.4891 -41.4218 -41.4099 -41.3579 -41.3539 -41.3440
   -41.3225 -41.2991 -41.1843 -41.1735 -41.1552 -41.1453 -41.1274 -41.1031
   -41.0758 -40.9970 -40.9550 -40.9213 -40.9142 -40.8870 -40.7495 -40.7193
   -40.6990 -40.6655 -40.6613 -40.6464 -40.6423 -40.6289 -40.5635 -40.5558
    -3.9614  -2.9807  -2.7035  -2.6668  -2.4960  -2.4237  -2.2864  -2.2211
    -2.0559  -2.0500  -1.8954  -1.8507  -1.6144  -1.5013  -1.2845  -1.0351
    -0.9433  -0.7165  -0.6844  -0.5771  -0.3093  -0.1890  -0.1550   0.0007
     0.1725   0.2696   0.3889   0.4028   0.4758   0.5410   0.6899   0.8359
     0.9171   1.0122   1.1427   1.1758   1.1983   1.4043   1.4155   1.4351
     1.4554   1.6067   1.7273   1.8472   1.9171   2.0822   2.1528   2.3124
     2.3811   2.5097   2.6969   2.8654   2.8683   3.0071   3.0073   3.1678
     3.2590   3.3263   3.4006   3.4783

          k = 0.0318-0.1261 0.0000 ( 27372 PWs)   bands (ev):

   -71.2279 -71.1966 -70.8108 -70.7970 -70.7801 -70.7662 -70.1146 -70.0987
   -70.0257 -70.0092 -69.9396 -69.9234 -41.6312 -41.6087 -41.5664 -41.5424
   -41.5256 -41.5093 -41.4790 -41.4499 -41.4201 -41.3791 -41.3390 -41.3343
   -41.3155 -41.2729 -41.2081 -41.1732 -41.1634 -41.1505 -41.1378 -41.0969
   -41.0943 -40.9819 -40.9688 -40.9430 -40.8908 -40.8607 -40.7481 -40.7204
   -40.7029 -40.6723 -40.6619 -40.6517 -40.6480 -40.6268 -40.6094 -40.5944
    -3.5567  -2.9506  -2.6385  -2.4861  -2.3113  -2.1733  -2.1189  -2.0459
    -2.0041  -1.8179  -1.8112  -1.6902  -1.4345  -1.2468  -1.1954  -1.0496
    -0.8798  -0.8492  -0.8116  -0.6313  -0.3939  -0.3394  -0.2047  -0.1062
    -0.0257   0.1457   0.1730   0.2853   0.3110   0.3958   0.4690   0.7213
     0.7784   0.8467   0.9529   1.0022   1.1055   1.1771   1.2588   1.3130
     1.5082   1.6136   1.7225   1.9613   2.0139   2.0867   2.1599   2.2171
     2.2819   2.4372   2.5929   2.6468   2.8059   2.9244   3.0013   3.0108
     3.1985   3.2498   3.3177   3.3738

          k = 0.0318-0.1079 0.0000 ( 27357 PWs)   bands (ev):

   -71.2200 -71.2046 -70.8031 -70.7893 -70.7880 -70.7741 -70.1112 -70.1019
   -70.0221 -70.0126 -69.9360 -69.9269 -41.6137 -41.5942 -41.5559 -41.5555
   -41.5122 -41.4861 -41.4791 -41.4668 -41.4645 -41.3770 -41.3425 -41.3267
   -41.2899 -41.2477 -41.2452 -41.2039 -41.1630 -41.1548 -41.1174 -41.1120
   -41.0761 -41.0015 -40.9644 -40.9548 -40.8398 -40.8164 -40.7476 -40.7238
   -40.7089 -40.6814 -40.6660 -40.6554 -40.6476 -40.6459 -40.6245 -40.6200
    -3.2219  -3.1751  -2.4537  -2.4278  -2.2134  -2.1578  -2.1255  -2.0550
    -1.8034  -1.7036  -1.6965  -1.5297  -1.4360  -1.2941  -1.0587  -1.0376
    -0.9229  -0.9047  -0.6167  -0.5101  -0.4771  -0.4051  -0.2666  -0.2233
    -0.2136  -0.0087  -0.0050   0.1193   0.1359   0.3609   0.3735   0.4278
     0.6951   0.7886   0.8162   0.9619   1.1051   1.1762   1.2905   1.3501
     1.4756   1.6853   1.8931   1.8947   1.9825   2.1024   2.1652   2.2616
     2.3571   2.4676   2.6488   2.6884   2.7097   2.8826   2.9709   3.0056
     3.0516   3.0662   3.2344   3.3146

          k = 0.0318-0.0898 0.0000 ( 27355 PWs)   bands (ev):

   -71.2132 -71.2117 -70.7964 -70.7950 -70.7825 -70.7811 -70.1073 -70.1053
   -70.0182 -70.0161 -69.9322 -69.9304 -41.6254 -41.6020 -41.5761 -41.5470
   -41.5314 -41.5050 -41.4822 -41.4777 -41.4390 -41.3668 -41.3594 -41.3286
   -41.2869 -41.2508 -41.2439 -41.2162 -41.1697 -41.1569 -41.1158 -41.0842
   -41.0502 -41.0347 -40.9638 -40.9491 -40.7746 -40.7608 -40.7521 -40.7358
   -40.7273 -40.7046 -40.6747 -40.6535 -40.6487 -40.6384 -40.6351 -40.6094
    -3.5991  -2.9102  -2.5238  -2.4015  -2.2976  -2.2920  -2.2172  -2.1508
    -1.9242  -1.7311  -1.5730  -1.5640  -1.3907  -1.3475  -1.1283  -1.1052
    -0.8923  -0.8031  -0.7172  -0.5646  -0.4167  -0.3723  -0.2457  -0.2446
    -0.0890  -0.0355   0.0558   0.1442   0.1929   0.2101   0.3404   0.5524
     0.5528   0.8623   0.8847   1.0311   1.2367   1.2674   1.3798   1.3799
     1.4484   1.7484   1.8972   1.9910   2.0788   2.1090   2.1125   2.1982
     2.3325   2.5676   2.6229   2.7335   2.7587   2.9068   3.0230   3.0390
     3.2096   3.2238   3.3083   3.3960

          k = 0.0318-0.0717 0.0000 ( 27334 PWs)   bands (ev):

   -71.2219 -71.2035 -70.8048 -70.7909 -70.7869 -70.7731 -70.1087 -70.1033
   -70.0201 -70.0138 -69.9344 -69.9279 -41.6533 -41.6300 -41.6010 -41.5888
   -41.5301 -41.5143 -41.4984 -41.4542 -41.4117 -41.3785 -41.3651 -41.3392
   -41.3142 -41.2878 -41.2096 -41.1891 -41.1703 -41.1562 -41.1119 -41.0640
   -41.0538 -41.0121 -40.9734 -40.9370 -40.7811 -40.7698 -40.7477 -40.7186
   -40.7007 -40.6917 -40.6662 -40.6508 -40.6403 -40.6315 -40.6270 -40.5971
    -3.9910  -2.9206  -2.6049  -2.5645  -2.4779  -2.4619  -2.4418  -2.1950
    -2.0494  -2.0288  -1.7807  -1.5719  -1.5510  -1.4636  -1.1485  -0.9983
    -0.9827  -0.8709  -0.7886  -0.6344  -0.3169  -0.2131  -0.2051  -0.1345
     0.0542   0.1112   0.1585   0.1786   0.2886   0.3164   0.6246   0.6554
     0.8389   0.9202   1.1537   1.2164   1.2556   1.4138   1.4423   1.4705
     1.6296   1.7558   1.9867   1.9983   2.0195   2.0362   2.0844   2.3688
     2.3868   2.5983   2.7919   2.8655   2.8908   2.9192   3.0812   3.2105
     3.2322   3.3246   3.3966   3.5338

          k = 0.0318-0.0536 0.0000 ( 27338 PWs)   bands (ev):

   -71.2299 -71.1958 -70.8126 -70.7987 -70.7795 -70.7656 -70.1120 -70.0996
   -70.0236 -70.0099 -69.9378 -69.9241 -41.6811 -41.6687 -41.6332 -41.6238
   -41.5260 -41.5203 -41.5162 -41.4345 -41.4052 -41.3765 -41.3763 -41.3535
   -41.3284 -41.3233 -41.1933 -41.1615 -41.1534 -41.1459 -41.1060 -41.0883
   -41.0355 -40.9828 -40.9635 -40.9284 -40.8208 -40.8015 -40.7555 -40.7210
   -40.6643 -40.6570 -40.6449 -40.6263 -40.6221 -40.6174 -40.6101 -40.5850
    -4.3409  -3.1245  -2.7697  -2.7415  -2.7204  -2.6517  -2.5155  -2.3182
    -2.2831  -2.1340  -1.9914  -1.8774  -1.7955  -1.5615  -1.2759  -1.1073
    -1.0635  -0.7623  -0.6965  -0.4904  -0.2025  -0.1431  -0.0459  -0.0395
     0.0165   0.1517   0.2839   0.3285   0.3720   0.5353   0.6926   1.0269
     1.0724   1.1649   1.3279   1.4484   1.4520   1.4529   1.5563   1.6434
     1.7691   1.9129   1.9675   2.0482   2.0558   2.1318   2.1508   2.5263
     2.6601   2.7575   2.8750   3.0234   3.0456   3.0688   3.1583   3.2929
     3.3334   3.3584   3.3683   3.7101

          k = 0.0318-0.0355 0.0000 ( 27310 PWs)   bands (ev):

   -71.2366 -71.1893 -70.8192 -70.8053 -70.7731 -70.7592 -70.1149 -70.0963
   -70.0266 -70.0065 -69.9409 -69.9207 -41.7069 -41.7015 -41.6647 -41.6412
   -41.5317 -41.5306 -41.5244 -41.4290 -41.4114 -41.3866 -41.3716 -41.3560
   -41.3509 -41.3245 -41.1957 -41.1510 -41.1276 -41.1145 -41.1110 -41.0986
   -41.0267 -40.9914 -40.9266 -40.9145 -40.8558 -40.8296 -40.7635 -40.7224
   -40.6577 -40.6499 -40.6388 -40.6132 -40.6100 -40.5831 -40.5662 -40.5577
    -4.6125  -3.3095  -2.9679  -2.9378  -2.9014  -2.8491  -2.5243  -2.5067
    -2.3593  -2.1893  -2.1692  -2.1588  -1.9991  -1.7933  -1.3772  -1.2307
    -1.0434  -0.7231  -0.4734  -0.3384  -0.1752  -0.1260  -0.0968  -0.0255
     0.1258   0.2392   0.4068   0.4378   0.4681   0.8357   0.9184   1.0539
     1.1268   1.2180   1.3339   1.5329   1.5928   1.6035   1.6872   1.8022
     2.0195   2.0559   2.1241   2.1814   2.2693   2.4347   2.4650   2.5069
     2.8304   2.9805   3.0795   3.1380   3.1859   3.2404   3.2783   3.3224
     3.3983   3.4219   3.5297   3.6402

          k = 0.0477-0.0260 0.0000 ( 27341 PWs)   bands (ev):

   -71.2362 -71.1894 -70.8189 -70.8050 -70.7732 -70.7593 -70.1154 -70.0962
   -70.0270 -70.0064 -69.9412 -69.9206 -41.7019 -41.6864 -41.6469 -41.6334
   -41.5281 -41.5245 -41.5189 -41.4210 -41.4066 -41.3900 -41.3729 -41.3493
   -41.3389 -41.3242 -41.1937 -41.1577 -41.1282 -41.1241 -41.1180 -41.0933
   -41.0383 -40.9924 -40.9367 -40.9109 -40.8697 -40.8427 -40.7593 -40.7208
   -40.6644 -40.6526 -40.6401 -40.6239 -40.6163 -40.6010 -40.5630 -40.5534
    -4.4976  -3.2511  -2.8959  -2.8650  -2.8425  -2.7822  -2.4849  -2.4441
    -2.3118  -2.1532  -2.1361  -2.0934  -1.9305  -1.7364  -1.3148  -1.2037
    -1.0377  -0.7244  -0.5216  -0.3928  -0.1826  -0.1312  -0.0365   0.0597
     0.1156   0.1406   0.4315   0.4707   0.5173   0.8014   0.8161   1.0631
     1.1211   1.1249   1.2994   1.4330   1.5049   1.5607   1.5848   1.7594
     1.9531   1.9908   2.0339   2.1201   2.2305   2.2919   2.3163   2.3749
     2.8169   2.9391   3.0123   3.0203   3.0941   3.1589   3.1714   3.3617
     3.3865   3.4441   3.4918   3.5998

          k = 0.0477-0.0079 0.0000 ( 27333 PWs)   bands (ev):

   -71.2411 -71.1844 -70.8236 -70.8098 -70.7683 -70.7543 -70.1181 -70.0937
   -70.0297 -70.0038 -69.9439 -69.9181 -41.7187 -41.6864 -41.6649 -41.6387
   -41.5287 -41.5284 -41.5193 -41.4142 -41.4054 -41.3940 -41.3809 -41.3520
   -41.3236 -41.3235 -41.1950 -41.1668 -41.1291 -41.1040 -41.1029 -41.0936
   -41.0417 -41.0020 -40.9395 -40.9045 -40.8789 -40.8711 -40.7612 -40.7210
   -40.6685 -40.6543 -40.6370 -40.6271 -40.6168 -40.6027 -40.5235 -40.5177
    -4.6057  -3.3268  -3.0091  -2.9289  -2.9071  -2.8862  -2.5890  -2.4058
    -2.3440  -2.3086  -2.1678  -2.1222  -2.0222  -1.8984  -1.3596  -1.2673
    -1.0078  -0.6950  -0.4026  -0.2691  -0.2664  -0.0159   0.0040   0.0832
     0.1288   0.2335   0.5565   0.5592   0.6603   0.8539   0.9241   0.9701
     1.1143   1.1582   1.2818   1.3430   1.5268   1.6132   1.7240   1.8563
     1.9649   1.9722   2.1073   2.2343   2.2763   2.3403   2.5043   2.5119
     2.8607   3.0412   3.0693   3.1245   3.2142   3.2363   3.2689   3.2810
     3.3661   3.4793   3.5141   3.6625

          k = 0.0477 0.0102 0.0000 ( 27313 PWs)   bands (ev):

   -71.2439 -71.1812 -70.8264 -70.8126 -70.7652 -70.7512 -70.1200 -70.0922
   -70.0317 -70.0022 -69.9458 -69.9165 -41.7203 -41.6773 -41.6719 -41.6348
   -41.5275 -41.5255 -41.5160 -41.4102 -41.3952 -41.3947 -41.3805 -41.3574
   -41.3202 -41.3044 -41.1948 -41.1771 -41.1375 -41.1120 -41.0913 -41.0840
   -41.0411 -41.0096 -40.9502 -40.9330 -40.8940 -40.8575 -40.7600 -40.7207
   -40.6775 -40.6603 -40.6370 -40.6357 -40.6217 -40.6135 -40.5001 -40.4940
    -4.6047  -3.3340  -3.0696  -2.9531  -2.8849  -2.8783  -2.6396  -2.4230
    -2.3360  -2.2623  -2.1625  -2.0896  -2.0436  -1.9668  -1.4028  -1.2399
    -0.9823  -0.6694  -0.3846  -0.3134  -0.2053  -0.0067   0.0799   0.1480
     0.2290   0.2913   0.6107   0.6726   0.7507   0.8125   0.8572   0.8678
     1.1466   1.1981   1.2065   1.2797   1.4750   1.6488   1.7614   1.8320
     1.9015   1.9040   2.0806   2.2149   2.2553   2.3904   2.4687   2.5979
     2.7980   3.0175   3.0972   3.1432   3.2355   3.2571   3.2601   3.3118
     3.3581   3.4376   3.5520   3.6516

          k = 0.0477 0.0283 0.0000 ( 27298 PWs)   bands (ev):

   -71.2446 -71.1801 -70.8271 -70.8132 -70.7641 -70.7501 -70.1211 -70.0917
   -70.0327 -70.0016 -69.9467 -69.9160 -41.7084 -41.6653 -41.6631 -41.6199
   -41.5231 -41.5187 -41.5087 -41.4074 -41.3987 -41.3775 -41.3728 -41.3505
   -41.3165 -41.2950 -41.1919 -41.1851 -41.1532 -41.1132 -41.1086 -41.0797
   -41.0356 -41.0136 -40.9618 -40.9549 -40.9114 -40.8512 -40.7570 -40.7204
   -40.6908 -40.6679 -40.6472 -40.6406 -40.6277 -40.6272 -40.4935 -40.4870
    -4.4931  -3.2757  -3.0603  -2.8821  -2.8066  -2.7899  -2.6331  -2.4007
    -2.2448  -2.2026  -2.0993  -2.0110  -1.9850  -1.9351  -1.4154  -1.1509
    -0.9621  -0.6536  -0.4343  -0.3123  -0.2187  -0.1195   0.1563   0.2718
     0.2780   0.3756   0.6252   0.6260   0.7345   0.7440   0.7656   1.0332
     1.0460   1.1512   1.1562   1.2267   1.3661   1.5815   1.6924   1.7547
     1.7913   1.7980   2.0299   2.0882   2.1733   2.2739   2.3892   2.4806
     2.7134   2.9233   3.0581   3.0665   3.1398   3.1423   3.1695   3.3080
     3.3916   3.4448   3.5320   3.5645

          k = 0.0477 0.0464 0.0000 ( 27299 PWs)   bands (ev):

   -71.2430 -71.1812 -70.8256 -70.8118 -70.7652 -70.7512 -70.1212 -70.0922
   -70.0326 -70.0022 -69.9466 -69.9165 -41.6870 -41.6466 -41.6426 -41.5957
   -41.5182 -41.5112 -41.4981 -41.4082 -41.4036 -41.3625 -41.3568 -41.3350
   -41.3123 -41.2994 -41.1881 -41.1858 -41.1657 -41.1370 -41.1124 -41.0849
   -41.0433 -41.0137 -40.9677 -40.9660 -40.9219 -40.8606 -40.7544 -40.7208
   -40.7051 -40.6736 -40.6598 -40.6461 -40.6403 -40.6312 -40.5033 -40.4973
    -4.2756  -3.1582  -2.9724  -2.7257  -2.6912  -2.6450  -2.5446  -2.3001
    -2.1997  -2.1036  -1.9986  -1.9006  -1.8325  -1.8135  -1.3854  -1.0449
    -0.9612  -0.6417  -0.5259  -0.3071  -0.2816  -0.2470   0.1865   0.2338
     0.2365   0.3847   0.5833   0.5935   0.6109   0.7099   0.7902   0.9495
     1.0320   1.1095   1.1441   1.2121   1.2345   1.4872   1.4950   1.6481
     1.6494   1.7547   1.7699   1.9432   1.9788   2.1223   2.1371   2.4091
     2.6949   2.6998   2.8458   2.8865   3.0110   3.0461   3.0823   3.2689
     3.2773   3.3727   3.4403   3.5156

          k = 0.0477 0.0645 0.0000 ( 27314 PWs)   bands (ev):

   -71.2395 -71.1845 -70.8221 -70.8083 -70.7684 -70.7544 -70.1202 -70.0936
   -70.0315 -70.0037 -69.9454 -69.9180 -41.6597 -41.6281 -41.6051 -41.5685
   -41.5150 -41.5110 -41.4850 -41.4248 -41.3990 -41.3523 -41.3382 -41.3234
   -41.3194 -41.3025 -41.1843 -41.1795 -41.1658 -41.1634 -41.1126 -41.1028
   -41.0650 -41.0103 -40.9659 -40.9630 -40.9212 -40.8845 -40.7538 -40.7214
   -40.7142 -40.6753 -40.6698 -40.6502 -40.6493 -40.6337 -40.5282 -40.5229
    -3.9651  -2.9919  -2.8187  -2.5915  -2.5366  -2.4654  -2.3501  -2.1845
    -2.1266  -1.9658  -1.8878  -1.8009  -1.6264  -1.6240  -1.3182  -1.0098
    -0.9777  -0.6331  -0.6158  -0.4547  -0.3933  -0.1870  -0.0219   0.0423
     0.2536   0.2712   0.4085   0.5177   0.5552   0.6206   0.7404   0.8889
     0.9026   0.9902   1.1083   1.1300   1.2341   1.3196   1.3491   1.4615
     1.5483   1.5742   1.6960   1.7753   1.8164   2.0902   2.1256   2.3238
     2.3702   2.5006   2.6949   2.8315   2.8916   2.9687   3.0434   3.2019
     3.2153   3.3176   3.3949   3.5274

          k = 0.0477-0.1347 0.0000 ( 27341 PWs)   bands (ev):

   -71.2341 -71.1898 -70.8169 -70.8031 -70.7736 -70.7596 -70.1181 -70.0958
   -70.0293 -70.0060 -69.9431 -69.9203 -41.6279 -41.6079 -41.5595 -41.5466
   -41.5208 -41.5148 -41.4777 -41.4480 -41.4005 -41.3514 -41.3409 -41.3219
   -41.3140 -41.2909 -41.1939 -41.1751 -41.1685 -41.1544 -41.1306 -41.1126
   -41.0911 -40.9986 -40.9600 -40.9467 -40.9184 -40.9035 -40.7534 -40.7219
   -40.7147 -40.6741 -40.6725 -40.6561 -40.6515 -40.6336 -40.5661 -40.5597
    -3.5875  -2.8063  -2.6501  -2.6184  -2.3583  -2.2633  -2.0986  -2.0861
    -1.9016  -1.8844  -1.8110  -1.7022  -1.4318  -1.3952  -1.2174  -1.1313
    -0.9355  -0.7431  -0.6453  -0.6373  -0.4164  -0.2086  -0.1486  -0.1372
     0.0871   0.1197   0.2688   0.2995   0.3011   0.4820   0.5592   0.7720
     0.7876   0.9308   0.9476   1.0165   1.1466   1.1879   1.2711   1.2837
     1.3930   1.6361   1.7523   1.8272   1.9754   2.0841   2.1347   2.1631
     2.2366   2.4837   2.5837   2.7438   2.7827   3.0134   3.0468   3.1448
     3.2126   3.2255   3.3521   3.4580

          k = 0.0477-0.1166 0.0000 ( 27315 PWs)   bands (ev):

   -71.2274 -71.1967 -70.8103 -70.7965 -70.7803 -70.7664 -70.1152 -70.0985
   -70.0262 -70.0090 -69.9400 -69.9233 -41.5971 -41.5876 -41.5422 -41.5382
   -41.5168 -41.5100 -41.4976 -41.4559 -41.4346 -41.3572 -41.3266 -41.3174
   -41.3132 -41.2704 -41.2208 -41.1761 -41.1678 -41.1564 -41.1399 -41.1109
   -41.1024 -40.9803 -40.9658 -40.9509 -40.9058 -40.8669 -40.7490 -40.7233
   -40.7081 -40.6740 -40.6657 -40.6613 -40.6499 -40.6296 -40.6136 -40.6015
    -3.1908  -2.9083  -2.5519  -2.5284  -2.2164  -2.0233  -2.0193  -1.9370
    -1.9342  -1.7701  -1.7272  -1.5595  -1.3503  -1.2561  -1.0723  -1.0606
    -0.9453  -0.9272  -0.7374  -0.5991  -0.4254  -0.3015  -0.2777  -0.2565
    -0.1327  -0.0371  -0.0291   0.0866   0.2412   0.2985   0.4109   0.5456
     0.6431   0.7967   0.9360   1.0140   1.0469   1.0626   1.2955   1.3469
     1.4969   1.5091   1.8309   1.9237   1.9620   2.0848   2.1884   2.2069
     2.3116   2.5559   2.5774   2.6667   2.9824   2.9873   3.0170   3.1263
     3.1707   3.2251   3.2811   3.3995

          k = 0.0477-0.0985 0.0000 ( 27337 PWs)   bands (ev):

   -71.2197 -71.2048 -70.8028 -70.7890 -70.7881 -70.7742 -70.1115 -70.1017
   -70.0224 -70.0124 -69.9363 -69.9268 -41.5952 -41.5727 -41.5532 -41.5473
   -41.5176 -41.5155 -41.4864 -41.4678 -41.4629 -41.3493 -41.3393 -41.3225
   -41.2860 -41.2550 -41.2443 -41.2093 -41.1699 -41.1626 -41.1168 -41.1134
   -41.0816 -40.9995 -40.9630 -40.9589 -40.8441 -40.8150 -40.7418 -40.7275
   -40.6987 -40.6810 -40.6706 -40.6568 -40.6563 -40.6459 -40.6353 -40.6211
    -3.2493  -2.8526  -2.5679  -2.3430  -2.1542  -2.1484  -2.1057  -2.0733
    -1.8017  -1.6468  -1.6277  -1.4990  -1.3894  -1.3046  -1.0773  -1.0242
    -0.8917  -0.8565  -0.6383  -0.4815  -0.4348  -0.4243  -0.3209  -0.3098
    -0.2796  -0.2230  -0.1145   0.0231   0.0269   0.2847   0.3993   0.5038
     0.5120   0.7888   0.7991   0.9845   1.1693   1.1790   1.3184   1.3777
     1.3975   1.7143   1.8808   1.9008   2.0046   2.0657   2.1308   2.2733
     2.4639   2.4853   2.6155   2.7195   2.9797   3.0473   3.0518   3.1024
     3.1629   3.2110   3.2925   3.3746

          k = 0.0477-0.0804 0.0000 ( 27352 PWs)   bands (ev):

   -71.2134 -71.2116 -70.7965 -70.7949 -70.7826 -70.7810 -70.1075 -70.1052
   -70.0183 -70.0160 -69.9323 -69.9304 -41.6236 -41.5890 -41.5770 -41.5571
   -41.5313 -41.5120 -41.4875 -41.4797 -41.4354 -41.3599 -41.3492 -41.3325
   -41.2884 -41.2508 -41.2481 -41.2159 -41.1734 -41.1599 -41.1148 -41.0784
   -41.0543 -41.0347 -40.9652 -40.9484 -40.7732 -40.7561 -40.7429 -40.7321
   -40.7269 -40.7091 -40.6781 -40.6562 -40.6482 -40.6405 -40.6381 -40.6095
    -3.6316  -2.7361  -2.6056  -2.3541  -2.3434  -2.3024  -2.2540  -2.1430
    -1.9398  -1.7297  -1.5777  -1.5572  -1.3807  -1.3057  -1.1674  -1.0333
    -0.9858  -0.7865  -0.7304  -0.5608  -0.4105  -0.3398  -0.3236  -0.2621
    -0.1113  -0.0704   0.0637   0.1187   0.1617   0.1854   0.3229   0.5218
     0.6732   0.7659   0.8668   1.0948   1.2541   1.2828   1.3501   1.4226
     1.4755   1.8012   1.9135   1.9976   2.0148   2.1031   2.1044   2.1783
     2.3333   2.6228   2.7106   2.7421   2.7861   2.9924   3.0607   3.1711
     3.2051   3.2280   3.3589   3.5045

          k = 0.0477-0.0623 0.0000 ( 27334 PWs)   bands (ev):

   -71.2219 -71.2035 -70.8048 -70.7909 -70.7869 -70.7731 -70.1087 -70.1033
   -70.0201 -70.0138 -69.9344 -69.9279 -41.6533 -41.6300 -41.6010 -41.5888
   -41.5301 -41.5143 -41.4984 -41.4542 -41.4117 -41.3785 -41.3651 -41.3392
   -41.3142 -41.2878 -41.2096 -41.1891 -41.1703 -41.1562 -41.1119 -41.0640
   -41.0538 -41.0121 -40.9734 -40.9370 -40.7811 -40.7698 -40.7477 -40.7186
   -40.7007 -40.6917 -40.6662 -40.6508 -40.6403 -40.6315 -40.6270 -40.5971
    -3.9910  -2.9206  -2.6049  -2.5645  -2.4779  -2.4619  -2.4418  -2.1950
    -2.0494  -2.0288  -1.7807  -1.5719  -1.5510  -1.4636  -1.1485  -0.9983
    -0.9827  -0.8709  -0.7886  -0.6344  -0.3169  -0.2131  -0.2051  -0.1345
     0.0542   0.1112   0.1585   0.1786   0.2886   0.3164   0.6246   0.6554
     0.8389   0.9202   1.1537   1.2164   1.2556   1.4138   1.4423   1.4705
     1.6296   1.7558   1.9867   1.9983   2.0195   2.0362   2.0844   2.3688
     2.3868   2.5983   2.7919   2.8655   2.8908   2.9192   3.0812   3.2105
     3.2322   3.3245   3.3966   3.5338

          k = 0.0477-0.0442 0.0000 ( 27330 PWs)   bands (ev):

   -71.2297 -71.1959 -70.8125 -70.7986 -70.7795 -70.7657 -70.1122 -70.0995
   -70.0237 -70.0098 -69.9380 -69.9240 -41.6752 -41.6710 -41.6207 -41.6203
   -41.5275 -41.5166 -41.5142 -41.4319 -41.4023 -41.3807 -41.3758 -41.3559
   -41.3263 -41.3145 -41.1931 -41.1616 -41.1545 -41.1465 -41.1155 -41.0827
   -41.0415 -40.9826 -40.9644 -40.9288 -40.8283 -40.8086 -40.7542 -40.7199
   -40.6684 -40.6567 -40.6451 -40.6355 -40.6216 -40.6205 -40.6073 -40.5833
    -4.2879  -3.1102  -2.7578  -2.7502  -2.6716  -2.6229  -2.4622  -2.2991
    -2.2666  -2.1111  -1.9629  -1.8766  -1.7709  -1.5316  -1.2475  -1.0915
    -1.0586  -0.7572  -0.7140  -0.5310  -0.2239  -0.1344  -0.0491  -0.0174
     0.0498   0.1339   0.2893   0.3581   0.3806   0.5076   0.6700   1.0399
     1.0784   1.1650   1.2736   1.3181   1.3961   1.4566   1.5650   1.5918
     1.7764   1.8711   1.9688   1.9908   2.0218   2.1033   2.1804   2.4742
     2.6499   2.7504   2.8187   2.9444   2.9841   3.0504   3.1166   3.2509
     3.3079   3.3888   3.4736   3.4744

          k = 0.0636-0.0347 0.0000 ( 27336 PWs)   bands (ev):

   -71.2292 -71.1961 -70.8120 -70.7982 -70.7797 -70.7658 -70.1128 -70.0993
   -70.0243 -70.0096 -69.9384 -69.9238 -41.6688 -41.6584 -41.6098 -41.5936
   -41.5297 -41.5095 -41.5073 -41.4269 -41.3935 -41.3928 -41.3729 -41.3566
   -41.3224 -41.2970 -41.1939 -41.1623 -41.1576 -41.1483 -41.1279 -41.0798
   -41.0572 -40.9824 -40.9666 -40.9310 -40.8471 -40.8262 -40.7513 -40.7183
   -40.6792 -40.6567 -40.6507 -40.6456 -40.6305 -40.6214 -40.6042 -40.5829
    -4.1317  -3.0688  -2.7655  -2.6790  -2.5661  -2.5220  -2.3511  -2.2439
    -2.2116  -2.0417  -1.8886  -1.8723  -1.6931  -1.4499  -1.2205  -1.0446
    -1.0063  -0.7703  -0.7431  -0.6196  -0.2636  -0.1467  -0.1059  -0.0054
     0.1139   0.1809   0.2933   0.3868   0.4277   0.4313   0.6060   1.0387
     1.0495   1.1262   1.1418   1.2126   1.2646   1.3866   1.4459   1.5574
     1.6932   1.7565   1.8380   1.8833   1.9627   2.1803   2.1908   2.3521
     2.6043   2.6724   2.7208   2.8054   2.8855   2.9301   2.9924   3.1733
     3.2327   3.3113   3.3634   3.3873

          k = 0.0636-0.0166 0.0000 ( 27360 PWs)   bands (ev):

   -71.2356 -71.1895 -70.8183 -70.8044 -70.7733 -70.7594 -70.1163 -70.0961
   -70.0277 -70.0063 -69.9418 -69.9205 -41.6874 -41.6598 -41.6186 -41.6163
   -41.5241 -41.5159 -41.5066 -41.4168 -41.3998 -41.3850 -41.3668 -41.3476
   -41.3267 -41.3152 -41.1895 -41.1676 -41.1350 -41.1341 -41.1242 -41.0954
   -41.0572 -40.9944 -40.9469 -40.9111 -40.8935 -40.8643 -40.7532 -40.7192
   -40.6791 -40.6581 -40.6429 -40.6426 -40.6231 -40.6221 -40.5620 -40.5529
    -4.2751  -3.1378  -2.7949  -2.7789  -2.6789  -2.6321  -2.4095  -2.3405
    -2.2077  -2.1205  -2.0323  -1.9804  -1.7974  -1.6317  -1.2871  -1.0822
    -1.0281  -0.7197  -0.6159  -0.4759  -0.1823  -0.1568  -0.1037   0.0792
     0.1541   0.1842   0.4489   0.4794   0.5749   0.6266   0.7379   0.9528
     1.0824   1.0865   1.2293   1.3256   1.3466   1.3759   1.5554   1.7466
     1.7507   1.7853   1.8719   1.9452   1.9507   2.1552   2.1991   2.3191
     2.7339   2.7387   2.8660   2.8738   2.9932   3.0433   3.0588   3.2547
     3.3104   3.3859   3.4418   3.4773

          k = 0.0636 0.0015 0.0000 ( 27322 PWs)   bands (ev):

   -71.2403 -71.1845 -70.8229 -70.8090 -70.7683 -70.7544 -70.1191 -70.0937
   -70.0306 -70.0037 -69.9446 -69.9180 -41.6933 -41.6545 -41.6359 -41.6122
   -41.5185 -41.5181 -41.5035 -41.4101 -41.4035 -41.3736 -41.3683 -41.3316
   -41.3206 -41.3199 -41.1879 -41.1794 -41.1456 -41.1230 -41.1076 -41.1010
   -41.0556 -41.0058 -40.9525 -40.9338 -40.8963 -40.8812 -40.7537 -40.7196
   -40.6895 -40.6649 -40.6487 -40.6421 -40.6295 -40.6268 -40.5255 -40.5198
    -4.3242  -3.1715  -2.8892  -2.7639  -2.7272  -2.6795  -2.4942  -2.2891
    -2.2782  -2.1620  -2.0278  -1.9784  -1.8435  -1.7711  -1.3491  -1.0917
    -0.9892  -0.6856  -0.5332  -0.3486  -0.2442  -0.1565   0.0040   0.1343
     0.1834   0.2846   0.5531   0.5943   0.6816   0.7005   0.7462   0.8986
     1.0521   1.0878   1.1750   1.3031   1.3124   1.4901   1.5470   1.7173
     1.7606   1.8474   1.8565   1.9541   1.9892   2.1217   2.1750   2.3683
     2.7409   2.7457   2.9083   2.9557   3.0644   3.0959   3.1244   3.2604
     3.3288   3.3458   3.3818   3.6396

          k = 0.0636 0.0196 0.0000 ( 27299 PWs)   bands (ev):

   -71.2430 -71.1812 -70.8256 -70.8118 -70.7652 -70.7512 -70.1212 -70.0922
   -70.0326 -70.0022 -69.9466 -69.9165 -41.6870 -41.6466 -41.6426 -41.5957
   -41.5182 -41.5112 -41.4981 -41.4082 -41.4036 -41.3625 -41.3568 -41.3350
   -41.3123 -41.2994 -41.1881 -41.1858 -41.1657 -41.1370 -41.1124 -41.0849
   -41.0433 -41.0137 -40.9677 -40.9660 -40.9219 -40.8606 -40.7544 -40.7208
   -40.7051 -40.6736 -40.6598 -40.6461 -40.6403 -40.6312 -40.5033 -40.4973
    -4.2756  -3.1582  -2.9724  -2.7257  -2.6912  -2.6450  -2.5446  -2.3001
    -2.1997  -2.1036  -1.9986  -1.9006  -1.8325  -1.8135  -1.3854  -1.0449
    -0.9612  -0.6417  -0.5259  -0.3071  -0.2816  -0.2470   0.1865   0.2338
     0.2365   0.3847   0.5833   0.5935   0.6109   0.7099   0.7902   0.9495
     1.0320   1.1095   1.1441   1.2121   1.2345   1.4872   1.4950   1.6481
     1.6494   1.7547   1.7699   1.9432   1.9788   2.1223   2.1371   2.4091
     2.6949   2.6998   2.8458   2.8865   3.0110   3.0461   3.0823   3.2689
     3.2773   3.3727   3.4403   3.5156

          k = 0.0636 0.0377 0.0000 ( 27304 PWs)   bands (ev):

   -71.2437 -71.1801 -70.8263 -70.8124 -70.7641 -70.7501 -70.1222 -70.0918
   -70.0336 -70.0016 -69.9475 -69.9160 -41.6713 -41.6367 -41.6361 -41.5707
   -41.5175 -41.5033 -41.4912 -41.4166 -41.3961 -41.3537 -41.3380 -41.3308
   -41.3011 -41.2888 -41.1911 -41.1865 -41.1859 -41.1601 -41.1139 -41.0790
   -41.0336 -41.0164 -40.9938 -40.9795 -40.9400 -40.8541 -40.7580 -40.7233
   -40.7204 -40.6807 -40.6722 -40.6519 -40.6494 -40.6340 -40.4968 -40.4906
    -4.1302  -3.0958  -2.9956  -2.6642  -2.5889  -2.5708  -2.5224  -2.2212
    -2.0907  -2.0877  -1.8998  -1.7741  -1.7704  -1.7597  -1.3756  -0.9973
    -0.9641  -0.5785  -0.5534  -0.3769  -0.3554  -0.2624   0.2340   0.2888
     0.3353   0.3692   0.4647   0.6025   0.6264   0.6857   0.8888   0.8911
     0.9771   1.0897   1.1173   1.1340   1.3198   1.3214   1.3915   1.4392
     1.5667   1.6840   1.7158   1.7659   1.8241   2.1056   2.1238   2.4327
     2.5758   2.6272   2.7167   2.7859   2.8615   2.8927   2.9845   3.1397
     3.2760   3.2875   3.3663   3.3932

          k = 0.0636 0.0559 0.0000 ( 27287 PWs)   bands (ev):

   -71.2423 -71.1813 -70.8249 -70.8111 -70.7652 -70.7512 -70.1222 -70.0922
   -70.0335 -70.0021 -69.9472 -69.9165 -41.6502 -41.6240 -41.6143 -41.5453
[...]
   -40.7259 -40.6839 -40.6799 -40.6563 -40.6558 -40.6361 -40.5062 -40.5004
    -3.8937  -2.9869  -2.9567  -2.5593  -2.4739  -2.4685  -2.3919  -2.1131
    -2.0744  -1.9695  -1.7901  -1.6909  -1.6402  -1.6012  -1.3124  -1.0242
    -1.0068  -0.5827  -0.5732  -0.4377  -0.4115  -0.2131   0.0738   0.1963
     0.2640   0.3137   0.3429   0.6006   0.6156   0.6972   0.7762   0.8785
     0.9181   1.0352   1.0464   1.1205   1.1790   1.2374   1.2376   1.3997
     1.4963   1.5140   1.6603   1.6705   1.7636   2.1002   2.1381   2.3296
     2.3503   2.4653   2.6175   2.6881   2.8043   2.8372   2.9458   3.0119
     3.1603   3.2578   3.3526   3.3737

          k = 0.0795 0.0472 0.0000 ( 27274 PWs)   bands (ev):

   -71.2431 -71.1802 -70.8257 -70.8119 -70.7641 -70.7501 -70.1231 -70.0918
   -70.0343 -70.0016 -69.9480 -69.9160 -41.6366 -41.6176 -41.6118 -41.5324
   -41.5070 -41.4925 -41.4782 -41.4393 -41.3737 -41.3373 -41.3239 -41.3124
   -41.2840 -41.2785 -41.2315 -41.2157 -41.1826 -41.1574 -41.1188 -41.0788
   -41.0322 -41.0308 -41.0177 -40.9948 -40.9626 -40.8561 -40.7771 -40.7392
   -40.7305 -40.6891 -40.6849 -40.6620 -40.6592 -40.6378 -40.4992 -40.4931
    -3.7508  -3.0422  -2.9491  -2.5432  -2.4436  -2.3696  -2.3589  -2.0623
    -1.9847  -1.9803  -1.6675  -1.5828  -1.5613  -1.5266  -1.2675  -1.0934
    -1.0651  -0.6663  -0.5777  -0.4337  -0.2566  -0.2125   0.0225   0.1801
     0.2210   0.2979   0.4365   0.5961   0.6356   0.7256   0.8254   0.8569
     0.8918   0.9625   0.9854   1.0842   1.0981   1.1173   1.2078   1.3536
     1.3996   1.5011   1.6117   1.6682   1.7196   2.0973   2.1804   2.1853
     2.2668   2.4438   2.5722   2.5845   2.6598   2.7100   2.8067   2.8837
     3.0394   3.0439   3.2834   3.3590

          k = 0.0795-0.1521 0.0000 ( 27265 PWs)   bands (ev):

   -71.2418 -71.1813 -70.8245 -70.8107 -70.7652 -70.7512 -70.1227 -70.0923
   -70.0339 -70.0021 -69.9476 -69.9165 -41.6220 -41.6095 -41.5960 -41.5305
   -41.4955 -41.4945 -41.4741 -41.4482 -41.3604 -41.3310 -41.3247 -41.3186
   -41.2951 -41.2752 -41.2372 -41.2153 -41.1735 -41.1523 -41.1233 -41.0857
   -41.0494 -41.0365 -41.0134 -40.9873 -40.9625 -40.8653 -40.7814 -40.7419
   -40.7318 -40.6895 -40.6845 -40.6660 -40.6602 -40.6386 -40.5079 -40.5022
    -3.5472  -3.0670  -2.8770  -2.4786  -2.3796  -2.2773  -2.2594  -2.1218
    -1.9166  -1.8668  -1.5994  -1.5395  -1.4544  -1.3853  -1.2142  -1.1993
    -1.1350  -0.7624  -0.5942  -0.3955  -0.2040  -0.1335  -0.0669   0.0451
     0.1463   0.2279   0.3030   0.4710   0.5955   0.6228   0.7492   0.8081
     0.8328   0.8973   0.9888   1.0058   1.0948   1.1353   1.1770   1.2494
     1.2684   1.5200   1.7388   1.7940   1.8538   1.9875   2.0973   2.1259
     2.2165   2.4129   2.4452   2.5879   2.6608   2.7300   2.7964   2.8789
     2.9733   3.0374   3.2559   3.3456

          k = 0.0795-0.1340 0.0000 ( 27304 PWs)   bands (ev):

   -71.2387 -71.1846 -70.8214 -70.8076 -70.7685 -70.7545 -70.1212 -70.0936
   -70.0324 -70.0036 -69.9461 -69.9179 -41.6062 -41.6009 -41.5710 -41.5287
   -41.5096 -41.4945 -41.4821 -41.4472 -41.3678 -41.3352 -41.3346 -41.3142
   -41.3053 -41.2827 -41.2245 -41.1971 -41.1664 -41.1534 -41.1260 -41.1058
   -41.0794 -41.0181 -41.0012 -40.9723 -40.9443 -40.8888 -40.7739 -40.7356
   -40.7289 -40.6850 -40.6813 -40.6673 -40.6592 -40.6380 -40.5314 -40.5265
    -3.3301  -3.0118  -2.7757  -2.3745  -2.3451  -2.2923  -2.1028  -2.0982
    -1.8606  -1.7059  -1.6475  -1.5351  -1.3893  -1.3614  -1.2743  -1.2013
    -1.0765  -0.7827  -0.6127  -0.4097  -0.2342  -0.2158  -0.1178  -0.0232
     0.0486   0.0663   0.1136   0.2820   0.3764   0.5379   0.6179   0.6752
     0.7835   0.8781   0.8788   0.9620   1.1357   1.1679   1.1767   1.2714
     1.3334   1.5656   1.7420   1.8871   1.9063   2.0244   2.0911   2.1627
     2.2582   2.3531   2.5591   2.6627   2.6742   2.8988   2.9311   2.9361
     3.0433   3.1117   3.1953   3.2986

          k = 0.0795-0.1159 0.0000 ( 27337 PWs)   bands (ev):

   -71.2338 -71.1899 -70.8166 -70.8028 -70.7736 -70.7597 -70.1186 -70.0957
   -70.0297 -70.0059 -69.9435 -69.9202 -41.5933 -41.5929 -41.5446 -41.5254
   -41.5243 -41.5094 -41.4963 -41.4466 -41.4019 -41.3408 -41.3343 -41.3115
   -41.3041 -41.2898 -41.2128 -41.1775 -41.1628 -41.1584 -41.1343 -41.1196
   -41.1020 -40.9970 -40.9643 -40.9620 -40.9213 -40.9109 -40.7603 -40.7248
   -40.7225 -40.6770 -40.6766 -40.6654 -40.6552 -40.6356 -40.5679 -40.5624
    -3.2185  -2.8063  -2.6667  -2.5801  -2.2679  -2.1818  -1.9896  -1.9438
    -1.8420  -1.7867  -1.6464  -1.5520  -1.3669  -1.3291  -1.2858  -1.1326
    -0.9856  -0.7769  -0.7189  -0.4955  -0.3381  -0.2744  -0.1829  -0.1561
    -0.0589  -0.0577   0.0988   0.1903   0.1954   0.2523   0.5319   0.6830
     0.7646   0.7854   0.8414   1.0077   1.0629   1.2074   1.2424   1.2756
     1.3770   1.6086   1.6748   1.9271   1.9609   2.0777   2.1474   2.1816
     2.3311   2.3907   2.6448   2.6488   2.9348   2.9943   3.0469   3.1131
     3.1304   3.2217   3.2675   3.3742

          k = 0.0795-0.0978 0.0000 ( 27315 PWs)   bands (ev):

   -71.2274 -71.1967 -70.8103 -70.7965 -70.7803 -70.7664 -70.1152 -70.0985
   -70.0262 -70.0090 -69.9400 -69.9233 -41.5971 -41.5876 -41.5422 -41.5382
   -41.5168 -41.5100 -41.4976 -41.4559 -41.4346 -41.3572 -41.3266 -41.3174
   -41.3132 -41.2703 -41.2208 -41.1761 -41.1678 -41.1564 -41.1399 -41.1109
   -41.1024 -40.9803 -40.9658 -40.9509 -40.9058 -40.8669 -40.7490 -40.7233
   -40.7081 -40.6740 -40.6657 -40.6613 -40.6499 -40.6296 -40.6136 -40.6015
    -3.1908  -2.9083  -2.5519  -2.5284  -2.2164  -2.0233  -2.0193  -1.9370
    -1.9342  -1.7701  -1.7272  -1.5595  -1.3503  -1.2561  -1.0723  -1.0606
    -0.9453  -0.9272  -0.7374  -0.5991  -0.4254  -0.3015  -0.2777  -0.2565
    -0.1327  -0.0371  -0.0291   0.0866   0.2412   0.2985   0.4109   0.5456
     0.6431   0.7967   0.9360   1.0140   1.0469   1.0626   1.2955   1.3469
     1.4969   1.5091   1.8309   1.9238   1.9620   2.0848   2.1884   2.2069
     2.3116   2.5559   2.5774   2.6667   2.9824   2.9873   3.0170   3.1263
     3.1707   3.2251   3.2810   3.3749

          k = 0.0795-0.0796 0.0000 ( 27357 PWs)   bands (ev):

   -71.2200 -71.2046 -70.8031 -70.7893 -70.7880 -70.7741 -70.1112 -70.1019
   -70.0221 -70.0126 -69.9360 -69.9269 -41.6137 -41.5942 -41.5559 -41.5555
   -41.5122 -41.4861 -41.4791 -41.4668 -41.4645 -41.3770 -41.3425 -41.3267
   -41.2899 -41.2477 -41.2452 -41.2039 -41.1630 -41.1548 -41.1174 -41.1120
   -41.0761 -41.0015 -40.9644 -40.9548 -40.8398 -40.8164 -40.7476 -40.7238
   -40.7089 -40.6814 -40.6660 -40.6554 -40.6476 -40.6459 -40.6245 -40.6200
    -3.2219  -3.1751  -2.4537  -2.4278  -2.2134  -2.1578  -2.1255  -2.0550
    -1.8034  -1.7036  -1.6965  -1.5297  -1.4360  -1.2941  -1.0587  -1.0376
    -0.9229  -0.9047  -0.6167  -0.5101  -0.4771  -0.4051  -0.2666  -0.2233
    -0.2136  -0.0087  -0.0050   0.1193   0.1359   0.3609   0.3735   0.4278
     0.6951   0.7886   0.8162   0.9619   1.1051   1.1762   1.2905   1.3501
     1.4756   1.6853   1.8931   1.8947   1.9825   2.1024   2.1652   2.2616
     2.3571   2.4676   2.6488   2.6884   2.7097   2.8827   2.9709   3.0056
     3.0516   3.0662   3.2345   3.3146

          k = 0.0795-0.0615 0.0000 ( 27363 PWs)   bands (ev):

   -71.2129 -71.2120 -70.7961 -70.7953 -70.7822 -70.7814 -70.1069 -70.1058
   -70.0180 -70.0164 -69.9320 -69.9306 -41.6280 -41.6178 -41.5719 -41.5537
   -41.5124 -41.4899 -41.4881 -41.4545 -41.4499 -41.3947 -41.3563 -41.3373
   -41.2772 -41.2578 -41.2324 -41.2179 -41.1612 -41.1521 -41.1147 -41.0950
   -41.0441 -41.0359 -40.9601 -40.9513 -40.7772 -40.7669 -40.7655 -40.7510
   -40.7188 -40.7047 -40.6657 -40.6512 -40.6481 -40.6396 -40.6241 -40.6104
    -3.5030  -3.1428  -2.5016  -2.4600  -2.2763  -2.2429  -2.1691  -2.1480
    -1.8753  -1.7501  -1.5763  -1.5689  -1.4016  -1.3819  -1.1769  -1.0774
    -0.8526  -0.8174  -0.6132  -0.5682  -0.4560  -0.4384  -0.1879  -0.1189
    -0.0404   0.0604   0.0632   0.1419   0.2581   0.2985   0.3648   0.4233
     0.6285   0.8238   0.9356   1.0187   1.2046   1.2197   1.2774   1.3137
     1.4782   1.7821   1.8252   1.9305   2.0764   2.0858   2.2259   2.2419
     2.3480   2.4902   2.5212   2.6775   2.6817   2.7396   2.8270   2.9135
     2.9494   3.0436   3.3071   3.3624

          k =-0.0954 0.0521 0.0000 ( 27380 PWs)   bands (ev):

   -71.2125 -71.2125 -70.7957 -70.7957 -70.7819 -70.7817 -70.1064 -70.1062
   -70.0178 -70.0165 -69.9319 -69.9308 -41.6266 -41.6264 -41.5642 -41.5638
   -41.4976 -41.4973 -41.4691 -41.4688 -41.4249 -41.4246 -41.3490 -41.3487
   -41.2669 -41.2667 -41.2235 -41.2227 -41.1539 -41.1534 -41.1066 -41.1063
   -41.0393 -41.0392 -40.9553 -40.9553 -40.7762 -40.7760 -40.7627 -40.7620
   -40.7108 -40.7106 -40.6568 -40.6568 -40.6429 -40.6428 -40.6151 -40.6149
    -3.3476  -3.3474  -2.4926  -2.4924  -2.2552  -2.2549  -2.1423  -2.1421
    -1.8049  -1.8047  -1.5746  -1.5745  -1.3959  -1.3957  -1.1465  -1.1461
    -0.8064  -0.8059  -0.5780  -0.5776  -0.4721  -0.4720  -0.1190  -0.1188
     0.0358   0.0364   0.1395   0.1399   0.3104   0.3104   0.3741   0.3745
     0.7191   0.7196   1.0006   1.0010   1.1748   1.1750   1.2413   1.2414
     1.6353   1.6356   1.8799   1.8801   2.0598   2.0600   2.2632   2.2632
     2.4414   2.4416   2.5203   2.5214   2.6387   2.6394   2.7959   2.7963
     2.9393   2.9399   3.3591   3.3592

          k =-0.0954 0.0702 0.0000 ( 27360 PWs)   bands (ev):

   -71.2205 -71.2043 -70.8036 -70.7897 -70.7877 -70.7738 -70.1105 -70.1023
   -70.0216 -70.0129 -69.9356 -69.9272 -41.6315 -41.6166 -41.5714 -41.5520
   -41.5035 -41.5032 -41.4839 -41.4428 -41.4408 -41.4043 -41.3461 -41.3444
   -41.2954 -41.2491 -41.2358 -41.1963 -41.1557 -41.1533 -41.1224 -41.0984
   -41.0687 -41.0040 -40.9667 -40.9484 -40.8302 -40.8127 -40.7520 -40.7189
   -40.7151 -40.6874 -40.6562 -40.6556 -40.6463 -40.6377 -40.6194 -40.6116
    -3.4784  -3.1659  -2.5650  -2.4480  -2.2917  -2.1884  -2.1758  -2.0844
    -1.8518  -1.8135  -1.7101  -1.6150  -1.4261  -1.2830  -1.1613  -1.0816
    -0.8595  -0.7982  -0.7097  -0.5978  -0.4483  -0.4238  -0.1672  -0.1502
    -0.0469   0.0881   0.1645   0.2666   0.2972   0.3672   0.3939   0.5036
     0.7080   0.8102   0.9179   1.0217   1.1279   1.1835   1.2558   1.2782
     1.6122   1.6434   1.7210   2.0017   2.0287   2.1121   2.1554   2.3188
     2.3655   2.3693   2.5448   2.5928   2.7190   2.7880   2.7911   2.9410
     2.9428   3.0340   3.3131   3.3624

          k =-0.0954 0.0883 0.0000 ( 27372 PWs)   bands (ev):

   -71.2279 -71.1966 -70.8108 -70.7970 -70.7801 -70.7662 -70.1146 -70.0987
   -70.0257 -70.0092 -69.9396 -69.9234 -41.6312 -41.6087 -41.5664 -41.5424
   -41.5256 -41.5093 -41.4791 -41.4499 -41.4201 -41.3791 -41.3390 -41.3343
   -41.3154 -41.2729 -41.2081 -41.1732 -41.1634 -41.1505 -41.1378 -41.0969
   -41.0943 -40.9819 -40.9688 -40.9430 -40.8908 -40.8607 -40.7481 -40.7204
   -40.7029 -40.6723 -40.6619 -40.6517 -40.6480 -40.6268 -40.6094 -40.5944
    -3.5567  -2.9506  -2.6385  -2.4861  -2.3113  -2.1733  -2.1189  -2.0459
    -2.0041  -1.8179  -1.8112  -1.6902  -1.4345  -1.2468  -1.1954  -1.0496
    -0.8798  -0.8492  -0.8116  -0.6313  -0.3939  -0.3394  -0.2047  -0.1062
    -0.0257   0.1457   0.1730   0.2853   0.3110   0.3958   0.4690   0.7213
     0.7784   0.8467   0.9529   1.0022   1.1055   1.1771   1.2588   1.3130
     1.5082   1.6136   1.7225   1.9613   2.0139   2.0867   2.1599   2.2171
     2.2819   2.4372   2.5929   2.6468   2.8059   2.9244   3.0013   3.0108
     3.1985   3.2499   3.3177   3.3738

          k =-0.0954 0.1064 0.0000 ( 27341 PWs)   bands (ev):

   -71.2341 -71.1898 -70.8169 -70.8031 -70.7736 -70.7596 -70.1181 -70.0958
   -70.0293 -70.0060 -69.9431 -69.9203 -41.6279 -41.6079 -41.5595 -41.5466
   -41.5208 -41.5148 -41.4777 -41.4480 -41.4005 -41.3514 -41.3409 -41.3219
   -41.3140 -41.2909 -41.1939 -41.1751 -41.1685 -41.1544 -41.1306 -41.1126
   -41.0911 -40.9986 -40.9600 -40.9467 -40.9184 -40.9035 -40.7534 -40.7219
   -40.7147 -40.6741 -40.6725 -40.6561 -40.6515 -40.6336 -40.5661 -40.5597
    -3.5875  -2.8063  -2.6501  -2.6184  -2.3583  -2.2633  -2.0986  -2.0861
    -1.9016  -1.8844  -1.8110  -1.7022  -1.4318  -1.3952  -1.2174  -1.1313
    -0.9355  -0.7431  -0.6453  -0.6373  -0.4164  -0.2086  -0.1486  -0.1372
     0.0871   0.1197   0.2688   0.2995   0.3011   0.4820   0.5592   0.7720
     0.7876   0.9308   0.9476   1.0165   1.1466   1.1879   1.2711   1.2837
     1.3930   1.6361   1.7523   1.8272   1.9754   2.0841   2.1347   2.1631
     2.2366   2.4837   2.5837   2.7438   2.7827   3.0133   3.0468   3.1448
     3.2126   3.2255   3.3521   3.4577

          k =-0.0954 0.1245 0.0000 ( 27322 PWs)   bands (ev):

   -71.2389 -71.1846 -70.8216 -70.8078 -70.7684 -70.7545 -70.1209 -70.0936
   -70.0321 -70.0036 -69.9459 -69.9179 -41.6245 -41.6090 -41.5807 -41.5297
   -41.5118 -41.5081 -41.4765 -41.4452 -41.3812 -41.3402 -41.3266 -41.3168
   -41.3108 -41.2878 -41.2098 -41.1909 -41.1714 -41.1606 -41.1203 -41.1048
   -41.0741 -41.0155 -40.9915 -40.9699 -40.9384 -40.8875 -40.7663 -40.7297
   -40.7262 -40.6824 -40.6808 -40.6617 -40.6569 -40.6370 -40.5305 -40.5255
    -3.5796  -2.8793  -2.8383  -2.4259  -2.4221  -2.3350  -2.1786  -2.1155
    -1.8653  -1.8637  -1.7324  -1.6255  -1.5106  -1.4215  -1.2101  -1.1564
    -1.0337  -0.6827  -0.6153  -0.5016  -0.3447  -0.1571  -0.1143   0.0189
     0.0732   0.1190   0.2742   0.3901   0.4478   0.5642   0.6785   0.7781
     0.8512   0.8965   0.9432   0.9870   1.1482   1.1956   1.2062   1.2748
     1.3570   1.5965   1.6726   1.8240   1.9596   2.0617   2.0991   2.1475
     2.2068   2.4568   2.5106   2.7020   2.7456   2.9352   2.9638   3.0105
     3.1982   3.1985   3.3035   3.4017

          k =-0.0954 0.1427 0.0000 ( 27265 PWs)   bands (ev):

   -71.2418 -71.1813 -70.8245 -70.8107 -70.7652 -70.7512 -70.1227 -70.0923
   -70.0339 -70.0021 -69.9476 -69.9165 -41.6220 -41.6095 -41.5960 -41.5305
   -41.4955 -41.4945 -41.4741 -41.4482 -41.3604 -41.3310 -41.3247 -41.3186
   -41.2951 -41.2752 -41.2372 -41.2153 -41.1735 -41.1523 -41.1233 -41.0857
   -41.0494 -41.0365 -41.0134 -40.9873 -40.9625 -40.8653 -40.7814 -40.7419
   -40.7318 -40.6895 -40.6845 -40.6660 -40.6602 -40.6386 -40.5079 -40.5022
    -3.5472  -3.0670  -2.8770  -2.4786  -2.3796  -2.2773  -2.2594  -2.1218
    -1.9166  -1.8668  -1.5994  -1.5395  -1.4544  -1.3853  -1.2142  -1.1993
    -1.1350  -0.7624  -0.5942  -0.3955  -0.2040  -0.1335  -0.0669   0.0451
     0.1463   0.2279   0.3030   0.4710   0.5955   0.6228   0.7492   0.8081
     0.8328   0.8973   0.9888   1.0058   1.0948   1.1353   1.1770   1.2494
     1.2684   1.5200   1.7388   1.7940   1.8538   1.9875   2.0974   2.1259
     2.2165   2.4129   2.4452   2.5879   2.6608   2.7300   2.7964   2.8789
     2.9733   3.0374   3.2559   3.3455

          k =-0.0954-0.0566 0.0000 ( 27228 PWs)   bands (ev):

   -71.2428 -71.1802 -70.8255 -70.8116 -70.7641 -70.7501 -70.1234 -70.0918
   -70.0346 -70.0016 -69.9482 -69.9160 -41.6207 -41.6097 -41.6020 -41.5319
   -41.4888 -41.4869 -41.4735 -41.4511 -41.3460 -41.3302 -41.3239 -41.3219
   -41.2822 -41.2693 -41.2543 -41.2281 -41.1718 -41.1491 -41.1243 -41.0787
   -41.0476 -41.0316 -41.0180 -41.0020 -40.9713 -40.8568 -40.7885 -40.7467
   -40.7343 -40.6922 -40.6853 -40.6677 -40.6610 -40.6391 -40.5001 -40.4941
    -3.5245  -3.1443  -2.8912  -2.5002  -2.3971  -2.2884  -2.2344  -2.1104
    -1.9402  -1.8764  -1.5394  -1.5115  -1.3710  -1.3344  -1.2778  -1.2041
    -1.1926  -0.8052  -0.6163  -0.3104  -0.1739  -0.1684   0.0266   0.0689
     0.1457   0.2079   0.4630   0.4982   0.5600   0.6614   0.7535   0.8210
     0.9171   0.9397   0.9961   1.0134   1.0305   1.0573   1.1311   1.2620
     1.2642   1.5327   1.6867   1.8308   1.8451   1.8635   2.0936   2.1157
     2.1947   2.3643   2.4809   2.5398   2.5864   2.6554   2.7047   2.8491
     2.8799   2.9575   3.2830   3.3577

     the Fermi energy is     1.8408 ev

!    total energy              =   -2242.78040247 Ry
     estimated scf accuracy    <       0.00000630 Ry
     smearing contrib. (-TS)   =      -0.08613055 Ry
     internal energy E=F+TS    =   -2242.69427192 Ry

     The total energy is F=E-TS. E is the sum of the following terms:
     one-electron contribution =  -20913.57748797 Ry
     hartree contribution      =   10452.38979811 Ry
     xc contribution           =    -318.67843357 Ry
     ewald contribution        =    8537.17184970 Ry
     electric field correction =       0.00000180 Ry

     convergence has been achieved in  22 iterations

     negative rho (up, down):  3.217E-03 0.000E+00

     Forces acting on atoms (cartesian axes, Ry/au):

     atom    1 type  1   force =     0.00472081    0.00280725    0.02400584
     atom    2 type  1   force =     0.00474429    0.00281042    0.02396458
     atom    3 type  2   force =    -0.00368886   -0.00222069    0.00425014
     atom    4 type  2   force =    -0.00372257   -0.00217759    0.00424826
     atom    5 type  1   force =     0.00116695    0.00068866   -0.00439992
     atom    6 type  1   force =     0.00081633    0.00048683   -0.00469063
     atom    7 type  2   force =    -0.00120445   -0.00028401   -0.02224581
     atom    8 type  2   force =    -0.00082206   -0.00091880   -0.02224935
     atom    9 type  1   force =    -0.00041550   -0.00024726   -0.00028029
     atom   10 type  1   force =    -0.00030473   -0.00017866   -0.00025718
     atom   11 type  2   force =    -0.00055563   -0.00053509   -0.00117427
     atom   12 type  2   force =    -0.00073458   -0.00023106   -0.00117137

     Total force =     0.048228     Total SCF correction =     0.007482
     SCF correction compared to forces is large: reduce conv_thr to get better values

     Writing output data file ./Cr2Ru2/Cr2Ru2_beef.save/

     init_run     :     83.01s CPU     83.53s WALL (       1 calls)
     electrons    :   4343.54s CPU   4373.48s WALL (       1 calls)
     forces       :     58.61s CPU     58.94s WALL (       1 calls)

     Called by init_run:
     wfcinit      :     71.41s CPU     71.74s WALL (       1 calls)
     potinit      :      8.02s CPU      8.10s WALL (       1 calls)
     hinit0       :      2.10s CPU      2.12s WALL (       1 calls)

     Called by electrons:
     c_bands      :   3869.41s CPU   3890.37s WALL (      22 calls)
     sum_band     :    434.77s CPU    439.88s WALL (      22 calls)
     v_of_rho     :     28.13s CPU     29.87s WALL (      23 calls)
     newd         :     18.05s CPU     19.99s WALL (      23 calls)
     mix_rho      :      0.74s CPU      0.78s WALL (      22 calls)
     vdW_kernel   :      5.96s CPU      5.96s WALL (       1 calls)

     Called by c_bands:
     init_us_2    :     11.86s CPU     12.03s WALL (    3404 calls)
     cegterg      :   3828.60s CPU   3846.62s WALL (    1628 calls)

     Called by *egterg:
     cdiaghg      :    255.68s CPU    255.97s WALL (    7231 calls)
     h_psi        :   1798.08s CPU   1811.57s WALL (    7305 calls)
     s_psi        :    526.41s CPU    527.36s WALL (    7305 calls)
     g_psi        :      1.42s CPU      1.43s WALL (    5603 calls)

     Called by h_psi:
     h_psi:calbec :    645.21s CPU    647.05s WALL (    7305 calls)
     vloc_psi     :    601.22s CPU    611.87s WALL (    7305 calls)
     add_vuspsi   :    545.21s CPU    546.13s WALL (    7305 calls)

     General routines
     calbec       :    966.71s CPU    969.46s WALL (    9229 calls)
     fft          :     16.28s CPU     17.04s WALL (    1508 calls)
     ffts         :      0.10s CPU      0.10s WALL (      45 calls)
     fftw         :    680.68s CPU    692.41s WALL (  978736 calls)
     interpolate  :      0.26s CPU      0.28s WALL (      23 calls)

     Parallel routines
     fft_scatt_xy :     50.43s CPU     51.07s WALL (  980289 calls)
     fft_scatt_yz :    205.22s CPU    210.58s WALL (  980289 calls)

     PWSCF        :      1h15m CPU      1h15m WALL


   This run was terminated on:  20:31:35  10Jul2022            

=------------------------------------------------------------------------------=
   JOB DONE.
=------------------------------------------------------------------------------=
