
     Program PWSCF v.6.6 starts on 23Jun2022 at 20:19: 7 

     This program is part of the open-source Quantum ESPRESSO suite
     for quantum simulation of materials; please cite
         "P. Giannozzi et al., J. Phys.:Condens. Matter 21 395502 (2009);
         "P. Giannozzi et al., J. Phys.:Condens. Matter 29 465901 (2017);
          URL http://www.quantum-espresso.org", 
     in publications or presentations arising from this work. More details at
     http://www.quantum-espresso.org/quote

     Parallel version (MPI), running on    37 processors

     MPI processes distributed on     1 nodes
     R & G space division:  proc/nbgrp/npool/nimage =      37
     Fft bands division:     nmany     =       1
     Reading input from Cr2Re2.in
Warning: card &CELL ignored
Warning: card / ignored

     Current dimensions of program PWSCF are:
     Max number of different atomic species (ntypx) = 10
     Max number of k-points (npk) =  40000
     Max angular momentum in pseudopotentials (lmaxx) =  3
     Presently stress not available with electric field and gates

     Message from routine cell_base_init:
     DEPRECATED: use true lattice parameter, not A to a.u. conversion factor
     file Cr.pbe-spn-rrkjus_psl.1.0.0.UPF: wavefunction(s)  3P renormalized

     **************************************************************************
     Initializing libbeef V0.1.2 with the BEEF-vdW functional.
     Citation: Wellendorff et al., PRB 85, 235149 (2012).
     **************************************************************************


     IMPORTANT: XC functional enforced from input :
     Exchange-correlation= BEEF-VDW
                           (   1   4  43  14   2   0   0)
     Any further DFT definition will be discarded
     Please, verify this is what you really want


     Subspace diagonalization in iterative solution of the eigenvalue problem:
     a serial algorithm will be used


     Parallelization info
     --------------------
     sticks:   dense  smooth     PW     G-vecs:    dense   smooth      PW
     Min         106      42     12                24362     6158     936
     Max         107      43     13                24387     6171     953
     Sum        3949    1587    451               901959   228171   34861



     bravais-lattice index     =            0
     lattice parameter (alat)  =       1.8897  a.u.
     unit-cell volume          =    4126.6531 (a.u.)^3
     number of atoms/cell      =           12
     number of atomic types    =            2
     number of electrons       =       174.00
     number of Kohn-Sham states=          104
     kinetic-energy cutoff     =      55.1240  Ry
     charge density cutoff     =     551.2396  Ry
     convergence threshold     =      1.0E-05
     mixing beta               =       0.1000
     number of iterations used =           10  plain     mixing
     Exchange-correlation= BEEF-VDW
                           (   1   4  43  14   2   0   0)

     celldm(1)=   1.889726  celldm(2)=   0.000000  celldm(3)=   0.000000
     celldm(4)=   0.000000  celldm(5)=   0.000000  celldm(6)=   0.000000

     crystal axes: (cart. coord. in units of alat)
               a(1) = (   5.173948   0.000000   0.000000 )  
               a(2) = (   1.721620   4.879115   0.000000 )  
               a(3) = (   0.000000   0.000000  24.223580 )  

     reciprocal axes: (cart. coord. in units 2 pi/alat)
               b(1) = (  0.193276 -0.068198  0.000000 )  
               b(2) = (  0.000000  0.204955  0.000000 )  
               b(3) = (  0.000000  0.000000  0.041282 )  


     PseudoPot. # 1 for Cr read from file:
     ../pseudo/Cr.pbe-spn-rrkjus_psl.1.0.0.UPF
     MD5 check sum: 793d051e4f89dd1e3290b85340a92c0a
     Pseudo is Ultrasoft + core correction, Zval = 14.0
     Generated using "atomic" code by A. Dal Corso v.6.2.2
     Using radial grid of 1183 points,  6 beta functions with: 
                l(1) =   0
                l(2) =   0
                l(3) =   1
                l(4) =   1
                l(5) =   2
                l(6) =   2
     Q(r) pseudized with 0 coefficients 


     PseudoPot. # 2 for Re read from file:
     ../pseudo/Re.pbe-spn-rrkjus_psl.1.0.0.UPF
     MD5 check sum: 1282f1ec51ad523723a04c61ae80a9e6
     Pseudo is Ultrasoft + core correction, Zval = 15.0
     Generated using "atomic" code by A. Dal Corso v.6.2.2
     Using radial grid of 1275 points,  6 beta functions with: 
                l(1) =   0
                l(2) =   0
                l(3) =   1
                l(4) =   1
                l(5) =   2
                l(6) =   2
     Q(r) pseudized with 0 coefficients 


     atomic species   valence    mass     pseudopotential
        Cr            14.00    51.99610     Cr( 1.00)
        Re            15.00   186.20700     Re( 1.00)

     No symmetry found



   Cartesian axes

     site n.     atom                  positions (alat units)
         1           Cr  tau(   1) = (   0.0000000   0.0000000  10.0000000  )
         2           Cr  tau(   2) = (   3.4477841   2.4395577  10.0000000  )
         3           Re  tau(   3) = (   2.5869742   0.0000000  10.0000000  )
         4           Re  tau(   4) = (   0.8608099   2.4395577  10.0000000  )
         5           Cr  tau(   5) = (   5.1739484   3.6609444  12.1117899  )
         6           Cr  tau(   6) = (   1.7261644   1.2213867  12.1117899  )
         7           Re  tau(   7) = (   2.5869742   3.6609444  12.1117899  )
         8           Re  tau(   8) = (   4.3131386   1.2213867  12.1117899  )
         9           Cr  tau(   9) = (   3.4517230   2.4423509  14.1630745  )
        10           Cr  tau(  10) = (   0.0038840   0.0027419  14.1630849  )
        11           Re  tau(  11) = (   0.8644436   2.4420199  14.1344631  )
        12           Re  tau(  12) = (   2.5905481   0.0026328  14.1344404  )

     number of k points=    74  Fermi-Dirac smearing, width (Ry)=  0.0100
                       cart. coord. in units 2pi/alat
        k(    1) = (   0.0000000   0.0000000   0.0000000), wk =   0.0138889
        k(    2) = (   0.0000000   0.0170796   0.0000000), wk =   0.0277778
        k(    3) = (   0.0000000   0.0341592   0.0000000), wk =   0.0277778
        k(    4) = (   0.0000000   0.0512388   0.0000000), wk =   0.0277778
        k(    5) = (   0.0000000   0.0683184   0.0000000), wk =   0.0277778
        k(    6) = (   0.0000000   0.0853980   0.0000000), wk =   0.0277778
        k(    7) = (   0.0000000  -0.1024776   0.0000000), wk =   0.0138889
        k(    8) = (   0.0161063  -0.0056832   0.0000000), wk =   0.0277778
        k(    9) = (   0.0161063   0.0113964   0.0000000), wk =   0.0277778
        k(   10) = (   0.0161063   0.0284760   0.0000000), wk =   0.0277778
        k(   11) = (   0.0161063   0.0455556   0.0000000), wk =   0.0277778
        k(   12) = (   0.0161063   0.0626352   0.0000000), wk =   0.0277778
        k(   13) = (   0.0161063   0.0797148   0.0000000), wk =   0.0277778
        k(   14) = (   0.0161063  -0.1081608   0.0000000), wk =   0.0277778
        k(   15) = (   0.0161063  -0.0910812   0.0000000), wk =   0.0277778
        k(   16) = (   0.0161063  -0.0740016   0.0000000), wk =   0.0277778
        k(   17) = (   0.0161063  -0.0569220   0.0000000), wk =   0.0277778
        k(   18) = (   0.0161063  -0.0398424   0.0000000), wk =   0.0277778
        k(   19) = (   0.0161063  -0.0227628   0.0000000), wk =   0.0277778
        k(   20) = (   0.0322127  -0.0113664   0.0000000), wk =   0.0277778
        k(   21) = (   0.0322127   0.0057132   0.0000000), wk =   0.0277778
        k(   22) = (   0.0322127   0.0227928   0.0000000), wk =   0.0277778
        k(   23) = (   0.0322127   0.0398724   0.0000000), wk =   0.0277778
        k(   24) = (   0.0322127   0.0569520   0.0000000), wk =   0.0277778
        k(   25) = (   0.0322127   0.0740316   0.0000000), wk =   0.0277778
        k(   26) = (   0.0322127  -0.1138440   0.0000000), wk =   0.0277778
        k(   27) = (   0.0322127  -0.0967644   0.0000000), wk =   0.0277778
        k(   28) = (   0.0322127  -0.0796848   0.0000000), wk =   0.0277778
        k(   29) = (   0.0322127  -0.0626052   0.0000000), wk =   0.0277778
        k(   30) = (   0.0322127  -0.0455256   0.0000000), wk =   0.0277778
        k(   31) = (   0.0322127  -0.0284460   0.0000000), wk =   0.0277778
        k(   32) = (   0.0483190  -0.0170496   0.0000000), wk =   0.0277778
        k(   33) = (   0.0483190   0.0000300   0.0000000), wk =   0.0277778
        k(   34) = (   0.0483190   0.0171096   0.0000000), wk =   0.0277778
        k(   35) = (   0.0483190   0.0341892   0.0000000), wk =   0.0277778
        k(   36) = (   0.0483190   0.0512688   0.0000000), wk =   0.0277778
        k(   37) = (   0.0483190   0.0683484   0.0000000), wk =   0.0277778
        k(   38) = (   0.0483190  -0.1195272   0.0000000), wk =   0.0277778
        k(   39) = (   0.0483190  -0.1024476   0.0000000), wk =   0.0277778
        k(   40) = (   0.0483190  -0.0853680   0.0000000), wk =   0.0277778
        k(   41) = (   0.0483190  -0.0682884   0.0000000), wk =   0.0277778
        k(   42) = (   0.0483190  -0.0512088   0.0000000), wk =   0.0277778
        k(   43) = (   0.0483190  -0.0341292   0.0000000), wk =   0.0277778
        k(   44) = (   0.0644253  -0.0227328   0.0000000), wk =   0.0277778
        k(   45) = (   0.0644253  -0.0056532   0.0000000), wk =   0.0277778
        k(   46) = (   0.0644253   0.0114264   0.0000000), wk =   0.0277778
        k(   47) = (   0.0644253   0.0285060   0.0000000), wk =   0.0277778
        k(   48) = (   0.0644253   0.0455856   0.0000000), wk =   0.0277778
        k(   49) = (   0.0644253   0.0626652   0.0000000), wk =   0.0277778
        k(   50) = (   0.0644253  -0.1252104   0.0000000), wk =   0.0277778
        k(   51) = (   0.0644253  -0.1081308   0.0000000), wk =   0.0277778
        k(   52) = (   0.0644253  -0.0910512   0.0000000), wk =   0.0277778
        k(   53) = (   0.0644253  -0.0739716   0.0000000), wk =   0.0277778
        k(   54) = (   0.0644253  -0.0568920   0.0000000), wk =   0.0277778
        k(   55) = (   0.0644253  -0.0398124   0.0000000), wk =   0.0277778
        k(   56) = (   0.0805317  -0.0284160   0.0000000), wk =   0.0277778
        k(   57) = (   0.0805317  -0.0113364   0.0000000), wk =   0.0277778
        k(   58) = (   0.0805317   0.0057432   0.0000000), wk =   0.0277778
        k(   59) = (   0.0805317   0.0228228   0.0000000), wk =   0.0277778
        k(   60) = (   0.0805317   0.0399024   0.0000000), wk =   0.0277778
        k(   61) = (   0.0805317   0.0569820   0.0000000), wk =   0.0277778
        k(   62) = (   0.0805317  -0.1308936   0.0000000), wk =   0.0277778
        k(   63) = (   0.0805317  -0.1138140   0.0000000), wk =   0.0277778
        k(   64) = (   0.0805317  -0.0967344   0.0000000), wk =   0.0277778
        k(   65) = (   0.0805317  -0.0796548   0.0000000), wk =   0.0277778
        k(   66) = (   0.0805317  -0.0625752   0.0000000), wk =   0.0277778
        k(   67) = (   0.0805317  -0.0454956   0.0000000), wk =   0.0277778
        k(   68) = (  -0.0966380   0.0340992   0.0000000), wk =   0.0138889
        k(   69) = (  -0.0966380   0.0511788   0.0000000), wk =   0.0277778
        k(   70) = (  -0.0966380   0.0682584   0.0000000), wk =   0.0277778
        k(   71) = (  -0.0966380   0.0853380   0.0000000), wk =   0.0277778
        k(   72) = (  -0.0966380   0.1024176   0.0000000), wk =   0.0277778
        k(   73) = (  -0.0966380   0.1194972   0.0000000), wk =   0.0277778
        k(   74) = (  -0.0966380  -0.0683784   0.0000000), wk =   0.0138889

     Dense  grid:   901959 G-vectors     FFT dimensions: (  75,  75, 360)

     Smooth grid:   228171 G-vectors     FFT dimensions: (  48,  48, 225)

     Estimated max dynamical RAM per process >     189.41 MB

     Estimated total dynamical RAM >       6.84 GB

     Initial potential from superposition of free atoms

     starting charge  173.99356, renormalised to  174.00000

     negative rho (up, down):  3.299E-03 0.000E+00


     %%%%%%%%%%%%%%%%%%%%%%%%%%%%%%%%%%%%%%%%%%%%%%%%%%%%%%%%%%%%%%%%%%%%%%%%
     %                                                                      %
     % You are using vdW-DF, which was implemented by the Thonhauser group. %
     % Please cite the following two papers that made this development      %
     % possible and the two reviews that describe the various versions:     %
     %                                                                      %
     %   T. Thonhauser et al., PRL 115, 136402 (2015).                      %
     %   T. Thonhauser et al., PRB 76, 125112 (2007).                       %
     %   K. Berland et al., Rep. Prog. Phys. 78, 066501 (2015).             %
     %   D.C. Langreth et al., J. Phys.: Condens. Matter 21, 084203 (2009). %
     %                                                                      %
     %                                                                      %
     % If you are calculating the stress with vdW-DF, please also cite:     %
     %                                                                      %
     %   R. Sabatini et al., J. Phys.: Condens. Matter 24, 424209 (2012).   %
     %                                                                      %
     %%%%%%%%%%%%%%%%%%%%%%%%%%%%%%%%%%%%%%%%%%%%%%%%%%%%%%%%%%%%%%%%%%%%%%%%



     Adding external electric field

     Computed dipole along edir(3) : 
        Dipole                0.0000 Ry au,          0.0001 Debye
        Dipole field          0.0000 Ry au, 

        Potential amp.       -0.0000 Ry
        Total length         44.6315 bohr

     Starting wfcs are  120 randomized atomic wfcs

     total cpu time spent up to now is       76.3 secs

     Self-consistent Calculation

     iteration #  1     ecut=    55.12 Ry     beta= 0.10
     Davidson diagonalization with overlap
     ethr =  1.00E-02,  avg # of iterations =  2.2

     negative rho (up, down):  3.263E-03 0.000E+00

     Adding external electric field

     Computed dipole along edir(3) : 
        Dipole               -0.2226 Ry au,         -0.5659 Debye
        Dipole field         -0.0007 Ry au, 

        Potential amp.        0.0605 Ry
        Total length         44.6315 bohr


     total cpu time spent up to now is      282.1 secs

     total energy              =   -2129.48807314 Ry
     estimated scf accuracy    <       6.35250496 Ry

     iteration #  2     ecut=    55.12 Ry     beta= 0.10
     Davidson diagonalization with overlap
     ethr =  3.65E-03,  avg # of iterations =  2.9

     negative rho (up, down):  3.316E-03 0.000E+00

     Adding external electric field

     Computed dipole along edir(3) : 
        Dipole                0.5637 Ry au,          1.4328 Debye
        Dipole field          0.0017 Ry au, 

        Potential amp.       -0.1532 Ry
        Total length         44.6315 bohr


     total cpu time spent up to now is      464.8 secs

     total energy              =   -2129.88417696 Ry
     estimated scf accuracy    <       7.15159874 Ry

     iteration #  3     ecut=    55.12 Ry     beta= 0.10
     Davidson diagonalization with overlap
     ethr =  3.65E-03,  avg # of iterations =  1.8

     negative rho (up, down):  3.525E-03 0.000E+00

     Adding external electric field

     Computed dipole along edir(3) : 
        Dipole               -0.0539 Ry au,         -0.1370 Debye
        Dipole field         -0.0002 Ry au, 

        Potential amp.        0.0147 Ry
        Total length         44.6315 bohr


     total cpu time spent up to now is      629.3 secs

     total energy              =   -2129.80290890 Ry
     estimated scf accuracy    <      35.18884716 Ry

     iteration #  4     ecut=    55.12 Ry     beta= 0.10
     Davidson diagonalization with overlap
     ethr =  3.65E-03,  avg # of iterations =  1.0

     negative rho (up, down):  3.733E-03 0.000E+00

     Adding external electric field

     Computed dipole along edir(3) : 
        Dipole               -0.0010 Ry au,         -0.0026 Debye
        Dipole field         -0.0000 Ry au, 

        Potential amp.        0.0003 Ry
        Total length         44.6315 bohr


     total cpu time spent up to now is      775.6 secs

     total energy              =   -2130.24457223 Ry
     estimated scf accuracy    <       0.94974639 Ry

     iteration #  5     ecut=    55.12 Ry     beta= 0.10
     Davidson diagonalization with overlap
     ethr =  5.46E-04,  avg # of iterations =  1.9

     negative rho (up, down):  3.239E-03 0.000E+00

     Adding external electric field

     Computed dipole along edir(3) : 
        Dipole                0.0387 Ry au,          0.0983 Debye
        Dipole field          0.0001 Ry au, 

        Potential amp.       -0.0105 Ry
        Total length         44.6315 bohr


     total cpu time spent up to now is      942.2 secs

     total energy              =   -2130.15364663 Ry
     estimated scf accuracy    <       0.46427818 Ry

     iteration #  6     ecut=    55.12 Ry     beta= 0.10
     Davidson diagonalization with overlap
     ethr =  2.67E-04,  avg # of iterations =  3.1

     negative rho (up, down):  3.625E-03 0.000E+00

     Adding external electric field

     Computed dipole along edir(3) : 
        Dipole                0.0046 Ry au,          0.0116 Debye
        Dipole field          0.0000 Ry au, 

        Potential amp.       -0.0012 Ry
        Total length         44.6315 bohr


     total cpu time spent up to now is     1135.8 secs

     total energy              =   -2130.11013646 Ry
     estimated scf accuracy    <       0.48179260 Ry

     iteration #  7     ecut=    55.12 Ry     beta= 0.10
     Davidson diagonalization with overlap
     ethr =  2.67E-04,  avg # of iterations =  7.5

     negative rho (up, down):  3.356E-03 0.000E+00

     Adding external electric field

     Computed dipole along edir(3) : 
        Dipole                0.0179 Ry au,          0.0455 Debye
        Dipole field          0.0001 Ry au, 

        Potential amp.       -0.0049 Ry
        Total length         44.6315 bohr


     total cpu time spent up to now is     1350.3 secs

     total energy              =   -2130.22715069 Ry
     estimated scf accuracy    <       1.06829094 Ry

     iteration #  8     ecut=    55.12 Ry     beta= 0.10
     Davidson diagonalization with overlap
     ethr =  2.67E-04,  avg # of iterations =  1.1

     negative rho (up, down):  3.776E-03 0.000E+00

     Adding external electric field

     Computed dipole along edir(3) : 
        Dipole                0.0310 Ry au,          0.0789 Debye
        Dipole field          0.0001 Ry au, 

        Potential amp.       -0.0084 Ry
        Total length         44.6315 bohr


     total cpu time spent up to now is     1499.0 secs

     total energy              =   -2130.17669667 Ry
     estimated scf accuracy    <       0.55934561 Ry

     iteration #  9     ecut=    55.12 Ry     beta= 0.10
     Davidson diagonalization with overlap
     ethr =  2.67E-04,  avg # of iterations =  2.1

     negative rho (up, down):  4.796E-03 0.000E+00

     Adding external electric field

     Computed dipole along edir(3) : 
        Dipole                0.0234 Ry au,          0.0596 Debye
        Dipole field          0.0001 Ry au, 

        Potential amp.       -0.0064 Ry
        Total length         44.6315 bohr


     total cpu time spent up to now is     1672.6 secs

     total energy              =   -2130.20637419 Ry
     estimated scf accuracy    <       0.01905872 Ry

     iteration # 10     ecut=    55.12 Ry     beta= 0.10
     Davidson diagonalization with overlap
     c_bands:  1 eigenvalues not converged
     c_bands:  1 eigenvalues not converged
     ethr =  1.10E-05,  avg # of iterations =  9.6

     negative rho (up, down):  4.671E-03 0.000E+00

     Adding external electric field

     Computed dipole along edir(3) : 
        Dipole                0.0250 Ry au,          0.0636 Debye
        Dipole field          0.0001 Ry au, 

        Potential amp.       -0.0068 Ry
        Total length         44.6315 bohr


     total cpu time spent up to now is     1963.0 secs

     total energy              =   -2130.21275353 Ry
     estimated scf accuracy    <       0.01746525 Ry

     iteration # 11     ecut=    55.12 Ry     beta= 0.10
     Davidson diagonalization with overlap
     ethr =  1.00E-05,  avg # of iterations =  1.1

     negative rho (up, down):  4.491E-03 0.000E+00

     Adding external electric field

     Computed dipole along edir(3) : 
        Dipole                0.0322 Ry au,          0.0818 Debye
        Dipole field          0.0001 Ry au, 

        Potential amp.       -0.0087 Ry
        Total length         44.6315 bohr


     total cpu time spent up to now is     2110.1 secs

     total energy              =   -2130.21040045 Ry
     estimated scf accuracy    <       0.01195161 Ry

     iteration # 12     ecut=    55.12 Ry     beta= 0.10
     Davidson diagonalization with overlap
     ethr =  6.87E-06,  avg # of iterations =  2.8

     negative rho (up, down):  5.020E-03 0.000E+00

     Adding external electric field

     Computed dipole along edir(3) : 
        Dipole                0.0231 Ry au,          0.0588 Debye
        Dipole field          0.0001 Ry au, 

        Potential amp.       -0.0063 Ry
        Total length         44.6315 bohr


     total cpu time spent up to now is     2302.6 secs

     total energy              =   -2130.21048781 Ry
     estimated scf accuracy    <       0.00689383 Ry

     iteration # 13     ecut=    55.12 Ry     beta= 0.10
     Davidson diagonalization with overlap
     c_bands:  1 eigenvalues not converged
     ethr =  3.96E-06,  avg # of iterations =  6.1

     negative rho (up, down):  5.119E-03 0.000E+00

     Adding external electric field

     Computed dipole along edir(3) : 
        Dipole                0.0289 Ry au,          0.0734 Debye
        Dipole field          0.0001 Ry au, 

        Potential amp.       -0.0079 Ry
        Total length         44.6315 bohr


     total cpu time spent up to now is     2517.1 secs

     total energy              =   -2130.21128103 Ry
     estimated scf accuracy    <       0.02137014 Ry

     iteration # 14     ecut=    55.12 Ry     beta= 0.10
     Davidson diagonalization with overlap
     ethr =  3.96E-06,  avg # of iterations =  2.2

     negative rho (up, down):  4.839E-03 0.000E+00

     Adding external electric field

     Computed dipole along edir(3) : 
        Dipole                0.0293 Ry au,          0.0745 Debye
        Dipole field          0.0001 Ry au, 

        Potential amp.       -0.0080 Ry
        Total length         44.6315 bohr


     total cpu time spent up to now is     2691.9 secs

     total energy              =   -2130.21181900 Ry
     estimated scf accuracy    <       0.00144560 Ry

     iteration # 15     ecut=    55.12 Ry     beta= 0.10
     Davidson diagonalization with overlap
     c_bands:  1 eigenvalues not converged
     ethr =  8.31E-07,  avg # of iterations =  8.6

     negative rho (up, down):  4.525E-03 0.000E+00

     Adding external electric field

     Computed dipole along edir(3) : 
        Dipole                0.0296 Ry au,          0.0753 Debye
        Dipole field          0.0001 Ry au, 

        Potential amp.       -0.0081 Ry
        Total length         44.6315 bohr


     total cpu time spent up to now is     2937.1 secs

     total energy              =   -2130.21208463 Ry
     estimated scf accuracy    <       0.00351043 Ry

     iteration # 16     ecut=    55.12 Ry     beta= 0.10
     Davidson diagonalization with overlap
     ethr =  8.31E-07,  avg # of iterations =  1.9

     negative rho (up, down):  4.293E-03 0.000E+00

     Adding external electric field

     Computed dipole along edir(3) : 
        Dipole                0.0284 Ry au,          0.0722 Debye
        Dipole field          0.0001 Ry au, 

        Potential amp.       -0.0077 Ry
        Total length         44.6315 bohr


     total cpu time spent up to now is     3104.6 secs

     total energy              =   -2130.21214305 Ry
     estimated scf accuracy    <       0.00075538 Ry

     iteration # 17     ecut=    55.12 Ry     beta= 0.10
     Davidson diagonalization with overlap
     ethr =  4.34E-07,  avg # of iterations =  1.2

     negative rho (up, down):  4.139E-03 0.000E+00

     Adding external electric field

     Computed dipole along edir(3) : 
        Dipole                0.0295 Ry au,          0.0750 Debye
        Dipole field          0.0001 Ry au, 

        Potential amp.       -0.0080 Ry
        Total length         44.6315 bohr


     total cpu time spent up to now is     3254.4 secs

     total energy              =   -2130.21211887 Ry
     estimated scf accuracy    <       0.00035099 Ry

     iteration # 18     ecut=    55.12 Ry     beta= 0.10
     Davidson diagonalization with overlap
     ethr =  2.02E-07,  avg # of iterations =  5.6

     negative rho (up, down):  4.048E-03 0.000E+00

     Adding external electric field

     Computed dipole along edir(3) : 
        Dipole                0.0301 Ry au,          0.0764 Debye
        Dipole field          0.0001 Ry au, 

        Potential amp.       -0.0082 Ry
        Total length         44.6315 bohr


     total cpu time spent up to now is     3449.5 secs

     total energy              =   -2130.21215112 Ry
     estimated scf accuracy    <       0.00012877 Ry

     iteration # 19     ecut=    55.12 Ry     beta= 0.10
     Davidson diagonalization with overlap
     ethr =  7.40E-08,  avg # of iterations =  2.7

     negative rho (up, down):  3.887E-03 0.000E+00

     Adding external electric field

     Computed dipole along edir(3) : 
        Dipole                0.0299 Ry au,          0.0761 Debye
        Dipole field          0.0001 Ry au, 

        Potential amp.       -0.0081 Ry
        Total length         44.6315 bohr


     total cpu time spent up to now is     3627.8 secs

     total energy              =   -2130.21216607 Ry
     estimated scf accuracy    <       0.00002053 Ry

     iteration # 20     ecut=    55.12 Ry     beta= 0.10
     Davidson diagonalization with overlap
     ethr =  1.18E-08,  avg # of iterations =  6.6

     negative rho (up, down):  3.756E-03 0.000E+00

     Adding external electric field

     Computed dipole along edir(3) : 
        Dipole                0.0296 Ry au,          0.0751 Debye
        Dipole field          0.0001 Ry au, 

        Potential amp.       -0.0080 Ry
        Total length         44.6315 bohr


     total cpu time spent up to now is     3846.4 secs

     total energy              =   -2130.21216735 Ry
     estimated scf accuracy    <       0.00002237 Ry

     iteration # 21     ecut=    55.12 Ry     beta= 0.10
     Davidson diagonalization with overlap
     ethr =  1.18E-08,  avg # of iterations =  2.0

     negative rho (up, down):  3.058E-03 0.000E+00

     Adding external electric field

     Computed dipole along edir(3) : 
        Dipole                0.0249 Ry au,          0.0634 Debye
        Dipole field          0.0001 Ry au, 

        Potential amp.       -0.0068 Ry
        Total length         44.6315 bohr


     total cpu time spent up to now is     4015.1 secs

     End of self-consistent calculation

          k = 0.0000 0.0000 0.0000 ( 28539 PWs)   bands (ev):

   -78.9148 -78.9014 -78.4779 -78.4764 -78.4654 -78.4638 -70.3916 -70.3837
   -69.9769 -69.9750 -69.9692 -69.9674 -41.9520 -41.8260 -41.8087 -41.7471
   -41.7236 -41.7009 -41.4529 -41.4364 -41.3711 -41.3695 -41.3602 -41.3568
   -41.3422 -41.3342 -41.3285 -41.2932 -41.2138 -41.1901 -40.5878 -40.5590
   -40.5239 -40.4964 -40.4930 -40.4679 -40.2450 -40.2235 -40.1840 -40.1648
   -40.1561 -40.1381 -40.0543 -40.0464 -40.0303 -40.0196 -40.0058 -39.9885
    -6.4630  -4.3096  -3.7221  -3.5925  -3.5547  -3.3671  -3.3479  -3.1066
    -3.0345  -2.9823  -2.2467  -2.1557  -1.7337  -1.4260  -1.3012  -1.2822
    -1.2029  -1.0973  -1.0785  -1.0189  -0.8710  -0.5721  -0.2604  -0.2340
     0.2148   0.3088   0.5021   0.7526   0.9203   1.3197   1.4356   1.6130
     1.7272   1.7894   2.2492   2.4411   2.4566   2.6118   2.6954   2.7136
     2.7194   2.8916   2.9251   2.9312   2.9326   2.9966   3.0799   3.1458
     3.1567   3.3520   3.3596   3.3807   3.3857   3.4329   3.5914   3.6243

          k = 0.0000 0.0171 0.0000 ( 28558 PWs)   bands (ev):

   -78.9146 -78.9017 -78.4777 -78.4762 -78.4655 -78.4640 -70.3915 -70.3838
   -69.9768 -69.9749 -69.9694 -69.9675 -41.9471 -41.8215 -41.8042 -41.7487
   -41.7222 -41.7000 -41.4491 -41.4360 -41.3722 -41.3653 -41.3566 -41.3523
   -41.3434 -41.3305 -41.3289 -41.2915 -41.2147 -41.1918 -40.5882 -40.5625
   -40.5292 -40.4968 -40.4933 -40.4721 -40.2431 -40.2227 -40.1838 -40.1654
   -40.1577 -40.1375 -40.0572 -40.0496 -40.0342 -40.0240 -40.0098 -39.9939
    -6.4042  -4.2537  -3.6645  -3.5658  -3.5116  -3.3660  -3.3112  -3.0777
    -3.0166  -2.9452  -2.2105  -2.1090  -1.7236  -1.4062  -1.3023  -1.2532
    -1.2052  -1.0794  -1.0693  -0.9595  -0.8921  -0.5680  -0.2946  -0.2312
     0.1546   0.3147   0.5050   0.6621   0.9822   1.2485   1.3763   1.5401
     1.6363   1.7685   2.2332   2.3846   2.4487   2.5257   2.6204   2.6212
     2.7131   2.7695   2.8150   2.9325   2.9517   2.9966   3.0883   3.1074
     3.1430   3.1849   3.2666   3.3573   3.3742   3.4796   3.6754   3.6946

          k = 0.0000 0.0342 0.0000 ( 28561 PWs)   bands (ev):

   -78.9139 -78.9023 -78.4771 -78.4756 -78.4662 -78.4646 -70.3911 -70.3843
   -69.9765 -69.9745 -69.9698 -69.9679 -41.9335 -41.8099 -41.7910 -41.7523
   -41.7183 -41.6977 -41.4392 -41.4348 -41.3746 -41.3537 -41.3492 -41.3443
   -41.3428 -41.3293 -41.3176 -41.2867 -41.2171 -41.1965 -40.5930 -40.5683
   -40.5449 -40.4979 -40.4942 -40.4828 -40.2378 -40.2206 -40.1844 -40.1665
   -40.1622 -40.1364 -40.0645 -40.0574 -40.0475 -40.0391 -40.0188 -40.0063
    -6.2309  -4.0923  -3.5565  -3.4965  -3.3832  -3.3080  -3.2098  -2.9936
    -2.9653  -2.8371  -2.1296  -1.9706  -1.6680  -1.3688  -1.3087  -1.1949
    -1.1690  -1.0499  -1.0313  -0.9538  -0.8094  -0.5489  -0.3612  -0.2278
     0.0128   0.2921   0.4097   0.5443   1.0709   1.1188   1.2518   1.3258
     1.4029   1.7217   2.0863   2.1211   2.2475   2.3595   2.3819   2.4815
     2.6664   2.6737   2.7046   2.7066   2.9057   2.9296   2.9596   3.0396
     3.1313   3.1603   3.1785   3.3215   3.4286   3.4954   3.5402   3.7390

          k = 0.0000 0.0512 0.0000 ( 28551 PWs)   bands (ev):

   -78.9129 -78.9034 -78.4761 -78.4746 -78.4671 -78.4656 -70.3906 -70.3850
   -69.9759 -69.9740 -69.9705 -69.9686 -41.9136 -41.8003 -41.7713 -41.7520
   -41.7127 -41.6951 -41.4327 -41.4277 -41.3773 -41.3540 -41.3376 -41.3334
   -41.3325 -41.3274 -41.2953 -41.2789 -41.2207 -41.2035 -40.6070 -40.5692
   -40.5675 -40.5000 -40.4959 -40.4954 -40.2302 -40.2179 -40.1873 -40.1698
   -40.1670 -40.1362 -40.0718 -40.0705 -40.0652 -40.0651 -40.0285 -40.0198
    -5.9532  -3.8450  -3.6764  -3.2418  -3.1651  -3.1276  -3.0710  -2.8831
    -2.8625  -2.6697  -2.0661  -1.7461  -1.5364  -1.3708  -1.3311  -1.1768
    -1.0628  -1.0491  -1.0242  -0.9549  -0.6206  -0.4756  -0.3637  -0.2558
    -0.1300   0.0663   0.2024   0.5483   0.9453   0.9843   1.1439   1.1678
     1.1683   1.5502   1.6685   1.8151   1.8527   2.1170   2.1171   2.4553
     2.5587   2.5765   2.6047   2.6671   2.7470   2.7546   2.8527   2.9570
     3.0483   3.0537   3.0921   3.2830   3.3146   3.3856   3.4525   3.5727

          k = 0.0000 0.0683 0.0000 ( 28532 PWs)   bands (ev):

   -78.9115 -78.9047 -78.4747 -78.4733 -78.4684 -78.4669 -70.3898 -70.3858
   -69.9752 -69.9733 -69.9713 -69.9695 -41.8901 -41.8049 -41.7490 -41.7406
   -41.7062 -41.6933 -41.4296 -41.4202 -41.3791 -41.3617 -41.3253 -41.3220
   -41.3214 -41.3209 -41.2704 -41.2672 -41.2258 -41.2110 -40.6235 -40.5968
   -40.5613 -40.5117 -40.4999 -40.4969 -40.2217 -40.2149 -40.1924 -40.1803
   -40.1665 -40.1370 -40.1009 -40.0925 -40.0747 -40.0677 -40.0391 -40.0328
    -5.5885  -3.9243  -3.5501  -2.9712  -2.9595  -2.8737  -2.8363  -2.7564
    -2.7040  -2.4696  -2.0482  -1.4908  -1.4482  -1.3825  -1.3817  -1.1916
    -1.1678  -1.0303  -0.9291  -0.8518  -0.4707  -0.3907  -0.3838  -0.2644
    -0.1628  -0.0647   0.0526   0.4002   0.5219   0.8890   0.9665   0.9848
     1.0184   1.2237   1.3012   1.5713   1.8562   1.9702   1.9969   2.0669
     2.2954   2.4887   2.5396   2.5445   2.6445   2.6747   2.7534   2.8302
     2.9458   2.9854   3.0101   3.0308   3.0433   3.2580   3.2621   3.4592

          k = 0.0000 0.0854 0.0000 ( 28506 PWs)   bands (ev):

   -78.9098 -78.9063 -78.4732 -78.4717 -78.4699 -78.4684 -70.3889 -70.3868
   -69.9743 -69.9724 -69.9723 -69.9704 -41.8656 -41.8207 -41.7305 -41.7270
   -41.7002 -41.6933 -41.4258 -41.4190 -41.3790 -41.3697 -41.3186 -41.3146
   -41.3134 -41.3114 -41.2569 -41.2448 -41.2338 -41.2181 -40.6342 -40.6202
   -40.5518 -40.5261 -40.5004 -40.4985 -40.2132 -40.2112 -40.1980 -40.1924
   -40.1633 -40.1355 -40.1310 -40.1139 -40.0713 -40.0638 -40.0510 -40.0448
    -5.1628  -4.2826  -3.2664  -2.9590  -2.6785  -2.6352  -2.5973  -2.5687
    -2.4406  -2.2904  -2.1028  -1.6768  -1.4493  -1.4081  -1.2841  -1.2462
    -1.0703  -1.0060  -0.8753  -0.7597  -0.5382  -0.4782  -0.3501  -0.1592
    -0.1223  -0.1152   0.1847   0.2458   0.3406   0.4054   0.6660   0.8963
     0.9626   0.9960   1.3289   1.5012   1.5533   1.8533   1.8929   2.0600
     2.1192   2.1473   2.4242   2.4930   2.5262   2.5345   2.5951   2.7186
     2.8453   2.8501   2.9375   2.9754   3.0632   3.0720   3.2052   3.3270

          k = 0.0000-0.1025 0.0000 ( 28538 PWs)   bands (ev):

   -78.9081 -78.9081 -78.4716 -78.4716 -78.4701 -78.4701 -70.3881 -70.3877
   -69.9734 -69.9733 -69.9715 -69.9713 -41.8420 -41.8417 -41.7225 -41.7222
   -41.6958 -41.6955 -41.4218 -41.4217 -41.3760 -41.3759 -41.3144 -41.3143
   -41.3088 -41.3087 -41.2447 -41.2446 -41.2282 -41.2280 -40.6336 -40.6336
   -40.5398 -40.5398 -40.4998 -40.4998 -40.2073 -40.2072 -40.2015 -40.2015
   -40.1526 -40.1525 -40.1283 -40.1283 -40.0626 -40.0625 -40.0555 -40.0554
    -4.7122  -4.7122  -3.0575  -3.0574  -2.5306  -2.5304  -2.4980  -2.4980
    -2.2302  -2.2300  -1.9997  -1.9996  -1.4681  -1.4681  -1.2966  -1.2966
    -0.9604  -0.9603  -0.6944  -0.6943  -0.5954  -0.5953  -0.3421  -0.3420
    -0.1031  -0.1029   0.1517   0.1517   0.4134   0.4134   0.8011   0.8011
     0.9836   0.9836   1.0610   1.0611   1.8595   1.8596   1.9121   1.9122
     2.0050   2.0051   2.3331   2.3332   2.5530   2.5531   2.6074   2.6075
     2.8298   2.8299   2.8947   2.8947   3.1150   3.1152   3.1859   3.1861

          k = 0.0161-0.0057 0.0000 ( 28558 PWs)   bands (ev):

   -78.9146 -78.9017 -78.4777 -78.4762 -78.4655 -78.4640 -70.3915 -70.3838
   -69.9768 -69.9749 -69.9694 -69.9675 -41.9471 -41.8215 -41.8042 -41.7487
   -41.7222 -41.7000 -41.4491 -41.4360 -41.3722 -41.3653 -41.3566 -41.3523
   -41.3434 -41.3305 -41.3289 -41.2915 -41.2147 -41.1918 -40.5882 -40.5625
   -40.5292 -40.4968 -40.4933 -40.4721 -40.2431 -40.2227 -40.1838 -40.1654
   -40.1577 -40.1375 -40.0572 -40.0496 -40.0342 -40.0240 -40.0098 -39.9939
    -6.4042  -4.2537  -3.6645  -3.5658  -3.5116  -3.3660  -3.3112  -3.0777
    -3.0166  -2.9452  -2.2105  -2.1090  -1.7236  -1.4062  -1.3023  -1.2532
    -1.2052  -1.0794  -1.0693  -0.9595  -0.8921  -0.5680  -0.2946  -0.2312
     0.1546   0.3147   0.5050   0.6621   0.9822   1.2485   1.3763   1.5401
     1.6363   1.7685   2.2332   2.3846   2.4487   2.5257   2.6204   2.6212
     2.7131   2.7695   2.8150   2.9325   2.9517   2.9966   3.0883   3.1074
     3.1430   3.1849   3.2666   3.3573   3.3743   3.4797   3.6754   3.6947

          k = 0.0161 0.0114 0.0000 ( 28571 PWs)   bands (ev):

   -78.9148 -78.9015 -78.4779 -78.4765 -78.4653 -78.4638 -70.3916 -70.3837
   -69.9770 -69.9750 -69.9692 -69.9674 -41.9462 -41.8171 -41.8010 -41.7455
   -41.7222 -41.6991 -41.4471 -41.4381 -41.3741 -41.3611 -41.3534 -41.3513
   -41.3416 -41.3287 -41.3273 -41.2894 -41.2128 -41.1886 -40.5937 -40.5660
   -40.5360 -40.4976 -40.4951 -40.4694 -40.2423 -40.2214 -40.1910 -40.1656
   -40.1573 -40.1445 -40.0595 -40.0525 -40.0376 -40.0292 -40.0076 -39.9903
    -6.3868  -4.2521  -3.6652  -3.5406  -3.5134  -3.3651  -3.2998  -3.0590
    -2.9875  -2.9562  -2.2094  -2.1075  -1.7489  -1.3867  -1.2647  -1.2503
    -1.2344  -1.0845  -0.9958  -0.9869  -0.8479  -0.5584  -0.2376  -0.1741
     0.2182   0.3703   0.5065   0.7102   0.8941   1.2623   1.4504   1.5863
     1.6930   1.7208   2.2227   2.2839   2.3171   2.4188   2.4250   2.5566
     2.7075   2.7213   2.9055   2.9166   2.9430   3.0172   3.0443   3.0941
     3.1221   3.1473   3.2616   3.2854   3.4579   3.5751   3.6927   3.8367

          k = 0.0161 0.0285 0.0000 ( 28589 PWs)   bands (ev):

   -78.9146 -78.9017 -78.4777 -78.4762 -78.4656 -78.4640 -70.3916 -70.3839
   -69.9769 -69.9750 -69.9694 -69.9675 -41.9364 -41.8053 -41.7891 -41.7450
   -41.7196 -41.6968 -41.4390 -41.4385 -41.3779 -41.3496 -41.3456 -41.3433
   -41.3404 -41.3286 -41.3163 -41.2843 -41.2125 -41.1889 -40.6014 -40.5739
   -40.5523 -40.4991 -40.4971 -40.4742 -40.2384 -40.2190 -40.1976 -40.1670
   -40.1600 -40.1501 -40.0667 -40.0605 -40.0490 -40.0430 -40.0119 -39.9960
    -6.2539  -4.1433  -3.5595  -3.5105  -3.4262  -3.3234  -3.2201  -2.9839
    -2.9242  -2.8947  -2.1541  -2.0141  -1.7335  -1.3447  -1.2762  -1.1944
    -1.1798  -1.0772  -0.9888  -0.8481  -0.8411  -0.5385  -0.2333  -0.1191
     0.1563   0.3846   0.5624   0.5836   0.9317   1.1467   1.4118   1.4868
     1.5709   1.6543   1.9499   2.0491   2.2203   2.2642   2.3640   2.5273
     2.5507   2.5940   2.6937   2.7972   2.8579   2.9361   2.9641   3.0233
     3.1133   3.1369   3.1795   3.3369   3.4405   3.6179   3.6516   3.7811

          k = 0.0161 0.0456 0.0000 ( 28558 PWs)   bands (ev):

   -78.9138 -78.9024 -78.4770 -78.4756 -78.4662 -78.4646 -70.3913 -70.3843
   -69.9766 -69.9747 -69.9698 -69.9679 -41.9198 -41.7931 -41.7703 -41.7434
   -41.7149 -41.6938 -41.4387 -41.4265 -41.3828 -41.3469 -41.3340 -41.3336
   -41.3293 -41.3277 -41.2963 -41.2769 -41.2136 -41.1926 -40.6150 -40.5781
   -40.5759 -40.5009 -40.4991 -40.4838 -40.2321 -40.2171 -40.2032 -40.1698
   -40.1656 -40.1540 -40.0749 -40.0693 -40.0688 -40.0646 -40.0195 -40.0070
    -6.0126  -3.9421  -3.6027  -3.3574  -3.2529  -3.1538  -3.0902  -2.8593
    -2.8338  -2.7699  -2.1008  -1.8332  -1.6510  -1.3090  -1.2658  -1.1718
    -1.0894  -1.0480  -0.9550  -0.8955  -0.6562  -0.4794  -0.2171  -0.1181
     0.0475   0.2950   0.3217   0.6878   0.9854   1.0153   1.2355   1.3213
     1.3362   1.5995   1.6831   1.7040   1.8930   2.1116   2.1814   2.3055
     2.4678   2.4688   2.5803   2.5816   2.7464   2.7705   2.8061   2.9206
     3.0817   3.1368   3.1438   3.2087   3.3627   3.3648   3.5967   3.6955

          k = 0.0161 0.0626 0.0000 ( 28548 PWs)   bands (ev):

   -78.9127 -78.9034 -78.4760 -78.4746 -78.4671 -78.4656 -70.3907 -70.3850
   -69.9761 -69.9742 -69.9705 -69.9686 -41.8989 -41.7923 -41.7485 -41.7342
   -41.7090 -41.6914 -41.4369 -41.4164 -41.3872 -41.3521 -41.3256 -41.3235
   -41.3180 -41.3171 -41.2721 -41.2680 -41.2162 -41.1992 -40.6310 -40.6017
   -40.5763 -40.5024 -40.5007 -40.4960 -40.2246 -40.2167 -40.2066 -40.1744
   -40.1734 -40.1551 -40.0946 -40.0877 -40.0798 -40.0748 -40.0291 -40.0204
    -5.6770  -3.8120  -3.6777  -3.0868  -2.9933  -2.9641  -2.9007  -2.7248
    -2.7021  -2.6009  -2.0780  -1.5739  -1.5738  -1.2945  -1.2703  -1.2113
    -1.0404  -0.9770  -0.9694  -0.8923  -0.5059  -0.3088  -0.2621  -0.1805
     0.0371   0.1010   0.1500   0.5947   0.8269   0.8733   1.1307   1.1519
     1.2195   1.2389   1.3764   1.5391   1.6520   1.8456   2.0318   2.1049
     2.3219   2.3316   2.3501   2.3925   2.5286   2.7112   2.7194   2.8274
     2.8603   3.0194   3.0607   3.1143   3.1260   3.3538   3.3731   3.3770

          k = 0.0161 0.0797 0.0000 ( 28510 PWs)   bands (ev):

   -78.9113 -78.9048 -78.4747 -78.4732 -78.4684 -78.4669 -70.3899 -70.3858
   -69.9754 -69.9734 -69.9713 -69.9694 -41.8760 -41.8042 -41.7301 -41.7221
   -41.7031 -41.6907 -41.4336 -41.4124 -41.3889 -41.3585 -41.3185 -41.3156
   -41.3100 -41.3060 -41.2602 -41.2496 -41.2222 -41.2082 -40.6411 -40.6231
   -40.5702 -40.5108 -40.5017 -40.5016 -40.2166 -40.2162 -40.2061 -40.1851
   -40.1765 -40.1513 -40.1194 -40.1067 -40.0793 -40.0749 -40.0414 -40.0341
    -5.2686  -4.1302  -3.3974  -2.8790  -2.8021  -2.6550  -2.6532  -2.6003
    -2.5483  -2.4194  -2.1018  -1.5977  -1.3552  -1.3072  -1.2846  -1.2461
    -1.0942  -1.0349  -0.8824  -0.8046  -0.4299  -0.4130  -0.3539  -0.0827
    -0.0515   0.0585   0.3336   0.4093   0.4191   0.6047   0.6068   1.0012
     1.0849   1.1332   1.3477   1.4778   1.5550   1.7251   1.7854   1.9672
     2.0436   2.1032   2.3216   2.3424   2.4137   2.4604   2.7170   2.7347
     2.8287   2.8349   2.9204   3.0090   3.0264   3.1578   3.3603   3.4245

          k = 0.0161-0.1082 0.0000 ( 28516 PWs)   bands (ev):

   -78.9097 -78.9064 -78.4732 -78.4717 -78.4700 -78.4684 -70.3890 -70.3868
   -69.9744 -69.9725 -69.9722 -69.9703 -41.8527 -41.8233 -41.7222 -41.7178
   -41.6982 -41.6922 -41.4292 -41.4137 -41.3867 -41.3643 -41.3125 -41.3090
   -41.3083 -41.3015 -41.2535 -41.2347 -41.2340 -41.2203 -40.6398 -40.6346
   -40.5606 -40.5250 -40.5021 -40.5004 -40.2118 -40.2089 -40.2037 -40.1952
   -40.1727 -40.1418 -40.1366 -40.1186 -40.0739 -40.0697 -40.0560 -40.0467
    -4.8186  -4.5314  -3.1605  -2.9110  -2.6159  -2.5138  -2.4840  -2.4757
    -2.2874  -2.2093  -2.1948  -1.6917  -1.5085  -1.4155  -1.3437  -1.1386
    -1.0527  -0.8737  -0.8427  -0.7505  -0.5605  -0.4407  -0.3796  -0.2667
    -0.1506   0.0233   0.1795   0.2291   0.3735   0.4081   0.6876   0.8994
     0.9416   1.0325   1.0365   1.1009   1.7003   1.8573   1.8967   1.9472
     1.9546   2.0705   2.1049   2.3412   2.4355   2.5245   2.6067   2.7466
     2.7477   2.8264   2.8703   2.9615   3.0005   3.1529   3.2922   3.3811

          k = 0.0161-0.0911 0.0000 ( 28505 PWs)   bands (ev):

   -78.9082 -78.9079 -78.4716 -78.4715 -78.4701 -78.4700 -70.3881 -70.3877
   -69.9734 -69.9732 -69.9716 -69.9713 -41.8466 -41.8304 -41.7279 -41.7256
   -41.6962 -41.6952 -41.4247 -41.4171 -41.3807 -41.3680 -41.3112 -41.3110
   -41.3085 -41.3045 -41.2502 -41.2470 -41.2384 -41.2269 -40.6334 -40.6252
   -40.5484 -40.5389 -40.5017 -40.4979 -40.2094 -40.2056 -40.1997 -40.1986
   -40.1523 -40.1445 -40.1258 -40.1227 -40.0697 -40.0653 -40.0608 -40.0582
    -4.9713  -4.3694  -3.0736  -3.0132  -2.6765  -2.5926  -2.5356  -2.5188
    -2.3144  -2.0467  -1.9497  -1.8603  -1.5787  -1.4454  -1.3610  -1.1173
    -0.9566  -0.9500  -0.8364  -0.6617  -0.5967  -0.4784  -0.4150  -0.3100
    -0.2277  -0.1504   0.0244   0.1501   0.2769   0.3800   0.6500   0.7881
     0.8075   0.8567   1.2811   1.4861   1.5855   1.7307   1.9978   2.0375
     2.2359   2.3002   2.3462   2.3486   2.4410   2.5765   2.6254   2.6861
     2.7617   2.8066   2.9642   2.9796   3.1749   3.1993   3.2236   3.2906

          k = 0.0161-0.0740 0.0000 ( 28523 PWs)   bands (ev):

   -78.9099 -78.9062 -78.4732 -78.4717 -78.4699 -78.4684 -70.3888 -70.3869
   -69.9742 -69.9724 -69.9723 -69.9705 -41.8721 -41.8107 -41.7444 -41.7433
   -41.7019 -41.6944 -41.4224 -41.4212 -41.3719 -41.3699 -41.3177 -41.3173
   -41.3160 -41.3130 -41.2670 -41.2624 -41.2390 -41.2219 -40.6212 -40.6000
   -40.5517 -40.5343 -40.5005 -40.4952 -40.2167 -40.2107 -40.1914 -40.1875
   -40.1471 -40.1206 -40.1188 -40.1028 -40.0781 -40.0669 -40.0552 -40.0499
    -5.4034  -3.9734  -3.3422  -2.9636  -2.8896  -2.8516  -2.7006  -2.6444
    -2.5918  -2.2308  -1.9297  -1.5831  -1.5386  -1.3963  -1.3189  -1.1882
    -1.0780  -0.9789  -0.8721  -0.7524  -0.5974  -0.4973  -0.3889  -0.3456
    -0.2679  -0.2333  -0.0297   0.2281   0.2875   0.4471   0.8017   0.8275
     0.9637   1.0869   1.2788   1.5367   1.8015   1.9689   2.1175   2.1491
     2.2702   2.4975   2.4988   2.6325   2.6484   2.6504   2.7316   2.8106
     2.8219   2.8902   2.9461   3.1132   3.1959   3.2114   3.3266   3.3865

          k = 0.0161-0.0569 0.0000 ( 28534 PWs)   bands (ev):

   -78.9115 -78.9047 -78.4748 -78.4733 -78.4684 -78.4669 -70.3897 -70.3859
   -69.9751 -69.9731 -69.9714 -69.9695 -41.8979 -41.7982 -41.7651 -41.7618
   -41.7085 -41.6953 -41.4255 -41.4252 -41.3708 -41.3623 -41.3330 -41.3278
   -41.3249 -41.3225 -41.2916 -41.2775 -41.2307 -41.2153 -40.6027 -40.5709
   -40.5627 -40.5186 -40.4990 -40.4932 -40.2256 -40.2157 -40.1840 -40.1759
   -40.1512 -40.1184 -40.0811 -40.0776 -40.0743 -40.0686 -40.0451 -40.0385
    -5.7881  -3.6803  -3.6533  -3.1317  -3.1249  -2.9977  -2.9377  -2.8806
    -2.8043  -2.4871  -1.9353  -1.5826  -1.4985  -1.4763  -1.3432  -1.2086
    -1.0719  -0.9838  -0.9584  -0.8653  -0.5838  -0.5218  -0.4550  -0.3769
    -0.3032  -0.2742   0.1505   0.3523   0.5951   0.8294   0.9591   1.0729
     1.1010   1.2387   1.5164   1.6753   1.9223   2.0391   2.2411   2.4690
     2.5388   2.6107   2.6288   2.6513   2.6758   2.7524   2.8919   2.8994
     2.9534   3.0686   3.0997   3.1231   3.3333   3.3977   3.4056   3.4386

          k = 0.0161-0.0398 0.0000 ( 28544 PWs)   bands (ev):

   -78.9129 -78.9033 -78.4761 -78.4746 -78.4672 -78.4656 -70.3905 -70.3850
   -69.9758 -69.9739 -69.9705 -69.9686 -41.9210 -41.8039 -41.7848 -41.7632
   -41.7147 -41.6973 -41.4338 -41.4295 -41.3712 -41.3539 -41.3492 -41.3415
   -41.3326 -41.3290 -41.3150 -41.2857 -41.2238 -41.2065 -40.5851 -40.5708
   -40.5465 -40.5016 -40.4969 -40.4922 -40.2338 -40.2197 -40.1786 -40.1669
   -40.1587 -40.1220 -40.0698 -40.0617 -40.0516 -40.0437 -40.0347 -40.0266
    -6.0957  -3.9370  -3.5177  -3.3695  -3.3267  -3.2265  -3.1257  -2.9726
    -2.9441  -2.7034  -2.0143  -1.8384  -1.6203  -1.4198  -1.3403  -1.1002
    -1.0893  -1.0846  -1.0050  -0.9862  -0.7265  -0.5643  -0.5271  -0.3245
    -0.1532   0.0944   0.2522   0.4559   0.9193   1.0199   1.1151   1.1610
     1.2805   1.7383   1.7945   1.9938   2.0424   2.1779   2.3769   2.5926
     2.6464   2.7012   2.7366   2.8157   2.8406   2.8738   2.9751   2.9910
     3.0154   3.0697   3.0783   3.2584   3.3658   3.5022   3.5444   3.6559

          k = 0.0161-0.0228 0.0000 ( 28591 PWs)   bands (ev):

   -78.9140 -78.9023 -78.4771 -78.4756 -78.4662 -78.4646 -70.3911 -70.3843
   -69.9764 -69.9745 -69.9698 -69.9679 -41.9384 -41.8162 -41.7985 -41.7553
   -41.7196 -41.6992 -41.4437 -41.4331 -41.3716 -41.3610 -41.3523 -41.3474
   -41.3443 -41.3297 -41.3272 -41.2903 -41.2184 -41.1981 -40.5827 -40.5671
   -40.5325 -40.4970 -40.4923 -40.4835 -40.2401 -40.2222 -40.1780 -40.1646
   -40.1609 -40.1295 -40.0612 -40.0533 -40.0377 -40.0266 -40.0212 -40.0087
    -6.3053  -4.1456  -3.5597  -3.5235  -3.4180  -3.3790  -3.2499  -3.0384
    -3.0104  -2.8597  -2.1337  -2.0180  -1.6876  -1.3835  -1.3644  -1.1961
    -1.1129  -1.1058  -1.0392  -0.9736  -0.8750  -0.5717  -0.4121  -0.2812
     0.0138   0.2871   0.4426   0.4918   1.0933   1.1513   1.2353   1.3761
     1.3990   1.7727   2.1726   2.3831   2.4008   2.4750   2.5114   2.5536
     2.6743   2.7176   2.7318   2.8511   2.9231   2.9427   3.0020   3.0208
     3.0567   3.2370   3.2878   3.3506   3.3939   3.5620   3.5621   3.6064

          k = 0.0322-0.0114 0.0000 ( 28561 PWs)   bands (ev):

   -78.9139 -78.9023 -78.4771 -78.4756 -78.4662 -78.4646 -70.3911 -70.3843
   -69.9765 -69.9745 -69.9698 -69.9679 -41.9335 -41.8099 -41.7910 -41.7523
   -41.7183 -41.6977 -41.4392 -41.4348 -41.3746 -41.3537 -41.3492 -41.3443
   -41.3428 -41.3293 -41.3176 -41.2867 -41.2171 -41.1965 -40.5930 -40.5683
   -40.5449 -40.4979 -40.4942 -40.4828 -40.2378 -40.2206 -40.1844 -40.1665
   -40.1622 -40.1364 -40.0645 -40.0574 -40.0475 -40.0391 -40.0188 -40.0063
    -6.2309  -4.0923  -3.5565  -3.4965  -3.3832  -3.3080  -3.2098  -2.9936
    -2.9653  -2.8371  -2.1296  -1.9706  -1.6680  -1.3688  -1.3087  -1.1949
    -1.1690  -1.0499  -1.0313  -0.9538  -0.8094  -0.5489  -0.3612  -0.2278
     0.0128   0.2921   0.4097   0.5443   1.0709   1.1188   1.2518   1.3258
     1.4029   1.7217   2.0863   2.1211   2.2475   2.3595   2.3819   2.4815
     2.6664   2.6737   2.7046   2.7066   2.9057   2.9296   2.9596   3.0396
     3.1313   3.1603   3.1785   3.3217   3.4286   3.4954   3.5402   3.7389

          k = 0.0322 0.0057 0.0000 ( 28589 PWs)   bands (ev):

   -78.9146 -78.9017 -78.4777 -78.4762 -78.4656 -78.4640 -70.3916 -70.3839
   -69.9769 -69.9750 -69.9694 -69.9675 -41.9364 -41.8053 -41.7891 -41.7450
   -41.7196 -41.6968 -41.4390 -41.4385 -41.3779 -41.3496 -41.3456 -41.3433
   -41.3404 -41.3286 -41.3163 -41.2843 -41.2125 -41.1889 -40.6014 -40.5739
   -40.5523 -40.4991 -40.4971 -40.4742 -40.2384 -40.2190 -40.1976 -40.1670
   -40.1600 -40.1501 -40.0667 -40.0605 -40.0490 -40.0430 -40.0119 -39.9960
    -6.2539  -4.1433  -3.5595  -3.5105  -3.4262  -3.3234  -3.2201  -2.9839
    -2.9242  -2.8947  -2.1541  -2.0141  -1.7335  -1.3447  -1.2762  -1.1944
    -1.1798  -1.0772  -0.9888  -0.8481  -0.8411  -0.5385  -0.2333  -0.1191
     0.1563   0.3846   0.5624   0.5836   0.9317   1.1467   1.4118   1.4868
     1.5709   1.6543   1.9499   2.0491   2.2203   2.2642   2.3640   2.5273
     2.5507   2.5940   2.6937   2.7972   2.8579   2.9361   2.9641   3.0233
     3.1133   3.1369   3.1794   3.3368   3.4405   3.6179   3.6517   3.7811

          k = 0.0322 0.0228 0.0000 ( 28581 PWs)   bands (ev):

   -78.9147 -78.9015 -78.4779 -78.4764 -78.4653 -78.4637 -70.3918 -70.3837
   -69.9772 -69.9752 -69.9693 -69.9674 -41.9302 -41.7921 -41.7788 -41.7411
   -41.7183 -41.6944 -41.4420 -41.4313 -41.3827 -41.3416 -41.3379 -41.3358
   -41.3326 -41.3283 -41.3090 -41.2788 -41.2098 -41.1846 -40.6102 -40.5858
   -40.5685 -40.5014 -40.5005 -40.4734 -40.2359 -40.2158 -40.2108 -40.1676
   -40.1623 -40.1604 -40.0750 -40.0688 -40.0583 -40.0547 -40.0124 -39.9951
    -6.1632  -4.0902  -3.5470  -3.3889  -3.3623  -3.3621  -3.1615  -2.9160
    -2.8774  -2.8477  -2.1110  -1.9672  -1.7701  -1.3121  -1.2989  -1.1616
    -1.0960  -1.0360  -0.9316  -0.7874  -0.7786  -0.5267  -0.1580  -0.0067
     0.2161   0.5106   0.5527   0.5905   0.8281   1.0986   1.4910   1.5042
     1.5615   1.5765   1.6833   1.8885   1.9124   2.2374   2.2749   2.4601
     2.4966   2.5161   2.5836   2.6823   2.7986   2.8243   2.8752   2.9439
     3.0115   3.2082   3.2261   3.2933   3.4203   3.6214   3.6382   3.7975

          k = 0.0322 0.0399 0.0000 ( 28555 PWs)   bands (ev):

   -78.9144 -78.9018 -78.4776 -78.4762 -78.4656 -78.4640 -70.3917 -70.3839
   -69.9771 -69.9752 -69.9694 -69.9675 -41.9171 -41.7769 -41.7615 -41.7379
   -41.7149 -41.6914 -41.4435 -41.4198 -41.3889 -41.3415 -41.3278 -41.3259
   -41.3219 -41.3194 -41.2930 -41.2714 -41.2088 -41.1841 -40.6235 -40.5954
   -40.5913 -40.5039 -40.5036 -40.4785 -40.2314 -40.2221 -40.2132 -40.1717
   -40.1693 -40.1638 -40.0854 -40.0785 -40.0769 -40.0714 -40.0171 -40.0012
    -5.9635  -3.9436  -3.4670  -3.4552  -3.2035  -3.1831  -3.0483  -2.7980
    -2.7893  -2.7430  -2.0598  -1.8337  -1.7410  -1.3140  -1.2479  -1.1059
    -1.0739  -0.9157  -0.9024  -0.7603  -0.6365  -0.4934  -0.1023   0.0342
     0.1866   0.4225   0.4428   0.7522   0.8322   0.9626   1.3860   1.4095
     1.4348   1.4758   1.4891   1.5695   1.6923   2.1567   2.1679   2.1843
     2.3316   2.3529   2.4802   2.5932   2.6158   2.7308   2.7537   2.9370
     2.9636   2.9708   3.1879   3.2433   3.3087   3.4502   3.5298   3.7827

          k = 0.0322 0.0570 0.0000 ( 28533 PWs)   bands (ev):

   -78.9137 -78.9025 -78.4770 -78.4756 -78.4662 -78.4646 -70.3914 -70.3844
   -69.9768 -69.9749 -69.9698 -69.9679 -41.8994 -41.7721 -41.7408 -41.7284
   -41.7100 -41.6887 -41.4432 -41.4088 -41.3951 -41.3441 -41.3251 -41.3166
   -41.3068 -41.3053 -41.2717 -41.2637 -41.2095 -41.1879 -40.6398 -40.6157
   -40.5979 -40.5059 -40.5057 -40.4876 -40.2296 -40.2255 -40.2144 -40.1746
   -40.1721 -40.1700 -40.1000 -40.0933 -40.0901 -40.0860 -40.0246 -40.0122
    -5.6655  -3.7250  -3.6442  -3.2960  -2.9614  -2.9453  -2.8996  -2.6498
    -2.6361  -2.6256  -2.0388  -1.6776  -1.6243  -1.3208  -1.1961  -1.1269
    -0.9562  -0.8748  -0.8629  -0.7988  -0.5150  -0.3446  -0.1237  -0.0411
     0.2274   0.2367   0.2868   0.7254   0.7432   1.0562   1.0781   1.2278
     1.2852   1.3006   1.3865   1.4358   1.4459   1.8259   2.0179   2.0597
     2.1344   2.1914   2.2382   2.3649   2.4186   2.5317   2.7137   2.7281
     2.9056   2.9301   3.0950   3.0965   3.1620   3.2476   3.4783   3.4878

          k = 0.0322 0.0740 0.0000 ( 28513 PWs)   bands (ev):

   -78.9126 -78.9035 -78.4760 -78.4745 -78.4671 -78.4656 -70.3909 -70.3850
   -69.9763 -69.9744 -69.9704 -69.9686 -41.8791 -41.7810 -41.7231 -41.7156
   -41.7046 -41.6874 -41.4408 -41.4060 -41.3959 -41.3484 -41.3186 -41.3078
   -41.2981 -41.2929 -41.2584 -41.2521 -41.2134 -41.1966 -40.6507 -40.6354
   -40.5951 -40.5066 -40.5064 -40.4995 -40.2300 -40.2188 -40.2172 -40.1786
   -40.1777 -40.1681 -40.1204 -40.1061 -40.0960 -40.0887 -40.0351 -40.0263
    -5.2861  -3.9206  -3.4700  -3.1020  -2.7840  -2.6741  -2.6510  -2.5144
    -2.4739  -2.4594  -2.0511  -1.6609  -1.3837  -1.3591  -1.1617  -1.1556
    -0.9251  -0.8763  -0.8744  -0.8150  -0.4555  -0.3055  -0.2006  -0.1018
     0.0706   0.2653   0.3393   0.4881   0.5825   0.6336   0.7540   1.0649
     1.1164   1.2393   1.3259   1.4460   1.5500   1.6073   1.6100   1.8894
     1.9401   2.0548   2.1625   2.1792   2.1872   2.4674   2.5358   2.6422
     2.8037   2.8864   2.9810   3.0414   3.1025   3.2042   3.3124   3.4818

          k = 0.0322-0.1138 0.0000 ( 28504 PWs)   bands (ev):

   -78.9112 -78.9049 -78.4747 -78.4732 -78.4684 -78.4669 -70.3901 -70.3858
   -69.9755 -69.9736 -69.9712 -69.9694 -41.8575 -41.7979 -41.7155 -41.7104
   -41.6999 -41.6882 -41.4366 -41.4082 -41.3931 -41.3531 -41.3092 -41.3005
   -41.2949 -41.2867 -41.2571 -41.2400 -41.2240 -41.2106 -40.6497 -40.6449
   -40.5880 -40.5140 -40.5064 -40.5040 -40.2216 -40.2143 -40.2117 -40.1876
   -40.1821 -40.1570 -40.1326 -40.1155 -40.0932 -40.0861 -40.0499 -40.0411
    -4.8506  -4.2858  -3.2285  -2.9446  -2.7341  -2.4703  -2.4236  -2.3679
    -2.2937  -2.2305  -2.1276  -1.6819  -1.4988  -1.2568  -1.1832  -1.0974
    -1.0141  -0.9359  -0.8363  -0.7727  -0.4639  -0.4293  -0.3400  -0.1598
    -0.0345   0.1313   0.2805   0.3333   0.3867   0.3875   0.5864   0.8571
     0.9883   1.0334   1.0950   1.1441   1.5369   1.7179   1.7865   1.8674
     1.9360   1.9917   2.0705   2.1501   2.2854   2.3590   2.6029   2.7419
     2.7658   2.8756   2.8964   2.9055   2.9939   3.2975   3.3336   3.4207

          k = 0.0322-0.0968 0.0000 ( 28479 PWs)   bands (ev):

   -78.9096 -78.9065 -78.4731 -78.4717 -78.4700 -78.4684 -70.3891 -70.3868
   -69.9746 -69.9727 -69.9722 -69.9703 -41.8358 -41.8202 -41.7220 -41.7168
   -41.6966 -41.6914 -41.4311 -41.4097 -41.3896 -41.3571 -41.3020 -41.2976
   -41.2963 -41.2876 -41.2586 -41.2420 -41.2351 -41.2305 -40.6419 -40.6348
   -40.5775 -40.5284 -40.5051 -40.5004 -40.2109 -40.2048 -40.2046 -40.1952
   -40.1765 -40.1404 -40.1341 -40.1164 -40.0865 -40.0790 -40.0681 -40.0554
    -4.7044  -4.3953  -3.0519  -2.9172  -2.8301  -2.4627  -2.4099  -2.3959
    -2.2250  -1.9701  -1.9163  -1.7085  -1.5866  -1.5178  -1.2761  -1.0790
    -0.9464  -0.8731  -0.7515  -0.6943  -0.5417  -0.4754  -0.4038  -0.3862
    -0.2987  -0.1100   0.0054   0.1463   0.2666   0.4564   0.5686   0.6321
     0.6926   0.7776   1.2070   1.4414   1.5598   1.6419   1.9155   1.9839
     2.1006   2.1488   2.2040   2.3189   2.4513   2.5784   2.6229   2.6554
     2.7701   2.7918   2.9729   3.0231   3.0356   3.3316   3.3746   3.4707

          k = 0.0322-0.0797 0.0000 ( 28510 PWs)   bands (ev):

   -78.9083 -78.9079 -78.4716 -78.4715 -78.4701 -78.4700 -70.3881 -70.3877
   -69.9735 -69.9731 -69.9716 -69.9712 -41.8463 -41.8147 -41.7406 -41.7329
   -41.6966 -41.6950 -41.4259 -41.4128 -41.3821 -41.3603 -41.3058 -41.3028
   -41.3016 -41.2954 -41.2620 -41.2556 -41.2547 -41.2322 -40.6282 -40.6087
   -40.5644 -40.5429 -40.5030 -40.4964 -40.2108 -40.2047 -40.1955 -40.1946
   -40.1464 -40.1284 -40.1170 -40.1094 -40.0854 -40.0774 -40.0694 -40.0688
    -5.1319  -3.9704  -3.0663  -3.0381  -2.9575  -2.6810  -2.5550  -2.5210
    -2.3838  -1.8907  -1.7350  -1.6657  -1.6378  -1.5439  -1.3054  -0.9526
    -0.9500  -0.9360  -0.9057  -0.6308  -0.6129  -0.5650  -0.5099  -0.4597
    -0.3193  -0.2215  -0.1488   0.0606   0.1566   0.2469   0.6134   0.7039
     0.8051   0.8617   1.3471   1.4522   1.6345   1.8281   2.1296   2.2255
     2.2764   2.2914   2.3927   2.4829   2.6170   2.6655   2.7326   2.7639
     2.7654   2.7694   3.0504   3.1242   3.2557   3.3527   3.4226   3.4710

          k = 0.0322-0.0626 0.0000 ( 28519 PWs)   bands (ev):

   -78.9100 -78.9062 -78.4732 -78.4717 -78.4699 -78.4684 -70.3888 -70.3869
   -69.9741 -69.9724 -69.9722 -69.9705 -41.8740 -41.7953 -41.7645 -41.7529
   -41.7029 -41.6950 -41.4236 -41.4178 -41.3721 -41.3635 -41.3207 -41.3152
   -41.3134 -41.3043 -41.2859 -41.2734 -41.2441 -41.2263 -40.6087 -40.5788
   -40.5565 -40.5482 -40.5007 -40.4933 -40.2187 -40.2108 -40.1877 -40.1837
   -40.1285 -40.1066 -40.1011 -40.0910 -40.0876 -40.0790 -40.0675 -40.0574
    -5.5268  -3.6350  -3.3798  -3.2174  -2.9428  -2.9416  -2.7686  -2.6886
    -2.6697  -2.2193  -1.7200  -1.5991  -1.5374  -1.4609  -1.2479  -1.2166
    -0.9672  -0.9226  -0.8534  -0.7590  -0.6962  -0.6217  -0.4907  -0.4841
    -0.4550  -0.3749   0.0566   0.2089   0.3082   0.4993   0.6402   0.7728
     1.1234   1.1507   1.1799   1.6295   1.7692   2.1739   2.2308   2.3268
     2.4466   2.4530   2.4959   2.6303   2.7019   2.7306   2.7558   2.7655
     2.8845   3.0425   3.2074   3.2146   3.2935   3.3244   3.3678   3.6157

          k = 0.0322-0.0455 0.0000 ( 28523 PWs)   bands (ev):

   -78.9116 -78.9046 -78.4748 -78.4733 -78.4684 -78.4669 -70.3897 -70.3859
   -69.9750 -69.9731 -69.9714 -69.9695 -41.9002 -41.7885 -41.7769 -41.7714
   -41.7093 -41.6960 -41.4268 -41.4236 -41.3673 -41.3621 -41.3372 -41.3302
   -41.3248 -41.3139 -41.3089 -41.2814 -41.2329 -41.2172 -40.5903 -40.5681
   -40.5568 -40.5257 -40.4987 -40.4918 -40.2270 -40.2162 -40.1817 -40.1741
   -40.1427 -40.1080 -40.0810 -40.0720 -40.0687 -40.0582 -40.0566 -40.0459
    -5.8559  -3.6894  -3.4440  -3.3735  -3.1816  -2.9753  -2.9725  -2.9568
    -2.8388  -2.4958  -1.8366  -1.6292  -1.5934  -1.5148  -1.2596  -1.2216
    -1.0347  -0.9696  -0.9569  -0.8337  -0.6958  -0.5861  -0.5606  -0.4096
    -0.3159  -0.2986   0.2349   0.2831   0.6300   0.7485   0.9363   1.0759
     1.1540   1.3256   1.5661   1.7055   1.9391   2.0804   2.4294   2.5646
     2.6073   2.6435   2.6766   2.6852   2.7354   2.7692   2.8340   2.9030
     2.9539   3.0468   3.1126   3.1929   3.2633   3.4311   3.6557   3.7226

          k = 0.0322-0.0284 0.0000 ( 28544 PWs)   bands (ev):

   -78.9129 -78.9033 -78.4761 -78.4746 -78.4672 -78.4656 -70.3905 -70.3850
   -69.9758 -69.9739 -69.9705 -69.9686 -41.9210 -41.8039 -41.7848 -41.7632
   -41.7147 -41.6973 -41.4338 -41.4295 -41.3712 -41.3539 -41.3492 -41.3415
   -41.3326 -41.3290 -41.3150 -41.2857 -41.2238 -41.2065 -40.5851 -40.5708
   -40.5465 -40.5016 -40.4969 -40.4922 -40.2338 -40.2197 -40.1786 -40.1669
   -40.1587 -40.1220 -40.0698 -40.0617 -40.0516 -40.0437 -40.0347 -40.0266
    -6.0957  -3.9370  -3.5177  -3.3695  -3.3267  -3.2265  -3.1257  -2.9726
    -2.9441  -2.7034  -2.0143  -1.8384  -1.6203  -1.4198  -1.3403  -1.1002
    -1.0893  -1.0846  -1.0050  -0.9862  -0.7265  -0.5643  -0.5271  -0.3245
    -0.1532   0.0944   0.2522   0.4559   0.9193   1.0199   1.1151   1.1610
     1.2805   1.7383   1.7945   1.9938   2.0424   2.1779   2.3769   2.5926
     2.6464   2.7012   2.7366   2.8157   2.8406   2.8738   2.9751   2.9911
     3.0154   3.0697   3.0783   3.2584   3.3658   3.5022   3.5444   3.6558

          k = 0.0483-0.0170 0.0000 ( 28551 PWs)   bands (ev):

   -78.9129 -78.9034 -78.4761 -78.4746 -78.4671 -78.4656 -70.3906 -70.3850
   -69.9759 -69.9740 -69.9705 -69.9686 -41.9136 -41.8003 -41.7713 -41.7520
   -41.7127 -41.6951 -41.4327 -41.4277 -41.3773 -41.3540 -41.3376 -41.3334
   -41.3325 -41.3274 -41.2953 -41.2789 -41.2207 -41.2035 -40.6070 -40.5692
   -40.5675 -40.5000 -40.4959 -40.4954 -40.2302 -40.2179 -40.1873 -40.1698
   -40.1670 -40.1362 -40.0718 -40.0705 -40.0652 -40.0651 -40.0285 -40.0198
    -5.9532  -3.8450  -3.6764  -3.2418  -3.1651  -3.1276  -3.0710  -2.8831
    -2.8625  -2.6697  -2.0661  -1.7461  -1.5364  -1.3708  -1.3311  -1.1768
    -1.0628  -1.0491  -1.0242  -0.9549  -0.6206  -0.4756  -0.3637  -0.2559
    -0.1300   0.0663   0.2024   0.5483   0.9453   0.9843   1.1439   1.1678
     1.1683   1.5502   1.6685   1.8151   1.8527   2.1170   2.1171   2.4553
     2.5587   2.5765   2.6047   2.6671   2.7470   2.7546   2.8527   2.9570
     3.0483   3.0537   3.0921   3.2830   3.3146   3.3856   3.4525   3.5727

          k = 0.0483 0.0000 0.0000 ( 28558 PWs)   bands (ev):

   -78.9138 -78.9024 -78.4770 -78.4756 -78.4662 -78.4646 -70.3913 -70.3843
   -69.9766 -69.9747 -69.9698 -69.9679 -41.9198 -41.7931 -41.7703 -41.7434
   -41.7149 -41.6938 -41.4387 -41.4265 -41.3828 -41.3469 -41.3340 -41.3336
   -41.3293 -41.3277 -41.2963 -41.2769 -41.2136 -41.1926 -40.6150 -40.5781
   -40.5759 -40.5009 -40.4991 -40.4838 -40.2321 -40.2171 -40.2032 -40.1698
   -40.1656 -40.1540 -40.0749 -40.0693 -40.0688 -40.0646 -40.0195 -40.0070
    -6.0126  -3.9421  -3.6027  -3.3574  -3.2529  -3.1538  -3.0902  -2.8593
    -2.8338  -2.7699  -2.1008  -1.8332  -1.6510  -1.3090  -1.2658  -1.1718
    -1.0894  -1.0480  -0.9550  -0.8955  -0.6562  -0.4794  -0.2171  -0.1181
     0.0475   0.2950   0.3217   0.6878   0.9854   1.0153   1.2355   1.3213
     1.3362   1.5995   1.6831   1.7040   1.8930   2.1116   2.1814   2.3055
     2.4678   2.4688   2.5803   2.5816   2.7464   2.7705   2.8061   2.9206
     3.0816   3.1368   3.1438   3.2087   3.3627   3.3648   3.5967   3.6956

          k = 0.0483 0.0171 0.0000 ( 28555 PWs)   bands (ev):

   -78.9144 -78.9018 -78.4776 -78.4762 -78.4656 -78.4640 -70.3917 -70.3839
   -69.9771 -69.9752 -69.9694 -69.9675 -41.9171 -41.7769 -41.7615 -41.7379
   -41.7149 -41.6914 -41.4435 -41.4198 -41.3889 -41.3415 -41.3278 -41.3259
   -41.3219 -41.3194 -41.2930 -41.2714 -41.2088 -41.1841 -40.6235 -40.5954
   -40.5913 -40.5039 -40.5036 -40.4785 -40.2314 -40.2221 -40.2132 -40.1717
   -40.1693 -40.1638 -40.0854 -40.0785 -40.0769 -40.0714 -40.0171 -40.0012
    -5.9635  -3.9436  -3.4670  -3.4552  -3.2035  -3.1831  -3.0483  -2.7980
    -2.7893  -2.7430  -2.0598  -1.8337  -1.7410  -1.3140  -1.2479  -1.1059
    -1.0739  -0.9157  -0.9024  -0.7603  -0.6365  -0.4934  -0.1023   0.0342
     0.1866   0.4225   0.4428   0.7522   0.8322   0.9626   1.3860   1.4095
     1.4348   1.4758   1.4891   1.5695   1.6923   2.1567   2.1679   2.1843
     2.3316   2.3529   2.4802   2.5932   2.6158   2.7308   2.7537   2.9370
     2.9636   2.9708   3.1879   3.2433   3.3087   3.4502   3.5298   3.7827

          k = 0.0483 0.0342 0.0000 ( 28535 PWs)   bands (ev):

   -78.9145 -78.9016 -78.4778 -78.4764 -78.4653 -78.4637 -70.3920 -70.3838
   -69.9774 -69.9754 -69.9693 -69.9674 -41.9076 -41.7561 -41.7458 -41.7350
   -41.7129 -41.6883 -41.4467 -41.4089 -41.3965 -41.3388 -41.3276 -41.3139
   -41.3058 -41.3049 -41.2830 -41.2636 -41.2058 -41.1790 -40.6332 -40.6139
   -40.6133 -40.5078 -40.5076 -40.4789 -40.2388 -40.2288 -40.2084 -40.1875
   -40.1699 -40.1645 -40.0989 -40.0943 -40.0895 -40.0836 -40.0191 -40.0017
    -5.8087  -3.8573  -3.4838  -3.3640  -3.1502  -3.0716  -2.9526  -2.7411
    -2.6765  -2.6190  -1.9940  -1.7792  -1.7500  -1.3226  -1.1860  -1.0948
    -1.0023  -0.8485  -0.7132  -0.6641  -0.5377  -0.5079  -0.0125   0.1550
     0.2010   0.4153   0.4730   0.7906   0.8493   0.8742   1.1929   1.3402
     1.3523   1.3703   1.3725   1.4523   1.5423   2.0186   2.0501   2.0889
     2.1501   2.2423   2.4226   2.4379   2.5612   2.6206   2.6848   2.7256
     2.8022   2.9357   3.1899   3.2007   3.3221   3.4668   3.4767   3.5711

          k = 0.0483 0.0513 0.0000 ( 28529 PWs)   bands (ev):

   -78.9143 -78.9019 -78.4776 -78.4762 -78.4655 -78.4639 -70.3920 -70.3840
   -69.9774 -69.9754 -69.9694 -69.9675 -41.8937 -41.7470 -41.7264 -41.7247
   -41.7093 -41.6855 -41.4481 -41.4050 -41.3969 -41.3387 -41.3262 -41.3033
   -41.2912 -41.2885 -41.2666 -41.2558 -41.2048 -41.1787 -40.6481 -40.6367
   -40.6230 -40.5112 -40.5106 -40.4839 -40.2510 -40.2248 -40.2111 -40.1924
   -40.1718 -40.1678 -40.1151 -40.1102 -40.0990 -40.0988 -40.0240 -40.0079
    -5.5559  -3.6989  -3.4608  -3.4503  -2.9388  -2.8669  -2.8218  -2.6248
    -2.5161  -2.4795  -1.9676  -1.7558  -1.5946  -1.3213  -1.1204  -1.0914
    -0.8887  -0.8317  -0.6318  -0.5733  -0.5120  -0.3515  -0.0129   0.0672
     0.2863   0.2928   0.3727   0.7258   0.7730   1.0864   1.0994   1.1243
     1.1590   1.1997   1.2596   1.3019   1.5366   1.7908   1.8779   1.9257
     1.9406   2.0843   2.1658   2.3209   2.3829   2.4019   2.6265   2.6873
     2.7427   2.8541   2.9250   3.1161   3.1894   3.3478   3.4838   3.5042

          k = 0.0483 0.0683 0.0000 ( 28490 PWs)   bands (ev):

   -78.9135 -78.9025 -78.4769 -78.4755 -78.4661 -78.4645 -70.3916 -70.3844
   -69.9771 -69.9751 -69.9698 -69.9679 -41.8771 -41.7546 -41.7094 -41.7084
   -41.7049 -41.6838 -41.4472 -41.4121 -41.3886 -41.3406 -41.3211 -41.2939
   -41.2813 -41.2752 -41.2514 -41.2506 -41.2070 -41.1846 -40.6601 -40.6551
   -40.6236 -40.5125 -40.5119 -40.4927 -40.2548 -40.2200 -40.2199 -40.1846
   -40.1750 -40.1735 -40.1327 -40.1161 -40.1126 -40.1037 -40.0317 -40.0190
    -5.2183  -3.6808  -3.4944  -3.3765  -2.6965  -2.6636  -2.5988  -2.4532
    -2.3510  -2.3402  -1.9750  -1.7414  -1.3949  -1.3720  -1.0992  -1.0513
    -0.8454  -0.7743  -0.6651  -0.6153  -0.5040  -0.2007  -0.1219  -0.0413
     0.1874   0.2672   0.3372   0.5943   0.6961   0.7323   0.8240   0.9908
     1.1486   1.2346   1.2564   1.3244   1.4561   1.5419   1.6929   1.7835
     1.8093   1.8708   1.9230   2.0771   2.2270   2.3140   2.4709   2.5172
     2.7635   2.8901   2.9015   2.9166   3.1323   3.1575   3.4299   3.4760

          k = 0.0483-0.1195 0.0000 ( 28466 PWs)   bands (ev):

   -78.9124 -78.9036 -78.4759 -78.4745 -78.4671 -78.4655 -70.3910 -70.3850
   -69.9765 -69.9745 -69.9704 -69.9686 -41.8590 -41.7694 -41.7021 -41.7018
   -41.7001 -41.6841 -41.4437 -41.4153 -41.3859 -41.3439 -41.3110 -41.2853
   -41.2767 -41.2676 -41.2528 -41.2425 -41.2156 -41.1984 -40.6632 -40.6604
   -40.6191 -40.5115 -40.5108 -40.5042 -40.2465 -40.2220 -40.2141 -40.1808
   -40.1804 -40.1720 -40.1416 -40.1201 -40.1158 -40.1030 -40.0430 -40.0338
    -4.8153  -3.9977  -3.3199  -3.2625  -2.5772  -2.4350  -2.2821  -2.2630
    -2.2306  -2.2031  -2.0299  -1.7641  -1.5093  -1.1995  -1.1006  -1.0227
    -0.8295  -0.8205  -0.7656  -0.7193  -0.5475  -0.3029  -0.2162  -0.0260
     0.0641   0.0772   0.3546   0.4434   0.4936   0.4966   0.5727   0.8288
     0.9751   0.9893   1.1546   1.2391   1.4091   1.4603   1.6973   1.7575
     1.7673   1.7779   2.0435   2.1623   2.2030   2.2329   2.4340   2.5553
     2.7959   2.8711   2.9223   2.9551   3.0337   3.0514   3.4407   3.4627

          k = 0.0483-0.1024 0.0000 ( 28484 PWs)   bands (ev):

   -78.9111 -78.9050 -78.4746 -78.4732 -78.4685 -78.4668 -70.3902 -70.3858
   -69.9756 -69.9737 -69.9712 -69.9693 -41.8403 -41.7901 -41.7086 -41.7056
   -41.6976 -41.6865 -41.4383 -41.4129 -41.3875 -41.3478 -41.2977 -41.2798
   -41.2766 -41.2661 -41.2617 -41.2424 -41.2333 -41.2197 -40.6589 -40.6463
   -40.6105 -40.5180 -40.5096 -40.5060 -40.2266 -40.2148 -40.2078 -40.1877
   -40.1852 -40.1565 -40.1394 -40.1194 -40.1103 -40.0969 -40.0594 -40.0496
    -4.3824  -4.3766  -3.2878  -3.0870  -2.5815  -2.3125  -2.2412  -2.2022
    -2.1373  -1.9855  -1.8941  -1.7935  -1.6625  -1.1676  -1.1667  -1.0699
    -0.9291  -0.8233  -0.7661  -0.7530  -0.6430  -0.3484  -0.2812  -0.2655
    -0.1491  -0.0924   0.0884   0.1977   0.3698   0.4445   0.5101   0.5454
     0.6231   0.8163   1.1138   1.3574   1.4104   1.6672   1.7223   1.8529
     1.8761   1.9311   2.0327   2.3459   2.3746   2.4944   2.5276   2.7966
     2.8208   2.8809   2.9025   2.9173   2.9789   3.2529   3.3790   3.5506

          k = 0.0483-0.0854 0.0000 ( 28484 PWs)   bands (ev):

   -78.9095 -78.9066 -78.4731 -78.4717 -78.4700 -78.4684 -70.3892 -70.3868
   -69.9746 -69.9727 -69.9721 -69.9702 -41.8220 -41.8161 -41.7267 -41.7193
   -41.6956 -41.6909 -41.4317 -41.4090 -41.3883 -41.3520 -41.2892 -41.2837
   -41.2799 -41.2718 -41.2705 -41.2559 -41.2460 -41.2422 -40.6442 -40.6201
   -40.5988 -40.5320 -40.5068 -40.5005 -40.2094 -40.2030 -40.2020 -40.1943
   -40.1768 -40.1348 -40.1272 -40.1105 -40.1008 -40.0866 -40.0806 -40.0653
    -4.7929  -3.9517  -3.3235  -2.9752  -2.7598  -2.4677  -2.3478  -2.3440
    -2.2100  -1.7852  -1.6996  -1.6862  -1.5072  -1.4920  -1.3494  -1.1235
    -0.8500  -0.7823  -0.7650  -0.6624  -0.6217  -0.5235  -0.4820  -0.4656
    -0.3840  -0.2504  -0.1411   0.0871   0.1624   0.3588   0.4738   0.4974
     0.6673   0.6940   1.3313   1.4498   1.4722   1.6544   1.9173   2.0159
     2.0868   2.1431   2.3026   2.4731   2.6078   2.6251   2.6763   2.7326
     2.7632   2.8298   2.9957   3.0846   3.2941   3.4205   3.5095   3.5569

          k = 0.0483-0.0683 0.0000 ( 28517 PWs)   bands (ev):

   -78.9083 -78.9079 -78.4716 -78.4715 -78.4701 -78.4700 -70.3881 -70.3877
   -69.9735 -69.9731 -69.9717 -69.9712 -41.8453 -41.8055 -41.7490 -41.7367
   -41.6967 -41.6949 -41.4261 -41.4111 -41.3821 -41.3570 -41.3033 -41.2983
   -41.2933 -41.2855 -41.2730 -41.2673 -41.2594 -41.2359 -40.6249 -40.5923
   -40.5804 -40.5455 -40.5035 -40.4959 -40.2112 -40.2045 -40.1933 -40.1930
   -40.1425 -40.1098 -40.1087 -40.1039 -40.0968 -40.0876 -40.0809 -40.0732
    -5.1863  -3.6541  -3.3447  -3.0587  -2.9345  -2.7117  -2.5641  -2.5244
    -2.4066  -1.8746  -1.7049  -1.5780  -1.5549  -1.4816  -1.2229  -1.0568
    -0.9876  -0.8734  -0.8427  -0.7571  -0.6660  -0.6185  -0.5876  -0.5510
    -0.3231  -0.2094  -0.1253  -0.0589   0.1852   0.2302   0.5066   0.6605
     0.7867   0.9441   1.2680   1.5517   1.5604   1.9481   2.1772   2.2271
     2.2868   2.3574   2.3909   2.4883   2.5946   2.6772   2.7293   2.7581
     2.7969   3.0836   3.1377   3.1868   3.2099   3.3861   3.4443   3.6572

          k = 0.0483-0.0512 0.0000 ( 28519 PWs)   bands (ev):

   -78.9100 -78.9062 -78.4732 -78.4717 -78.4699 -78.4684 -70.3888 -70.3869
   -69.9741 -69.9724 -69.9722 -69.9705 -41.8740 -41.7953 -41.7645 -41.7529
   -41.7029 -41.6950 -41.4236 -41.4178 -41.3721 -41.3635 -41.3207 -41.3152
   -41.3134 -41.3043 -41.2859 -41.2734 -41.2441 -41.2263 -40.6087 -40.5788
   -40.5564 -40.5482 -40.5007 -40.4933 -40.2187 -40.2108 -40.1877 -40.1837
   -40.1285 -40.1066 -40.1011 -40.0910 -40.0876 -40.0789 -40.0675 -40.0574
    -5.5268  -3.6350  -3.3798  -3.2174  -2.9428  -2.9416  -2.7686  -2.6886
    -2.6697  -2.2193  -1.7200  -1.5991  -1.5374  -1.4609  -1.2479  -1.2166
    -0.9672  -0.9226  -0.8534  -0.7590  -0.6962  -0.6217  -0.4907  -0.4841
    -0.4550  -0.3749   0.0566   0.2089   0.3082   0.4993   0.6402   0.7728
     1.1234   1.1507   1.1799   1.6295   1.7692   2.1739   2.2308   2.3268
     2.4466   2.4530   2.4959   2.6303   2.7019   2.7306   2.7558   2.7655
     2.8845   3.0426   3.2074   3.2146   3.2935   3.3243   3.3678   3.6154

          k = 0.0483-0.0341 0.0000 ( 28534 PWs)   bands (ev):

   -78.9115 -78.9047 -78.4748 -78.4733 -78.4684 -78.4669 -70.3897 -70.3859
   -69.9751 -69.9731 -69.9714 -69.9695 -41.8979 -41.7983 -41.7651 -41.7618
   -41.7085 -41.6953 -41.4255 -41.4252 -41.3708 -41.3623 -41.3330 -41.3278
   -41.3248 -41.3225 -41.2916 -41.2775 -41.2307 -41.2153 -40.6028 -40.5709
   -40.5627 -40.5186 -40.4990 -40.4932 -40.2256 -40.2157 -40.1840 -40.1759
   -40.1512 -40.1184 -40.0811 -40.0776 -40.0744 -40.0686 -40.0451 -40.0384
    -5.7881  -3.6803  -3.6533  -3.1317  -3.1249  -2.9977  -2.9377  -2.8806
    -2.8043  -2.4871  -1.9353  -1.5826  -1.4985  -1.4763  -1.3432  -1.2086
    -1.0719  -0.9838  -0.9584  -0.8653  -0.5838  -0.5218  -0.4550  -0.3769
    -0.3032  -0.2742   0.1505   0.3523   0.5951   0.8294   0.9591   1.0729
     1.1010   1.2387   1.5164   1.6753   1.9223   2.0391   2.2411   2.4690
     2.5388   2.6107   2.6288   2.6513   2.6758   2.7524   2.8919   2.8994
     2.9534   3.0686   3.0997   3.1231   3.3333   3.3977   3.4056   3.4386

          k = 0.0644-0.0227 0.0000 ( 28532 PWs)   bands (ev):

   -78.9115 -78.9047 -78.4747 -78.4733 -78.4684 -78.4669 -70.3898 -70.3858
   -69.9752 -69.9733 -69.9713 -69.9695 -41.8901 -41.8049 -41.7490 -41.7406
   -41.7062 -41.6933 -41.4296 -41.4202 -41.3791 -41.3617 -41.3253 -41.3220
   -41.3214 -41.3209 -41.2704 -41.2672 -41.2258 -41.2110 -40.6235 -40.5968
   -40.5613 -40.5117 -40.4999 -40.4969 -40.2217 -40.2149 -40.1924 -40.1803
   -40.1665 -40.1370 -40.1009 -40.0925 -40.0747 -40.0677 -40.0391 -40.0328
    -5.5885  -3.9243  -3.5501  -2.9712  -2.9595  -2.8737  -2.8363  -2.7564
    -2.7040  -2.4696  -2.0482  -1.4908  -1.4482  -1.3825  -1.3817  -1.1916
    -1.1678  -1.0303  -0.9291  -0.8518  -0.4707  -0.3907  -0.3838  -0.2644
    -0.1628  -0.0647   0.0526   0.4002   0.5219   0.8890   0.9665   0.9848
     1.0184   1.2237   1.3012   1.5713   1.8562   1.9702   1.9969   2.0669
     2.2954   2.4887   2.5396   2.5445   2.6445   2.6747   2.7534   2.8302
     2.9458   2.9854   3.0101   3.0308   3.0433   3.2580   3.2620   3.4594

          k = 0.0644-0.0057 0.0000 ( 28548 PWs)   bands (ev):

   -78.9127 -78.9034 -78.4760 -78.4746 -78.4671 -78.4656 -70.3907 -70.3850
   -69.9761 -69.9742 -69.9705 -69.9686 -41.8989 -41.7924 -41.7485 -41.7342
   -41.7090 -41.6914 -41.4369 -41.4164 -41.3872 -41.3521 -41.3256 -41.3235
   -41.3180 -41.3171 -41.2721 -41.2680 -41.2162 -41.1992 -40.6310 -40.6017
   -40.5763 -40.5024 -40.5007 -40.4960 -40.2246 -40.2167 -40.2066 -40.1744
   -40.1734 -40.1551 -40.0946 -40.0877 -40.0798 -40.0748 -40.0291 -40.0204
    -5.6770  -3.8120  -3.6777  -3.0868  -2.9933  -2.9641  -2.9007  -2.7248
    -2.7021  -2.6009  -2.0780  -1.5739  -1.5738  -1.2945  -1.2703  -1.2113
    -1.0404  -0.9770  -0.9694  -0.8923  -0.5059  -0.3088  -0.2621  -0.1805
     0.0371   0.1010   0.1500   0.5947   0.8269   0.8733   1.1307   1.1519
     1.2195   1.2389   1.3764   1.5391   1.6520   1.8456   2.0318   2.1049
     2.3219   2.3316   2.3501   2.3925   2.5286   2.7112   2.7194   2.8274
     2.8603   3.0194   3.0607   3.1143   3.1260   3.3538   3.3731   3.3770

          k = 0.0644 0.0114 0.0000 ( 28533 PWs)   bands (ev):

   -78.9137 -78.9025 -78.4770 -78.4756 -78.4662 -78.4646 -70.3914 -70.3844
   -69.9768 -69.9749 -69.9698 -69.9679 -41.8994 -41.7721 -41.7408 -41.7283
   -41.7100 -41.6887 -41.4432 -41.4088 -41.3951 -41.3441 -41.3251 -41.3166
   -41.3068 -41.3053 -41.2717 -41.2637 -41.2095 -41.1879 -40.6398 -40.6157
   -40.5979 -40.5059 -40.5057 -40.4876 -40.2296 -40.2255 -40.2144 -40.1746
   -40.1721 -40.1700 -40.1000 -40.0933 -40.0901 -40.0860 -40.0246 -40.0122
    -5.6655  -3.7250  -3.6442  -3.2960  -2.9614  -2.9453  -2.8996  -2.6498
    -2.6361  -2.6256  -2.0388  -1.6776  -1.6243  -1.3208  -1.1961  -1.1269
    -0.9562  -0.8748  -0.8629  -0.7988  -0.5150  -0.3446  -0.1237  -0.0411
     0.2274   0.2367   0.2868   0.7254   0.7432   1.0562   1.0781   1.2278
     1.2852   1.3006   1.3865   1.4358   1.4459   1.8259   2.0179   2.0597
     2.1344   2.1914   2.2382   2.3649   2.4186   2.5317   2.7137   2.7281
     2.9056   2.9301   3.0950   3.0965   3.1620   3.2476   3.4786   3.4878

          k = 0.0644 0.0285 0.0000 ( 28529 PWs)   bands (ev):

   -78.9143 -78.9019 -78.4776 -78.4762 -78.4655 -78.4639 -70.3920 -70.3840
   -69.9774 -69.9754 -69.9694 -69.9675 -41.8937 -41.7470 -41.7264 -41.7247
   -41.7093 -41.6855 -41.4481 -41.4050 -41.3969 -41.3387 -41.3262 -41.3033
   -41.2912 -41.2885 -41.2666 -41.2558 -41.2048 -41.1787 -40.6481 -40.6367
   -40.6230 -40.5112 -40.5106 -40.4839 -40.2510 -40.2248 -40.2111 -40.1924
   -40.1718 -40.1678 -40.1151 -40.1102 -40.0990 -40.0988 -40.0240 -40.0079
    -5.5559  -3.6989  -3.4608  -3.4503  -2.9388  -2.8669  -2.8218  -2.6248
    -2.5161  -2.4795  -1.9676  -1.7558  -1.5946  -1.3213  -1.1204  -1.0914
    -0.8887  -0.8317  -0.6318  -0.5733  -0.5120  -0.3515  -0.0129   0.0672
     0.2863   0.2928   0.3727   0.7258   0.7730   1.0864   1.0994   1.1243
     1.1590   1.1997   1.2596   1.3019   1.5366   1.7908   1.8779   1.9257
     1.9406   2.0843   2.1658   2.3209   2.3829   2.4020   2.6265   2.6873
     2.7427   2.8541   2.9250   3.1161   3.1894   3.3478   3.5042   3.5318

          k = 0.0644 0.0456 0.0000 ( 28513 PWs)   bands (ev):

   -78.9144 -78.9017 -78.4778 -78.4764 -78.4653 -78.4637 -70.3922 -70.3839
   -69.9776 -69.9757 -69.9693 -69.9674 -41.8841 -41.7288 -41.7177 -41.7081
   -41.7072 -41.6826 -41.4512 -41.4143 -41.3855 -41.3360 -41.3266 -41.2909
   -41.2758 -41.2712 -41.2557 -41.2473 -41.2018 -41.1734 -40.6593 -40.6569
   -40.6436 -40.5163 -40.5144 -40.4844 -40.2681 -40.2229 -40.2136 -40.2014
   -40.1719 -40.1680 -40.1339 -40.1248 -40.1116 -40.1101 -40.0258 -40.0084
    -5.3547  -3.6150  -3.5443  -3.3722  -2.8486  -2.7189  -2.7128  -2.5381
    -2.3520  -2.3091  -1.9274  -1.7838  -1.4988  -1.2972  -1.0579  -1.0473
    -0.8329  -0.7767  -0.5231  -0.5107  -0.2792  -0.2591  -0.0553   0.1695
     0.2332   0.2420   0.2943   0.7302   0.9515   0.9552   0.9598   0.9950
     1.0920   1.1840   1.1929   1.2422   1.5564   1.6368   1.6614   1.7146
     1.7427   1.9799   2.0842   2.1751   2.3482   2.3927   2.4628   2.5711
     2.6718   2.6920   2.9271   3.0814   3.0972   3.1725   3.2110   3.3122

          k = 0.0644 0.0627 0.0000 ( 28495 PWs)   bands (ev):

   -78.9141 -78.9019 -78.4775 -78.4761 -78.4655 -78.4639 -70.3921 -70.3840
   -69.9776 -69.9756 -69.9694 -69.9676 -41.8723 -41.7327 -41.7044 -41.6995
   -41.6918 -41.6807 -41.4520 -41.4226 -41.3770 -41.3357 -41.3242 -41.2813
   -41.2647 -41.2576 -41.2439 -41.2418 -41.2019 -41.1745 -40.6771 -40.6681
   -40.6501 -40.5193 -40.5164 -40.4889 -40.2768 -40.2252 -40.2199 -40.1948
   -40.1734 -40.1704 -40.1498 -40.1335 -40.1232 -40.1170 -40.0302 -40.0141
    -5.0724  -3.6128  -3.4691  -3.4652  -2.6388  -2.5918  -2.5234  -2.4005
    -2.1691  -2.1446  -1.9339  -1.7910  -1.3719  -1.3144  -1.0374  -0.9828
    -0.8856  -0.6662  -0.5216  -0.4686  -0.2355  -0.1985  -0.0923   0.0864
     0.1529   0.2482   0.3148   0.6965   0.7037   0.8477   0.8828   0.8914
     1.1116   1.1214   1.1693   1.2968   1.4396   1.5078   1.5344   1.5793
     1.6445   1.7636   1.9757   1.9937   2.1683   2.2851   2.4137   2.4678
     2.5810   2.6293   2.8852   2.9281   3.0075   3.0700   3.1426   3.1983

          k = 0.0644-0.1252 0.0000 ( 28485 PWs)   bands (ev):

   -78.9134 -78.9026 -78.4769 -78.4755 -78.4662 -78.4645 -70.3918 -70.3844
   -69.9772 -69.9753 -69.9698 -69.9679 -41.8593 -41.7439 -41.7013 -41.6906
   -41.6846 -41.6804 -41.4499 -41.4264 -41.3747 -41.3375 -41.3166 -41.2725
   -41.2593 -41.2499 -41.2428 -41.2394 -41.2079 -41.1846 -40.6844 -40.6701
   -40.6484 -40.5184 -40.5163 -40.4968 -40.2728 -40.2294 -40.2160 -40.1856
   -40.1763 -40.1746 -40.1572 -40.1353 -40.1294 -40.1180 -40.0376 -40.0246
    -4.7257  -3.7072  -3.6407  -3.3044  -2.4827  -2.3950  -2.2886  -2.2207
    -2.0295  -2.0184  -1.9464  -1.8472  -1.4624  -1.2605  -1.0470  -0.9385
    -0.8747  -0.6579  -0.5634  -0.5147  -0.4667  -0.2572  -0.0527  -0.0408
     0.0951   0.1884   0.4120   0.4302   0.5381   0.7103   0.7800   0.8386
     0.9034   1.0076   1.1070   1.2155   1.2882   1.3439   1.4823   1.5713
     1.6293   1.7347   1.9939   2.1233   2.1647   2.2575   2.3045   2.4197
     2.6692   2.7152   2.8355   2.8408   2.9331   3.1081   3.1783   3.2255

          k = 0.0644-0.1081 0.0000 ( 28470 PWs)   bands (ev):

   -78.9124 -78.9037 -78.4759 -78.4745 -78.4672 -78.4655 -70.3911 -70.3850
   -69.9766 -69.9746 -69.9704 -69.9685 -41.8459 -41.7618 -41.6987 -41.6935
   -41.6905 -41.6823 -41.4453 -41.4235 -41.3781 -41.3409 -41.3042 -41.2636
   -41.2589 -41.2521 -41.2480 -41.2456 -41.2226 -41.2040 -40.6791 -40.6575
   -40.6418 -40.5143 -40.5138 -40.5073 -40.2550 -40.2245 -40.2113 -40.1822
   -40.1803 -40.1718 -40.1537 -40.1302 -40.1282 -40.1126 -40.0484 -40.0389
    -4.3462  -4.0379  -3.6530  -3.1491  -2.4255  -2.2005  -2.0515  -2.0316
    -2.0070  -1.9926  -1.9806  -1.8951  -1.6803  -1.1464  -1.0927  -0.8961
    -0.8574  -0.7837  -0.7837  -0.6611  -0.5379  -0.3025  -0.1402  -0.1331
[...]
     1.8093   1.8708   1.9230   2.0771   2.2271   2.3140   2.4709   2.5172
     2.7635   2.8901   2.9015   2.9166   3.1323   3.1575   3.4299   3.4756

          k = 0.0805 0.0399 0.0000 ( 28495 PWs)   bands (ev):

   -78.9141 -78.9019 -78.4775 -78.4761 -78.4655 -78.4639 -70.3921 -70.3840
   -69.9776 -69.9756 -69.9694 -69.9676 -41.8723 -41.7327 -41.7044 -41.6995
   -41.6918 -41.6807 -41.4520 -41.4226 -41.3770 -41.3357 -41.3242 -41.2813
   -41.2647 -41.2576 -41.2439 -41.2418 -41.2019 -41.1745 -40.6771 -40.6681
   -40.6501 -40.5193 -40.5164 -40.4889 -40.2768 -40.2252 -40.2199 -40.1948
   -40.1734 -40.1704 -40.1498 -40.1335 -40.1232 -40.1170 -40.0302 -40.0141
    -5.0724  -3.6128  -3.4691  -3.4652  -2.6388  -2.5918  -2.5234  -2.4005
    -2.1691  -2.1446  -1.9339  -1.7910  -1.3719  -1.3144  -1.0374  -0.9828
    -0.8856  -0.6662  -0.5216  -0.4686  -0.2355  -0.1985  -0.0923   0.0864
     0.1529   0.2482   0.3148   0.6965   0.7037   0.8477   0.8828   0.8914
     1.1116   1.1214   1.1693   1.2968   1.4396   1.5078   1.5344   1.5793
     1.6445   1.7636   1.9757   1.9937   2.1683   2.2851   2.4137   2.4678
     2.5810   2.6293   2.8852   2.9281   3.0075   3.0700   3.1426   3.1983

          k = 0.0805 0.0570 0.0000 ( 28503 PWs)   bands (ev):

   -78.9143 -78.9017 -78.4777 -78.4763 -78.4653 -78.4637 -70.3923 -70.3839
   -69.9778 -69.9758 -69.9693 -69.9674 -41.8662 -41.7242 -41.7030 -41.6877
   -41.6787 -41.6757 -41.4545 -41.4317 -41.3679 -41.3335 -41.3259 -41.2733
   -41.2531 -41.2447 -41.2347 -41.2345 -41.1989 -41.1692 -40.6944 -40.6747
   -40.6664 -40.5243 -40.5191 -40.4885 -40.2907 -40.2334 -40.2189 -40.1963
   -40.1729 -40.1695 -40.1646 -40.1446 -40.1331 -40.1258 -40.0308 -40.0134
    -4.8607  -3.7868  -3.4105  -3.3818  -2.5279  -2.5103  -2.4205  -2.3221
    -1.9849  -1.9733  -1.9351  -1.7884  -1.3326  -1.2478  -1.0878  -0.9824
    -0.8760  -0.5541  -0.4964  -0.3269  -0.3035  -0.0199   0.0366   0.0617
     0.1589   0.2835   0.3166   0.6237   0.7266   0.7585   0.8296   0.9253
     1.0311   1.0580   1.2232   1.2978   1.3253   1.3280   1.3407   1.4567
     1.6741   1.7295   1.8708   2.0582   2.1799   2.2175   2.3064   2.3757
     2.4395   2.5272   2.6828   2.7271   2.8977   2.9218   2.9343   3.1228

          k = 0.0805-0.1309 0.0000 ( 28469 PWs)   bands (ev):

   -78.9140 -78.9020 -78.4775 -78.4761 -78.4655 -78.4639 -70.3922 -70.3841
   -69.9777 -69.9757 -69.9694 -69.9676 -41.8594 -41.7277 -41.7014 -41.6808
   -41.6781 -41.6688 -41.4542 -41.4358 -41.3652 -41.3337 -41.3227 -41.2675
   -41.2481 -41.2384 -41.2335 -41.2310 -41.2010 -41.1726 -40.7012 -40.6774
   -40.6688 -40.5250 -40.5196 -40.4917 -40.2921 -40.2372 -40.2171 -40.1925
   -40.1740 -40.1710 -40.1707 -40.1479 -40.1380 -40.1281 -40.0340 -40.0177
    -4.6076  -3.9016  -3.4771  -3.3280  -2.4401  -2.3485  -2.2869  -2.2330
    -2.0241  -1.8412  -1.8189  -1.7619  -1.3984  -1.3164  -1.1047  -0.9682
    -0.8296  -0.5302  -0.5076  -0.3500  -0.2705  -0.1930  -0.0479   0.0661
     0.1542   0.3555   0.4428   0.5025   0.5785   0.8189   0.8645   0.8771
     0.9768   1.0135   1.0283   1.1034   1.1654   1.2054   1.2516   1.4843
     1.6820   1.8297   1.8903   2.1271   2.1576   2.2298   2.3299   2.3599
     2.3664   2.4775   2.5225   2.7028   2.8204   2.9306   2.9613   3.1104

          k = 0.0805-0.1138 0.0000 ( 28450 PWs)   bands (ev):

   -78.9133 -78.9026 -78.4768 -78.4754 -78.4662 -78.4645 -70.3918 -70.3844
   -69.9773 -69.9753 -69.9698 -69.9679 -41.8525 -41.7403 -41.6999 -41.6836
   -41.6793 -41.6747 -41.4509 -41.4325 -41.3696 -41.3362 -41.3143 -41.2626
   -41.2495 -41.2401 -41.2392 -41.2370 -41.2099 -41.1857 -40.6952 -40.6685
   -40.6628 -40.5209 -40.5179 -40.4983 -40.2793 -40.2332 -40.2144 -40.1852
   -40.1767 -40.1744 -40.1665 -40.1430 -40.1360 -40.1235 -40.0399 -40.0267
    -4.3940  -3.8933  -3.7170  -3.2341  -2.3975  -2.1915  -2.1417  -2.1295
    -2.0369  -1.9024  -1.8399  -1.6881  -1.6780  -1.2659  -1.0179  -1.0093
    -0.8083  -0.6354  -0.5881  -0.4793  -0.3691  -0.2351  -0.2130   0.0972
     0.1750   0.2150   0.2770   0.3701   0.4706   0.4888   0.7726   0.8988
     0.9291   0.9441   1.0563   1.0939   1.1631   1.1643   1.3468   1.4791
     1.6714   1.7470   2.0326   2.1862   2.2941   2.3498   2.3577   2.5028
     2.5541   2.6193   2.6226   2.8253   2.8855   2.9492   3.0664   3.0929

          k = 0.0805-0.0967 0.0000 ( 28470 PWs)   bands (ev):

   -78.9124 -78.9037 -78.4759 -78.4745 -78.4672 -78.4655 -70.3911 -70.3850
   -69.9766 -69.9746 -69.9704 -69.9685 -41.8459 -41.7618 -41.6987 -41.6935
   -41.6905 -41.6823 -41.4453 -41.4235 -41.3781 -41.3409 -41.3042 -41.2636
   -41.2589 -41.2521 -41.2480 -41.2456 -41.2226 -41.2040 -40.6791 -40.6575
   -40.6417 -40.5143 -40.5138 -40.5073 -40.2550 -40.2245 -40.2113 -40.1822
   -40.1803 -40.1718 -40.1537 -40.1302 -40.1282 -40.1126 -40.0484 -40.0389
    -4.3462  -4.0379  -3.6530  -3.1491  -2.4255  -2.2005  -2.0515  -2.0316
    -2.0070  -1.9926  -1.9806  -1.8951  -1.6803  -1.1464  -1.0927  -0.8961
    -0.8574  -0.7837  -0.7837  -0.6611  -0.5379  -0.3025  -0.1402  -0.1331
    -0.0097   0.1261   0.2308   0.2313   0.3055   0.4587   0.5387   0.6541
     0.7680   0.9291   1.0235   1.2273   1.2788   1.3959   1.5680   1.6731
     1.8022   1.8515   1.8575   2.2579   2.3869   2.4142   2.4205   2.7454
     2.7568   2.7687   2.8362   2.9512   2.9679   3.0228   3.2591   3.3248

          k = 0.0805-0.0797 0.0000 ( 28484 PWs)   bands (ev):

   -78.9111 -78.9050 -78.4746 -78.4732 -78.4685 -78.4668 -70.3902 -70.3858
   -69.9756 -69.9737 -69.9712 -69.9693 -41.8403 -41.7901 -41.7086 -41.7056
   -41.6976 -41.6865 -41.4383 -41.4129 -41.3875 -41.3478 -41.2977 -41.2798
   -41.2766 -41.2661 -41.2617 -41.2424 -41.2333 -41.2197 -40.6589 -40.6463
   -40.6105 -40.5180 -40.5096 -40.5060 -40.2266 -40.2148 -40.2078 -40.1877
   -40.1852 -40.1565 -40.1394 -40.1194 -40.1103 -40.0969 -40.0594 -40.0496
    -4.3824  -4.3766  -3.2878  -3.0870  -2.5815  -2.3125  -2.2412  -2.2022
    -2.1373  -1.9855  -1.8941  -1.7935  -1.6625  -1.1676  -1.1667  -1.0699
    -0.9291  -0.8233  -0.7661  -0.7530  -0.6430  -0.3484  -0.2812  -0.2655
    -0.1491  -0.0924   0.0884   0.1977   0.3698   0.4445   0.5101   0.5454
     0.6231   0.8163   1.1138   1.3574   1.4104   1.6672   1.7223   1.8529
     1.8761   1.9311   2.0327   2.3459   2.3746   2.4944   2.5276   2.7966
     2.8208   2.8809   2.9025   2.9173   2.9789   3.2529   3.3790   3.5506

          k = 0.0805-0.0626 0.0000 ( 28479 PWs)   bands (ev):

   -78.9096 -78.9065 -78.4731 -78.4717 -78.4700 -78.4684 -70.3891 -70.3868
   -69.9746 -69.9727 -69.9722 -69.9703 -41.8358 -41.8202 -41.7220 -41.7168
   -41.6966 -41.6914 -41.4311 -41.4097 -41.3896 -41.3571 -41.3020 -41.2976
   -41.2963 -41.2876 -41.2586 -41.2420 -41.2351 -41.2304 -40.6419 -40.6348
   -40.5775 -40.5284 -40.5051 -40.5004 -40.2109 -40.2048 -40.2046 -40.1952
   -40.1765 -40.1404 -40.1341 -40.1164 -40.0865 -40.0790 -40.0681 -40.0553
    -4.7044  -4.3953  -3.0519  -2.9172  -2.8301  -2.4627  -2.4099  -2.3959
    -2.2250  -1.9701  -1.9163  -1.7086  -1.5866  -1.5178  -1.2761  -1.0790
    -0.9464  -0.8731  -0.7515  -0.6943  -0.5417  -0.4754  -0.4038  -0.3862
    -0.2987  -0.1100   0.0054   0.1463   0.2666   0.4564   0.5686   0.6321
     0.6926   0.7776   1.2070   1.4414   1.5598   1.6419   1.9155   1.9839
     2.1006   2.1488   2.2040   2.3189   2.4513   2.5784   2.6229   2.6554
     2.7701   2.7918   2.9729   3.0231   3.0356   3.3317   3.3749   3.4706

          k = 0.0805-0.0455 0.0000 ( 28505 PWs)   bands (ev):

   -78.9082 -78.9079 -78.4716 -78.4715 -78.4701 -78.4700 -70.3881 -70.3877
   -69.9734 -69.9732 -69.9716 -69.9713 -41.8466 -41.8304 -41.7279 -41.7256
   -41.6962 -41.6952 -41.4247 -41.4171 -41.3807 -41.3680 -41.3112 -41.3110
   -41.3085 -41.3045 -41.2502 -41.2470 -41.2384 -41.2269 -40.6334 -40.6252
   -40.5484 -40.5389 -40.5017 -40.4979 -40.2094 -40.2056 -40.1997 -40.1986
   -40.1523 -40.1445 -40.1258 -40.1227 -40.0697 -40.0653 -40.0608 -40.0582
    -4.9713  -4.3694  -3.0736  -3.0132  -2.6765  -2.5926  -2.5356  -2.5188
    -2.3144  -2.0467  -1.9497  -1.8603  -1.5787  -1.4454  -1.3610  -1.1173
    -0.9566  -0.9500  -0.8364  -0.6617  -0.5967  -0.4784  -0.4150  -0.3100
    -0.2277  -0.1504   0.0244   0.1501   0.2769   0.3800   0.6500   0.7881
     0.8075   0.8567   1.2811   1.4861   1.5855   1.7307   1.9978   2.0375
     2.2359   2.3002   2.3462   2.3486   2.4410   2.5765   2.6254   2.6861
     2.7617   2.8066   2.9642   2.9796   3.1749   3.1993   3.2237   3.2906

          k =-0.0966 0.0341 0.0000 ( 28538 PWs)   bands (ev):

   -78.9081 -78.9081 -78.4716 -78.4716 -78.4701 -78.4701 -70.3881 -70.3877
   -69.9734 -69.9733 -69.9715 -69.9713 -41.8420 -41.8417 -41.7225 -41.7222
   -41.6958 -41.6955 -41.4218 -41.4217 -41.3760 -41.3759 -41.3144 -41.3143
   -41.3088 -41.3087 -41.2447 -41.2446 -41.2282 -41.2280 -40.6337 -40.6336
   -40.5398 -40.5398 -40.4998 -40.4998 -40.2073 -40.2072 -40.2015 -40.2015
   -40.1526 -40.1525 -40.1283 -40.1283 -40.0626 -40.0625 -40.0555 -40.0554
    -4.7122  -4.7122  -3.0575  -3.0574  -2.5306  -2.5304  -2.4980  -2.4980
    -2.2301  -2.2300  -1.9997  -1.9996  -1.4682  -1.4680  -1.2966  -1.2966
    -0.9604  -0.9603  -0.6944  -0.6943  -0.5953  -0.5953  -0.3421  -0.3419
    -0.1031  -0.1029   0.1516   0.1517   0.4134   0.4134   0.8011   0.8011
     0.9836   0.9837   1.0610   1.0611   1.8595   1.8596   1.9121   1.9122
     2.0050   2.0051   2.3331   2.3332   2.5530   2.5531   2.6074   2.6075
     2.8298   2.8299   2.8946   2.8947   3.1148   3.1151   3.1858   3.1860

          k =-0.0966 0.0512 0.0000 ( 28516 PWs)   bands (ev):

   -78.9097 -78.9064 -78.4732 -78.4717 -78.4700 -78.4684 -70.3890 -70.3868
   -69.9744 -69.9725 -69.9722 -69.9703 -41.8527 -41.8233 -41.7222 -41.7178
   -41.6982 -41.6922 -41.4292 -41.4137 -41.3867 -41.3643 -41.3125 -41.3090
   -41.3083 -41.3015 -41.2535 -41.2347 -41.2340 -41.2203 -40.6398 -40.6346
   -40.5606 -40.5250 -40.5021 -40.5004 -40.2118 -40.2089 -40.2037 -40.1952
   -40.1727 -40.1418 -40.1366 -40.1186 -40.0739 -40.0697 -40.0560 -40.0467
    -4.8186  -4.5314  -3.1605  -2.9110  -2.6159  -2.5138  -2.4840  -2.4757
    -2.2874  -2.2093  -2.1948  -1.6917  -1.5085  -1.4155  -1.3437  -1.1386
    -1.0527  -0.8737  -0.8427  -0.7505  -0.5605  -0.4407  -0.3796  -0.2667
    -0.1506   0.0233   0.1795   0.2291   0.3735   0.4081   0.6876   0.8994
     0.9416   1.0325   1.0365   1.1009   1.7003   1.8573   1.8967   1.9472
     1.9546   2.0705   2.1049   2.3412   2.4355   2.5245   2.6067   2.7466
     2.7477   2.8264   2.8703   2.9615   3.0005   3.1529   3.2919   3.3796

          k =-0.0966 0.0683 0.0000 ( 28504 PWs)   bands (ev):

   -78.9112 -78.9049 -78.4747 -78.4732 -78.4684 -78.4669 -70.3901 -70.3858
   -69.9755 -69.9736 -69.9712 -69.9694 -41.8575 -41.7979 -41.7155 -41.7104
   -41.6999 -41.6882 -41.4366 -41.4082 -41.3931 -41.3531 -41.3092 -41.3005
   -41.2949 -41.2867 -41.2571 -41.2400 -41.2240 -41.2106 -40.6497 -40.6449
   -40.5880 -40.5140 -40.5064 -40.5040 -40.2216 -40.2143 -40.2117 -40.1876
   -40.1821 -40.1570 -40.1326 -40.1155 -40.0932 -40.0861 -40.0499 -40.0411
    -4.8506  -4.2858  -3.2285  -2.9446  -2.7341  -2.4703  -2.4236  -2.3679
    -2.2937  -2.2305  -2.1276  -1.6819  -1.4988  -1.2568  -1.1832  -1.0974
    -1.0141  -0.9359  -0.8363  -0.7727  -0.4639  -0.4293  -0.3400  -0.1598
    -0.0345   0.1313   0.2805   0.3333   0.3867   0.3875   0.5864   0.8571
     0.9883   1.0334   1.0950   1.1441   1.5369   1.7179   1.7865   1.8674
     1.9360   1.9917   2.0705   2.1501   2.2854   2.3590   2.6029   2.7419
     2.7658   2.8756   2.8964   2.9055   2.9939   3.2975   3.3336   3.4207

          k =-0.0966 0.0853 0.0000 ( 28466 PWs)   bands (ev):

   -78.9124 -78.9036 -78.4759 -78.4745 -78.4671 -78.4655 -70.3910 -70.3850
   -69.9765 -69.9745 -69.9704 -69.9686 -41.8590 -41.7694 -41.7021 -41.7018
   -41.7001 -41.6841 -41.4437 -41.4153 -41.3859 -41.3439 -41.3110 -41.2853
   -41.2767 -41.2676 -41.2528 -41.2425 -41.2156 -41.1984 -40.6632 -40.6604
   -40.6191 -40.5115 -40.5108 -40.5042 -40.2465 -40.2220 -40.2141 -40.1808
   -40.1804 -40.1720 -40.1416 -40.1201 -40.1158 -40.1030 -40.0430 -40.0338
    -4.8153  -3.9977  -3.3199  -3.2625  -2.5772  -2.4350  -2.2821  -2.2630
    -2.2306  -2.2031  -2.0299  -1.7641  -1.5093  -1.1995  -1.1006  -1.0227
    -0.8295  -0.8205  -0.7656  -0.7193  -0.5475  -0.3029  -0.2162  -0.0260
     0.0641   0.0772   0.3546   0.4434   0.4936   0.4966   0.5727   0.8288
     0.9751   0.9893   1.1546   1.2391   1.4091   1.4603   1.6973   1.7575
     1.7673   1.7779   2.0435   2.1623   2.2030   2.2329   2.4340   2.5553
     2.7959   2.8711   2.9223   2.9551   3.0336   3.0513   3.4404   3.4626

          k =-0.0966 0.1024 0.0000 ( 28485 PWs)   bands (ev):

   -78.9134 -78.9026 -78.4769 -78.4755 -78.4662 -78.4645 -70.3918 -70.3844
   -69.9772 -69.9753 -69.9698 -69.9679 -41.8593 -41.7439 -41.7013 -41.6906
   -41.6846 -41.6804 -41.4499 -41.4264 -41.3747 -41.3375 -41.3166 -41.2725
   -41.2593 -41.2499 -41.2428 -41.2394 -41.2079 -41.1846 -40.6844 -40.6701
   -40.6484 -40.5184 -40.5163 -40.4968 -40.2728 -40.2294 -40.2160 -40.1856
   -40.1763 -40.1746 -40.1572 -40.1353 -40.1294 -40.1180 -40.0376 -40.0246
    -4.7257  -3.7072  -3.6407  -3.3044  -2.4827  -2.3950  -2.2886  -2.2207
    -2.0295  -2.0184  -1.9464  -1.8472  -1.4624  -1.2605  -1.0470  -0.9385
    -0.8747  -0.6579  -0.5634  -0.5147  -0.4667  -0.2572  -0.0527  -0.0408
     0.0951   0.1884   0.4120   0.4302   0.5381   0.7103   0.7800   0.8386
     0.9034   1.0076   1.1070   1.2155   1.2882   1.3439   1.4823   1.5713
     1.6293   1.7347   1.9939   2.1233   2.1647   2.2575   2.3045   2.4197
     2.6691   2.7152   2.8355   2.8408   2.9331   3.1080   3.1783   3.2255

          k =-0.0966 0.1195 0.0000 ( 28469 PWs)   bands (ev):

   -78.9140 -78.9020 -78.4775 -78.4761 -78.4655 -78.4639 -70.3922 -70.3841
   -69.9777 -69.9757 -69.9694 -69.9676 -41.8594 -41.7277 -41.7014 -41.6808
   -41.6781 -41.6688 -41.4542 -41.4358 -41.3652 -41.3337 -41.3227 -41.2675
   -41.2481 -41.2384 -41.2335 -41.2310 -41.2010 -41.1726 -40.7012 -40.6774
   -40.6688 -40.5250 -40.5196 -40.4917 -40.2921 -40.2372 -40.2171 -40.1925
   -40.1740 -40.1710 -40.1707 -40.1479 -40.1380 -40.1281 -40.0340 -40.0177
    -4.6076  -3.9016  -3.4771  -3.3280  -2.4401  -2.3485  -2.2869  -2.2330
    -2.0241  -1.8412  -1.8189  -1.7619  -1.3984  -1.3164  -1.1047  -0.9682
    -0.8296  -0.5302  -0.5076  -0.3500  -0.2705  -0.1930  -0.0479   0.0661
     0.1542   0.3555   0.4428   0.5025   0.5785   0.8189   0.8645   0.8771
     0.9768   1.0135   1.0283   1.1034   1.1654   1.2054   1.2516   1.4843
     1.6820   1.8297   1.8903   2.1271   2.1576   2.2298   2.3299   2.3599
     2.3664   2.4775   2.5225   2.7028   2.8204   2.9306   2.9613   3.1104

          k =-0.0966-0.0684 0.0000 ( 28440 PWs)   bands (ev):

   -78.9142 -78.9018 -78.4777 -78.4763 -78.4653 -78.4637 -70.3924 -70.3839
   -69.9779 -69.9759 -69.9693 -69.9674 -41.8595 -41.7225 -41.7014 -41.6772
   -41.6763 -41.6624 -41.4556 -41.4395 -41.3613 -41.3324 -41.3256 -41.2667
   -41.2445 -41.2346 -41.2297 -41.2266 -41.1979 -41.1677 -40.7076 -40.6813
   -40.6750 -40.5276 -40.5208 -40.4899 -40.2991 -40.2408 -40.2174 -40.1945
   -40.1763 -40.1731 -40.1694 -40.1522 -40.1415 -40.1317 -40.0326 -40.0151
    -4.5373  -4.0193  -3.3860  -3.3365  -2.4291  -2.3184  -2.2797  -2.2461
    -2.0815  -1.7929  -1.7547  -1.6058  -1.3877  -1.3538  -1.2175  -0.9310
    -0.8123  -0.4730  -0.4723  -0.3722  -0.1591  -0.0933  -0.0848   0.0492
     0.2539   0.3660   0.4830   0.5973   0.7711   0.8077   0.8622   0.9153
     0.9237   0.9349   0.9588   1.0777   1.1259   1.1301   1.1351   1.5285
     1.7868   1.9363   1.9536   2.0983   2.1440   2.1457   2.1546   2.3015
     2.3045   2.4095   2.4193   2.4577   2.7829   2.8690   2.9303   2.9873

     the Fermi energy is     1.9682 ev

!    total energy              =   -2130.21215766 Ry
     estimated scf accuracy    <       0.00000366 Ry
     smearing contrib. (-TS)   =      -0.07273634 Ry
     internal energy E=F+TS    =   -2130.13942132 Ry

     The total energy is F=E-TS. E is the sum of the following terms:
     one-electron contribution =  -18660.86351266 Ry
     hartree contribution      =    9315.04222572 Ry
     xc contribution           =    -384.20835471 Ry
     ewald contribution        =    7599.89021845 Ry
     electric field correction =       0.00000189 Ry

     convergence has been achieved in  21 iterations

     negative rho (up, down):  3.058E-03 0.000E+00

     Forces acting on atoms (cartesian axes, Ry/au):

     atom    1 type  1   force =     0.00007886    0.00005953    0.01146630
     atom    2 type  1   force =     0.00005878    0.00003909    0.01157368
     atom    3 type  2   force =     0.00011792    0.00011069    0.02108696
     atom    4 type  2   force =     0.00014048    0.00007289    0.02109477
     atom    5 type  1   force =     0.00020287    0.00013742   -0.01473678
     atom    6 type  1   force =    -0.00012049   -0.00008082   -0.01478992
     atom    7 type  2   force =    -0.00002927    0.00000106   -0.01830375
     atom    8 type  2   force =    -0.00000237   -0.00002418   -0.01830357
     atom    9 type  1   force =    -0.00017030   -0.00012648   -0.00103794
     atom   10 type  1   force =    -0.00009009   -0.00005916   -0.00107306
     atom   11 type  2   force =    -0.00009713   -0.00005568    0.00150493
     atom   12 type  2   force =    -0.00008924   -0.00007435    0.00151839

     Total force =     0.047624     Total SCF correction =     0.007220
     SCF correction compared to forces is large: reduce conv_thr to get better values

     Writing output data file ./Cr2Re2/Cr2Re2_beef.save/

     init_run     :     73.54s CPU     74.07s WALL (       1 calls)
     electrons    :   3918.66s CPU   3938.89s WALL (       1 calls)
     forces       :     59.23s CPU     59.43s WALL (       1 calls)

     Called by init_run:
     wfcinit      :     63.06s CPU     63.39s WALL (       1 calls)
     potinit      :      7.35s CPU      7.42s WALL (       1 calls)
     hinit0       :      1.77s CPU      1.78s WALL (       1 calls)

     Called by electrons:
     c_bands      :   3494.82s CPU   3507.59s WALL (      21 calls)
     sum_band     :    388.85s CPU    393.19s WALL (      21 calls)
     v_of_rho     :     23.03s CPU     23.98s WALL (      22 calls)
     newd         :     18.19s CPU     20.37s WALL (      22 calls)
     mix_rho      :      0.66s CPU      0.68s WALL (      21 calls)
     vdW_kernel   :      5.69s CPU      5.70s WALL (       1 calls)

     Called by c_bands:
     init_us_2    :     12.38s CPU     12.46s WALL (    3256 calls)
     cegterg      :   3454.09s CPU   3464.64s WALL (    1554 calls)

     Called by *egterg:
     cdiaghg      :    217.38s CPU    217.46s WALL (    7038 calls)
     h_psi        :   1597.83s CPU   1606.68s WALL (    7112 calls)
     s_psi        :    537.34s CPU    537.58s WALL (    7112 calls)
     g_psi        :      1.23s CPU      1.24s WALL (    5484 calls)

     Called by h_psi:
     h_psi:calbec :    574.57s CPU    575.55s WALL (    7112 calls)
     vloc_psi     :    460.61s CPU    468.23s WALL (    7112 calls)
     add_vuspsi   :    556.23s CPU    556.48s WALL (    7112 calls)

     General routines
     calbec       :    874.99s CPU    876.47s WALL (    8962 calls)
     fft          :     12.76s CPU     13.10s WALL (    1445 calls)
     ffts         :      0.06s CPU      0.07s WALL (      43 calls)
     fftw         :    534.46s CPU    543.12s WALL (  908346 calls)
     interpolate  :      0.20s CPU      0.21s WALL (      22 calls)

     Parallel routines
     fft_scatt_xy :     40.26s CPU     40.72s WALL (  909834 calls)
     fft_scatt_yz :    128.82s CPU    130.99s WALL (  909834 calls)

     PWSCF        :      1h 7m CPU      1h 8m WALL


   This run was terminated on:  21:27:23  23Jun2022            

=------------------------------------------------------------------------------=
   JOB DONE.
=------------------------------------------------------------------------------=
