
     Program PWSCF v.6.6 starts on 24Jun2022 at  0:14:34 

     This program is part of the open-source Quantum ESPRESSO suite
     for quantum simulation of materials; please cite
         "P. Giannozzi et al., J. Phys.:Condens. Matter 21 395502 (2009);
         "P. Giannozzi et al., J. Phys.:Condens. Matter 29 465901 (2017);
          URL http://www.quantum-espresso.org", 
     in publications or presentations arising from this work. More details at
     http://www.quantum-espresso.org/quote

     Parallel version (MPI), running on    37 processors

     MPI processes distributed on     4 nodes
     R & G space division:  proc/nbgrp/npool/nimage =      37
     Fft bands division:     nmany     =       1
     Reading input from Cr2Ta2.in
Warning: card &CELL ignored
Warning: card / ignored

     Current dimensions of program PWSCF are:
     Max number of different atomic species (ntypx) = 10
     Max number of k-points (npk) =  40000
     Max angular momentum in pseudopotentials (lmaxx) =  3
     Presently stress not available with electric field and gates

     Message from routine cell_base_init:
     DEPRECATED: use true lattice parameter, not A to a.u. conversion factor
     file Cr.pbe-spn-rrkjus_psl.1.0.0.UPF: wavefunction(s)  3P renormalized
     file Ta.pbe-spfn-rrkjus_psl.1.0.0.UPF: wavefunction(s)  5S 5P renormalized

     **************************************************************************
     Initializing libbeef V0.1.2 with the BEEF-vdW functional.
     Citation: Wellendorff et al., PRB 85, 235149 (2012).
     **************************************************************************


     IMPORTANT: XC functional enforced from input :
     Exchange-correlation= BEEF-VDW
                           (   1   4  43  14   2   0   0)
     Any further DFT definition will be discarded
     Please, verify this is what you really want


     Subspace diagonalization in iterative solution of the eigenvalue problem:
     a serial algorithm will be used

     Found symmetry operation: I + ( -0.5000  0.5000  0.0000)
     This is a supercell, fractional translations are disabled

     Parallelization info
     --------------------
     sticks:   dense  smooth     PW     G-vecs:    dense   smooth      PW
     Min         114      45     13                26448     6677    1005
     Max         115      46     14                26477     6706    1023
     Sum        4251    1693    483               979351   247609   37555



     bravais-lattice index     =            0
     lattice parameter (alat)  =       1.8897  a.u.
     unit-cell volume          =    4481.5156 (a.u.)^3
     number of atoms/cell      =           12
     number of atomic types    =            2
     number of electrons       =       246.00
     number of Kohn-Sham states=          148
     kinetic-energy cutoff     =      55.1240  Ry
     charge density cutoff     =     551.2396  Ry
     convergence threshold     =      1.0E-05
     mixing beta               =       0.1000
     number of iterations used =           10  plain     mixing
     Exchange-correlation= BEEF-VDW
                           (   1   4  43  14   2   0   0)

     celldm(1)=   1.889726  celldm(2)=   0.000000  celldm(3)=   0.000000
     celldm(4)=   0.000000  celldm(5)=   0.000000  celldm(6)=   0.000000

     crystal axes: (cart. coord. in units of alat)
               a(1) = (   5.374210   0.000000   0.000000 )  
               a(2) = (   1.791456   5.066836   0.000000 )  
               a(3) = (   0.000000   0.000000  24.388041 )  

     reciprocal axes: (cart. coord. in units 2 pi/alat)
               b(1) = (  0.186074 -0.065789  0.000000 )  
               b(2) = (  0.000000  0.197362  0.000000 )  
               b(3) = (  0.000000  0.000000  0.041004 )  


     PseudoPot. # 1 for Cr read from file:
     ../pseudo/Cr.pbe-spn-rrkjus_psl.1.0.0.UPF
     MD5 check sum: 793d051e4f89dd1e3290b85340a92c0a
     Pseudo is Ultrasoft + core correction, Zval = 14.0
     Generated using "atomic" code by A. Dal Corso v.6.2.2
     Using radial grid of 1183 points,  6 beta functions with: 
                l(1) =   0
                l(2) =   0
                l(3) =   1
                l(4) =   1
                l(5) =   2
                l(6) =   2
     Q(r) pseudized with 0 coefficients 


     PseudoPot. # 2 for Ta read from file:
     ../pseudo/Ta.pbe-spfn-rrkjus_psl.1.0.0.UPF
     MD5 check sum: 39d7d349fe394e56adf8454eb9315fbb
     Pseudo is Ultrasoft + core correction, Zval = 27.0
     Generated using "atomic" code by A. Dal Corso v.6.3
     Using radial grid of 1273 points,  8 beta functions with: 
                l(1) =   0
                l(2) =   0
                l(3) =   1
                l(4) =   1
                l(5) =   2
                l(6) =   2
                l(7) =   3
                l(8) =   3
     Q(r) pseudized with 0 coefficients 


     atomic species   valence    mass     pseudopotential
        Cr            14.00    51.99610     Cr( 1.00)
        Ta            27.00   180.94788     Ta( 1.00)

     No symmetry found



   Cartesian axes

     site n.     atom                  positions (alat units)
         1           Cr  tau(   1) = (   0.0000000   0.0000000  10.0000000  )
         2           Cr  tau(   2) = (   3.5828333   2.5334178  10.0000000  )
         3           Ta  tau(   3) = (   2.6871052   0.0000000  10.0000000  )
         4           Ta  tau(   4) = (   0.8957281   2.5334178  10.0000000  )
         5           Cr  tau(   5) = (   5.3742104   3.8000987  12.1940203  )
         6           Cr  tau(   6) = (   1.7913771   1.2666809  12.1940203  )
         7           Ta  tau(   7) = (   2.6871052   3.8000987  12.1940203  )
         8           Ta  tau(   8) = (   4.4784824   1.2666809  12.1940203  )
         9           Cr  tau(   9) = (   3.5827723   2.5333758  14.2909049  )
        10           Cr  tau(  10) = (   7.1656010   5.0667885  14.2909545  )
        11           Ta  tau(  11) = (   6.2698898   2.5333705  14.3636484  )
        12           Ta  tau(  12) = (   4.4785021   5.0668071  14.3636500  )

     number of k points=    74  Fermi-Dirac smearing, width (Ry)=  0.0100
                       cart. coord. in units 2pi/alat
        k(    1) = (   0.0000000   0.0000000   0.0000000), wk =   0.0138889
        k(    2) = (   0.0000000   0.0164468   0.0000000), wk =   0.0277778
        k(    3) = (   0.0000000   0.0328936   0.0000000), wk =   0.0277778
        k(    4) = (   0.0000000   0.0493405   0.0000000), wk =   0.0277778
        k(    5) = (   0.0000000   0.0657873   0.0000000), wk =   0.0277778
        k(    6) = (   0.0000000   0.0822341   0.0000000), wk =   0.0277778
        k(    7) = (   0.0000000  -0.0986809   0.0000000), wk =   0.0138889
        k(    8) = (   0.0155062  -0.0054824   0.0000000), wk =   0.0277778
        k(    9) = (   0.0155062   0.0109644   0.0000000), wk =   0.0277778
        k(   10) = (   0.0155062   0.0274112   0.0000000), wk =   0.0277778
        k(   11) = (   0.0155062   0.0438580   0.0000000), wk =   0.0277778
        k(   12) = (   0.0155062   0.0603048   0.0000000), wk =   0.0277778
        k(   13) = (   0.0155062   0.0767517   0.0000000), wk =   0.0277778
        k(   14) = (   0.0155062  -0.1041633   0.0000000), wk =   0.0277778
        k(   15) = (   0.0155062  -0.0877165   0.0000000), wk =   0.0277778
        k(   16) = (   0.0155062  -0.0712697   0.0000000), wk =   0.0277778
        k(   17) = (   0.0155062  -0.0548229   0.0000000), wk =   0.0277778
        k(   18) = (   0.0155062  -0.0383761   0.0000000), wk =   0.0277778
        k(   19) = (   0.0155062  -0.0219293   0.0000000), wk =   0.0277778
        k(   20) = (   0.0310123  -0.0109649   0.0000000), wk =   0.0277778
        k(   21) = (   0.0310123   0.0054820   0.0000000), wk =   0.0277778
        k(   22) = (   0.0310123   0.0219288   0.0000000), wk =   0.0277778
        k(   23) = (   0.0310123   0.0383756   0.0000000), wk =   0.0277778
        k(   24) = (   0.0310123   0.0548224   0.0000000), wk =   0.0277778
        k(   25) = (   0.0310123   0.0712692   0.0000000), wk =   0.0277778
        k(   26) = (   0.0310123  -0.1096458   0.0000000), wk =   0.0277778
        k(   27) = (   0.0310123  -0.0931990   0.0000000), wk =   0.0277778
        k(   28) = (   0.0310123  -0.0767521   0.0000000), wk =   0.0277778
        k(   29) = (   0.0310123  -0.0603053   0.0000000), wk =   0.0277778
        k(   30) = (   0.0310123  -0.0438585   0.0000000), wk =   0.0277778
        k(   31) = (   0.0310123  -0.0274117   0.0000000), wk =   0.0277778
        k(   32) = (   0.0465185  -0.0164473   0.0000000), wk =   0.0277778
        k(   33) = (   0.0465185  -0.0000005   0.0000000), wk =   0.0277778
        k(   34) = (   0.0465185   0.0164463   0.0000000), wk =   0.0277778
        k(   35) = (   0.0465185   0.0328932   0.0000000), wk =   0.0277778
        k(   36) = (   0.0465185   0.0493400   0.0000000), wk =   0.0277778
        k(   37) = (   0.0465185   0.0657868   0.0000000), wk =   0.0277778
        k(   38) = (   0.0465185  -0.1151282   0.0000000), wk =   0.0277778
        k(   39) = (   0.0465185  -0.0986814   0.0000000), wk =   0.0277778
        k(   40) = (   0.0465185  -0.0822346   0.0000000), wk =   0.0277778
        k(   41) = (   0.0465185  -0.0657878   0.0000000), wk =   0.0277778
        k(   42) = (   0.0465185  -0.0493409   0.0000000), wk =   0.0277778
        k(   43) = (   0.0465185  -0.0328941   0.0000000), wk =   0.0277778
        k(   44) = (   0.0620246  -0.0219297   0.0000000), wk =   0.0277778
        k(   45) = (   0.0620246  -0.0054829   0.0000000), wk =   0.0277778
        k(   46) = (   0.0620246   0.0109639   0.0000000), wk =   0.0277778
        k(   47) = (   0.0620246   0.0274107   0.0000000), wk =   0.0277778
        k(   48) = (   0.0620246   0.0438575   0.0000000), wk =   0.0277778
        k(   49) = (   0.0620246   0.0603044   0.0000000), wk =   0.0277778
        k(   50) = (   0.0620246  -0.1206106   0.0000000), wk =   0.0277778
        k(   51) = (   0.0620246  -0.1041638   0.0000000), wk =   0.0277778
        k(   52) = (   0.0620246  -0.0877170   0.0000000), wk =   0.0277778
        k(   53) = (   0.0620246  -0.0712702   0.0000000), wk =   0.0277778
        k(   54) = (   0.0620246  -0.0548234   0.0000000), wk =   0.0277778
        k(   55) = (   0.0620246  -0.0383766   0.0000000), wk =   0.0277778
        k(   56) = (   0.0775308  -0.0274122   0.0000000), wk =   0.0277778
        k(   57) = (   0.0775308  -0.0109654   0.0000000), wk =   0.0277778
        k(   58) = (   0.0775308   0.0054815   0.0000000), wk =   0.0277778
        k(   59) = (   0.0775308   0.0219283   0.0000000), wk =   0.0277778
        k(   60) = (   0.0775308   0.0383751   0.0000000), wk =   0.0277778
        k(   61) = (   0.0775308   0.0548219   0.0000000), wk =   0.0277778
        k(   62) = (   0.0775308  -0.1260931   0.0000000), wk =   0.0277778
        k(   63) = (   0.0775308  -0.1096463   0.0000000), wk =   0.0277778
        k(   64) = (   0.0775308  -0.0931994   0.0000000), wk =   0.0277778
        k(   65) = (   0.0775308  -0.0767526   0.0000000), wk =   0.0277778
        k(   66) = (   0.0775308  -0.0603058   0.0000000), wk =   0.0277778
        k(   67) = (   0.0775308  -0.0438590   0.0000000), wk =   0.0277778
        k(   68) = (  -0.0930369   0.0328946   0.0000000), wk =   0.0138889
        k(   69) = (  -0.0930369   0.0493414   0.0000000), wk =   0.0277778
        k(   70) = (  -0.0930369   0.0657882   0.0000000), wk =   0.0277778
        k(   71) = (  -0.0930369   0.0822351   0.0000000), wk =   0.0277778
        k(   72) = (  -0.0930369   0.0986819   0.0000000), wk =   0.0277778
        k(   73) = (  -0.0930369   0.1151287   0.0000000), wk =   0.0277778
        k(   74) = (  -0.0930369  -0.0657863   0.0000000), wk =   0.0138889

     Dense  grid:   979351 G-vectors     FFT dimensions: (  75,  75, 360)

     Smooth grid:   247609 G-vectors     FFT dimensions: (  50,  50, 225)

     Estimated max dynamical RAM per process >     402.67 MB

     Estimated total dynamical RAM >      14.55 GB

     Initial potential from superposition of free atoms

     starting charge  245.99030, renormalised to  246.00000

     negative rho (up, down):  3.304E-03 0.000E+00


     %%%%%%%%%%%%%%%%%%%%%%%%%%%%%%%%%%%%%%%%%%%%%%%%%%%%%%%%%%%%%%%%%%%%%%%%
     %                                                                      %
     % You are using vdW-DF, which was implemented by the Thonhauser group. %
     % Please cite the following two papers that made this development      %
     % possible and the two reviews that describe the various versions:     %
     %                                                                      %
     %   T. Thonhauser et al., PRL 115, 136402 (2015).                      %
     %   T. Thonhauser et al., PRB 76, 125112 (2007).                       %
     %   K. Berland et al., Rep. Prog. Phys. 78, 066501 (2015).             %
     %   D.C. Langreth et al., J. Phys.: Condens. Matter 21, 084203 (2009). %
     %                                                                      %
     %                                                                      %
     % If you are calculating the stress with vdW-DF, please also cite:     %
     %                                                                      %
     %   R. Sabatini et al., J. Phys.: Condens. Matter 24, 424209 (2012).   %
     %                                                                      %
     %%%%%%%%%%%%%%%%%%%%%%%%%%%%%%%%%%%%%%%%%%%%%%%%%%%%%%%%%%%%%%%%%%%%%%%%



     Adding external electric field

     Computed dipole along edir(3) : 
        Dipole               -0.0001 Ry au,         -0.0002 Debye
        Dipole field         -0.0000 Ry au, 

        Potential amp.        0.0000 Ry
        Total length         44.9345 bohr

     Starting wfcs are  162 randomized atomic wfcs

     total cpu time spent up to now is      190.5 secs

     Self-consistent Calculation

     iteration #  1     ecut=    55.12 Ry     beta= 0.10
     Davidson diagonalization with overlap
     ethr =  1.00E-02,  avg # of iterations =  2.5

     negative rho (up, down):  3.273E-03 0.000E+00

     Adding external electric field

     Computed dipole along edir(3) : 
        Dipole               -0.2469 Ry au,         -0.6277 Debye
        Dipole field         -0.0007 Ry au, 

        Potential amp.        0.0622 Ry
        Total length         44.9345 bohr


     total cpu time spent up to now is      720.6 secs

     total energy              =   -5145.29309854 Ry
     estimated scf accuracy    <      12.07102391 Ry

     iteration #  2     ecut=    55.12 Ry     beta= 0.10
     Davidson diagonalization with overlap
     ethr =  4.91E-03,  avg # of iterations =  2.3

     negative rho (up, down):  3.300E-03 0.000E+00

     Adding external electric field

     Computed dipole along edir(3) : 
        Dipole                0.9666 Ry au,          2.4568 Debye
        Dipole field          0.0027 Ry au, 

        Potential amp.       -0.2436 Ry
        Total length         44.9345 bohr


     total cpu time spent up to now is     1200.6 secs

     total energy              =   -5145.69737706 Ry
     estimated scf accuracy    <      11.79009482 Ry

     iteration #  3     ecut=    55.12 Ry     beta= 0.10
     Davidson diagonalization with overlap
     ethr =  4.79E-03,  avg # of iterations =  1.6

     negative rho (up, down):  3.434E-03 0.000E+00

     Adding external electric field

     Computed dipole along edir(3) : 
        Dipole               -0.0466 Ry au,         -0.1185 Debye
        Dipole field         -0.0001 Ry au, 

        Potential amp.        0.0117 Ry
        Total length         44.9345 bohr


     total cpu time spent up to now is     1631.3 secs

     total energy              =   -5145.53961601 Ry
     estimated scf accuracy    <      84.00202023 Ry

     iteration #  4     ecut=    55.12 Ry     beta= 0.10
     Davidson diagonalization with overlap
     ethr =  4.79E-03,  avg # of iterations =  1.1

     negative rho (up, down):  3.566E-03 0.000E+00

     Adding external electric field

     Computed dipole along edir(3) : 
        Dipole                0.0154 Ry au,          0.0392 Debye
        Dipole field          0.0000 Ry au, 

        Potential amp.       -0.0039 Ry
        Total length         44.9345 bohr


     total cpu time spent up to now is     2007.7 secs

     total energy              =   -5146.45691522 Ry
     estimated scf accuracy    <       1.37447964 Ry

     iteration #  5     ecut=    55.12 Ry     beta= 0.10
     Davidson diagonalization with overlap
     ethr =  5.59E-04,  avg # of iterations =  2.1

     negative rho (up, down):  3.259E-03 0.000E+00

     Adding external electric field

     Computed dipole along edir(3) : 
        Dipole                0.0144 Ry au,          0.0367 Debye
        Dipole field          0.0000 Ry au, 

        Potential amp.       -0.0036 Ry
        Total length         44.9345 bohr


     total cpu time spent up to now is     2357.6 secs

     total energy              =   -5146.37114584 Ry
     estimated scf accuracy    <       0.46123848 Ry

     iteration #  6     ecut=    55.12 Ry     beta= 0.10
     Davidson diagonalization with overlap
     ethr =  1.87E-04,  avg # of iterations =  4.5

     negative rho (up, down):  3.238E-03 0.000E+00

     Adding external electric field

     Computed dipole along edir(3) : 
        Dipole                0.0133 Ry au,          0.0337 Debye
        Dipole field          0.0000 Ry au, 

        Potential amp.       -0.0033 Ry
        Total length         44.9345 bohr


     total cpu time spent up to now is     2774.1 secs

     total energy              =   -5146.39984445 Ry
     estimated scf accuracy    <       0.40753364 Ry

     iteration #  7     ecut=    55.12 Ry     beta= 0.10
     Davidson diagonalization with overlap
     ethr =  1.66E-04,  avg # of iterations =  1.9

     negative rho (up, down):  3.235E-03 0.000E+00

     Adding external electric field

     Computed dipole along edir(3) : 
        Dipole                0.0350 Ry au,          0.0889 Debye
        Dipole field          0.0001 Ry au, 

        Potential amp.       -0.0088 Ry
        Total length         44.9345 bohr


     total cpu time spent up to now is     3124.0 secs

     total energy              =   -5146.41934574 Ry
     estimated scf accuracy    <       0.12066646 Ry

     iteration #  8     ecut=    55.12 Ry     beta= 0.10
     Davidson diagonalization with overlap
     ethr =  4.91E-05,  avg # of iterations =  7.5

     negative rho (up, down):  3.192E-03 0.000E+00

     Adding external electric field

     Computed dipole along edir(3) : 
        Dipole                0.0325 Ry au,          0.0826 Debye
        Dipole field          0.0001 Ry au, 

        Potential amp.       -0.0082 Ry
        Total length         44.9345 bohr


     total cpu time spent up to now is     3551.9 secs

     total energy              =   -5146.42942061 Ry
     estimated scf accuracy    <       0.31958127 Ry

     iteration #  9     ecut=    55.12 Ry     beta= 0.10
     Davidson diagonalization with overlap
     ethr =  4.91E-05,  avg # of iterations =  1.0

     negative rho (up, down):  3.173E-03 0.000E+00

     Adding external electric field

     Computed dipole along edir(3) : 
        Dipole                0.0315 Ry au,          0.0801 Debye
        Dipole field          0.0001 Ry au, 

        Potential amp.       -0.0079 Ry
        Total length         44.9345 bohr


     total cpu time spent up to now is     3867.6 secs

     total energy              =   -5146.42258481 Ry
     estimated scf accuracy    <       0.25233231 Ry

     iteration # 10     ecut=    55.12 Ry     beta= 0.10
     Davidson diagonalization with overlap
     ethr =  4.91E-05,  avg # of iterations =  1.1

     negative rho (up, down):  3.214E-03 0.000E+00

     Adding external electric field

     Computed dipole along edir(3) : 
        Dipole                0.0221 Ry au,          0.0561 Debye
        Dipole field          0.0001 Ry au, 

        Potential amp.       -0.0056 Ry
        Total length         44.9345 bohr


     total cpu time spent up to now is     4096.5 secs

     total energy              =   -5146.41034982 Ry
     estimated scf accuracy    <       0.16780331 Ry

     iteration # 11     ecut=    55.12 Ry     beta= 0.10
     Davidson diagonalization with overlap
     ethr =  4.91E-05,  avg # of iterations =  2.1

     negative rho (up, down):  3.413E-03 0.000E+00

     Adding external electric field

     Computed dipole along edir(3) : 
        Dipole                0.0104 Ry au,          0.0265 Debye
        Dipole field          0.0000 Ry au, 

        Potential amp.       -0.0026 Ry
        Total length         44.9345 bohr


     total cpu time spent up to now is     4402.3 secs

     total energy              =   -5146.41734561 Ry
     estimated scf accuracy    <       0.03113659 Ry

     iteration # 12     ecut=    55.12 Ry     beta= 0.10
     Davidson diagonalization with overlap
     ethr =  1.27E-05,  avg # of iterations =  8.4

     negative rho (up, down):  3.361E-03 0.000E+00

     Adding external electric field

     Computed dipole along edir(3) : 
        Dipole                0.0132 Ry au,          0.0336 Debye
        Dipole field          0.0000 Ry au, 

        Potential amp.       -0.0033 Ry
        Total length         44.9345 bohr


     total cpu time spent up to now is     4871.6 secs

     total energy              =   -5146.41429615 Ry
     estimated scf accuracy    <       0.06968640 Ry

     iteration # 13     ecut=    55.12 Ry     beta= 0.10
     Davidson diagonalization with overlap
     ethr =  1.27E-05,  avg # of iterations =  4.0

     negative rho (up, down):  3.415E-03 0.000E+00

     Adding external electric field

     Computed dipole along edir(3) : 
        Dipole                0.0219 Ry au,          0.0556 Debye
        Dipole field          0.0001 Ry au, 

        Potential amp.       -0.0055 Ry
        Total length         44.9345 bohr


     total cpu time spent up to now is     5232.0 secs

     total energy              =   -5146.41876601 Ry
     estimated scf accuracy    <       0.00243284 Ry

     iteration # 14     ecut=    55.12 Ry     beta= 0.10
     Davidson diagonalization with overlap
     c_bands:  1 eigenvalues not converged
     ethr =  9.89E-07,  avg # of iterations =  8.1

     negative rho (up, down):  3.342E-03 0.000E+00

     Adding external electric field

     Computed dipole along edir(3) : 
        Dipole                0.0203 Ry au,          0.0516 Debye
        Dipole field          0.0001 Ry au, 

        Potential amp.       -0.0051 Ry
        Total length         44.9345 bohr


     total cpu time spent up to now is     5659.4 secs

     total energy              =   -5146.41920661 Ry
     estimated scf accuracy    <       0.00260408 Ry

     iteration # 15     ecut=    55.12 Ry     beta= 0.10
     Davidson diagonalization with overlap
     ethr =  9.89E-07,  avg # of iterations =  1.7

     negative rho (up, down):  3.395E-03 0.000E+00

     Adding external electric field

     Computed dipole along edir(3) : 
        Dipole                0.0193 Ry au,          0.0490 Debye
        Dipole field          0.0001 Ry au, 

        Potential amp.       -0.0049 Ry
        Total length         44.9345 bohr


     total cpu time spent up to now is     5944.6 secs

     total energy              =   -5146.41935881 Ry
     estimated scf accuracy    <       0.00267520 Ry

     iteration # 16     ecut=    55.12 Ry     beta= 0.10
     Davidson diagonalization with overlap
     ethr =  9.89E-07,  avg # of iterations =  1.4

     negative rho (up, down):  3.339E-03 0.000E+00

     Adding external electric field

     Computed dipole along edir(3) : 
        Dipole                0.0181 Ry au,          0.0460 Debye
        Dipole field          0.0001 Ry au, 

        Potential amp.       -0.0046 Ry
        Total length         44.9345 bohr


     total cpu time spent up to now is     6165.6 secs

     total energy              =   -5146.41947435 Ry
     estimated scf accuracy    <       0.00033957 Ry

     iteration # 17     ecut=    55.12 Ry     beta= 0.10
     Davidson diagonalization with overlap
     ethr =  1.38E-07,  avg # of iterations =  2.0

     negative rho (up, down):  3.287E-03 0.000E+00

     Adding external electric field

     Computed dipole along edir(3) : 
        Dipole                0.0187 Ry au,          0.0475 Debye
        Dipole field          0.0001 Ry au, 

        Potential amp.       -0.0047 Ry
        Total length         44.9345 bohr


     total cpu time spent up to now is     6409.4 secs

     total energy              =   -5146.41949442 Ry
     estimated scf accuracy    <       0.00009835 Ry

     iteration # 18     ecut=    55.12 Ry     beta= 0.10
     Davidson diagonalization with overlap
     ethr =  4.00E-08,  avg # of iterations =  5.1

     negative rho (up, down):  3.241E-03 0.000E+00

     Adding external electric field

     Computed dipole along edir(3) : 
        Dipole                0.0170 Ry au,          0.0431 Debye
        Dipole field          0.0000 Ry au, 

        Potential amp.       -0.0043 Ry
        Total length         44.9345 bohr


     total cpu time spent up to now is     6733.8 secs

     total energy              =   -5146.41948100 Ry
     estimated scf accuracy    <       0.00042469 Ry

     iteration # 19     ecut=    55.12 Ry     beta= 0.10
     Davidson diagonalization with overlap
     ethr =  4.00E-08,  avg # of iterations =  3.1

     negative rho (up, down):  3.207E-03 0.000E+00

     Adding external electric field

     Computed dipole along edir(3) : 
        Dipole                0.0170 Ry au,          0.0431 Debye
        Dipole field          0.0000 Ry au, 

        Potential amp.       -0.0043 Ry
        Total length         44.9345 bohr


     total cpu time spent up to now is     7057.4 secs

     total energy              =   -5146.41949700 Ry
     estimated scf accuracy    <       0.00011838 Ry

     iteration # 20     ecut=    55.12 Ry     beta= 0.10
     Davidson diagonalization with overlap
     ethr =  4.00E-08,  avg # of iterations =  1.3

     negative rho (up, down):  2.985E-03 0.000E+00

     Adding external electric field

     Computed dipole along edir(3) : 
        Dipole                0.0131 Ry au,          0.0334 Debye
        Dipole field          0.0000 Ry au, 

        Potential amp.       -0.0033 Ry
        Total length         44.9345 bohr


     total cpu time spent up to now is     7344.7 secs

     End of self-consistent calculation

          k = 0.0000 0.0000 0.0000 ( 30855 PWs)   bands (ev):

   -69.3850 -69.3780 -69.2917 -69.2855 -69.2591 -69.2527 -66.1043 -66.0961
   -66.0889 -66.0807 -65.7815 -65.7664 -40.7230 -40.7171 -40.7122 -40.6901
   -40.6867 -40.6820 -40.6720 -40.6459 -40.6417 -40.6245 -40.6072 -40.5885
   -40.5326 -40.5210 -40.5127 -40.5110 -40.5059 -40.4948 -32.5227 -32.5106
   -32.5047 -32.4799 -32.4733 -32.4660 -32.3813 -32.3673 -32.3344 -32.3105
   -32.2579 -32.1393 -32.1296 -32.0791 -32.0650 -32.0468 -32.0180 -31.9086
   -17.8048 -17.8003 -17.7991 -17.7984 -17.7974 -17.7972 -17.7935 -17.7931
   -17.7924 -17.7886 -17.7842 -17.7776 -17.7755 -17.7702 -17.7672 -17.7666
   -17.7632 -17.7593 -17.7588 -17.7553 -17.7338 -17.7328 -17.7249 -17.7239
   -17.7195 -17.7194 -17.7105 -17.7105 -17.4207 -17.4167 -17.4160 -17.4136
   -17.4130 -17.4110 -17.4073 -17.4072 -17.4028 -17.4015 -17.4000 -17.3992
   -17.3947 -17.3935  -4.9999  -3.2076  -2.1708  -1.8571  -1.6691  -1.6063
    -1.5757  -1.3523  -1.3449  -1.2538  -0.8061  -0.7110  -0.4368   0.2998
     0.3564   0.4103   0.4138   0.4173   0.4891   0.5215   0.7443   0.8261
     1.1521   1.3770   1.4051   1.6780   1.7014   1.7301   1.9397   2.2605
     2.4000   2.4121   2.4906   2.6355   3.0118   3.1474   3.4711   3.6142
     3.6637   3.7059   3.7542   3.7921   3.8966   3.9653   4.0051   4.1588
     4.2620   4.2750   4.3541   4.4124   4.5621   4.7194   4.7272   4.8144
     5.1532   5.1825   5.2614   5.4741

          k = 0.0000 0.0164 0.0000 ( 30889 PWs)   bands (ev):

   -69.3849 -69.3781 -69.2915 -69.2856 -69.2589 -69.2528 -66.1041 -66.0959
   -66.0892 -66.0810 -65.7812 -65.7667 -40.7215 -40.7167 -40.7119 -40.6904
   -40.6874 -40.6808 -40.6718 -40.6471 -40.6416 -40.6249 -40.6058 -40.5871
   -40.5337 -40.5205 -40.5139 -40.5109 -40.5054 -40.4947 -32.5221 -32.5109
   -32.5053 -32.4749 -32.4742 -32.4609 -32.3807 -32.3675 -32.3360 -32.3124
   -32.2525 -32.1457 -32.1360 -32.0776 -32.0653 -32.0476 -32.0189 -31.9151
   -17.8047 -17.8004 -17.7991 -17.7985 -17.7973 -17.7971 -17.7936 -17.7930
   -17.7925 -17.7884 -17.7844 -17.7774 -17.7757 -17.7701 -17.7671 -17.7668
   -17.7633 -17.7592 -17.7590 -17.7554 -17.7337 -17.7326 -17.7248 -17.7237
   -17.7198 -17.7198 -17.7109 -17.7108 -17.4204 -17.4166 -17.4159 -17.4136
   -17.4131 -17.4109 -17.4072 -17.4071 -17.4028 -17.4016 -17.4003 -17.3995
   -17.3950 -17.3938  -4.9436  -3.1531  -2.1157  -1.8396  -1.6358  -1.5890
    -1.5690  -1.3295  -1.3149  -1.2284  -0.7632  -0.6665  -0.4157   0.3039
     0.3586   0.4251   0.4332   0.4511   0.4981   0.5465   0.7574   0.8078
     1.1561   1.3281   1.3856   1.6320   1.6965   1.7448   1.9115   2.2785
     2.3549   2.3697   2.3918   2.6007   2.9638   3.0713   3.3914   3.4497
     3.6184   3.6386   3.6893   3.9195   3.9403   3.9873   3.9892   4.0881
     4.2503   4.2726   4.3480   4.3783   4.3988   4.6625   4.7923   4.8318
     5.0234   5.1472   5.1625   5.3795

          k = 0.0000 0.0329 0.0000 ( 30886 PWs)   bands (ev):

   -69.3845 -69.3784 -69.2912 -69.2859 -69.2586 -69.2531 -66.1034 -66.0952
   -66.0900 -66.0818 -65.7805 -65.7675 -40.7174 -40.7157 -40.7109 -40.6912
   -40.6888 -40.6783 -40.6713 -40.6505 -40.6413 -40.6259 -40.6016 -40.5829
   -40.5370 -40.5190 -40.5173 -40.5104 -40.5041 -40.4946 -32.5201 -32.5118
   -32.5067 -32.4777 -32.4592 -32.4458 -32.3788 -32.3679 -32.3404 -32.3179
   -32.2366 -32.1642 -32.1546 -32.0736 -32.0661 -32.0501 -32.0214 -31.9341
   -17.8044 -17.8006 -17.7991 -17.7986 -17.7971 -17.7964 -17.7937 -17.7930
   -17.7926 -17.7877 -17.7851 -17.7769 -17.7763 -17.7695 -17.7674 -17.7669
   -17.7635 -17.7596 -17.7590 -17.7556 -17.7333 -17.7320 -17.7244 -17.7231
   -17.7208 -17.7205 -17.7118 -17.7116 -17.4194 -17.4163 -17.4155 -17.4137
   -17.4132 -17.4107 -17.4069 -17.4066 -17.4031 -17.4015 -17.4009 -17.4003
   -17.3960 -17.3945  -4.7774  -2.9940  -1.9547  -1.8677  -1.5641  -1.5495
    -1.4592  -1.2795  -1.2055  -1.1549  -0.6619  -0.5345  -0.3322   0.3217
     0.3596   0.4402   0.5005   0.5204   0.5224   0.6337   0.7519   0.8013
     1.1654   1.2250   1.3297   1.5089   1.6522   1.7421   1.9123   2.1401
     2.2086   2.2677   2.3390   2.5049   2.7799   2.8281   3.0480   3.2970
     3.4262   3.5965   3.7024   3.8387   3.9064   3.9309   3.9479   4.1059
     4.1978   4.2092   4.3049   4.3206   4.3277   4.5397   4.7989   4.8795
     4.9043   5.0444   5.0842   5.2370

          k = 0.0000 0.0493 0.0000 ( 30963 PWs)   bands (ev):

   -69.3839 -69.3789 -69.2907 -69.2863 -69.2580 -69.2535 -66.1022 -66.0941
   -66.0913 -66.0832 -65.7794 -65.7687 -40.7142 -40.7114 -40.7089 -40.6924
   -40.6903 -40.6755 -40.6705 -40.6560 -40.6407 -40.6277 -40.5951 -40.5764
   -40.5425 -40.5229 -40.5169 -40.5099 -40.5022 -40.4945 -32.5171 -32.5129
   -32.5086 -32.4825 -32.4344 -32.4217 -32.3755 -32.3679 -32.3467 -32.3259
   -32.2109 -32.1933 -32.1838 -32.0680 -32.0666 -32.0536 -32.0256 -31.9639
   -17.8041 -17.8009 -17.7992 -17.7987 -17.7967 -17.7954 -17.7940 -17.7931
   -17.7927 -17.7867 -17.7862 -17.7775 -17.7761 -17.7688 -17.7684 -17.7666
   -17.7639 -17.7606 -17.7587 -17.7560 -17.7326 -17.7311 -17.7236 -17.7224
   -17.7222 -17.7216 -17.7134 -17.7127 -17.4177 -17.4159 -17.4151 -17.4139
   -17.4133 -17.4102 -17.4066 -17.4057 -17.4035 -17.4023 -17.4016 -17.4013
   -17.3974 -17.3958  -4.5098  -2.7438  -2.0616  -1.7012  -1.4706  -1.4094
    -1.2840  -1.1754  -1.0423  -1.0329  -0.5649  -0.3206  -0.1567   0.3409
     0.3438   0.4135   0.5422   0.5762   0.6103   0.6580   0.7825   0.8905
     1.1659   1.1720   1.2459   1.3646   1.5567   1.6445   1.8682   1.9608
     2.0490   2.1680   2.2509   2.3525   2.4596   2.5612   2.6836   3.0537
     3.3282   3.4359   3.4923   3.7780   3.8149   3.8905   3.9163   4.0524
     4.1407   4.1568   4.2523   4.2640   4.4038   4.4611   4.7251   4.7436
     4.8701   4.8992   4.9190   4.9537

          k = 0.0000 0.0658 0.0000 ( 30968 PWs)   bands (ev):

   -69.3832 -69.3795 -69.2900 -69.2869 -69.2573 -69.2541 -66.1007 -66.0930
   -66.0926 -66.0849 -65.7779 -65.7704 -40.7123 -40.7089 -40.7019 -40.6934
   -40.6918 -40.6730 -40.6698 -40.6632 -40.6395 -40.6300 -40.5868 -40.5681
   -40.5496 -40.5303 -40.5145 -40.5096 -40.5000 -40.4947 -32.5140 -32.5127
   -32.5107 -32.4885 -32.4018 -32.3908 -32.3707 -32.3659 -32.3535 -32.3351
   -32.2304 -32.2207 -32.1770 -32.0679 -32.0602 -32.0575 -32.0310 -32.0017
   -17.8035 -17.8013 -17.7992 -17.7988 -17.7963 -17.7944 -17.7940 -17.7931
   -17.7928 -17.7875 -17.7853 -17.7788 -17.7751 -17.7696 -17.7677 -17.7663
   -17.7643 -17.7619 -17.7584 -17.7564 -17.7315 -17.7298 -17.7243 -17.7231
   -17.7225 -17.7209 -17.7153 -17.7141 -17.4155 -17.4155 -17.4146 -17.4141
   -17.4134 -17.4094 -17.4062 -17.4045 -17.4042 -17.4039 -17.4031 -17.4012
   -17.3987 -17.3973  -4.1549  -2.4280  -2.3912  -1.4636  -1.3828  -1.1903
    -1.0591  -1.0113  -0.9091  -0.8165  -0.5051  -0.0342   0.0223   0.2978
     0.3176   0.3373   0.5305   0.5537   0.6325   0.7030   0.9534   1.0292
     1.1260   1.1274   1.1937   1.3699   1.4209   1.5405   1.6510   1.7019
     1.9540   1.9927   2.0282   2.0745   2.2442   2.4396   2.6185   2.8677
     2.8926   3.1934   3.4694   3.7707   3.8161   3.8455   3.9185   3.9581
     4.1153   4.1437   4.1613   4.2124   4.2645   4.4352   4.4489   4.5885
     4.6264   4.6535   4.7618   4.9093

          k = 0.0000 0.0822 0.0000 ( 30978 PWs)   bands (ev):

   -69.3825 -69.3801 -69.2892 -69.2876 -69.2565 -69.2549 -66.0989 -66.0950
   -66.0908 -66.0868 -65.7762 -65.7723 -40.7104 -40.7083 -40.6950 -40.6932
   -40.6914 -40.6733 -40.6696 -40.6692 -40.6377 -40.6326 -40.5774 -40.5586
   -40.5582 -40.5391 -40.5123 -40.5098 -40.4980 -40.4952 -32.5143 -32.5126
   -32.5076 -32.4950 -32.3713 -32.3644 -32.3634 -32.3599 -32.3477 -32.3418
   -32.2727 -32.2626 -32.1369 -32.0690 -32.0610 -32.0526 -32.0435 -32.0375
   -17.8030 -17.8018 -17.7992 -17.7990 -17.7958 -17.7948 -17.7931 -17.7929
   -17.7924 -17.7891 -17.7837 -17.7804 -17.7738 -17.7710 -17.7664 -17.7658
   -17.7648 -17.7634 -17.7579 -17.7569 -17.7300 -17.7283 -17.7263 -17.7247
   -17.7210 -17.7193 -17.7173 -17.7158 -17.4151 -17.4144 -17.4142 -17.4138
   -17.4126 -17.4081 -17.4069 -17.4057 -17.4048 -17.4045 -17.4028 -17.4008
   -17.3996 -17.3991  -3.7334  -2.8110  -2.0877  -1.5634  -1.0548  -0.9722
    -0.8458  -0.8300  -0.7941  -0.5781  -0.5218  -0.0589   0.2409   0.2803
     0.2942   0.3131   0.4255   0.5464   0.6326   0.7895   1.0087   1.0220
     1.0989   1.2136   1.2145   1.2917   1.3799   1.4424   1.5641   1.6100
     1.7156   1.7255   1.8074   1.9662   2.2451   2.3208   2.5501   2.6572
     2.7791   2.9266   3.5613   3.7794   3.7873   3.8296   3.8504   3.9188
     3.9598   4.0350   4.0760   4.1057   4.1584   4.2995   4.3108   4.4168
     4.4799   4.5516   4.7006   4.9416

          k = 0.0000-0.0987 0.0000 ( 30960 PWs)   bands (ev):

   -69.3820 -69.3806 -69.2885 -69.2884 -69.2557 -69.2557 -66.0970 -66.0970
   -66.0888 -66.0888 -65.7742 -65.7742 -40.7090 -40.7088 -40.6943 -40.6941
   -40.6827 -40.6814 -40.6695 -40.6692 -40.6355 -40.6352 -40.5677 -40.5677
   -40.5488 -40.5487 -40.5108 -40.5106 -40.4964 -40.4963 -32.5138 -32.5138
   -32.5015 -32.5015 -32.3654 -32.3654 -32.3570 -32.3570 -32.3163 -32.3163
   -32.3058 -32.3058 -32.0937 -32.0937 -32.0626 -32.0626 -32.0447 -32.0447
   -17.8023 -17.8023 -17.7991 -17.7991 -17.7953 -17.7952 -17.7931 -17.7930
   -17.7907 -17.7907 -17.7821 -17.7821 -17.7724 -17.7724 -17.7653 -17.7653
   -17.7649 -17.7649 -17.7574 -17.7574 -17.7283 -17.7283 -17.7265 -17.7265
   -17.7193 -17.7193 -17.7175 -17.7175 -17.4147 -17.4147 -17.4139 -17.4139
   -17.4098 -17.4098 -17.4065 -17.4065 -17.4051 -17.4051 -17.4010 -17.4010
   -17.4003 -17.4003  -3.2733  -3.2732  -1.7803  -1.7802  -0.8686  -0.8685
    -0.7597  -0.7594  -0.6583  -0.6581  -0.3113  -0.3110   0.2372   0.2372
     0.3159   0.3160   0.5745   0.5748   0.6896   0.6897   0.9281   0.9283
     1.1760   1.1764   1.3143   1.3143   1.3738   1.3739   1.4547   1.4548
     1.7539   1.7540   1.9813   1.9814   2.0172   2.0174   2.6849   2.6850
     2.7307   2.7308   3.6907   3.6908   3.7882   3.7885   3.8363   3.8366
     3.8897   3.8900   4.0723   4.0724   4.2205   4.2207   4.3195   4.3196
     4.4698   4.4699   4.7866   4.7868

          k = 0.0155-0.0055 0.0000 ( 30889 PWs)   bands (ev):

   -69.3849 -69.3781 -69.2915 -69.2856 -69.2589 -69.2528 -66.1041 -66.0959
   -66.0892 -66.0810 -65.7812 -65.7667 -40.7215 -40.7167 -40.7119 -40.6904
   -40.6874 -40.6808 -40.6718 -40.6471 -40.6416 -40.6249 -40.6058 -40.5871
   -40.5337 -40.5205 -40.5139 -40.5109 -40.5054 -40.4947 -32.5221 -32.5109
   -32.5053 -32.4749 -32.4742 -32.4609 -32.3807 -32.3675 -32.3360 -32.3124
   -32.2525 -32.1457 -32.1360 -32.0776 -32.0653 -32.0476 -32.0189 -31.9151
   -17.8047 -17.8004 -17.7991 -17.7985 -17.7973 -17.7971 -17.7936 -17.7930
   -17.7925 -17.7884 -17.7844 -17.7774 -17.7757 -17.7701 -17.7671 -17.7668
   -17.7633 -17.7592 -17.7590 -17.7554 -17.7337 -17.7326 -17.7248 -17.7237
   -17.7198 -17.7198 -17.7109 -17.7108 -17.4204 -17.4166 -17.4159 -17.4136
   -17.4131 -17.4109 -17.4072 -17.4071 -17.4028 -17.4016 -17.4003 -17.3995
   -17.3950 -17.3938  -4.9436  -3.1531  -2.1157  -1.8396  -1.6358  -1.5890
    -1.5690  -1.3295  -1.3149  -1.2284  -0.7632  -0.6665  -0.4157   0.3039
     0.3586   0.4251   0.4332   0.4511   0.4981   0.5465   0.7574   0.8078
     1.1561   1.3281   1.3856   1.6320   1.6965   1.7448   1.9115   2.2785
     2.3549   2.3697   2.3918   2.6007   2.9638   3.0713   3.3914   3.4497
     3.6184   3.6386   3.6893   3.9195   3.9403   3.9873   3.9892   4.0881
     4.2503   4.2726   4.3480   4.3783   4.3989   4.6625   4.7924   4.8318
     5.0234   5.1472   5.1624   5.3801

          k = 0.0155 0.0110 0.0000 ( 30877 PWs)   bands (ev):

   -69.3849 -69.3780 -69.2916 -69.2855 -69.2590 -69.2527 -66.1044 -66.0962
   -66.0889 -66.0807 -65.7816 -65.7664 -40.7225 -40.7165 -40.7112 -40.6909
   -40.6895 -40.6789 -40.6708 -40.6458 -40.6417 -40.6254 -40.6067 -40.5880
   -40.5325 -40.5201 -40.5126 -40.5104 -40.5052 -40.4946 -32.5214 -32.5148
   -32.5028 -32.4815 -32.4761 -32.4674 -32.3793 -32.3638 -32.3412 -32.3143
   -32.2590 -32.1396 -32.1299 -32.0758 -32.0671 -32.0470 -32.0198 -31.9090
   -17.8048 -17.8004 -17.7991 -17.7985 -17.7974 -17.7973 -17.7935 -17.7931
   -17.7925 -17.7886 -17.7843 -17.7775 -17.7755 -17.7702 -17.7672 -17.7666
   -17.7632 -17.7593 -17.7588 -17.7553 -17.7340 -17.7329 -17.7250 -17.7240
   -17.7196 -17.7194 -17.7106 -17.7105 -17.4208 -17.4167 -17.4161 -17.4136
   -17.4131 -17.4111 -17.4073 -17.4073 -17.4027 -17.4017 -17.4002 -17.3992
   -17.3946 -17.3935  -4.9265  -3.1444  -2.1081  -1.8113  -1.6194  -1.5945
    -1.5875  -1.3150  -1.3038  -1.2200  -0.7649  -0.6669  -0.4014   0.2830
     0.3554   0.4109   0.4305   0.4804   0.5336   0.5490   0.7781   0.8481
     1.2051   1.3819   1.4261   1.6590   1.6995   1.7792   1.9304   2.2410
     2.3982   2.4098   2.4483   2.5231   2.9674   3.0209   3.3983   3.5084
     3.5650   3.6145   3.6609   3.7424   3.7935   3.8876   3.9672   3.9940
     4.2160   4.2270   4.2554   4.3423   4.4046   4.6923   4.7781   4.9268
     5.0562   5.2375   5.2714   5.3556

          k = 0.0155 0.0274 0.0000 ( 30897 PWs)   bands (ev):

   -69.3847 -69.3781 -69.2915 -69.2856 -69.2589 -69.2528 -66.1042 -66.0960
   -66.0892 -66.0811 -65.7814 -65.7666 -40.7206 -40.7156 -40.7100 -40.6917
   -40.6912 -40.6768 -40.6696 -40.6468 -40.6415 -40.6265 -40.6048 -40.5861
   -40.5336 -40.5188 -40.5138 -40.5098 -40.5041 -40.4943 -32.5196 -32.5187
   -32.5015 -32.4797 -32.4775 -32.4634 -32.3770 -32.3608 -32.3489 -32.3198
   -32.2545 -32.1463 -32.1366 -32.0717 -32.0691 -32.0481 -32.0224 -31.9159
   -17.8047 -17.8004 -17.7992 -17.7985 -17.7973 -17.7971 -17.7936 -17.7932
   -17.7925 -17.7884 -17.7845 -17.7773 -17.7757 -17.7700 -17.7672 -17.7668
   -17.7633 -17.7592 -17.7590 -17.7554 -17.7340 -17.7328 -17.7250 -17.7239
   -17.7200 -17.7197 -17.7111 -17.7107 -17.4205 -17.4165 -17.4161 -17.4137
   -17.4132 -17.4111 -17.4072 -17.4071 -17.4028 -17.4018 -17.4005 -17.3994
   -17.3950 -17.3938  -4.7986  -3.0296  -1.9946  -1.8026  -1.5676  -1.5496
    -1.5447  -1.2453  -1.2401  -1.1628  -0.6943  -0.5794  -0.3336   0.2852
     0.3567   0.4070   0.4764   0.5277   0.5990   0.6116   0.8260   0.8483
     1.2575   1.3511   1.4213   1.6016   1.6745   1.8222   1.9281   2.2432
     2.3046   2.3372   2.3899   2.4089   2.8334   2.8410   3.1072   3.3643
     3.4088   3.4908   3.6533   3.6819   3.7921   3.8167   3.8262   3.9739
     4.0466   4.1086   4.2454   4.2878   4.4125   4.6249   4.7630   4.9552
     4.9649   5.1976   5.2519   5.3428

          k = 0.0155 0.0439 0.0000 ( 30923 PWs)   bands (ev):

   -69.3843 -69.3784 -69.2911 -69.2859 -69.2585 -69.2531 -66.1036 -66.0954
   -66.0901 -66.0819 -65.7808 -65.7674 -40.7161 -40.7142 -40.7085 -40.6927
   -40.6925 -40.6746 -40.6685 -40.6502 -40.6408 -40.6283 -40.6003 -40.5816
   -40.5370 -40.5173 -40.5168 -40.5091 -40.5023 -40.4941 -32.5224 -32.5163
   -32.5010 -32.4846 -32.4631 -32.4493 -32.3737 -32.3583 -32.3577 -32.3279
   -32.2392 -32.1647 -32.1551 -32.0716 -32.0654 -32.0504 -32.0265 -31.9350
   -17.8045 -17.8006 -17.7993 -17.7986 -17.7971 -17.7964 -17.7937 -17.7933
   -17.7926 -17.7878 -17.7851 -17.7769 -17.7764 -17.7695 -17.7674 -17.7670
   -17.7635 -17.7597 -17.7591 -17.7556 -17.7336 -17.7323 -17.7247 -17.7234
   -17.7211 -17.7204 -17.7122 -17.7114 -17.4195 -17.4163 -17.4158 -17.4138
   -17.4132 -17.4109 -17.4070 -17.4066 -17.4031 -17.4017 -17.4013 -17.4002
   -17.3960 -17.3945  -4.5659  -2.8189  -1.9579  -1.7831  -1.4545  -1.4435
    -1.4138  -1.1431  -1.0937  -1.0646  -0.6007  -0.4071  -0.1814   0.2992
     0.3522   0.3863   0.5467   0.5748   0.6631   0.7447   0.7985   0.9082
     1.2915   1.2983   1.3711   1.4971   1.6083   1.7422   2.0542   2.0764
     2.1401   2.1922   2.3152   2.3687   2.5200   2.6457   2.6558   3.0965
     3.2584   3.3468   3.4285   3.7119   3.7195   3.7371   3.7983   3.8641
     3.9945   4.0781   4.1531   4.3297   4.3724   4.5503   4.7316   4.8781
     4.8908   4.9491   4.9890   5.1635

          k = 0.0155 0.0603 0.0000 ( 30974 PWs)   bands (ev):

   -69.3837 -69.3789 -69.2905 -69.2864 -69.2579 -69.2535 -66.1024 -66.0943
   -66.0914 -66.0832 -65.7797 -65.7686 -40.7124 -40.7100 -40.7068 -40.6939
   -40.6930 -40.6729 -40.6677 -40.6558 -40.6395 -40.6306 -40.5936 -40.5749
   -40.5426 -40.5231 -40.5146 -40.5087 -40.5003 -40.4941 -32.5251 -32.5120
   -32.5011 -32.4903 -32.4388 -32.4256 -32.3694 -32.3663 -32.3558 -32.3374
   -32.2138 -32.1934 -32.1839 -32.0730 -32.0586 -32.0535 -32.0318 -31.9645
   -17.8041 -17.8009 -17.7994 -17.7987 -17.7968 -17.7954 -17.7940 -17.7934
   -17.7927 -17.7867 -17.7862 -17.7775 -17.7761 -17.7687 -17.7684 -17.7667
   -17.7639 -17.7607 -17.7588 -17.7559 -17.7329 -17.7314 -17.7239 -17.7227
   -17.7225 -17.7215 -17.7137 -17.7125 -17.4178 -17.4159 -17.4153 -17.4140
   -17.4133 -17.4105 -17.4067 -17.4057 -17.4035 -17.4026 -17.4017 -17.4013
   -17.3974 -17.3958  -4.2401  -2.5321  -2.2495  -1.4913  -1.4072  -1.2935
    -1.1885  -0.9898  -0.9427  -0.8845  -0.5230  -0.1562   0.0257   0.2946
     0.3039   0.3287   0.6035   0.6472   0.6703   0.6987   0.9182   1.0288
     1.2313   1.2411   1.3506   1.4761   1.5218   1.6077   1.8405   1.8665
     1.9667   2.0831   2.2188   2.2369   2.2687   2.3992   2.5363   2.8471
     2.8496   3.1602   3.3171   3.6819   3.7155   3.7487   3.7604   3.8289
     3.9465   4.0491   4.1029   4.2603   4.3086   4.4764   4.5488   4.6198
     4.6241   4.7184   4.8524   5.0553

          k = 0.0155 0.0768 0.0000 ( 30941 PWs)   bands (ev):

   -69.3830 -69.3796 -69.2899 -69.2870 -69.2572 -69.2542 -66.1009 -66.0930
   -66.0927 -66.0849 -65.7782 -65.7702 -40.7106 -40.7076 -40.7008 -40.6948
   -40.6925 -40.6721 -40.6675 -40.6632 -40.6374 -40.6331 -40.5854 -40.5667
   -40.5500 -40.5307 -40.5126 -40.5089 -40.4983 -40.4945 -32.5263 -32.5066
   -32.5014 -32.4964 -32.4060 -32.3940 -32.3739 -32.3632 -32.3524 -32.3470
   -32.2299 -32.2202 -32.1796 -32.0732 -32.0566 -32.0513 -32.0382 -32.0019
   -17.8035 -17.8013 -17.7994 -17.7988 -17.7963 -17.7944 -17.7940 -17.7934
   -17.7927 -17.7875 -17.7854 -17.7788 -17.7750 -17.7697 -17.7676 -17.7663
   -17.7643 -17.7620 -17.7584 -17.7564 -17.7317 -17.7301 -17.7245 -17.7228
   -17.7227 -17.7212 -17.7156 -17.7139 -17.4155 -17.4154 -17.4147 -17.4143
   -17.4134 -17.4097 -17.4062 -17.4045 -17.4043 -17.4039 -17.4028 -17.4013
   -17.3986 -17.3973  -3.8385  -2.6384  -2.2023  -1.4536  -1.1853  -1.0994
    -0.9518  -0.8278  -0.8193  -0.6328  -0.4897   0.1019   0.1637   0.2086
     0.2559   0.2937   0.5683   0.6188   0.6326   0.7234   1.0238   1.1159
     1.1370   1.2042   1.3458   1.4397   1.4620   1.5253   1.6420   1.6814
     1.7104   1.7539   1.9535   2.1064   2.2440   2.3473   2.5359   2.5909
     2.6974   2.9189   3.3414   3.6898   3.6961   3.7754   3.8146   3.8378
     3.8830   3.9670   4.0336   4.0795   4.1328   4.2426   4.4289   4.4677
     4.5450   4.5878   4.8389   4.9583

          k = 0.0155-0.1042 0.0000 ( 30965 PWs)   bands (ev):

   -69.3823 -69.3802 -69.2891 -69.2877 -69.2564 -69.2549 -66.0991 -66.0949
   -66.0909 -66.0867 -65.7764 -65.7720 -40.7093 -40.7082 -40.6952 -40.6937
   -40.6895 -40.6739 -40.6701 -40.6681 -40.6356 -40.6349 -40.5763 -40.5588
   -40.5574 -40.5397 -40.5111 -40.5098 -40.4967 -40.4955 -32.5259 -32.5027
   -32.5014 -32.5005 -32.3792 -32.3694 -32.3619 -32.3560 -32.3518 -32.3433
   -32.2713 -32.2614 -32.1387 -32.0729 -32.0591 -32.0454 -32.0448 -32.0427
   -17.8029 -17.8018 -17.7993 -17.7989 -17.7958 -17.7948 -17.7933 -17.7928
   -17.7924 -17.7891 -17.7838 -17.7804 -17.7738 -17.7710 -17.7663 -17.7659
   -17.7648 -17.7634 -17.7579 -17.7569 -17.7302 -17.7286 -17.7264 -17.7245
   -17.7212 -17.7196 -17.7175 -17.7155 -17.4150 -17.4145 -17.4143 -17.4137
   -17.4126 -17.4085 -17.4070 -17.4057 -17.4045 -17.4044 -17.4028 -17.4009
   -17.3996 -17.3991  -3.3859  -3.0836  -1.8786  -1.6204  -1.0766  -0.8079
    -0.7767  -0.7671  -0.7032  -0.5290  -0.3700  -0.1157   0.1962   0.2161
     0.2880   0.4570   0.5413   0.5596   0.6122   0.7654   0.9151   1.0070
     1.1045   1.2731   1.2798   1.3442   1.4056   1.4083   1.4504   1.4635
     1.7289   1.7413   1.9623   1.9863   2.0088   2.1170   2.6289   2.6600
     2.7101   2.7233   3.4499   3.7114   3.7226   3.7871   3.7952   3.8270
     3.9015   3.9228   3.9802   4.0201   4.0729   4.3044   4.3657   4.4182
     4.4294   4.5716   4.8218   4.8965

          k = 0.0155-0.0877 0.0000 ( 30989 PWs)   bands (ev):

   -69.3820 -69.3805 -69.2885 -69.2883 -69.2558 -69.2556 -66.0971 -66.0969
   -66.0889 -66.0887 -65.7745 -65.7740 -40.7098 -40.7089 -40.6948 -40.6909
   -40.6832 -40.6810 -40.6714 -40.6699 -40.6377 -40.6322 -40.5685 -40.5668
   -40.5496 -40.5478 -40.5115 -40.5102 -40.4971 -40.4955 -32.5240 -32.5080
   -32.5021 -32.4938 -32.3819 -32.3670 -32.3490 -32.3480 -32.3189 -32.3144
   -32.3077 -32.3044 -32.0941 -32.0924 -32.0657 -32.0605 -32.0530 -32.0371
   -17.8024 -17.8023 -17.7992 -17.7990 -17.7953 -17.7952 -17.7932 -17.7929
   -17.7908 -17.7906 -17.7821 -17.7820 -17.7725 -17.7724 -17.7654 -17.7653
   -17.7649 -17.7649 -17.7574 -17.7573 -17.7283 -17.7283 -17.7268 -17.7262
   -17.7194 -17.7193 -17.7178 -17.7173 -17.4149 -17.4146 -17.4139 -17.4139
   -17.4098 -17.4098 -17.4068 -17.4062 -17.4051 -17.4051 -17.4010 -17.4010
   -17.4004 -17.4002  -3.5419  -2.9152  -1.8991  -1.6195  -1.1239  -0.9395
    -0.8362  -0.7102  -0.5775  -0.5012  -0.4198  -0.1365   0.1917   0.2344
     0.3308   0.4147   0.5234   0.5526   0.6023   0.8744   0.9407   0.9617
     1.1055   1.1154   1.1546   1.2002   1.2571   1.4514   1.4603   1.5381
     1.6761   1.6846   1.7940   1.8014   2.2251   2.3133   2.5439   2.6301
     2.7852   2.9203   3.6226   3.7243   3.7810   3.7925   3.8260   3.8613
     3.9096   3.9472   4.1135   4.1202   4.3121   4.3279   4.3551   4.4198
     4.4834   4.5433   4.6448   4.9507

          k = 0.0155-0.0713 0.0000 ( 30977 PWs)   bands (ev):

   -69.3826 -69.3801 -69.2893 -69.2876 -69.2566 -69.2548 -66.0988 -66.0950
   -66.0907 -66.0868 -65.7759 -65.7724 -40.7117 -40.7094 -40.6941 -40.6927
   -40.6889 -40.6737 -40.6721 -40.6710 -40.6393 -40.6297 -40.5784 -40.5596
   -40.5577 -40.5385 -40.5138 -40.5100 -40.4991 -40.4949 -32.5208 -32.5128
   -32.5026 -32.4873 -32.3825 -32.3730 -32.3596 -32.3471 -32.3431 -32.3351
   -32.2742 -32.2639 -32.1349 -32.0645 -32.0629 -32.0607 -32.0446 -32.0310
   -17.8029 -17.8018 -17.7991 -17.7990 -17.7958 -17.7947 -17.7931 -17.7930
   -17.7923 -17.7891 -17.7837 -17.7804 -17.7739 -17.7709 -17.7664 -17.7658
   -17.7648 -17.7633 -17.7579 -17.7569 -17.7300 -17.7280 -17.7262 -17.7250
   -17.7210 -17.7191 -17.7173 -17.7160 -17.4152 -17.4143 -17.4141 -17.4137
   -17.4127 -17.4078 -17.4068 -17.4056 -17.4050 -17.4045 -17.4028 -17.4007
   -17.3996 -17.3991  -3.9747  -2.4696  -2.2378  -1.4655  -1.2834  -1.2340
    -0.9964  -0.8223  -0.7533  -0.7142  -0.4098  -0.0087   0.1303   0.2481
     0.3906   0.3965   0.4178   0.5213   0.6741   0.7990   0.9677   1.0288
     1.0363   1.0666   1.0835   1.1326   1.2786   1.5379   1.5578   1.5762
     1.6821   1.7766   1.8557   1.9463   2.2570   2.4205   2.6278   2.8200
     2.9054   3.2004   3.5894   3.8046   3.8049   3.8362   3.8862   3.8952
     4.0874   4.1904   4.2551   4.2899   4.3144   4.4046   4.4136   4.5014
     4.6518   4.6612   4.7146   4.9324

          k = 0.0155-0.0548 0.0000 ( 30999 PWs)   bands (ev):

   -69.3833 -69.3794 -69.2901 -69.2869 -69.2574 -69.2541 -66.1006 -66.0930
   -66.0924 -66.0849 -65.7777 -65.7705 -40.7136 -40.7103 -40.7030 -40.6922
   -40.6872 -40.6765 -40.6726 -40.6633 -40.6403 -40.6276 -40.5878 -40.5691
   -40.5494 -40.5300 -40.5162 -40.5103 -40.5014 -40.4948 -32.5169 -32.5168
   -32.5035 -32.4816 -32.3985 -32.3879 -32.3775 -32.3774 -32.3382 -32.3273
   -32.2310 -32.2213 -32.1750 -32.0677 -32.0635 -32.0583 -32.0259 -32.0019
   -17.8035 -17.8013 -17.7990 -17.7989 -17.7963 -17.7943 -17.7939 -17.7930
   -17.7929 -17.7875 -17.7853 -17.7789 -17.7751 -17.7696 -17.7677 -17.7662
   -17.7643 -17.7619 -17.7583 -17.7564 -17.7314 -17.7296 -17.7242 -17.7233
   -17.7224 -17.7207 -17.7152 -17.7143 -17.4156 -17.4154 -17.4145 -17.4140
   -17.4134 -17.4091 -17.4062 -17.4044 -17.4041 -17.4039 -17.4033 -17.4011
   -17.3987 -17.3973  -4.3513  -2.5728  -2.1002  -1.5489  -1.4763  -1.4182
    -1.1802  -1.0547  -0.9667  -0.9138  -0.4437  -0.1625  -0.1298   0.3087
     0.4137   0.4719   0.5010   0.5199   0.6474   0.6932   0.8362   0.9135
     1.0086   1.0677   1.1375   1.1729   1.4368   1.6169   1.6440   1.7373
     1.9532   2.0599   2.0697   2.2248   2.2396   2.5135   2.6401   3.0311
     3.2784   3.5069   3.5180   3.7909   3.8591   3.9067   3.9964   4.0104
     4.2131   4.2180   4.2799   4.3875   4.4177   4.4183   4.5354   4.6059
     4.8379   4.8890   4.9166   5.0267

          k = 0.0155-0.0384 0.0000 ( 30974 PWs)   bands (ev):

   -69.3840 -69.3788 -69.2907 -69.2863 -69.2581 -69.2535 -66.1021 -66.0940
   -66.0913 -66.0831 -65.7792 -65.7688 -40.7152 -40.7118 -40.7109 -40.6910
   -40.6857 -40.6799 -40.6729 -40.6561 -40.6409 -40.6260 -40.5960 -40.5773
   -40.5424 -40.5228 -40.5184 -40.5107 -40.5034 -40.4948 -32.5197 -32.5127
   -32.5051 -32.4773 -32.4318 -32.4192 -32.3801 -32.3758 -32.3348 -32.3196
   -32.2093 -32.1933 -32.1837 -32.0733 -32.0636 -32.0537 -32.0220 -31.9635
   -17.8040 -17.8009 -17.7990 -17.7987 -17.7967 -17.7954 -17.7940 -17.7930
   -17.7928 -17.7867 -17.7862 -17.7775 -17.7761 -17.7688 -17.7684 -17.7666
   -17.7638 -17.7606 -17.7587 -17.7559 -17.7325 -17.7309 -17.7235 -17.7223
   -17.7220 -17.7218 -17.7133 -17.7128 -17.4177 -17.4160 -17.4149 -17.4138
   -17.4133 -17.4100 -17.4066 -17.4057 -17.4034 -17.4021 -17.4017 -17.4013
   -17.3974 -17.3958  -4.6484  -2.8553  -1.8591  -1.8220  -1.6251  -1.4803
    -1.2968  -1.2929  -1.1019  -1.0954  -0.5379  -0.4072  -0.3156   0.3458
     0.3814   0.4844   0.5043   0.5648   0.5832   0.6368   0.7019   0.8010
     1.0501   1.0877   1.2330   1.3420   1.5906   1.6806   1.9070   1.9109
     1.9815   2.1034   2.3893   2.4907   2.5592   2.7031   2.8021   3.1461
     3.4775   3.6681   3.7459   3.8020   3.9280   3.9622   4.0862   4.1169
     4.1969   4.2444   4.2620   4.4399   4.4591   4.4806   4.5952   4.7630
     4.8975   5.0134   5.0225   5.1195

          k = 0.0155-0.0219 0.0000 ( 30932 PWs)   bands (ev):

   -69.3846 -69.3784 -69.2912 -69.2859 -69.2586 -69.2531 -66.1033 -66.0951
   -66.0900 -66.0818 -65.7804 -65.7675 -40.7178 -40.7163 -40.7118 -40.6904
   -40.6855 -40.6818 -40.6726 -40.6506 -40.6413 -40.6251 -40.6021 -40.5834
   -40.5370 -40.5199 -40.5173 -40.5109 -40.5048 -40.4948 -32.5215 -32.5087
   -32.5076 -32.4748 -32.4577 -32.4445 -32.3811 -32.3717 -32.3339 -32.3143
   -32.2356 -32.1640 -32.1545 -32.0768 -32.0642 -32.0500 -32.0196 -31.9338
   -17.8044 -17.8006 -17.7991 -17.7986 -17.7971 -17.7964 -17.7937 -17.7930
   -17.7926 -17.7877 -17.7851 -17.7770 -17.7763 -17.7696 -17.7674 -17.7669
   -17.7635 -17.7596 -17.7590 -17.7556 -17.7333 -17.7319 -17.7243 -17.7230
   -17.7207 -17.7206 -17.7118 -17.7116 -17.4193 -17.4164 -17.4155 -17.4137
   -17.4132 -17.4106 -17.4069 -17.4066 -17.4031 -17.4014 -17.4009 -17.4004
   -17.3960 -17.3945  -4.8493  -3.0545  -2.0175  -1.8181  -1.6312  -1.5825
    -1.4695  -1.3272  -1.2413  -1.1860  -0.6745  -0.5784  -0.3957   0.3394
     0.3608   0.4627   0.4748   0.4809   0.4930   0.6005   0.7358   0.7621
     1.1170   1.1930   1.3174   1.5171   1.6926   1.7104   1.8668   2.1794
     2.2100   2.2486   2.3570   2.6203   2.8444   2.8790   3.2324   3.3224
     3.4730   3.6741   3.7344   3.9401   4.0631   4.0664   4.0807   4.1567
     4.2004   4.2225   4.2656   4.4623   4.4728   4.5390   4.6354   4.8591
     4.9139   5.0617   5.0890   5.3209

          k = 0.0310-0.0110 0.0000 ( 30886 PWs)   bands (ev):

   -69.3845 -69.3784 -69.2912 -69.2859 -69.2586 -69.2531 -66.1034 -66.0952
   -66.0900 -66.0818 -65.7805 -65.7675 -40.7174 -40.7157 -40.7109 -40.6912
   -40.6888 -40.6783 -40.6713 -40.6505 -40.6413 -40.6259 -40.6016 -40.5829
   -40.5370 -40.5190 -40.5173 -40.5104 -40.5041 -40.4946 -32.5201 -32.5118
   -32.5067 -32.4777 -32.4592 -32.4458 -32.3788 -32.3679 -32.3404 -32.3179
   -32.2366 -32.1642 -32.1546 -32.0736 -32.0661 -32.0501 -32.0214 -31.9341
   -17.8044 -17.8006 -17.7991 -17.7986 -17.7971 -17.7964 -17.7937 -17.7930
   -17.7926 -17.7877 -17.7851 -17.7769 -17.7763 -17.7695 -17.7674 -17.7669
   -17.7635 -17.7596 -17.7590 -17.7556 -17.7333 -17.7320 -17.7244 -17.7231
   -17.7208 -17.7205 -17.7118 -17.7116 -17.4194 -17.4163 -17.4155 -17.4137
   -17.4132 -17.4107 -17.4069 -17.4066 -17.4031 -17.4015 -17.4009 -17.4003
   -17.3960 -17.3945  -4.7774  -2.9940  -1.9547  -1.8677  -1.5641  -1.5495
    -1.4592  -1.2795  -1.2055  -1.1549  -0.6619  -0.5345  -0.3322   0.3217
     0.3596   0.4402   0.5005   0.5204   0.5224   0.6337   0.7519   0.8013
     1.1654   1.2250   1.3297   1.5089   1.6522   1.7421   1.9123   2.1401
     2.2086   2.2677   2.3390   2.5049   2.7799   2.8281   3.0480   3.2970
     3.4262   3.5965   3.7024   3.8387   3.9064   3.9309   3.9479   4.1059
     4.1978   4.2092   4.3049   4.3206   4.3277   4.5398   4.7989   4.8795
     4.9043   5.0444   5.0841   5.2370

          k = 0.0310 0.0055 0.0000 ( 30897 PWs)   bands (ev):

   -69.3847 -69.3781 -69.2915 -69.2856 -69.2589 -69.2528 -66.1042 -66.0960
   -66.0892 -66.0811 -65.7814 -65.7666 -40.7206 -40.7156 -40.7100 -40.6917
   -40.6912 -40.6768 -40.6696 -40.6468 -40.6415 -40.6265 -40.6048 -40.5861
   -40.5336 -40.5188 -40.5138 -40.5098 -40.5041 -40.4943 -32.5196 -32.5187
   -32.5015 -32.4797 -32.4775 -32.4634 -32.3770 -32.3608 -32.3489 -32.3198
   -32.2545 -32.1463 -32.1366 -32.0717 -32.0691 -32.0481 -32.0224 -31.9159
   -17.8047 -17.8004 -17.7992 -17.7985 -17.7973 -17.7971 -17.7936 -17.7932
   -17.7925 -17.7884 -17.7845 -17.7773 -17.7757 -17.7700 -17.7672 -17.7668
   -17.7633 -17.7592 -17.7590 -17.7554 -17.7340 -17.7328 -17.7250 -17.7239
   -17.7200 -17.7197 -17.7111 -17.7107 -17.4205 -17.4165 -17.4161 -17.4137
   -17.4132 -17.4111 -17.4072 -17.4071 -17.4028 -17.4018 -17.4005 -17.3994
   -17.3950 -17.3938  -4.7986  -3.0296  -1.9946  -1.8026  -1.5676  -1.5496
    -1.5447  -1.2453  -1.2401  -1.1628  -0.6943  -0.5794  -0.3336   0.2852
     0.3567   0.4070   0.4764   0.5277   0.5990   0.6116   0.8260   0.8483
     1.2575   1.3511   1.4213   1.6016   1.6745   1.8222   1.9281   2.2432
     2.3046   2.3372   2.3899   2.4089   2.8334   2.8410   3.1072   3.3643
     3.4088   3.4908   3.6533   3.6819   3.7921   3.8167   3.8262   3.9739
     4.0466   4.1086   4.2454   4.2878   4.4125   4.6249   4.7630   4.9552
     4.9649   5.1976   5.2519   5.3428

          k = 0.0310 0.0219 0.0000 ( 30939 PWs)   bands (ev):

   -69.3848 -69.3780 -69.2915 -69.2855 -69.2589 -69.2527 -66.1046 -66.0964
   -66.0890 -66.0808 -65.7818 -65.7663 -40.7211 -40.7149 -40.7087 -40.6930
   -40.6922 -40.6753 -40.6680 -40.6454 -40.6412 -40.6277 -40.6052 -40.5865
   -40.5323 -40.5177 -40.5124 -40.5090 -40.5032 -40.4939 -32.5256 -32.5176
   -32.4973 -32.4856 -32.4831 -32.4711 -32.3748 -32.3593 -32.3550 -32.3251
   -32.2618 -32.1406 -32.1308 -32.0731 -32.0673 -32.0478 -32.0248 -31.9104
   -17.8048 -17.8004 -17.7994 -17.7985 -17.7975 -17.7974 -17.7936 -17.7933
   -17.7925 -17.7887 -17.7843 -17.7775 -17.7756 -17.7702 -17.7673 -17.7666
   -17.7632 -17.7594 -17.7588 -17.7553 -17.7344 -17.7332 -17.7254 -17.7243
   -17.7199 -17.7194 -17.7109 -17.7104 -17.4209 -17.4166 -17.4164 -17.4138
   -17.4132 -17.4113 -17.4073 -17.4073 -17.4028 -17.4020 -17.4006 -17.3991
   -17.3947 -17.3935  -4.7104  -2.9616  -1.9436  -1.6790  -1.6218  -1.5655
    -1.4749  -1.2016  -1.1814  -1.1215  -0.6487  -0.5386  -0.2955   0.2755
     0.3610   0.3941   0.4967   0.5679   0.6246   0.7260   0.8756   0.9134
     1.3578   1.4014   1.4835   1.6094   1.6736   1.9153   1.9200   2.1858
     2.2668   2.3250   2.3431   2.4403   2.6953   2.7079   2.9473   3.3057
     3.3154   3.3551   3.5095   3.6394   3.6551   3.6980   3.7259   3.7880
     3.9609   4.0216   4.1994   4.2665   4.4574   4.5914   4.6627   4.9188
     5.0085   5.2811   5.3095   5.3758

          k = 0.0310 0.0384 0.0000 ( 30966 PWs)   bands (ev):

   -69.3845 -69.3782 -69.2913 -69.2856 -69.2587 -69.2528 -66.1045 -66.0963
   -66.0893 -66.0811 -65.7818 -65.7665 -40.7189 -40.7137 -40.7072 -40.6943
   -40.6924 -40.6740 -40.6667 -40.6465 -40.6404 -40.6294 -40.6030 -40.5843
   -40.5334 -40.5160 -40.5136 -40.5081 -40.5017 -40.4934 -32.5313 -32.5146
   -32.4944 -32.4876 -32.4826 -32.4679 -32.3724 -32.3701 -32.3504 -32.3330
   -32.2579 -32.1473 -32.1375 -32.0762 -32.0620 -32.0490 -32.0286 -31.9174
   -17.8048 -17.8005 -17.7995 -17.7986 -17.7974 -17.7972 -17.7936 -17.7935
   -17.7925 -17.7885 -17.7846 -17.7773 -17.7758 -17.7700 -17.7673 -17.7669
   -17.7633 -17.7593 -17.7591 -17.7554 -17.7344 -17.7332 -17.7254 -17.7243
   -17.7204 -17.7195 -17.7115 -17.7106 -17.4206 -17.4165 -17.4164 -17.4139
   -17.4133 -17.4114 -17.4073 -17.4071 -17.4029 -17.4021 -17.4010 -17.3993
   -17.3950 -17.3938  -4.5169  -2.7968  -1.8175  -1.7964  -1.5035  -1.4599
    -1.3719  -1.0900  -1.0800  -1.0378  -0.5633  -0.4135  -0.1838   0.2847
     0.3691   0.3793   0.5542   0.5878   0.7496   0.8300   0.9267   0.9531
     1.3907   1.4260   1.4959   1.5558   1.6248   1.8493   2.0597   2.0890
     2.1767   2.2093   2.2377   2.4443   2.4818   2.5149   2.5568   3.0803
     3.1162   3.2278   3.3234   3.5601   3.5602   3.6150   3.6496   3.7793
     3.8547   4.0281   4.1104   4.2301   4.4476   4.5173   4.5848   4.8430
     4.9716   5.0540   5.0963   5.2093

          k = 0.0310 0.0548 0.0000 ( 30954 PWs)   bands (ev):

   -69.3841 -69.3785 -69.2909 -69.2859 -69.2583 -69.2531 -66.1038 -66.0956
   -66.0901 -66.0820 -65.7812 -65.7673 -40.7144 -40.7121 -40.7062 -40.6952
   -40.6921 -40.6733 -40.6660 -40.6499 -40.6389 -40.6314 -40.5984 -40.5797
   -40.5369 -40.5172 -40.5141 -40.5076 -40.4998 -40.4932 -32.5354 -32.5104
   -32.4932 -32.4917 -32.4683 -32.4539 -32.3807 -32.3685 -32.3468 -32.3423
   -32.2427 -32.1655 -32.1559 -32.0785 -32.0560 -32.0512 -32.0334 -31.9364
   -17.8045 -17.8007 -17.7996 -17.7986 -17.7971 -17.7965 -17.7938 -17.7936
   -17.7926 -17.7878 -17.7852 -17.7769 -17.7764 -17.7695 -17.7675 -17.7671
   -17.7635 -17.7597 -17.7592 -17.7556 -17.7340 -17.7327 -17.7250 -17.7238
   -17.7215 -17.7202 -17.7125 -17.7112 -17.4196 -17.4162 -17.4161 -17.4140
   -17.4133 -17.4113 -17.4071 -17.4066 -17.4031 -17.4021 -17.4017 -17.3999
   -17.3960 -17.3945  -4.2269  -2.5502  -2.0527  -1.6582  -1.3486  -1.2921
    -1.2179  -0.9339  -0.9282  -0.9076  -0.4792  -0.2097  -0.0045   0.2846
     0.3360   0.3688   0.6066   0.6349   0.8625   0.8719   0.9151   1.0569
     1.3363   1.3487   1.5230   1.5288   1.5666   1.7273   1.8753   1.9405
     2.0431   2.0925   2.2201   2.2378   2.2850   2.3857   2.4282   2.7709
     2.8083   3.1084   3.1245   3.4227   3.5204   3.6015   3.6847   3.7923
     3.8056   3.9328   4.0590   4.2500   4.3566   4.3657   4.4593   4.7257
     4.7423   4.7843   4.8345   5.1240

          k = 0.0310 0.0713 0.0000 ( 30954 PWs)   bands (ev):

   -69.3835 -69.3790 -69.2904 -69.2864 -69.2578 -69.2535 -66.1027 -66.0945
   -66.0914 -66.0832 -65.7801 -65.7685 -40.7105 -40.7082 -40.7059 -40.6957
   -40.6908 -40.6731 -40.6661 -40.6557 -40.6368 -40.6337 -40.5919 -40.5732
   -40.5426 -40.5231 -40.5123 -40.5077 -40.4980 -40.4933 -32.5375 -32.5052
   -32.4980 -32.4909 -32.4436 -32.4298 -32.3889 -32.3637 -32.3521 -32.3434
   -32.2169 -32.1937 -32.1841 -32.0792 -32.0537 -32.0496 -32.0393 -31.9655
   -17.8041 -17.8009 -17.7997 -17.7986 -17.7968 -17.7955 -17.7940 -17.7936
   -17.7926 -17.7868 -17.7862 -17.7775 -17.7760 -17.7687 -17.7685 -17.7668
   -17.7639 -17.7607 -17.7589 -17.7559 -17.7332 -17.7318 -17.7242 -17.7230
   -17.7228 -17.7212 -17.7140 -17.7122 -17.4179 -17.4157 -17.4155 -17.4142
   -17.4134 -17.4109 -17.4067 -17.4057 -17.4035 -17.4029 -17.4019 -17.4010
   -17.3974 -17.3958  -3.8545  -2.4056  -2.2470  -1.5236  -1.2870  -1.0872
    -0.9651  -0.8155  -0.7605  -0.6695  -0.4224   0.0643   0.1417   0.2331
     0.2634   0.3574   0.6405   0.6893   0.7560   0.7750   1.0474   1.1681
     1.2092   1.2306   1.4936   1.5295   1.5697   1.5778   1.6638   1.6756
     1.6946   1.9117   2.0064   2.1695   2.2186   2.4059   2.4312   2.5374
     2.5980   2.9068   3.0772   3.3786   3.5408   3.6625   3.7216   3.7877
     3.7935   3.8104   4.0446   4.0772   4.1612   4.1699   4.4054   4.6336
     4.6389   4.6448   4.6839   5.2182

          k = 0.0310-0.1096 0.0000 ( 30995 PWs)   bands (ev):

   -69.3828 -69.3797 -69.2897 -69.2870 -69.2571 -69.2542 -66.1011 -66.0930
   -66.0929 -66.0849 -65.7785 -65.7700 -40.7094 -40.7075 -40.6997 -40.6956
   -40.6889 -40.6735 -40.6674 -40.6635 -40.6358 -40.6344 -40.5839 -40.5652
   -40.5502 -40.5309 -40.5110 -40.5085 -40.4965 -40.4942 -32.5373 -32.5032
   -32.4991 -32.4904 -32.4098 -32.3968 -32.3943 -32.3609 -32.3574 -32.3400
   -32.2295 -32.2199 -32.1820 -32.0781 -32.0560 -32.0458 -32.0433 -32.0024
   -17.8035 -17.8014 -17.7996 -17.7988 -17.7963 -17.7945 -17.7940 -17.7936
   -17.7927 -17.7875 -17.7854 -17.7788 -17.7750 -17.7697 -17.7676 -17.7664
   -17.7643 -17.7620 -17.7585 -17.7564 -17.7319 -17.7304 -17.7248 -17.7230
   -17.7226 -17.7215 -17.7158 -17.7137 -17.4156 -17.4153 -17.4149 -17.4144
   -17.4135 -17.4101 -17.4063 -17.4047 -17.4044 -17.4040 -17.4026 -17.4016
   -17.3986 -17.3974  -3.4201  -2.8256  -1.9268  -1.4467  -1.3995  -0.7617
    -0.7612  -0.7428  -0.6136  -0.4378  -0.3930   0.0765   0.1492   0.2268
     0.3466   0.4042   0.6045   0.6395   0.6458   0.7479   0.9723   1.0827
     1.0842   1.2475   1.3236   1.3883   1.4188   1.5033   1.5075   1.5401
     1.6529   1.7517   1.9652   1.9996   2.0263   2.2317   2.4988   2.5552
     2.6609   2.7284   3.1484   3.4146   3.5971   3.7136   3.7654   3.8096
     3.8289   3.8415   3.9649   4.0474   4.0848   4.1262   4.3881   4.4919
     4.6034   4.6403   4.7365   4.9708

          k = 0.0310-0.0932 0.0000 ( 30997 PWs)   bands (ev):

   -69.3822 -69.3803 -69.2890 -69.2878 -69.2563 -69.2550 -66.0992 -66.0949
   -66.0910 -66.0867 -65.7767 -65.7719 -40.7092 -40.7089 -40.6947 -40.6913
   -40.6863 -40.6749 -40.6721 -40.6699 -40.6375 -40.6319 -40.5752 -40.5592
   -40.5563 -40.5401 -40.5103 -40.5101 -40.4956 -40.4954 -32.5350 -32.5079
   -32.4928 -32.4908 -32.3963 -32.3738 -32.3644 -32.3566 -32.3497 -32.3357
   -32.2704 -32.2606 -32.1400 -32.0754 -32.0579 -32.0527 -32.0442 -32.0372
   -17.8029 -17.8018 -17.7995 -17.7988 -17.7958 -17.7948 -17.7935 -17.7928
   -17.7925 -17.7890 -17.7838 -17.7803 -17.7738 -17.7711 -17.7663 -17.7659
   -17.7647 -17.7634 -17.7580 -17.7568 -17.7303 -17.7288 -17.7266 -17.7243
   -17.7213 -17.7199 -17.7176 -17.7154 -17.4149 -17.4146 -17.4143 -17.4137
   -17.4128 -17.4088 -17.4071 -17.4057 -17.4045 -17.4042 -17.4028 -17.4011
   -17.3996 -17.3992  -3.2727  -2.9521  -1.6428  -1.6411  -1.4507  -0.7910
    -0.7672  -0.5779  -0.5070  -0.4153  -0.1274  -0.1055   0.1165   0.1579
     0.3567   0.5145   0.5707   0.5956   0.6924   0.7983   0.8811   1.0044
     1.0366   1.0549   1.1095   1.2028   1.2264   1.4387   1.5057   1.5510
     1.6091   1.6391   1.6540   1.8945   2.1763   2.3015   2.4866   2.5600
     2.6997   2.8787   3.3277   3.5139   3.6974   3.7810   3.8141   3.8790
     3.9037   3.9140   3.9196   4.1416   4.2022   4.3827   4.4129   4.4404
     4.6128   4.6164   4.7472   4.9149

          k = 0.0310-0.0768 0.0000 ( 31011 PWs)   bands (ev):

   -69.3821 -69.3805 -69.2886 -69.2883 -69.2558 -69.2556 -66.0971 -66.0968
   -66.0890 -66.0887 -65.7746 -65.7738 -40.7108 -40.7095 -40.6934 -40.6857
   -40.6837 -40.6804 -40.6743 -40.6734 -40.6388 -40.6297 -40.5691 -40.5661
   -40.5501 -40.5471 -40.5124 -40.5102 -40.4976 -40.4949 -32.5308 -32.5121
   -32.4922 -32.4868 -32.3949 -32.3756 -32.3412 -32.3360 -32.3213 -32.3136
   -32.3100 -32.3035 -32.0940 -32.0904 -32.0690 -32.0600 -32.0588 -32.0319
   -17.8024 -17.8023 -17.7993 -17.7989 -17.7953 -17.7952 -17.7933 -17.7928
   -17.7908 -17.7906 -17.7822 -17.7820 -17.7725 -17.7724 -17.7654 -17.7652
   -17.7650 -17.7648 -17.7574 -17.7573 -17.7284 -17.7283 -17.7270 -17.7261
   -17.7194 -17.7194 -17.7180 -17.7172 -17.4150 -17.4145 -17.4140 -17.4138
   -17.4099 -17.4098 -17.4070 -17.4060 -17.4051 -17.4051 -17.4010 -17.4010
   -17.4005 -17.4002  -3.7079  -2.4900  -1.9693  -1.5367  -1.4426  -1.0184
    -0.9405  -0.6824  -0.6100  -0.4090  -0.2252   0.0287   0.1702   0.1808
     0.3993   0.4320   0.5366   0.5597   0.6570   0.8489   0.9191   0.9418
     0.9687   0.9802   1.0452   1.1385   1.1765   1.3414   1.5174   1.5533
     1.5622   1.6022   1.6475   1.8482   2.2904   2.3662   2.5452   2.7087
     2.8442   3.1542   3.5614   3.6594   3.7152   3.7743   3.8220   3.8970
     3.9242   4.0489   4.1292   4.4017   4.4198   4.4203   4.5054   4.6149
     4.6397   4.6884   4.7383   5.0171

          k = 0.0310-0.0603 0.0000 ( 30970 PWs)   bands (ev):

   -69.3827 -69.3800 -69.2894 -69.2876 -69.2567 -69.2548 -66.0987 -66.0950
   -66.0906 -66.0868 -65.7758 -65.7725 -40.7126 -40.7102 -40.6938 -40.6921
   -40.6834 -40.6777 -40.6744 -40.6717 -40.6397 -40.6279 -40.5790 -40.5602
   -40.5573 -40.5381 -40.5147 -40.5104 -40.4998 -40.4948 -32.5252 -32.5156
   -32.4949 -32.4819 -32.3905 -32.3789 -32.3572 -32.3461 -32.3328 -32.3318
   -32.2752 -32.2649 -32.1336 -32.0658 -32.0642 -32.0609 -32.0461 -32.0274
   -17.8029 -17.8017 -17.7991 -17.7989 -17.7957 -17.7947 -17.7931 -17.7928
   -17.7923 -17.7891 -17.7836 -17.7804 -17.7739 -17.7709 -17.7664 -17.7657
   -17.7648 -17.7633 -17.7578 -17.7569 -17.7300 -17.7278 -17.7262 -17.7251
   -17.7210 -17.7189 -17.7172 -17.7162 -17.4153 -17.4142 -17.4140 -17.4137
   -17.4127 -17.4077 -17.4068 -17.4056 -17.4052 -17.4045 -17.4028 -17.4007
   -17.3996 -17.3991  -4.0981  -2.3153  -2.0851  -1.6634  -1.3411  -1.3246
    -1.1428  -0.8406  -0.8128  -0.7128  -0.2416  -0.0689   0.0439   0.2403
     0.3864   0.5192   0.5401   0.5474   0.7380   0.7669   0.8056   0.9099
     0.9554   0.9772   1.0035   1.0462   1.2856   1.5124   1.5509   1.6224
     1.7347   1.7367   1.8200   2.0694   2.1329   2.4929   2.5868   2.9766
     3.0944   3.4697   3.5845   3.7781   3.8067   3.8091   3.8354   3.9527
     4.0419   4.2350   4.3356   4.3505   4.3936   4.4254   4.5633   4.7379
     4.8319   4.8381   4.9812   5.1162

          k = 0.0310-0.0439 0.0000 ( 31008 PWs)   bands (ev):

   -69.3834 -69.3794 -69.2901 -69.2869 -69.2574 -69.2541 -66.1006 -66.0930
   -66.0924 -66.0848 -65.7776 -65.7705 -40.7141 -40.7109 -40.7034 -40.6913
   -40.6823 -40.6812 -40.6740 -40.6634 -40.6404 -40.6267 -40.5882 -40.5695
   -40.5492 -40.5298 -40.5168 -40.5106 -40.5018 -40.4948 -32.5190 -32.5181
   -32.4993 -32.4787 -32.3971 -32.3853 -32.3837 -32.3803 -32.3324 -32.3246
   -32.2313 -32.2216 -32.1742 -32.0706 -32.0619 -32.0587 -32.0241 -32.0020
   -17.8035 -17.8013 -17.7989 -17.7989 -17.7963 -17.7943 -17.7939 -17.7929
   -17.7929 -17.7876 -17.7853 -17.7789 -17.7751 -17.7696 -17.7677 -17.7662
   -17.7643 -17.7619 -17.7583 -17.7564 -17.7314 -17.7295 -17.7241 -17.7234
   -17.7224 -17.7206 -17.7151 -17.7144 -17.4156 -17.4154 -17.4144 -17.4139
   -17.4135 -17.4091 -17.4061 -17.4044 -17.4041 -17.4039 -17.4033 -17.4011
   -17.3987 -17.3973  -4.4178  -2.6225  -1.7966  -1.7769  -1.6051  -1.3421
    -1.2990  -1.0704  -0.9872  -0.9377  -0.3342  -0.2774  -0.2065   0.2987
     0.4575   0.5076   0.5098   0.5817   0.6610   0.6736   0.8117   0.8414
     0.8792   1.0243   1.1318   1.1381   1.4472   1.6634   1.6797   1.7123
     1.8956   1.9786   2.1257   2.3081   2.3156   2.5616   2.6046   3.0795
     3.4637   3.5154   3.7758   3.7770   3.7932   3.9327   4.0092   4.0352
     4.1298   4.2397   4.3318   4.3603   4.3972   4.5939   4.6752   4.7174
     4.7286   4.9421   5.0547   5.1624

          k = 0.0310-0.0274 0.0000 ( 30974 PWs)   bands (ev):

   -69.3840 -69.3788 -69.2907 -69.2863 -69.2581 -69.2535 -66.1021 -66.0940
   -66.0913 -66.0831 -65.7792 -65.7688 -40.7152 -40.7118 -40.7109 -40.6910
   -40.6857 -40.6799 -40.6729 -40.6561 -40.6409 -40.6260 -40.5960 -40.5773
   -40.5424 -40.5228 -40.5184 -40.5107 -40.5034 -40.4948 -32.5197 -32.5127
   -32.5051 -32.4773 -32.4318 -32.4192 -32.3801 -32.3758 -32.3348 -32.3196
   -32.2093 -32.1933 -32.1837 -32.0733 -32.0636 -32.0537 -32.0220 -31.9635
   -17.8040 -17.8009 -17.7990 -17.7987 -17.7967 -17.7954 -17.7940 -17.7930
   -17.7928 -17.7867 -17.7862 -17.7775 -17.7761 -17.7688 -17.7684 -17.7666
   -17.7638 -17.7606 -17.7587 -17.7559 -17.7325 -17.7309 -17.7235 -17.7223
   -17.7220 -17.7218 -17.7133 -17.7128 -17.4177 -17.4160 -17.4149 -17.4138
   -17.4133 -17.4100 -17.4066 -17.4057 -17.4034 -17.4021 -17.4017 -17.4013
   -17.3974 -17.3958  -4.6484  -2.8553  -1.8591  -1.8220  -1.6251  -1.4803
    -1.2968  -1.2929  -1.1019  -1.0954  -0.5379  -0.4072  -0.3156   0.3458
     0.3814   0.4844   0.5043   0.5648   0.5832   0.6368   0.7019   0.8010
     1.0501   1.0877   1.2330   1.3420   1.5906   1.6806   1.9070   1.9109
     1.9815   2.1034   2.3893   2.4907   2.5592   2.7031   2.8021   3.1461
     3.4775   3.6681   3.7459   3.8020   3.9280   3.9622   4.0862   4.1169
     4.1969   4.2444   4.2620   4.4399   4.4590   4.4806   4.5952   4.7630
     4.8975   5.0134   5.0225   5.1195

          k = 0.0465-0.0164 0.0000 ( 30963 PWs)   bands (ev):

   -69.3839 -69.3789 -69.2907 -69.2863 -69.2580 -69.2535 -66.1022 -66.0941
   -66.0913 -66.0832 -65.7794 -65.7687 -40.7142 -40.7114 -40.7089 -40.6924
   -40.6903 -40.6755 -40.6705 -40.6560 -40.6407 -40.6277 -40.5951 -40.5764
   -40.5425 -40.5229 -40.5169 -40.5099 -40.5022 -40.4945 -32.5171 -32.5129
   -32.5086 -32.4825 -32.4344 -32.4217 -32.3755 -32.3679 -32.3467 -32.3259
   -32.2109 -32.1933 -32.1838 -32.0680 -32.0666 -32.0536 -32.0256 -31.9639
   -17.8041 -17.8009 -17.7992 -17.7987 -17.7967 -17.7954 -17.7940 -17.7931
   -17.7927 -17.7867 -17.7862 -17.7775 -17.7761 -17.7688 -17.7684 -17.7666
   -17.7639 -17.7606 -17.7587 -17.7560 -17.7326 -17.7311 -17.7236 -17.7224
   -17.7222 -17.7216 -17.7134 -17.7127 -17.4177 -17.4159 -17.4151 -17.4139
   -17.4133 -17.4102 -17.4066 -17.4057 -17.4035 -17.4023 -17.4016 -17.4013
   -17.3974 -17.3958  -4.5098  -2.7438  -2.0616  -1.7012  -1.4706  -1.4094
    -1.2840  -1.1754  -1.0423  -1.0329  -0.5649  -0.3206  -0.1567   0.3409
     0.3438   0.4135   0.5422   0.5762   0.6103   0.6580   0.7825   0.8905
     1.1659   1.1720   1.2459   1.3646   1.5567   1.6445   1.8682   1.9608
     2.0490   2.1680   2.2509   2.3525   2.4596   2.5612   2.6836   3.0537
     3.3282   3.4359   3.4923   3.7780   3.8149   3.8905   3.9163   4.0524
     4.1407   4.1568   4.2523   4.2640   4.4038   4.4611   4.7250   4.7436
     4.8701   4.8992   4.9190   4.9537

          k = 0.0465-0.0000 0.0000 ( 30923 PWs)   bands (ev):

   -69.3843 -69.3784 -69.2911 -69.2859 -69.2585 -69.2531 -66.1036 -66.0954
   -66.0901 -66.0819 -65.7808 -65.7674 -40.7161 -40.7142 -40.7085 -40.6927
   -40.6925 -40.6746 -40.6685 -40.6502 -40.6408 -40.6283 -40.6003 -40.5816
   -40.5370 -40.5173 -40.5168 -40.5091 -40.5023 -40.4941 -32.5224 -32.5163
   -32.5010 -32.4846 -32.4631 -32.4493 -32.3737 -32.3583 -32.3577 -32.3279
   -32.2392 -32.1647 -32.1551 -32.0716 -32.0654 -32.0504 -32.0265 -31.9350
   -17.8045 -17.8006 -17.7993 -17.7986 -17.7971 -17.7964 -17.7937 -17.7933
   -17.7926 -17.7878 -17.7851 -17.7769 -17.7764 -17.7695 -17.7674 -17.7670
   -17.7635 -17.7597 -17.7591 -17.7556 -17.7336 -17.7323 -17.7247 -17.7234
   -17.7211 -17.7204 -17.7122 -17.7114 -17.4195 -17.4163 -17.4158 -17.4138
   -17.4132 -17.4109 -17.4070 -17.4066 -17.4031 -17.4017 -17.4013 -17.4002
   -17.3960 -17.3945  -4.5659  -2.8189  -1.9579  -1.7831  -1.4545  -1.4435
    -1.4138  -1.1431  -1.0937  -1.0646  -0.6007  -0.4071  -0.1814   0.2992
     0.3522   0.3863   0.5467   0.5748   0.6631   0.7447   0.7985   0.9082
     1.2915   1.2983   1.3711   1.4971   1.6083   1.7422   2.0542   2.0764
     2.1401   2.1922   2.3152   2.3687   2.5200   2.6457   2.6558   3.0965
     3.2584   3.3468   3.4285   3.7119   3.7195   3.7371   3.7983   3.8641
     3.9945   4.0781   4.1531   4.3297   4.3724   4.5503   4.7316   4.8781
     4.8908   4.9490   4.9890   5.1636

          k = 0.0465 0.0164 0.0000 ( 30966 PWs)   bands (ev):

   -69.3845 -69.3782 -69.2913 -69.2856 -69.2587 -69.2528 -66.1045 -66.0963
   -66.0893 -66.0811 -65.7818 -65.7665 -40.7189 -40.7137 -40.7072 -40.6943
   -40.6924 -40.6740 -40.6667 -40.6465 -40.6404 -40.6294 -40.6030 -40.5843
   -40.5334 -40.5160 -40.5136 -40.5081 -40.5017 -40.4934 -32.5313 -32.5146
   -32.4944 -32.4876 -32.4826 -32.4679 -32.3724 -32.3701 -32.3504 -32.3330
   -32.2579 -32.1473 -32.1375 -32.0762 -32.0620 -32.0490 -32.0286 -31.9174
   -17.8048 -17.8005 -17.7995 -17.7986 -17.7974 -17.7972 -17.7936 -17.7935
   -17.7925 -17.7885 -17.7846 -17.7773 -17.7758 -17.7700 -17.7673 -17.7669
   -17.7633 -17.7593 -17.7591 -17.7554 -17.7344 -17.7332 -17.7254 -17.7243
   -17.7204 -17.7195 -17.7115 -17.7106 -17.4206 -17.4165 -17.4164 -17.4139
   -17.4133 -17.4114 -17.4073 -17.4071 -17.4029 -17.4021 -17.4010 -17.3993
   -17.3950 -17.3938  -4.5169  -2.7968  -1.8175  -1.7964  -1.5035  -1.4599
    -1.3720  -1.0900  -1.0800  -1.0378  -0.5633  -0.4135  -0.1838   0.2847
     0.3691   0.3793   0.5542   0.5878   0.7496   0.8300   0.9267   0.9531
     1.3907   1.4260   1.4959   1.5558   1.6248   1.8493   2.0597   2.0890
     2.1767   2.2093   2.2377   2.4443   2.4818   2.5149   2.5568   3.0803
     3.1162   3.2278   3.3234   3.5601   3.5602   3.6150   3.6496   3.7793
     3.8547   4.0281   4.1104   4.2301   4.4476   4.5173   4.5848   4.8430
     4.9716   5.0540   5.0963   5.2093

          k = 0.0465 0.0329 0.0000 ( 30976 PWs)   bands (ev):

   -69.3845 -69.3781 -69.2913 -69.2855 -69.2587 -69.2527 -66.1049 -66.0967
   -66.0891 -66.0809 -65.7822 -65.7662 -40.7191 -40.7127 -40.7060 -40.6954
   -40.6918 -40.6738 -40.6654 -40.6450 -40.6395 -40.6308 -40.6032 -40.5845
   -40.5320 -40.5147 -40.5122 -40.5071 -40.5005 -40.4927 -32.5387 -32.5118
   -32.4914 -32.4914 -32.4885 -32.4760 -32.3831 -32.3704 -32.3444 -32.3404
   -32.2656 -32.1419 -32.1320 -32.0805 -32.0577 -32.0492 -32.0317 -31.9121
   -17.8049 -17.8005 -17.7997 -17.7985 -17.7975 -17.7974 -17.7937 -17.7936
   -17.7925 -17.7888 -17.7844 -17.7775 -17.7756 -17.7702 -17.7674 -17.7667
   -17.7632 -17.7594 -17.7589 -17.7553 -17.7348 -17.7336 -17.7258 -17.7248
   -17.7203 -17.7192 -17.7114 -17.7102 -17.4211 -17.4168 -17.4165 -17.4139
   -17.4133 -17.4117 -17.4073 -17.4073 -17.4028 -17.4023 -17.4011 -17.3989
   -17.3947 -17.3935  -4.3650  -2.6827  -1.8344  -1.6728  -1.4773  -1.4421
    -1.2508  -1.0194  -0.9816  -0.9684  -0.4807  -0.3385  -0.1271   0.2911
     0.3784   0.3980   0.5947   0.6152   0.8231   1.0017   1.0248   1.0273
     1.4293   1.5301   1.5452   1.5785   1.5956   1.8921   1.9599   2.1195
     2.1247   2.1354   2.2151   2.3049   2.3183   2.3294   2.4976   2.9088
     2.9369   3.0663   3.1888   3.3647   3.4323   3.5379   3.6248   3.7193
     3.7525   3.9944   3.9954   4.1895   4.4349   4.4481   4.4761   4.7336
     4.9549   5.0115   5.0617   5.3051

          k = 0.0465 0.0493 0.0000 ( 30974 PWs)   bands (ev):

   -69.3843 -69.3782 -69.2911 -69.2856 -69.2585 -69.2527 -66.1048 -66.0965
   -66.0894 -66.0812 -65.7822 -65.7664 -40.7169 -40.7113 -40.7054 -40.6960
   -40.6904 -40.6740 -40.6649 -40.6460 -40.6380 -40.6325 -40.6010 -40.5822
   -40.5331 -40.5133 -40.5131 -40.5065 -40.4989 -40.4921 -32.5442 -32.5079
   -32.4954 -32.4887 -32.4843 -32.4729 -32.3946 -32.3683 -32.3493 -32.3398
   -32.2617 -32.1485 -32.1386 -32.0836 -32.0528 -32.0504 -32.0357 -31.9192
   -17.8048 -17.8005 -17.7999 -17.7985 -17.7974 -17.7972 -17.7938 -17.7937
   -17.7925 -17.7886 -17.7847 -17.7773 -17.7759 -17.7700 -17.7674 -17.7669
   -17.7633 -17.7594 -17.7591 -17.7554 -17.7348 -17.7336 -17.7258 -17.7247
   -17.7208 -17.7193 -17.7119 -17.7104 -17.4208 -17.4168 -17.4164 -17.4141
   -17.4133 -17.4117 -17.4073 -17.4071 -17.4029 -17.4024 -17.4015 -17.3991
   -17.3950 -17.3938  -4.1166  -2.4878  -1.8387  -1.8354  -1.2737  -1.2629
    -1.1352  -0.8851  -0.8675  -0.8433  -0.3930  -0.1868  -0.0012   0.2978
     0.3697   0.4278   0.6339   0.6560   0.9615   1.0331   1.1127   1.1143
     1.3984   1.4444   1.5206   1.5294   1.6945   1.7623   1.8668   1.9328
     2.0094   2.0807   2.1029   2.1685   2.1898   2.2649   2.5199   2.6400
     2.7196   2.9076   3.0397   3.1722   3.3664   3.4889   3.6364   3.6842
     3.7431   3.8186   3.9802   4.1845   4.2527   4.3578   4.4302   4.5608
     4.7296   4.8971   4.9485   5.0270

          k = 0.0465 0.0658 0.0000 ( 30959 PWs)   bands (ev):

   -69.3839 -69.3786 -69.2908 -69.2859 -69.2582 -69.2531 -66.1041 -66.0959
   -66.0902 -66.0820 -65.7815 -65.7672 -40.7125 -40.7101 -40.7057 -40.6961
   -40.6883 -40.6745 -40.6655 -40.6496 -40.6360 -40.6343 -40.5965 -40.5778
   -40.5367 -40.5170 -40.5116 -40.5064 -40.4972 -40.4920 -32.5471 -32.5031
   -32.4996 -32.4821 -32.4732 -32.4584 -32.4035 -32.3650 -32.3584 -32.3363
   -32.2461 -32.1663 -32.1566 -32.0849 -32.0522 -32.0478 -32.0405 -31.9378
   -17.8045 -17.8007 -17.7999 -17.7986 -17.7972 -17.7966 -17.7939 -17.7938
   -17.7926 -17.7879 -17.7852 -17.7768 -17.7764 -17.7695 -17.7675 -17.7672
   -17.7635 -17.7597 -17.7593 -17.7556 -17.7344 -17.7331 -17.7254 -17.7242
   -17.7218 -17.7199 -17.7128 -17.7110 -17.4197 -17.4164 -17.4161 -17.4142
   -17.4134 -17.4116 -17.4071 -17.4066 -17.4031 -17.4024 -17.4021 -17.3997
[...]
   -40.5425 -40.5230 -40.5097 -40.5068 -40.4947 -40.4921 -32.5526 -32.5067
   -32.4919 -32.4734 -32.4496 -32.4350 -32.4216 -32.3762 -32.3586 -32.3281
   -32.2211 -32.1942 -32.1845 -32.0869 -32.0544 -32.0499 -32.0391 -31.9670
   -17.8041 -17.8010 -17.8000 -17.7986 -17.7968 -17.7956 -17.7941 -17.7940
   -17.7926 -17.7869 -17.7862 -17.7775 -17.7760 -17.7686 -17.7685 -17.7669
   -17.7639 -17.7607 -17.7590 -17.7560 -17.7336 -17.7323 -17.7246 -17.7234
   -17.7234 -17.7210 -17.7144 -17.7120 -17.4180 -17.4158 -17.4156 -17.4144
   -17.4135 -17.4114 -17.4068 -17.4057 -17.4035 -17.4034 -17.4023 -17.4008
   -17.3974 -17.3958  -2.8630  -2.5757  -2.2796  -1.7236  -1.0153  -0.6432
    -0.6096  -0.3846  -0.2741  -0.2579  -0.1882  -0.0182   0.0061   0.5056
     0.5169   0.5596   0.6485   0.6510   0.7468   0.8270   0.8463   0.9190
     0.9964   1.1632   1.2178   1.4037   1.4445   1.4662   1.5346   1.6116
     1.7678   1.8354   1.9054   1.9507   2.1085   2.1395   2.1897   2.3598
     2.6395   2.6502   2.6959   2.9167   3.4581   3.5082   3.6897   3.7505
     3.8012   3.8167   3.9908   4.0416   4.0800   4.1003   4.2568   4.4347
     4.5601   4.6032   4.7160   4.9235

          k = 0.0775-0.0768 0.0000 ( 30999 PWs)   bands (ev):

   -69.3827 -69.3797 -69.2897 -69.2870 -69.2570 -69.2542 -66.1013 -66.0930
   -66.0930 -66.0849 -65.7788 -65.7699 -40.7090 -40.7080 -40.6985 -40.6946
   -40.6835 -40.6759 -40.6702 -40.6638 -40.6372 -40.6318 -40.5828 -40.5640
   -40.5503 -40.5310 -40.5101 -40.5085 -40.4951 -40.4938 -32.5447 -32.5075
   -32.4921 -32.4809 -32.4121 -32.4102 -32.3987 -32.3730 -32.3538 -32.3313
   -32.2293 -32.2197 -32.1836 -32.0812 -32.0558 -32.0516 -32.0380 -32.0029
   -17.8035 -17.8014 -17.7998 -17.7987 -17.7963 -17.7945 -17.7941 -17.7938
   -17.7927 -17.7875 -17.7855 -17.7788 -17.7750 -17.7697 -17.7676 -17.7665
   -17.7643 -17.7620 -17.7585 -17.7563 -17.7321 -17.7307 -17.7249 -17.7231
   -17.7225 -17.7218 -17.7159 -17.7136 -17.4156 -17.4152 -17.4150 -17.4145
   -17.4135 -17.4103 -17.4063 -17.4049 -17.4044 -17.4040 -17.4024 -17.4017
   -17.3987 -17.3974  -2.9420  -2.9297  -1.8618  -1.6666  -1.3321  -0.7190
    -0.6143  -0.4102  -0.4042  -0.3542  -0.1495   0.0227   0.0393   0.2708
     0.4096   0.5249   0.5921   0.6367   0.7629   0.7936   0.8562   0.9566
     0.9920   1.0865   1.1111   1.2562   1.3162   1.5012   1.5555   1.5603
     1.5733   1.6678   1.7250   2.0025   2.0837   2.2538   2.3317   2.5471
     2.5736   2.7835   3.0043   3.2077   3.5766   3.6558   3.7607   3.7888
     3.8570   3.9176   4.0080   4.0904   4.1403   4.2626   4.3553   4.4616
     4.6633   4.7222   4.7597   4.9069

          k = 0.0775-0.0603 0.0000 ( 30997 PWs)   bands (ev):

   -69.3822 -69.3803 -69.2890 -69.2878 -69.2563 -69.2550 -66.0992 -66.0949
   -66.0910 -66.0867 -65.7767 -65.7719 -40.7092 -40.7089 -40.6947 -40.6912
   -40.6863 -40.6749 -40.6721 -40.6699 -40.6375 -40.6319 -40.5752 -40.5592
   -40.5563 -40.5401 -40.5103 -40.5101 -40.4956 -40.4954 -32.5350 -32.5079
   -32.4928 -32.4908 -32.3963 -32.3738 -32.3644 -32.3566 -32.3497 -32.3357
   -32.2704 -32.2607 -32.1400 -32.0754 -32.0579 -32.0527 -32.0442 -32.0372
   -17.8029 -17.8018 -17.7995 -17.7988 -17.7958 -17.7948 -17.7935 -17.7928
   -17.7925 -17.7890 -17.7838 -17.7803 -17.7738 -17.7711 -17.7663 -17.7659
   -17.7647 -17.7634 -17.7580 -17.7568 -17.7303 -17.7288 -17.7266 -17.7243
   -17.7213 -17.7199 -17.7176 -17.7154 -17.4149 -17.4146 -17.4143 -17.4137
   -17.4128 -17.4088 -17.4071 -17.4057 -17.4045 -17.4042 -17.4028 -17.4011
   -17.3996 -17.3992  -3.2727  -2.9521  -1.6428  -1.6411  -1.4507  -0.7910
    -0.7672  -0.5779  -0.5070  -0.4153  -0.1274  -0.1055   0.1165   0.1579
     0.3567   0.5145   0.5707   0.5956   0.6924   0.7983   0.8811   1.0044
     1.0366   1.0549   1.1095   1.2028   1.2264   1.4387   1.5057   1.5510
     1.6091   1.6391   1.6540   1.8945   2.1763   2.3015   2.4866   2.5600
     2.6997   2.8787   3.3277   3.5139   3.6974   3.7810   3.8141   3.8790
     3.9037   3.9140   3.9196   4.1416   4.2022   4.3827   4.4129   4.4404
     4.6128   4.6164   4.7472   4.9150

          k = 0.0775-0.0439 0.0000 ( 30989 PWs)   bands (ev):

   -69.3820 -69.3805 -69.2885 -69.2883 -69.2558 -69.2556 -66.0971 -66.0969
   -66.0889 -66.0887 -65.7745 -65.7740 -40.7098 -40.7089 -40.6948 -40.6909
   -40.6832 -40.6810 -40.6714 -40.6699 -40.6377 -40.6322 -40.5685 -40.5668
   -40.5496 -40.5478 -40.5115 -40.5102 -40.4971 -40.4955 -32.5240 -32.5080
   -32.5021 -32.4938 -32.3819 -32.3670 -32.3490 -32.3480 -32.3189 -32.3144
   -32.3077 -32.3044 -32.0941 -32.0924 -32.0657 -32.0605 -32.0530 -32.0371
   -17.8024 -17.8023 -17.7992 -17.7990 -17.7953 -17.7952 -17.7932 -17.7929
   -17.7908 -17.7906 -17.7821 -17.7820 -17.7725 -17.7724 -17.7654 -17.7653
   -17.7649 -17.7649 -17.7574 -17.7573 -17.7283 -17.7283 -17.7268 -17.7262
   -17.7194 -17.7193 -17.7178 -17.7173 -17.4149 -17.4146 -17.4139 -17.4139
   -17.4098 -17.4098 -17.4068 -17.4062 -17.4051 -17.4051 -17.4010 -17.4010
   -17.4004 -17.4002  -3.5419  -2.9152  -1.8991  -1.6195  -1.1239  -0.9395
    -0.8362  -0.7102  -0.5775  -0.5012  -0.4198  -0.1365   0.1917   0.2344
     0.3308   0.4147   0.5234   0.5526   0.6023   0.8744   0.9407   0.9617
     1.1055   1.1154   1.1546   1.2002   1.2571   1.4514   1.4603   1.5381
     1.6761   1.6846   1.7940   1.8014   2.2251   2.3133   2.5439   2.6301
     2.7852   2.9203   3.6226   3.7243   3.7810   3.7925   3.8260   3.8613
     3.9096   3.9473   4.1135   4.1202   4.3121   4.3279   4.3551   4.4198
     4.4834   4.5433   4.6448   4.9506

          k =-0.0930 0.0329 0.0000 ( 30960 PWs)   bands (ev):

   -69.3820 -69.3806 -69.2885 -69.2884 -69.2557 -69.2557 -66.0970 -66.0970
   -66.0888 -66.0888 -65.7742 -65.7742 -40.7090 -40.7088 -40.6943 -40.6941
   -40.6827 -40.6814 -40.6695 -40.6692 -40.6355 -40.6352 -40.5677 -40.5677
   -40.5488 -40.5487 -40.5108 -40.5106 -40.4964 -40.4963 -32.5138 -32.5138
   -32.5015 -32.5015 -32.3654 -32.3654 -32.3570 -32.3570 -32.3163 -32.3163
   -32.3058 -32.3058 -32.0937 -32.0937 -32.0627 -32.0626 -32.0447 -32.0447
   -17.8023 -17.8023 -17.7991 -17.7991 -17.7953 -17.7952 -17.7931 -17.7930
   -17.7907 -17.7907 -17.7821 -17.7821 -17.7724 -17.7724 -17.7653 -17.7653
   -17.7649 -17.7649 -17.7574 -17.7574 -17.7283 -17.7283 -17.7265 -17.7265
   -17.7193 -17.7193 -17.7175 -17.7175 -17.4147 -17.4147 -17.4139 -17.4139
   -17.4098 -17.4098 -17.4065 -17.4065 -17.4051 -17.4051 -17.4010 -17.4010
   -17.4003 -17.4003  -3.2733  -3.2732  -1.7803  -1.7802  -0.8686  -0.8685
    -0.7597  -0.7594  -0.6583  -0.6581  -0.3113  -0.3110   0.2372   0.2372
     0.3159   0.3160   0.5745   0.5748   0.6896   0.6897   0.9281   0.9283
     1.1760   1.1764   1.3143   1.3143   1.3738   1.3739   1.4547   1.4548
     1.7539   1.7540   1.9813   1.9814   2.0172   2.0174   2.6849   2.6850
     2.7307   2.7308   3.6907   3.6908   3.7882   3.7885   3.8363   3.8366
     3.8897   3.8900   4.0723   4.0724   4.2205   4.2206   4.3195   4.3196
     4.4698   4.4699   4.7866   4.7868

          k =-0.0930 0.0493 0.0000 ( 30965 PWs)   bands (ev):

   -69.3823 -69.3802 -69.2891 -69.2877 -69.2564 -69.2549 -66.0991 -66.0949
   -66.0909 -66.0867 -65.7764 -65.7720 -40.7093 -40.7082 -40.6952 -40.6937
   -40.6895 -40.6739 -40.6701 -40.6681 -40.6356 -40.6349 -40.5763 -40.5588
   -40.5574 -40.5397 -40.5111 -40.5098 -40.4967 -40.4955 -32.5259 -32.5027
   -32.5014 -32.5005 -32.3792 -32.3694 -32.3619 -32.3560 -32.3518 -32.3433
   -32.2713 -32.2614 -32.1387 -32.0729 -32.0591 -32.0454 -32.0448 -32.0427
   -17.8029 -17.8018 -17.7993 -17.7989 -17.7958 -17.7948 -17.7933 -17.7928
   -17.7924 -17.7891 -17.7838 -17.7804 -17.7738 -17.7710 -17.7663 -17.7659
   -17.7648 -17.7634 -17.7579 -17.7569 -17.7302 -17.7286 -17.7264 -17.7245
   -17.7212 -17.7196 -17.7175 -17.7155 -17.4150 -17.4145 -17.4143 -17.4137
   -17.4126 -17.4085 -17.4070 -17.4057 -17.4045 -17.4044 -17.4028 -17.4009
   -17.3996 -17.3991  -3.3859  -3.0836  -1.8786  -1.6204  -1.0766  -0.8079
    -0.7767  -0.7671  -0.7032  -0.5290  -0.3700  -0.1157   0.1962   0.2161
     0.2880   0.4570   0.5413   0.5596   0.6122   0.7654   0.9151   1.0070
     1.1045   1.2731   1.2798   1.3442   1.4056   1.4083   1.4504   1.4635
     1.7289   1.7413   1.9623   1.9863   2.0088   2.1170   2.6289   2.6600
     2.7101   2.7233   3.4499   3.7114   3.7226   3.7871   3.7952   3.8270
     3.9015   3.9228   3.9802   4.0201   4.0729   4.3044   4.3657   4.4182
     4.4294   4.5716   4.8218   4.8965

          k =-0.0930 0.0658 0.0000 ( 30995 PWs)   bands (ev):

   -69.3828 -69.3797 -69.2897 -69.2870 -69.2571 -69.2542 -66.1011 -66.0930
   -66.0929 -66.0849 -65.7785 -65.7700 -40.7094 -40.7075 -40.6997 -40.6956
   -40.6889 -40.6735 -40.6674 -40.6635 -40.6358 -40.6344 -40.5839 -40.5652
   -40.5502 -40.5309 -40.5110 -40.5085 -40.4965 -40.4942 -32.5373 -32.5032
   -32.4991 -32.4904 -32.4098 -32.3968 -32.3943 -32.3609 -32.3574 -32.3400
   -32.2295 -32.2199 -32.1820 -32.0781 -32.0560 -32.0458 -32.0433 -32.0024
   -17.8035 -17.8014 -17.7996 -17.7988 -17.7963 -17.7945 -17.7940 -17.7936
   -17.7927 -17.7875 -17.7854 -17.7788 -17.7750 -17.7697 -17.7676 -17.7664
   -17.7643 -17.7620 -17.7585 -17.7564 -17.7319 -17.7304 -17.7248 -17.7230
   -17.7226 -17.7215 -17.7158 -17.7137 -17.4156 -17.4153 -17.4149 -17.4144
   -17.4135 -17.4101 -17.4063 -17.4047 -17.4044 -17.4040 -17.4026 -17.4016
   -17.3986 -17.3974  -3.4201  -2.8256  -1.9268  -1.4467  -1.3995  -0.7617
    -0.7612  -0.7428  -0.6136  -0.4378  -0.3930   0.0765   0.1492   0.2268
     0.3466   0.4042   0.6045   0.6395   0.6458   0.7479   0.9723   1.0827
     1.0842   1.2475   1.3236   1.3883   1.4188   1.5033   1.5075   1.5401
     1.6529   1.7517   1.9652   1.9996   2.0263   2.2317   2.4988   2.5552
     2.6609   2.7284   3.1484   3.4146   3.5971   3.7136   3.7654   3.8096
     3.8289   3.8415   3.9649   4.0474   4.0848   4.1262   4.3881   4.4918
     4.6034   4.6403   4.7365   4.9708

          k =-0.0930 0.0822 0.0000 ( 31006 PWs)   bands (ev):

   -69.3833 -69.3791 -69.2903 -69.2864 -69.2576 -69.2536 -66.1029 -66.0947
   -66.0914 -66.0833 -65.7804 -65.7684 -40.7092 -40.7070 -40.7059 -40.6956
   -40.6859 -40.6752 -40.6673 -40.6557 -40.6359 -40.6338 -40.5903 -40.5716
   -40.5425 -40.5230 -40.5106 -40.5071 -40.4959 -40.4926 -32.5473 -32.5037
   -32.4976 -32.4806 -32.4476 -32.4332 -32.4090 -32.3666 -32.3602 -32.3335
   -32.2195 -32.1940 -32.1843 -32.0842 -32.0541 -32.0460 -32.0428 -31.9664
   -17.8041 -17.8010 -17.7999 -17.7987 -17.7968 -17.7955 -17.7941 -17.7939
   -17.7926 -17.7868 -17.7862 -17.7775 -17.7760 -17.7687 -17.7685 -17.7669
   -17.7639 -17.7608 -17.7590 -17.7559 -17.7335 -17.7321 -17.7245 -17.7232
   -17.7232 -17.7211 -17.7143 -17.7121 -17.4180 -17.4157 -17.4156 -17.4144
   -17.4135 -17.4112 -17.4068 -17.4057 -17.4035 -17.4032 -17.4022 -17.4009
   -17.3974 -17.3958  -3.3792  -2.5174  -1.9430  -1.8352  -1.1348  -0.7537
    -0.7197  -0.6916  -0.5069  -0.4330  -0.3025   0.0806   0.1464   0.3004
     0.3909   0.4492   0.6695   0.7210   0.7538   0.8495   0.9966   1.0766
     1.0961   1.2528   1.3254   1.4222   1.4707   1.5546   1.6118   1.6658
     1.7094   1.8118   1.9163   1.9853   2.0473   2.3358   2.3614   2.3925
     2.5938   2.7444   2.8351   3.0908   3.4579   3.5861   3.6783   3.7250
     3.7259   3.7863   3.9544   3.9638   4.1018   4.1093   4.3090   4.5273
     4.5902   4.6472   4.7140   5.1147

          k =-0.0930 0.0987 0.0000 ( 31012 PWs)   bands (ev):

   -69.3837 -69.3786 -69.2907 -69.2859 -69.2581 -69.2531 -66.1043 -66.0960
   -66.0902 -66.0821 -65.7818 -65.7671 -40.7112 -40.7089 -40.7060 -40.6954
   -40.6826 -40.6768 -40.6677 -40.6495 -40.6360 -40.6333 -40.5951 -40.5764
   -40.5365 -40.5169 -40.5100 -40.5057 -40.4953 -40.4911 -32.5550 -32.5041
   -32.4960 -32.4783 -32.4715 -32.4616 -32.4214 -32.3718 -32.3633 -32.3292
   -32.2486 -32.1670 -32.1572 -32.0894 -32.0531 -32.0458 -32.0424 -31.9388
   -17.8046 -17.8008 -17.8002 -17.7986 -17.7972 -17.7966 -17.7941 -17.7939
   -17.7926 -17.7880 -17.7853 -17.7768 -17.7765 -17.7694 -17.7675 -17.7673
   -17.7636 -17.7597 -17.7593 -17.7556 -17.7347 -17.7334 -17.7257 -17.7245
   -17.7220 -17.7199 -17.7131 -17.7109 -17.4198 -17.4166 -17.4160 -17.4143
   -17.4134 -17.4119 -17.4072 -17.4066 -17.4032 -17.4026 -17.4024 -17.3996
   -17.3960 -17.3946  -3.2699  -2.2024  -2.1922  -1.9448  -0.8697  -0.7988
    -0.6788  -0.6359  -0.4860  -0.4017  -0.1689   0.0868   0.1972   0.2869
     0.5222   0.5823   0.6976   0.7225   0.9206   0.9369   0.9784   1.0832
     1.1091   1.3202   1.3846   1.4311   1.5157   1.6081   1.6676   1.7744
     1.8088   1.9000   1.9649   2.0066   2.0075   2.2165   2.2209   2.3786
     2.5584   2.5743   2.7766   2.7984   3.3436   3.4348   3.4947   3.6416
     3.6828   3.7572   3.8235   3.9024   4.0266   4.1429   4.2091   4.2412
     4.5462   4.6459   4.7546   4.9261

          k =-0.0930 0.1151 0.0000 ( 31025 PWs)   bands (ev):

   -69.3839 -69.3783 -69.2909 -69.2856 -69.2583 -69.2527 -66.1051 -66.0969
   -66.0895 -66.0814 -65.7827 -65.7663 -40.7142 -40.7086 -40.7056 -40.6952
   -40.6798 -40.6780 -40.6685 -40.6454 -40.6360 -40.6330 -40.5981 -40.5794
   -40.5327 -40.5129 -40.5096 -40.5047 -40.4947 -40.4900 -32.5599 -32.5043
   -32.4964 -32.4946 -32.4797 -32.4670 -32.4299 -32.3756 -32.3657 -32.3269
   -32.2670 -32.1501 -32.1401 -32.0929 -32.0527 -32.0457 -32.0423 -31.9216
   -17.8049 -17.8006 -17.8003 -17.7986 -17.7975 -17.7973 -17.7943 -17.7937
   -17.7926 -17.7886 -17.7847 -17.7772 -17.7760 -17.7699 -17.7675 -17.7669
   -17.7634 -17.7596 -17.7591 -17.7554 -17.7354 -17.7343 -17.7264 -17.7254
   -17.7213 -17.7191 -17.7124 -17.7102 -17.4210 -17.4173 -17.4163 -17.4143
   -17.4135 -17.4122 -17.4074 -17.4071 -17.4029 -17.4029 -17.4021 -17.3988
   -17.3950 -17.3938  -3.1047  -2.5247  -1.9440  -1.9098  -0.8871  -0.6780
    -0.6481  -0.5971  -0.5309  -0.3064  -0.1205   0.1574   0.2874   0.3588
     0.5647   0.7050   0.7227   0.7628   0.7730   0.9558   0.9974   1.1364
     1.3125   1.3801   1.4291   1.4710   1.5153   1.6638   1.7111   1.7898
     1.8960   1.9141   1.9244   2.0337   2.0691   2.0713   2.1859   2.3320
     2.4733   2.5773   2.6642   2.8183   3.2357   3.2809   3.3163   3.5257
     3.6548   3.7117   3.7723   3.8237   3.8788   3.9445   4.1296   4.1408
     4.4369   4.4788   4.6161   4.9035

          k =-0.0930-0.0658 0.0000 ( 31058 PWs)   bands (ev):

   -69.3840 -69.3782 -69.2910 -69.2855 -69.2584 -69.2526 -66.1054 -66.0972
   -66.0892 -66.0811 -65.7830 -65.7660 -40.7153 -40.7085 -40.7054 -40.6951
   -40.6786 -40.6784 -40.6690 -40.6441 -40.6360 -40.6329 -40.5991 -40.5804
   -40.5314 -40.5116 -40.5094 -40.5044 -40.4945 -40.4896 -32.5617 -32.5043
   -32.5028 -32.4940 -32.4859 -32.4652 -32.4330 -32.3770 -32.3666 -32.3262
   -32.2732 -32.1444 -32.1343 -32.0941 -32.0526 -32.0456 -32.0422 -31.9157
   -17.8050 -17.8006 -17.8004 -17.7986 -17.7976 -17.7975 -17.7944 -17.7937
   -17.7925 -17.7888 -17.7846 -17.7774 -17.7758 -17.7701 -17.7676 -17.7668
   -17.7633 -17.7596 -17.7589 -17.7554 -17.7357 -17.7345 -17.7267 -17.7257
   -17.7211 -17.7189 -17.7121 -17.7099 -17.4214 -17.4176 -17.4164 -17.4143
   -17.4134 -17.4124 -17.4075 -17.4074 -17.4029 -17.4029 -17.4020 -17.3985
   -17.3947 -17.3935  -2.9635  -2.7185  -1.9436  -1.7841  -0.9431  -0.6326
    -0.6147  -0.5910  -0.5452  -0.2581  -0.1156   0.1981   0.3496   0.4508
     0.5380   0.6115   0.7288   0.7936   0.8368   0.9528   0.9793   1.1634
     1.3437   1.4504   1.4529   1.5119   1.5551   1.6390   1.7114   1.8297
     1.8597   1.8841   1.9450   1.9923   1.9956   2.1022   2.2015   2.3188
     2.4875   2.5916   2.7352   2.8395   3.0800   3.2223   3.2613   3.4649
     3.6537   3.6723   3.6954   3.7814   3.7966   3.9062   4.0966   4.0997
     4.4011   4.4272   4.5004   4.8505

     the Fermi energy is     2.1291 ev

!    total energy              =   -5146.41949811 Ry
     estimated scf accuracy    <       0.00000785 Ry
     smearing contrib. (-TS)   =      -0.07863652 Ry
     internal energy E=F+TS    =   -5146.34086159 Ry

     The total energy is F=E-TS. E is the sum of the following terms:
     one-electron contribution =  -36374.42932068 Ry
     hartree contribution      =   18284.99646658 Ry
     xc contribution           =    -552.51428384 Ry
     ewald contribution        =   13495.60627587 Ry
     electric field correction =       0.00000048 Ry

     convergence has been achieved in  20 iterations

     negative rho (up, down):  2.985E-03 0.000E+00

     Forces acting on atoms (cartesian axes, Ry/au):

     atom    1 type  1   force =    -0.00002506   -0.00002900    0.02219592
     atom    2 type  1   force =     0.00002212    0.00000790    0.02217398
     atom    3 type  2   force =    -0.00025698    0.00035632   -0.00325891
     atom    4 type  2   force =     0.00024338   -0.00036363   -0.00325318
     atom    5 type  1   force =     0.00008044    0.00005186   -0.00530933
     atom    6 type  1   force =    -0.00007716   -0.00005898   -0.00529666
     atom    7 type  2   force =     0.00033932   -0.00047486   -0.01914912
     atom    8 type  2   force =    -0.00034054    0.00050921   -0.01914852
     atom    9 type  1   force =     0.00002226    0.00001147    0.00006743
     atom   10 type  1   force =    -0.00001908   -0.00001799    0.00004358
     atom   11 type  2   force =     0.00025670   -0.00034903    0.00544970
     atom   12 type  2   force =    -0.00024540    0.00035673    0.00548510

     Total force =     0.043086     Total SCF correction =     0.027388
     SCF correction compared to forces is large: reduce conv_thr to get better values

     Writing output data file ./Cr2Ta2/Cr2Ta2_beef.save/

     init_run     :    147.38s CPU    186.43s WALL (       1 calls)
     electrons    :   4439.42s CPU   7154.78s WALL (       1 calls)
     forces       :     38.03s CPU     78.41s WALL (       1 calls)

     Called by init_run:
     wfcinit      :    134.10s CPU    171.68s WALL (       1 calls)
     potinit      :      8.31s CPU      9.15s WALL (       1 calls)
     hinit0       :      1.99s CPU      2.18s WALL (       1 calls)

     Called by electrons:
     c_bands      :   3995.48s CPU   6325.53s WALL (      20 calls)
     sum_band     :    408.55s CPU    766.98s WALL (      20 calls)
     v_of_rho     :     19.92s CPU     33.31s WALL (      21 calls)
     newd         :     23.57s CPU     36.52s WALL (      21 calls)
     mix_rho      :      0.41s CPU      1.14s WALL (      20 calls)
     vdW_kernel   :      6.24s CPU      6.53s WALL (       1 calls)

     Called by c_bands:
     init_us_2    :      7.39s CPU      7.81s WALL (    3108 calls)
     cegterg      :   3949.00s CPU   6209.54s WALL (    1480 calls)

     Called by *egterg:
     cdiaghg      :    553.69s CPU    585.73s WALL (    6124 calls)
     h_psi        :   1693.85s CPU   2846.84s WALL (    6198 calls)
     s_psi        :    453.29s CPU    465.90s WALL (    6198 calls)
     g_psi        :      1.58s CPU      1.76s WALL (    4644 calls)

     Called by h_psi:
     h_psi:calbec :    489.50s CPU    877.20s WALL (    6198 calls)
     vloc_psi     :    738.95s CPU   1490.73s WALL (    6198 calls)
     add_vuspsi   :    462.89s CPU    476.01s WALL (    6198 calls)

     General routines
     calbec       :    723.86s CPU   1325.46s WALL (    7974 calls)
     fft          :      8.87s CPU     33.03s WALL (    1382 calls)
     ffts         :      0.07s CPU      0.36s WALL (      41 calls)
     fftw         :    868.17s CPU   1773.38s WALL ( 1176214 calls)
     interpolate  :      0.16s CPU      0.38s WALL (      21 calls)

     Parallel routines
     fft_scatt_xy :     52.44s CPU     79.37s WALL ( 1177637 calls)
     fft_scatt_yz :    343.00s CPU   1075.84s WALL ( 1177637 calls)

     PWSCF        :      1h17m CPU      2h 7m WALL


   This run was terminated on:   2:21:56  24Jun2022            

=------------------------------------------------------------------------------=
   JOB DONE.
=------------------------------------------------------------------------------=
