
     Program PWSCF v.6.6 starts on 10Jul2022 at 17:36: 9 

     This program is part of the open-source Quantum ESPRESSO suite
     for quantum simulation of materials; please cite
         "P. Giannozzi et al., J. Phys.:Condens. Matter 21 395502 (2009);
         "P. Giannozzi et al., J. Phys.:Condens. Matter 29 465901 (2017);
          URL http://www.quantum-espresso.org", 
     in publications or presentations arising from this work. More details at
     http://www.quantum-espresso.org/quote

     Parallel version (MPI), running on    37 processors

     MPI processes distributed on     3 nodes
     R & G space division:  proc/nbgrp/npool/nimage =      37
     Fft bands division:     nmany     =       1
     Reading input from Cr2Y2.in
Warning: card &CELL ignored
Warning: card / ignored

     Current dimensions of program PWSCF are:
     Max number of different atomic species (ntypx) = 10
     Max number of k-points (npk) =  40000
     Max angular momentum in pseudopotentials (lmaxx) =  3
     Presently stress not available with electric field and gates

     Message from routine cell_base_init:
     DEPRECATED: use true lattice parameter, not A to a.u. conversion factor
     file Cr.pbe-spn-rrkjus_psl.1.0.0.UPF: wavefunction(s)  3P renormalized
     file Y.pbe-spn-rrkjus_psl.1.0.0.UPF: wavefunction(s)  4S renormalized

     **************************************************************************
     Initializing libbeef V0.1.2 with the BEEF-vdW functional.
     Citation: Wellendorff et al., PRB 85, 235149 (2012).
     **************************************************************************


     IMPORTANT: XC functional enforced from input :
     Exchange-correlation= BEEF-VDW
                           (   1   4  43  14   2   0   0)
     Any further DFT definition will be discarded
     Please, verify this is what you really want


     Subspace diagonalization in iterative solution of the eigenvalue problem:
     a serial algorithm will be used


     Parallelization info
     --------------------
     sticks:   dense  smooth     PW     G-vecs:    dense   smooth      PW
     Min         143      57     16                33445     8457    1252
     Max         144      58     17                33458     8472    1262
     Sum        5301    2117    599              1237671   313081   46479



     bravais-lattice index     =            0
     lattice parameter (alat)  =       1.8897  a.u.
     unit-cell volume          =    5662.4347 (a.u.)^3
     number of atoms/cell      =           12
     number of atomic types    =            2
     number of electrons       =       150.00
     number of Kohn-Sham states=           90
     kinetic-energy cutoff     =      55.1240  Ry
     charge density cutoff     =     551.2396  Ry
     convergence threshold     =      1.0E-05
     mixing beta               =       0.1000
     number of iterations used =           10  plain     mixing
     Exchange-correlation= BEEF-VDW
                           (   1   4  43  14   2   0   0)

     celldm(1)=   1.889726  celldm(2)=   0.000000  celldm(3)=   0.000000
     celldm(4)=   0.000000  celldm(5)=   0.000000  celldm(6)=   0.000000

     crystal axes: (cart. coord. in units of alat)
               a(1) = (   5.967058   0.000000   0.000000 )  
               a(2) = (   1.883503   5.661995   0.000000 )  
               a(3) = (   0.000000   0.000000  24.835731 )  

     reciprocal axes: (cart. coord. in units 2 pi/alat)
               b(1) = (  0.167587 -0.055749  0.000000 )  
               b(2) = (  0.000000  0.176616  0.000000 )  
               b(3) = (  0.000000  0.000000  0.040265 )  


     PseudoPot. # 1 for Cr read from file:
     ../pseudo/Cr.pbe-spn-rrkjus_psl.1.0.0.UPF
     MD5 check sum: 793d051e4f89dd1e3290b85340a92c0a
     Pseudo is Ultrasoft + core correction, Zval = 14.0
     Generated using "atomic" code by A. Dal Corso v.6.2.2
     Using radial grid of 1183 points,  6 beta functions with: 
                l(1) =   0
                l(2) =   0
                l(3) =   1
                l(4) =   1
                l(5) =   2
                l(6) =   2
     Q(r) pseudized with 0 coefficients 


     PseudoPot. # 2 for Y  read from file:
     ../pseudo/Y.pbe-spn-rrkjus_psl.1.0.0.UPF
     MD5 check sum: 5fe32e6a006803c2ec2edff47948a3c8
     Pseudo is Ultrasoft + core correction, Zval = 11.0
     Generated using "atomic" code by A. Dal Corso v.6.2.2
     Using radial grid of 1223 points,  6 beta functions with: 
                l(1) =   0
                l(2) =   0
                l(3) =   1
                l(4) =   1
                l(5) =   2
                l(6) =   2
     Q(r) pseudized with 0 coefficients 


     atomic species   valence    mass     pseudopotential
        Cr            14.00    51.99610     Cr( 1.00)
        Y             11.00    88.90584     Y ( 1.00)

     No symmetry found



   Cartesian axes

     site n.     atom                  positions (alat units)
         1           Cr  tau(   1) = (   0.0000000   0.0000000  10.0000000  )
         2           Cr  tau(   2) = (   3.9252803   2.8309977  10.0000000  )
         3           Y   tau(   3) = (   2.9835288   0.0000000  10.0000000  )
         4           Y   tau(   4) = (   0.9417515   2.8309977  10.0000000  )
         5           Cr  tau(   5) = (   5.9670575   4.3035720  12.4178654  )
         6           Cr  tau(   6) = (   2.0417772   1.4725743  12.4178654  )
         7           Y   tau(   7) = (   2.9835288   4.3035720  12.4178654  )
         8           Y   tau(   8) = (   5.0253060   1.4725743  12.4178654  )
         9           Cr  tau(   9) = (   5.9643190   4.3018210  14.1869062  )
        10           Cr  tau(  10) = (   2.0387049   1.4701436  14.1886759  )
        11           Y   tau(  11) = (   2.9711721   4.2947552  15.6365049  )
        12           Y   tau(  12) = (   5.0134722   1.4639644  15.6365107  )

     number of k points=    74  Fermi-Dirac smearing, width (Ry)=  0.0100
                       cart. coord. in units 2pi/alat
        k(    1) = (   0.0000000   0.0000000   0.0000000), wk =   0.0138889
        k(    2) = (   0.0000000   0.0147180   0.0000000), wk =   0.0277778
        k(    3) = (   0.0000000   0.0294360   0.0000000), wk =   0.0277778
        k(    4) = (   0.0000000   0.0441540   0.0000000), wk =   0.0277778
        k(    5) = (   0.0000000   0.0588721   0.0000000), wk =   0.0277778
        k(    6) = (   0.0000000   0.0735901   0.0000000), wk =   0.0277778
        k(    7) = (   0.0000000  -0.0883081   0.0000000), wk =   0.0138889
        k(    8) = (   0.0139656  -0.0046457   0.0000000), wk =   0.0277778
        k(    9) = (   0.0139656   0.0100723   0.0000000), wk =   0.0277778
        k(   10) = (   0.0139656   0.0247903   0.0000000), wk =   0.0277778
        k(   11) = (   0.0139656   0.0395083   0.0000000), wk =   0.0277778
        k(   12) = (   0.0139656   0.0542263   0.0000000), wk =   0.0277778
        k(   13) = (   0.0139656   0.0689443   0.0000000), wk =   0.0277778
        k(   14) = (   0.0139656  -0.0929538   0.0000000), wk =   0.0277778
        k(   15) = (   0.0139656  -0.0782358   0.0000000), wk =   0.0277778
        k(   16) = (   0.0139656  -0.0635178   0.0000000), wk =   0.0277778
        k(   17) = (   0.0139656  -0.0487998   0.0000000), wk =   0.0277778
        k(   18) = (   0.0139656  -0.0340818   0.0000000), wk =   0.0277778
        k(   19) = (   0.0139656  -0.0193638   0.0000000), wk =   0.0277778
        k(   20) = (   0.0279311  -0.0092915   0.0000000), wk =   0.0277778
        k(   21) = (   0.0279311   0.0054265   0.0000000), wk =   0.0277778
        k(   22) = (   0.0279311   0.0201445   0.0000000), wk =   0.0277778
        k(   23) = (   0.0279311   0.0348626   0.0000000), wk =   0.0277778
        k(   24) = (   0.0279311   0.0495806   0.0000000), wk =   0.0277778
        k(   25) = (   0.0279311   0.0642986   0.0000000), wk =   0.0277778
        k(   26) = (   0.0279311  -0.0975996   0.0000000), wk =   0.0277778
        k(   27) = (   0.0279311  -0.0828816   0.0000000), wk =   0.0277778
        k(   28) = (   0.0279311  -0.0681636   0.0000000), wk =   0.0277778
        k(   29) = (   0.0279311  -0.0534455   0.0000000), wk =   0.0277778
        k(   30) = (   0.0279311  -0.0387275   0.0000000), wk =   0.0277778
        k(   31) = (   0.0279311  -0.0240095   0.0000000), wk =   0.0277778
        k(   32) = (   0.0418967  -0.0139372   0.0000000), wk =   0.0277778
        k(   33) = (   0.0418967   0.0007808   0.0000000), wk =   0.0277778
        k(   34) = (   0.0418967   0.0154988   0.0000000), wk =   0.0277778
        k(   35) = (   0.0418967   0.0302168   0.0000000), wk =   0.0277778
        k(   36) = (   0.0418967   0.0449348   0.0000000), wk =   0.0277778
        k(   37) = (   0.0418967   0.0596528   0.0000000), wk =   0.0277778
        k(   38) = (   0.0418967  -0.1022453   0.0000000), wk =   0.0277778
        k(   39) = (   0.0418967  -0.0875273   0.0000000), wk =   0.0277778
        k(   40) = (   0.0418967  -0.0728093   0.0000000), wk =   0.0277778
        k(   41) = (   0.0418967  -0.0580913   0.0000000), wk =   0.0277778
        k(   42) = (   0.0418967  -0.0433733   0.0000000), wk =   0.0277778
        k(   43) = (   0.0418967  -0.0286552   0.0000000), wk =   0.0277778
        k(   44) = (   0.0558623  -0.0185830   0.0000000), wk =   0.0277778
        k(   45) = (   0.0558623  -0.0038650   0.0000000), wk =   0.0277778
        k(   46) = (   0.0558623   0.0108531   0.0000000), wk =   0.0277778
        k(   47) = (   0.0558623   0.0255711   0.0000000), wk =   0.0277778
        k(   48) = (   0.0558623   0.0402891   0.0000000), wk =   0.0277778
        k(   49) = (   0.0558623   0.0550071   0.0000000), wk =   0.0277778
        k(   50) = (   0.0558623  -0.1068911   0.0000000), wk =   0.0277778
        k(   51) = (   0.0558623  -0.0921731   0.0000000), wk =   0.0277778
        k(   52) = (   0.0558623  -0.0774550   0.0000000), wk =   0.0277778
        k(   53) = (   0.0558623  -0.0627370   0.0000000), wk =   0.0277778
        k(   54) = (   0.0558623  -0.0480190   0.0000000), wk =   0.0277778
        k(   55) = (   0.0558623  -0.0333010   0.0000000), wk =   0.0277778
        k(   56) = (   0.0698278  -0.0232287   0.0000000), wk =   0.0277778
        k(   57) = (   0.0698278  -0.0085107   0.0000000), wk =   0.0277778
        k(   58) = (   0.0698278   0.0062073   0.0000000), wk =   0.0277778
        k(   59) = (   0.0698278   0.0209253   0.0000000), wk =   0.0277778
        k(   60) = (   0.0698278   0.0356433   0.0000000), wk =   0.0277778
        k(   61) = (   0.0698278   0.0503614   0.0000000), wk =   0.0277778
        k(   62) = (   0.0698278  -0.1115368   0.0000000), wk =   0.0277778
        k(   63) = (   0.0698278  -0.0968188   0.0000000), wk =   0.0277778
        k(   64) = (   0.0698278  -0.0821008   0.0000000), wk =   0.0277778
        k(   65) = (   0.0698278  -0.0673828   0.0000000), wk =   0.0277778
        k(   66) = (   0.0698278  -0.0526648   0.0000000), wk =   0.0277778
        k(   67) = (   0.0698278  -0.0379467   0.0000000), wk =   0.0277778
        k(   68) = (  -0.0837934   0.0278745   0.0000000), wk =   0.0138889
        k(   69) = (  -0.0837934   0.0425925   0.0000000), wk =   0.0277778
        k(   70) = (  -0.0837934   0.0573105   0.0000000), wk =   0.0277778
        k(   71) = (  -0.0837934   0.0720285   0.0000000), wk =   0.0277778
        k(   72) = (  -0.0837934   0.0867465   0.0000000), wk =   0.0277778
        k(   73) = (  -0.0837934   0.1014645   0.0000000), wk =   0.0277778
        k(   74) = (  -0.0837934  -0.0604336   0.0000000), wk =   0.0138889

     Dense  grid:  1237671 G-vectors     FFT dimensions: (  90,  90, 360)

     Smooth grid:   313081 G-vectors     FFT dimensions: (  54,  54, 225)

     Estimated max dynamical RAM per process >     241.87 MB

     Estimated total dynamical RAM >       8.74 GB

     Initial potential from superposition of free atoms

     starting charge  149.97086, renormalised to  150.00000

     negative rho (up, down):  3.143E-03 0.000E+00


     %%%%%%%%%%%%%%%%%%%%%%%%%%%%%%%%%%%%%%%%%%%%%%%%%%%%%%%%%%%%%%%%%%%%%%%%
     %                                                                      %
     % You are using vdW-DF, which was implemented by the Thonhauser group. %
     % Please cite the following two papers that made this development      %
     % possible and the two reviews that describe the various versions:     %
     %                                                                      %
     %   T. Thonhauser et al., PRL 115, 136402 (2015).                      %
     %   T. Thonhauser et al., PRB 76, 125112 (2007).                       %
     %   K. Berland et al., Rep. Prog. Phys. 78, 066501 (2015).             %
     %   D.C. Langreth et al., J. Phys.: Condens. Matter 21, 084203 (2009). %
     %                                                                      %
     %                                                                      %
     % If you are calculating the stress with vdW-DF, please also cite:     %
     %                                                                      %
     %   R. Sabatini et al., J. Phys.: Condens. Matter 24, 424209 (2012).   %
     %                                                                      %
     %%%%%%%%%%%%%%%%%%%%%%%%%%%%%%%%%%%%%%%%%%%%%%%%%%%%%%%%%%%%%%%%%%%%%%%%



     Adding external electric field

     Computed dipole along edir(3) : 
        Dipole                0.0107 Ry au,          0.0271 Debye
        Dipole field          0.0000 Ry au, 

        Potential amp.       -0.0022 Ry
        Total length         45.7594 bohr

     Starting wfcs are  138 randomized atomic wfcs

     total cpu time spent up to now is       78.1 secs

     Self-consistent Calculation

     iteration #  1     ecut=    55.12 Ry     beta= 0.10
     Davidson diagonalization with overlap
     ethr =  1.00E-02,  avg # of iterations =  2.0

     negative rho (up, down):  3.123E-03 0.000E+00

     Adding external electric field

     Computed dipole along edir(3) : 
        Dipole                1.2335 Ry au,          3.1353 Debye
        Dipole field          0.0027 Ry au, 

        Potential amp.       -0.2505 Ry
        Total length         45.7594 bohr


     total cpu time spent up to now is      200.4 secs

     total energy              =   -1556.59004283 Ry
     estimated scf accuracy    <      21.96855778 Ry

     iteration #  2     ecut=    55.12 Ry     beta= 0.10
     Davidson diagonalization with overlap
     ethr =  1.00E-02,  avg # of iterations =  4.0

     negative rho (up, down):  3.089E-03 0.000E+00

     Adding external electric field

     Computed dipole along edir(3) : 
        Dipole                0.0270 Ry au,          0.0687 Debye
        Dipole field          0.0001 Ry au, 

        Potential amp.       -0.0055 Ry
        Total length         45.7594 bohr


     total cpu time spent up to now is      331.3 secs

     total energy              =   -1557.79456847 Ry
     estimated scf accuracy    <      11.73270103 Ry

     iteration #  3     ecut=    55.12 Ry     beta= 0.10
     Davidson diagonalization with overlap
     ethr =  7.82E-03,  avg # of iterations =  1.7

     negative rho (up, down):  3.098E-03 0.000E+00

     Adding external electric field

     Computed dipole along edir(3) : 
        Dipole                1.0724 Ry au,          2.7257 Debye
        Dipole field          0.0024 Ry au, 

        Potential amp.       -0.2178 Ry
        Total length         45.7594 bohr


     total cpu time spent up to now is      443.3 secs

     total energy              =   -1557.89498732 Ry
     estimated scf accuracy    <      30.07790228 Ry

     iteration #  4     ecut=    55.12 Ry     beta= 0.10
     Davidson diagonalization with overlap
     ethr =  7.82E-03,  avg # of iterations =  2.4

     negative rho (up, down):  3.121E-03 0.000E+00

     Adding external electric field

     Computed dipole along edir(3) : 
        Dipole                0.4004 Ry au,          1.0176 Debye
        Dipole field          0.0009 Ry au, 

        Potential amp.       -0.0813 Ry
        Total length         45.7594 bohr


     total cpu time spent up to now is      554.5 secs

     total energy              =   -1558.40742663 Ry
     estimated scf accuracy    <      34.47216570 Ry

     iteration #  5     ecut=    55.12 Ry     beta= 0.10
     Davidson diagonalization with overlap
     ethr =  7.82E-03,  avg # of iterations =  1.1

     negative rho (up, down):  3.127E-03 0.000E+00

     Adding external electric field

     Computed dipole along edir(3) : 
        Dipole                0.3612 Ry au,          0.9180 Debye
        Dipole field          0.0008 Ry au, 

        Potential amp.       -0.0734 Ry
        Total length         45.7594 bohr


     total cpu time spent up to now is      653.4 secs

     total energy              =   -1558.73025171 Ry
     estimated scf accuracy    <       0.74473869 Ry

     iteration #  6     ecut=    55.12 Ry     beta= 0.10
     Davidson diagonalization with overlap
     ethr =  4.96E-04,  avg # of iterations =  8.7

     negative rho (up, down):  2.972E-03 0.000E+00

     Adding external electric field

     Computed dipole along edir(3) : 
        Dipole                0.4478 Ry au,          1.1381 Debye
        Dipole field          0.0010 Ry au, 

        Potential amp.       -0.0909 Ry
        Total length         45.7594 bohr


     total cpu time spent up to now is      798.5 secs

     total energy              =   -1558.71017355 Ry
     estimated scf accuracy    <       0.43989906 Ry

     iteration #  7     ecut=    55.12 Ry     beta= 0.10
     Davidson diagonalization with overlap
     ethr =  2.93E-04,  avg # of iterations =  3.3

     negative rho (up, down):  2.951E-03 0.000E+00

     Adding external electric field

     Computed dipole along edir(3) : 
        Dipole                0.4591 Ry au,          1.1669 Debye
        Dipole field          0.0010 Ry au, 

        Potential amp.       -0.0932 Ry
        Total length         45.7594 bohr


     total cpu time spent up to now is      921.6 secs

     total energy              =   -1558.72879357 Ry
     estimated scf accuracy    <       0.35912170 Ry

     iteration #  8     ecut=    55.12 Ry     beta= 0.10
     Davidson diagonalization with overlap
     ethr =  2.39E-04,  avg # of iterations =  5.2

     negative rho (up, down):  2.921E-03 0.000E+00

     Adding external electric field

     Computed dipole along edir(3) : 
        Dipole                0.3927 Ry au,          0.9980 Debye
        Dipole field          0.0009 Ry au, 

        Potential amp.       -0.0798 Ry
        Total length         45.7594 bohr


     total cpu time spent up to now is     1048.7 secs

     total energy              =   -1558.74795851 Ry
     estimated scf accuracy    <       0.97072242 Ry

     iteration #  9     ecut=    55.12 Ry     beta= 0.10
     Davidson diagonalization with overlap
     ethr =  2.39E-04,  avg # of iterations =  1.5

     negative rho (up, down):  2.859E-03 0.000E+00

     Adding external electric field

     Computed dipole along edir(3) : 
        Dipole                0.3376 Ry au,          0.8580 Debye
        Dipole field          0.0007 Ry au, 

        Potential amp.       -0.0686 Ry
        Total length         45.7594 bohr


     total cpu time spent up to now is     1150.4 secs

     total energy              =   -1558.75066144 Ry
     estimated scf accuracy    <       0.34818709 Ry

     iteration # 10     ecut=    55.12 Ry     beta= 0.10
     Davidson diagonalization with overlap
     ethr =  2.32E-04,  avg # of iterations =  1.3

     negative rho (up, down):  2.750E-03 0.000E+00

     Adding external electric field

     Computed dipole along edir(3) : 
        Dipole                0.4143 Ry au,          1.0530 Debye
        Dipole field          0.0009 Ry au, 

        Potential amp.       -0.0841 Ry
        Total length         45.7594 bohr


     total cpu time spent up to now is     1250.7 secs

     total energy              =   -1558.74139616 Ry
     estimated scf accuracy    <       0.14506949 Ry

     iteration # 11     ecut=    55.12 Ry     beta= 0.10
     Davidson diagonalization with overlap
     ethr =  9.67E-05,  avg # of iterations =  6.6

     negative rho (up, down):  2.629E-03 0.000E+00

     Adding external electric field

     Computed dipole along edir(3) : 
        Dipole                0.2801 Ry au,          0.7119 Debye
        Dipole field          0.0006 Ry au, 

        Potential amp.       -0.0569 Ry
        Total length         45.7594 bohr


     total cpu time spent up to now is     1382.7 secs

     total energy              =   -1558.70552818 Ry
     estimated scf accuracy    <       0.91394404 Ry

     iteration # 12     ecut=    55.12 Ry     beta= 0.10
     Davidson diagonalization with overlap
     ethr =  9.67E-05,  avg # of iterations =  4.1

     negative rho (up, down):  2.610E-03 0.000E+00

     Adding external electric field

     Computed dipole along edir(3) : 
        Dipole                0.3208 Ry au,          0.8153 Debye
        Dipole field          0.0007 Ry au, 

        Potential amp.       -0.0651 Ry
        Total length         45.7594 bohr


     total cpu time spent up to now is     1506.6 secs

     total energy              =   -1558.74611379 Ry
     estimated scf accuracy    <       0.40411304 Ry

     iteration # 13     ecut=    55.12 Ry     beta= 0.10
     Davidson diagonalization with overlap
     ethr =  9.67E-05,  avg # of iterations =  1.0

     negative rho (up, down):  2.560E-03 0.000E+00

     Adding external electric field

     Computed dipole along edir(3) : 
        Dipole                0.3549 Ry au,          0.9021 Debye
        Dipole field          0.0008 Ry au, 

        Potential amp.       -0.0721 Ry
        Total length         45.7594 bohr


     total cpu time spent up to now is     1604.8 secs

     total energy              =   -1558.73808818 Ry
     estimated scf accuracy    <       0.12130249 Ry

     iteration # 14     ecut=    55.12 Ry     beta= 0.10
     Davidson diagonalization with overlap
     ethr =  8.09E-05,  avg # of iterations =  1.4

     negative rho (up, down):  2.536E-03 0.000E+00

     Adding external electric field

     Computed dipole along edir(3) : 
        Dipole                0.3200 Ry au,          0.8133 Debye
        Dipole field          0.0007 Ry au, 

        Potential amp.       -0.0650 Ry
        Total length         45.7594 bohr


     total cpu time spent up to now is     1706.3 secs

     total energy              =   -1558.74330769 Ry
     estimated scf accuracy    <       0.07280594 Ry

     iteration # 15     ecut=    55.12 Ry     beta= 0.10
     Davidson diagonalization with overlap
     ethr =  4.85E-05,  avg # of iterations =  1.1

     negative rho (up, down):  2.520E-03 0.000E+00

     Adding external electric field

     Computed dipole along edir(3) : 
        Dipole                0.3131 Ry au,          0.7959 Debye
        Dipole field          0.0007 Ry au, 

        Potential amp.       -0.0636 Ry
        Total length         45.7594 bohr


     total cpu time spent up to now is     1806.1 secs

     total energy              =   -1558.74405966 Ry
     estimated scf accuracy    <       0.00496217 Ry

     iteration # 16     ecut=    55.12 Ry     beta= 0.10
     Davidson diagonalization with overlap
     c_bands:  1 eigenvalues not converged
     ethr =  3.31E-06,  avg # of iterations = 10.1

     negative rho (up, down):  2.508E-03 0.000E+00

     Adding external electric field

     Computed dipole along edir(3) : 
        Dipole                0.3134 Ry au,          0.7966 Debye
        Dipole field          0.0007 Ry au, 

        Potential amp.       -0.0637 Ry
        Total length         45.7594 bohr


     total cpu time spent up to now is     1964.6 secs

     total energy              =   -1558.74421913 Ry
     estimated scf accuracy    <       0.00140652 Ry

     iteration # 17     ecut=    55.12 Ry     beta= 0.10
     Davidson diagonalization with overlap
     ethr =  9.38E-07,  avg # of iterations =  4.4

     negative rho (up, down):  2.500E-03 0.000E+00

     Adding external electric field

     Computed dipole along edir(3) : 
        Dipole                0.3184 Ry au,          0.8094 Debye
        Dipole field          0.0007 Ry au, 

        Potential amp.       -0.0647 Ry
        Total length         45.7594 bohr


     total cpu time spent up to now is     2092.3 secs

     total energy              =   -1558.74442790 Ry
     estimated scf accuracy    <       0.00193005 Ry

     iteration # 18     ecut=    55.12 Ry     beta= 0.10
     Davidson diagonalization with overlap
     ethr =  9.38E-07,  avg # of iterations =  2.0

     negative rho (up, down):  2.491E-03 0.000E+00

     Adding external electric field

     Computed dipole along edir(3) : 
        Dipole                0.3179 Ry au,          0.8081 Debye
        Dipole field          0.0007 Ry au, 

        Potential amp.       -0.0646 Ry
        Total length         45.7594 bohr


     total cpu time spent up to now is     2208.9 secs

     total energy              =   -1558.74455861 Ry
     estimated scf accuracy    <       0.00122514 Ry

     iteration # 19     ecut=    55.12 Ry     beta= 0.10
     Davidson diagonalization with overlap
     ethr =  8.17E-07,  avg # of iterations =  1.1

     negative rho (up, down):  2.480E-03 0.000E+00

     Adding external electric field

     Computed dipole along edir(3) : 
        Dipole                0.3146 Ry au,          0.7996 Debye
        Dipole field          0.0007 Ry au, 

        Potential amp.       -0.0639 Ry
        Total length         45.7594 bohr


     total cpu time spent up to now is     2312.9 secs

     total energy              =   -1558.74455941 Ry
     estimated scf accuracy    <       0.00087192 Ry

     iteration # 20     ecut=    55.12 Ry     beta= 0.10
     Davidson diagonalization with overlap
     ethr =  5.81E-07,  avg # of iterations =  1.0

     negative rho (up, down):  2.472E-03 0.000E+00

     Adding external electric field

     Computed dipole along edir(3) : 
        Dipole                0.3146 Ry au,          0.7995 Debye
        Dipole field          0.0007 Ry au, 

        Potential amp.       -0.0639 Ry
        Total length         45.7594 bohr


     total cpu time spent up to now is     2414.4 secs

     total energy              =   -1558.74457484 Ry
     estimated scf accuracy    <       0.00011076 Ry

     iteration # 21     ecut=    55.12 Ry     beta= 0.10
     Davidson diagonalization with overlap
     ethr =  7.38E-08,  avg # of iterations =  5.4

     negative rho (up, down):  2.466E-03 0.000E+00

     Adding external electric field

     Computed dipole along edir(3) : 
        Dipole                0.3136 Ry au,          0.7971 Debye
        Dipole field          0.0007 Ry au, 

        Potential amp.       -0.0637 Ry
        Total length         45.7594 bohr


     total cpu time spent up to now is     2549.4 secs

     total energy              =   -1558.74458341 Ry
     estimated scf accuracy    <       0.00023500 Ry

     iteration # 22     ecut=    55.12 Ry     beta= 0.10
     Davidson diagonalization with overlap
     ethr =  7.38E-08,  avg # of iterations =  2.0

     negative rho (up, down):  2.461E-03 0.000E+00

     Adding external electric field

     Computed dipole along edir(3) : 
        Dipole                0.3135 Ry au,          0.7967 Debye
        Dipole field          0.0007 Ry au, 

        Potential amp.       -0.0637 Ry
        Total length         45.7594 bohr


     total cpu time spent up to now is     2662.7 secs

     total energy              =   -1558.74459275 Ry
     estimated scf accuracy    <       0.00005294 Ry

     iteration # 23     ecut=    55.12 Ry     beta= 0.10
     Davidson diagonalization with overlap
     ethr =  3.53E-08,  avg # of iterations =  4.4

     negative rho (up, down):  2.457E-03 0.000E+00

     Adding external electric field

     Computed dipole along edir(3) : 
        Dipole                0.3142 Ry au,          0.7985 Debye
        Dipole field          0.0007 Ry au, 

        Potential amp.       -0.0638 Ry
        Total length         45.7594 bohr


     total cpu time spent up to now is     2791.1 secs

     total energy              =   -1558.74459934 Ry
     estimated scf accuracy    <       0.00001950 Ry

     iteration # 24     ecut=    55.12 Ry     beta= 0.10
     Davidson diagonalization with overlap
     ethr =  1.30E-08,  avg # of iterations =  4.0

     negative rho (up, down):  2.432E-03 0.000E+00

     Adding external electric field

     Computed dipole along edir(3) : 
        Dipole                0.3110 Ry au,          0.7904 Debye
        Dipole field          0.0007 Ry au, 

        Potential amp.       -0.0632 Ry
        Total length         45.7594 bohr


     total cpu time spent up to now is     2909.3 secs

     End of self-consistent calculation

          k = 0.0000 0.0000 0.0000 ( 39177 PWs)   bands (ev):

   -70.7701 -70.7632 -69.8884 -69.8875 -69.6737 -69.6714 -43.4622 -43.4484
   -42.4057 -42.3779 -41.7715 -41.7675 -41.7431 -41.7233 -41.2700 -41.2641
   -41.2379 -41.2183 -41.1509 -41.1489 -41.1422 -41.1232 -41.1199 -41.1190
   -41.1121 -41.0743 -40.7140 -40.6866 -39.8664 -39.8583 -22.4748 -22.4349
   -22.3789 -22.2347 -22.2061 -22.0301 -21.2796 -21.1997 -21.1640 -21.0611
   -21.0448 -20.8989 -20.8916 -20.7227 -20.6640 -20.6576 -20.6292 -20.5050
    -3.5164  -2.2742  -1.4172  -1.3997  -1.3949  -1.2697  -1.0590  -0.8538
    -0.7627  -0.6954  -0.6843  -0.6035  -0.2978   0.2238   0.2295   0.3209
     0.4202   0.5908   0.6331   0.6751   0.7804   1.1114   1.1370   1.1486
     1.1635   1.2009   1.3773   1.5017   1.5318   1.5460   1.6365   1.7360
     1.9775   2.0382   2.1718   2.1984   2.4152   2.5855   2.6462   2.7293
     2.9133   3.3089

          k = 0.0000 0.0147 0.0000 ( 39203 PWs)   bands (ev):

   -70.7701 -70.7632 -69.8884 -69.8875 -69.6737 -69.6714 -43.4622 -43.4484
   -42.4052 -42.3784 -41.7715 -41.7676 -41.7429 -41.7237 -41.2699 -41.2642
   -41.2382 -41.2196 -41.1511 -41.1491 -41.1436 -41.1343 -41.1200 -41.1132
   -41.1062 -41.0716 -40.7131 -40.6866 -39.8664 -39.8583 -22.4741 -22.4356
   -22.3732 -22.2342 -22.2066 -22.0363 -21.2736 -21.1992 -21.1648 -21.0614
   -21.0456 -20.9059 -20.8855 -20.7215 -20.6638 -20.6586 -20.6302 -20.5121
    -3.4737  -2.2369  -1.4076  -1.3903  -1.3751  -1.2627  -1.0491  -0.8356
    -0.7648  -0.6991  -0.6858  -0.5793  -0.2784   0.2236   0.2408   0.3308
     0.4163   0.5883   0.6276   0.6966   0.8029   1.0392   1.1016   1.1365
     1.1490   1.1951   1.4150   1.5035   1.5075   1.5396   1.6433   1.7421
     2.0263   2.0576   2.0812   2.1746   2.3824   2.5909   2.6991   2.7171
     2.8908   3.0767

          k = 0.0000 0.0294 0.0000 ( 39160 PWs)   bands (ev):

   -70.7701 -70.7632 -69.8884 -69.8875 -69.6737 -69.6714 -43.4621 -43.4484
   -42.4039 -42.3798 -41.7717 -41.7678 -41.7420 -41.7247 -41.2697 -41.2646
   -41.2392 -41.2233 -41.1519 -41.1496 -41.1474 -41.1442 -41.1217 -41.1139
   -41.0916 -41.0651 -40.7105 -40.6868 -39.8664 -39.8583 -22.4721 -22.4376
   -22.3563 -22.2329 -22.2081 -22.0543 -21.2559 -21.1977 -21.1668 -21.0621
   -21.0478 -20.9264 -20.8674 -20.7179 -20.6632 -20.6618 -20.6329 -20.5327
    -3.3475  -2.1279  -1.3855  -1.3767  -1.3120  -1.2373  -1.0554  -0.7936
    -0.7709  -0.6977  -0.6646  -0.5075  -0.2337   0.2067   0.2892   0.3436
     0.4053   0.5888   0.6384   0.7211   0.8402   0.8553   1.0715   1.1228
     1.1508   1.1710   1.4496   1.4951   1.5007   1.5332   1.6649   1.7757
     1.8009   2.0851   2.1714   2.1874   2.2642   2.6048   2.6295   2.7788
     2.8076   2.9042

          k = 0.0000 0.0442 0.0000 ( 39157 PWs)   bands (ev):

   -70.7701 -70.7632 -69.8883 -69.8876 -69.6736 -69.6715 -43.4621 -43.4485
   -42.4018 -42.3821 -41.7719 -41.7681 -41.7407 -41.7264 -41.2693 -41.2651
   -41.2405 -41.2284 -41.1545 -41.1526 -41.1503 -41.1495 -41.1225 -41.1151
   -41.0777 -41.0581 -40.7067 -40.6874 -39.8664 -39.8583 -22.4688 -22.4407
   -22.3294 -22.2308 -22.2106 -22.0829 -21.2276 -21.1951 -21.1699 -21.0629
   -21.0510 -20.9585 -20.8385 -20.7124 -20.6668 -20.6619 -20.6371 -20.5653
    -3.1437  -1.9565  -1.3937  -1.3444  -1.2572  -1.1650  -1.1410  -0.7834
    -0.7801  -0.6377  -0.5692  -0.3913  -0.2040   0.1571   0.3327   0.3530
     0.4194   0.5573   0.5968   0.7127   0.8462   0.9062   1.0266   1.0908
     1.1407   1.1589   1.4490   1.4579   1.5410   1.5648   1.5778   1.6791
     1.8496   2.0740   2.0765   2.2017   2.2675   2.5351   2.5678   2.6491
     2.6974   2.8066

          k = 0.0000 0.0589 0.0000 ( 39110 PWs)   bands (ev):

   -70.7701 -70.7632 -69.8882 -69.8877 -69.6736 -69.6715 -43.4621 -43.4485
   -42.3990 -42.3851 -41.7721 -41.7683 -41.7389 -41.7285 -41.2687 -41.2658
   -41.2416 -41.2337 -41.1582 -41.1570 -41.1514 -41.1507 -41.1223 -41.1167
   -41.0659 -41.0529 -40.7022 -40.6886 -39.8664 -39.8583 -22.4646 -22.4447
   -22.2941 -22.2280 -22.2137 -22.1198 -21.1918 -21.1904 -21.1737 -21.0633
   -21.0545 -20.9996 -20.8003 -20.7054 -20.6733 -20.6599 -20.6421 -20.6069
    -2.8723  -1.7418  -1.5340  -1.3133  -1.2300  -1.2179  -1.0577  -0.8078
    -0.7874  -0.5147  -0.4412  -0.2428  -0.2185   0.0879   0.2596   0.3065
     0.4991   0.5318   0.6130   0.7493   0.9266   0.9485   0.9843   1.0441
     1.1252   1.1851   1.3544   1.4089   1.4945   1.5912   1.6135   1.7013
     1.9306   1.9396   2.0100   2.1542   2.2528   2.3720   2.4487   2.5972
     2.6613   2.7479

          k = 0.0000 0.0736 0.0000 ( 39147 PWs)   bands (ev):

   -70.7701 -70.7632 -69.8881 -69.8878 -69.6736 -69.6715 -43.4621 -43.4485
   -42.3957 -42.3885 -41.7723 -41.7686 -41.7369 -41.7307 -41.2681 -41.2665
   -41.2419 -41.2381 -41.1606 -41.1599 -41.1520 -41.1512 -41.1214 -41.1183
   -41.0571 -41.0506 -40.6978 -40.6907 -39.8664 -39.8583 -22.4598 -22.4495
   -22.2527 -22.2247 -22.2173 -22.1625 -21.1878 -21.1788 -21.1455 -21.0636
   -21.0579 -21.0459 -20.7551 -20.6975 -20.6809 -20.6601 -20.6515 -20.6472
    -2.5480  -1.8353  -1.5215  -1.3055  -1.2207  -1.2143  -0.9693  -0.8496
    -0.7601  -0.5040  -0.3515  -0.1139  -0.0946   0.0393   0.0855   0.2414
     0.5182   0.5840   0.6916   0.7580   0.9108   0.9397   0.9866   1.0703
     1.1661   1.2226   1.2782   1.3698   1.5205   1.5995   1.6048   1.7193
     1.8378   1.9089   1.9586   2.1111   2.1206   2.2941   2.4761   2.5624
     2.6826   2.6949

          k = 0.0000-0.0883 0.0000 ( 39136 PWs)   bands (ev):

   -70.7701 -70.7632 -69.8881 -69.8878 -69.6736 -69.6715 -43.4621 -43.4485
   -42.3922 -42.3921 -41.7723 -41.7687 -41.7356 -41.7320 -41.2675 -41.2672
   -41.2410 -41.2407 -41.1613 -41.1611 -41.1522 -41.1514 -41.1204 -41.1196
   -41.0520 -41.0519 -40.6938 -40.6938 -39.8664 -39.8583 -22.4546 -22.4546
   -22.2211 -22.2210 -22.2078 -22.2077 -21.1833 -21.1833 -21.0973 -21.0973
   -21.0602 -21.0602 -20.7059 -20.7059 -20.6890 -20.6890 -20.6520 -20.6520
    -2.1923  -2.1913  -1.3622  -1.3617  -1.2155  -1.2094  -0.9095  -0.9045
    -0.6607  -0.6588  -0.1614  -0.1607  -0.0048  -0.0038   0.1163   0.1190
     0.5435   0.5438   0.7692   0.7692   0.8829   0.8835   1.0442   1.0444
     1.2349   1.2352   1.3247   1.3249   1.5320   1.5326   1.6591   1.6597
     1.8265   1.8275   1.9984   1.9988   2.2098   2.2107   2.5344   2.5355
     2.6878   2.6882

          k = 0.0140-0.0046 0.0000 ( 39203 PWs)   bands (ev):

   -70.7701 -70.7632 -69.8884 -69.8875 -69.6737 -69.6714 -43.4622 -43.4484
   -42.4052 -42.3784 -41.7715 -41.7676 -41.7429 -41.7237 -41.2699 -41.2642
   -41.2382 -41.2196 -41.1511 -41.1491 -41.1436 -41.1343 -41.1200 -41.1132
   -41.1062 -41.0716 -40.7131 -40.6866 -39.8664 -39.8583 -22.4741 -22.4356
   -22.3732 -22.2342 -22.2066 -22.0363 -21.2736 -21.1992 -21.1648 -21.0614
   -21.0456 -20.9059 -20.8855 -20.7215 -20.6638 -20.6586 -20.6302 -20.5121
    -3.4737  -2.2369  -1.4076  -1.3903  -1.3751  -1.2627  -1.0491  -0.8356
    -0.7648  -0.6991  -0.6858  -0.5793  -0.2784   0.2236   0.2408   0.3308
     0.4163   0.5883   0.6276   0.6966   0.8029   1.0392   1.1016   1.1365
     1.1490   1.1951   1.4150   1.5035   1.5075   1.5396   1.6433   1.7421
     2.0263   2.0576   2.0812   2.1746   2.3824   2.5909   2.6991   2.7171
     2.8908   3.0768

          k = 0.0140 0.0101 0.0000 ( 39195 PWs)   bands (ev):

   -70.7701 -70.7632 -69.8884 -69.8875 -69.6737 -69.6714 -43.4622 -43.4484
   -42.4057 -42.3779 -41.7717 -41.7676 -41.7433 -41.7233 -41.2701 -41.2641
   -41.2406 -41.2183 -41.1527 -41.1490 -41.1470 -41.1415 -41.1189 -41.1120
   -41.0947 -41.0727 -40.7129 -40.6860 -39.8664 -39.8583 -22.4747 -22.4350
   -22.3790 -22.2354 -22.2055 -22.0301 -21.2805 -21.2005 -21.1636 -21.0644
   -21.0438 -20.8990 -20.8922 -20.7207 -20.6654 -20.6591 -20.6293 -20.5053
    -3.4579  -2.2274  -1.4006  -1.3912  -1.3773  -1.2572  -1.0347  -0.8405
    -0.7687  -0.6948  -0.6748  -0.5716  -0.2699   0.2363   0.2401   0.3091
     0.4460   0.5543   0.6472   0.6751   0.7965   1.1017   1.1152   1.1281
     1.1766   1.1899   1.4103   1.4904   1.5252   1.5485   1.6119   1.7961
     1.9861   2.0445   2.1380   2.1632   2.3924   2.5850   2.6212   2.6536
     2.8868   3.2948

          k = 0.0140 0.0248 0.0000 ( 39179 PWs)   bands (ev):

   -70.7701 -70.7632 -69.8884 -69.8875 -69.6737 -69.6714 -43.4622 -43.4484
   -42.4053 -42.3784 -41.7719 -41.7677 -41.7432 -41.7237 -41.2700 -41.2642
   -41.2432 -41.2196 -41.1608 -41.1512 -41.1491 -41.1419 -41.1198 -41.1124
   -41.0813 -41.0689 -40.7110 -40.6855 -39.8664 -39.8583 -22.4739 -22.4356
   -22.3734 -22.2357 -22.2054 -22.0362 -21.2753 -21.2007 -21.1638 -21.0677
   -21.0435 -20.9061 -20.8866 -20.7178 -20.6664 -20.6616 -20.6304 -20.5127
    -3.3580  -2.1455  -1.3856  -1.3752  -1.3398  -1.2320  -1.0230  -0.8124
    -0.7765  -0.6975  -0.6508  -0.5150  -0.2307   0.2378   0.2631   0.3067
     0.4587   0.5364   0.6648   0.6941   0.8148   0.9641   1.1039   1.1063
     1.1806   1.2034   1.4517   1.4736   1.5227   1.5466   1.6345   1.8338
     1.9529   2.0535   2.1007   2.1203   2.3400   2.5627   2.5815   2.6314
     2.8248   2.9366

          k = 0.0140 0.0395 0.0000 ( 39154 PWs)   bands (ev):

   -70.7701 -70.7632 -69.8884 -69.8875 -69.6737 -69.6714 -43.4621 -43.4484
   -42.4040 -42.3799 -41.7722 -41.7679 -41.7424 -41.7247 -41.2698 -41.2646
   -41.2458 -41.2232 -41.1686 -41.1523 -41.1496 -41.1437 -41.1214 -41.1134
   -41.0685 -41.0631 -40.7077 -40.6854 -39.8664 -39.8583 -22.4718 -22.4376
   -22.3566 -22.2350 -22.2065 -22.0543 -21.2582 -21.1998 -21.1654 -21.0706
   -21.0445 -20.9265 -20.8689 -20.7129 -20.6666 -20.6660 -20.6331 -20.5334
    -3.1788  -1.9981  -1.3848  -1.3393  -1.2916  -1.1691  -1.0867  -0.7898
    -0.7703  -0.6903  -0.5607  -0.4104  -0.1967   0.1908   0.3135   0.3428
     0.4403   0.5572   0.6395   0.7113   0.8279   0.8586   1.0691   1.0783
     1.1631   1.2245   1.4479   1.4687   1.5658   1.5808   1.6731   1.7130
     1.8792   2.0263   2.1289   2.1340   2.2827   2.4417   2.5399   2.5643
     2.7318   2.8105

          k = 0.0140 0.0542 0.0000 ( 39126 PWs)   bands (ev):

   -70.7701 -70.7632 -69.8883 -69.8876 -69.6736 -69.6715 -43.4621 -43.4484
   -42.4019 -42.3822 -41.7724 -41.7682 -41.7411 -41.7263 -41.2694 -41.2651
   -41.2477 -41.2278 -41.1734 -41.1531 -41.1502 -41.1458 -41.1224 -41.1147
   -41.0581 -41.0576 -40.7038 -40.6862 -39.8664 -39.8583 -22.4685 -22.4408
   -22.3297 -22.2333 -22.2085 -22.0828 -21.2301 -21.1977 -21.1681 -21.0725
   -21.0464 -20.9584 -20.8400 -20.7065 -20.6719 -20.6657 -20.6369 -20.5658
    -2.9286  -1.8005  -1.4566  -1.3025  -1.2595  -1.1965  -1.0629  -0.8133
    -0.7669  -0.6179  -0.4223  -0.2658  -0.2033   0.1114   0.3497   0.3667
     0.4257   0.5225   0.5975   0.7426   0.8166   0.9309   1.0436   1.0449
     1.1505   1.2404   1.4286   1.4500   1.5174   1.6121   1.6459   1.6923
     1.9408   1.9742   1.9973   2.0990   2.2527   2.3414   2.4513   2.5047
     2.6707   2.7566

          k = 0.0140 0.0689 0.0000 ( 39122 PWs)   bands (ev):

   -70.7701 -70.7632 -69.8882 -69.8877 -69.6736 -69.6715 -43.4621 -43.4485
   -42.3991 -42.3852 -41.7726 -41.7684 -41.7393 -41.7283 -41.2689 -41.2658
   -41.2485 -41.2319 -41.1757 -41.1536 -41.1510 -41.1471 -41.1224 -41.1162
   -41.0559 -41.0494 -40.6997 -40.6879 -39.8664 -39.8583 -22.4644 -22.4449
   -22.2945 -22.2307 -22.2113 -22.1197 -21.1946 -21.1928 -21.1716 -21.0730
   -21.0486 -20.9991 -20.8017 -20.6991 -20.6790 -20.6635 -20.6413 -20.6071
    -2.6205  -1.7060  -1.5824  -1.2835  -1.2417  -1.2182  -0.9472  -0.8548
    -0.7682  -0.4965  -0.4350  -0.1313  -0.1048   0.0540   0.2147   0.2987
     0.4398   0.5834   0.6604   0.7393   0.8151   0.9423   1.0067   1.1126
     1.1770   1.2568   1.3013   1.4103   1.5384   1.6182   1.6642   1.6892
     1.8744   1.9124   1.9361   2.0770   2.0980   2.3571   2.4021   2.4994
     2.6392   2.7393

          k = 0.0140-0.0930 0.0000 ( 39109 PWs)   bands (ev):

   -70.7701 -70.7632 -69.8881 -69.8878 -69.6736 -69.6715 -43.4621 -43.4485
   -42.3958 -42.3886 -41.7726 -41.7685 -41.7372 -41.7305 -41.2682 -41.2665
   -41.2476 -41.2346 -41.1761 -41.1536 -41.1515 -41.1472 -41.1216 -41.1179
   -41.0573 -41.0446 -40.6959 -40.6908 -39.8664 -39.8583 -22.4595 -22.4497
   -22.2530 -22.2274 -22.2148 -22.1623 -21.1906 -21.1764 -21.1474 -21.0721
   -21.0508 -21.0454 -20.7561 -20.6913 -20.6869 -20.6619 -20.6523 -20.6459
    -2.2727  -2.0473  -1.3978  -1.3107  -1.2339  -1.1988  -0.9208  -0.8735
    -0.6975  -0.5921  -0.3566  -0.0666   0.0159   0.0172   0.1208   0.1800
     0.4753   0.5957   0.7368   0.7443   0.8329   0.8992   0.9773   1.1365
     1.1915   1.2675   1.3272   1.3539   1.5174   1.5786   1.6485   1.6832
     1.8197   1.8474   1.9837   1.9887   2.1332   2.3016   2.4591   2.4841
     2.5906   2.8099

          k = 0.0140-0.0782 0.0000 ( 39123 PWs)   bands (ev):

   -70.7701 -70.7632 -69.8881 -69.8878 -69.6736 -69.6715 -43.4621 -43.4485
   -42.3922 -42.3921 -41.7724 -41.7685 -41.7357 -41.7320 -41.2675 -41.2672
   -41.2449 -41.2357 -41.1744 -41.1533 -41.1516 -41.1459 -41.1205 -41.1194
   -41.0626 -41.0434 -40.6947 -40.6929 -39.8664 -39.8583 -22.4549 -22.4544
   -22.2236 -22.2185 -22.2080 -22.2075 -21.1859 -21.1809 -21.0985 -21.0958
   -21.0678 -21.0525 -20.7064 -20.7052 -20.6951 -20.6832 -20.6542 -20.6500
    -2.4048  -1.9125  -1.4268  -1.3093  -1.2275  -1.1888  -0.9903  -0.8365
    -0.7207  -0.5511  -0.2719  -0.2281  -0.0519   0.0532   0.1112   0.1941
     0.5349   0.5840   0.7204   0.8010   0.8531   0.8780   0.9771   1.0511
     1.1923   1.2308   1.2987   1.3411   1.5386   1.5489   1.5901   1.7427
     1.8360   1.8822   1.9677   2.0914   2.1873   2.1997   2.4613   2.5429
     2.5963   2.8596

          k = 0.0140-0.0635 0.0000 ( 39118 PWs)   bands (ev):

   -70.7701 -70.7632 -69.8881 -69.8878 -69.6736 -69.6715 -43.4621 -43.4485
   -42.3957 -42.3885 -41.7722 -41.7684 -41.7366 -41.7308 -41.2680 -41.2666
   -41.2404 -41.2357 -41.1706 -41.1526 -41.1513 -41.1430 -41.1210 -41.1188
   -41.0716 -41.0457 -40.6994 -40.6906 -39.8664 -39.8583 -22.4600 -22.4493
   -22.2524 -22.2224 -22.2195 -22.1626 -21.1854 -21.1809 -21.1437 -21.0638
   -21.0557 -21.0466 -20.7541 -20.7031 -20.6757 -20.6577 -20.6514 -20.6486
    -2.7400  -1.6301  -1.5873  -1.3071  -1.2120  -1.1977  -1.0492  -0.8039
    -0.7877  -0.5094  -0.4030  -0.2441  -0.1819   0.1039   0.1586   0.2485
     0.5266   0.5815   0.6523   0.7755   0.8969   0.9049   1.0071   1.0115
     1.1146   1.2030   1.3074   1.3718   1.4892   1.5630   1.5682   1.7005
     1.8858   1.9806   2.0031   2.1676   2.2216   2.3120   2.4705   2.5896
     2.7039   2.7294

          k = 0.0140-0.0488 0.0000 ( 39151 PWs)   bands (ev):

   -70.7701 -70.7632 -69.8882 -69.8877 -69.6736 -69.6715 -43.4621 -43.4485
   -42.3989 -42.3850 -41.7719 -41.7682 -41.7386 -41.7286 -41.2686 -41.2658
   -41.2355 -41.2347 -41.1646 -41.1517 -41.1508 -41.1381 -41.1220 -41.1174
   -41.0837 -41.0509 -40.7041 -40.6891 -39.8664 -39.8583 -22.4649 -22.4446
   -22.2939 -22.2261 -22.2154 -22.1199 -21.1898 -21.1887 -21.1752 -21.0587
   -21.0557 -21.0001 -20.7992 -20.7102 -20.6691 -20.6572 -20.6427 -20.6069
    -3.0286  -1.8512  -1.3998  -1.3341  -1.2188  -1.1416  -1.1334  -0.8005
    -0.7812  -0.6322  -0.5494  -0.3295  -0.1729   0.1302   0.2814   0.2948
     0.4701   0.5192   0.6459   0.7255   0.8304   0.9256   1.0247   1.0718
     1.1316   1.1656   1.3984   1.4297   1.4409   1.5331   1.5657   1.6479
     1.8872   1.9872   2.0927   2.1920   2.2870   2.5449   2.5902   2.6601
     2.6813   2.7914

          k = 0.0140-0.0341 0.0000 ( 39181 PWs)   bands (ev):

   -70.7701 -70.7632 -69.8883 -69.8876 -69.6736 -69.6715 -43.4621 -43.4485
   -42.4017 -42.3821 -41.7717 -41.7679 -41.7404 -41.7265 -41.2692 -41.2651
   -41.2357 -41.2286 -41.1569 -41.1510 -41.1502 -41.1310 -41.1224 -41.1169
   -41.0973 -41.0582 -40.7084 -40.6881 -39.8664 -39.8583 -22.4690 -22.4406
   -22.3292 -22.2294 -22.2118 -22.0829 -21.2262 -21.1937 -21.1710 -21.0571
   -21.0536 -20.9586 -20.8376 -20.7160 -20.6638 -20.6597 -20.6373 -20.5650
    -3.2540  -2.0404  -1.3744  -1.3655  -1.2519  -1.2251  -1.0427  -0.7917
    -0.7708  -0.7135  -0.6555  -0.4543  -0.1937   0.1736   0.3311   0.3544
     0.3678   0.5942   0.6341   0.6877   0.7870   0.9126   1.0464   1.1005
     1.1044   1.1933   1.4278   1.4870   1.4914   1.5373   1.6037   1.6463
     1.7875   2.1211   2.1271   2.1956   2.2632   2.6483   2.6633   2.7657
     2.8299   2.8725

          k = 0.0140-0.0194 0.0000 ( 39165 PWs)   bands (ev):

   -70.7701 -70.7632 -69.8884 -69.8875 -69.6737 -69.6714 -43.4622 -43.4484
   -42.4038 -42.3798 -41.7715 -41.7677 -41.7419 -41.7247 -41.2696 -41.2646
   -41.2365 -41.2233 -41.1508 -41.1496 -41.1491 -41.1233 -41.1218 -41.1197
   -41.1073 -41.0658 -40.7116 -40.6873 -39.8664 -39.8583 -22.4721 -22.4375
   -22.3562 -22.2322 -22.2087 -22.0543 -21.2551 -21.1969 -21.1673 -21.0589
   -21.0490 -20.9263 -20.8669 -20.7199 -20.6619 -20.6602 -20.6329 -20.5325
    -3.4047  -2.1730  -1.3957  -1.3812  -1.3272  -1.2540  -1.0368  -0.8055
    -0.7655  -0.7081  -0.7005  -0.5394  -0.2472   0.2016   0.2794   0.3598
     0.3825   0.6128   0.6152   0.7366   0.8491   0.8495   1.0749   1.1210
     1.1347   1.1898   1.4429   1.4681   1.5124   1.5308   1.6800   1.7064
     1.8355   2.0968   2.1522   2.2175   2.2770   2.6225   2.6865   2.8346
     2.8575   3.0277

          k = 0.0279-0.0093 0.0000 ( 39160 PWs)   bands (ev):

   -70.7701 -70.7632 -69.8884 -69.8875 -69.6737 -69.6714 -43.4621 -43.4484
   -42.4039 -42.3798 -41.7717 -41.7678 -41.7420 -41.7247 -41.2697 -41.2646
   -41.2392 -41.2233 -41.1519 -41.1496 -41.1474 -41.1442 -41.1217 -41.1139
   -41.0916 -41.0651 -40.7105 -40.6868 -39.8664 -39.8583 -22.4721 -22.4376
   -22.3563 -22.2329 -22.2081 -22.0543 -21.2559 -21.1977 -21.1668 -21.0621
   -21.0478 -20.9264 -20.8674 -20.7179 -20.6632 -20.6618 -20.6329 -20.5327
    -3.3475  -2.1279  -1.3855  -1.3767  -1.3120  -1.2373  -1.0554  -0.7936
    -0.7709  -0.6977  -0.6646  -0.5075  -0.2337   0.2067   0.2892   0.3436
     0.4053   0.5888   0.6384   0.7211   0.8402   0.8553   1.0715   1.1228
     1.1508   1.1710   1.4496   1.4951   1.5007   1.5332   1.6649   1.7757
     1.8009   2.0851   2.1714   2.1874   2.2642   2.6048   2.6294   2.7788
     2.8076   2.9042

          k = 0.0279 0.0054 0.0000 ( 39179 PWs)   bands (ev):

   -70.7701 -70.7632 -69.8884 -69.8875 -69.6737 -69.6714 -43.4622 -43.4484
   -42.4053 -42.3784 -41.7719 -41.7677 -41.7432 -41.7237 -41.2700 -41.2642
   -41.2432 -41.2196 -41.1608 -41.1512 -41.1491 -41.1419 -41.1198 -41.1124
   -41.0813 -41.0689 -40.7110 -40.6855 -39.8664 -39.8583 -22.4739 -22.4356
   -22.3734 -22.2357 -22.2054 -22.0362 -21.2753 -21.2007 -21.1638 -21.0677
   -21.0435 -20.9061 -20.8866 -20.7178 -20.6664 -20.6616 -20.6304 -20.5127
    -3.3580  -2.1455  -1.3856  -1.3752  -1.3398  -1.2320  -1.0230  -0.8124
    -0.7765  -0.6975  -0.6508  -0.5150  -0.2307   0.2378   0.2631   0.3067
     0.4587   0.5364   0.6648   0.6941   0.8148   0.9641   1.1039   1.1063
     1.1806   1.2034   1.4517   1.4736   1.5227   1.5466   1.6345   1.8338
     1.9529   2.0535   2.1007   2.1203   2.3400   2.5627   2.5815   2.6314
     2.8248   2.9366

          k = 0.0279 0.0201 0.0000 ( 39187 PWs)   bands (ev):

   -70.7701 -70.7632 -69.8884 -69.8875 -69.6737 -69.6714 -43.4622 -43.4484
   -42.4059 -42.3780 -41.7723 -41.7677 -41.7437 -41.7233 -41.2702 -41.2641
   -41.2473 -41.2183 -41.1736 -41.1526 -41.1489 -41.1400 -41.1187 -41.1120
   -41.0695 -41.0683 -40.7097 -40.6843 -39.8664 -39.8583 -22.4744 -22.4350
   -22.3793 -22.2375 -22.2038 -22.0300 -21.2829 -21.2027 -21.1622 -21.0733
   -21.0408 -20.8994 -20.8938 -20.7156 -20.6691 -20.6633 -20.6297 -20.5062
    -3.2854  -2.0924  -1.3817  -1.3534  -1.3328  -1.2064  -0.9697  -0.8143
    -0.7858  -0.6929  -0.6457  -0.4741  -0.1891   0.2622   0.2672   0.2683
     0.4821   0.5179   0.6615   0.7159   0.7933   0.9783   1.0775   1.1268
     1.1783   1.2568   1.4497   1.4822   1.5221   1.5555   1.6336   1.8714
     1.9944   2.0350   2.0647   2.0658   2.3211   2.4606   2.5249   2.5818
     2.7896   2.9908

          k = 0.0279 0.0349 0.0000 ( 39126 PWs)   bands (ev):

   -70.7701 -70.7632 -69.8884 -69.8875 -69.6737 -69.6714 -43.4621 -43.4484
   -42.4055 -42.3786 -41.7727 -41.7678 -41.7437 -41.7237 -41.2702 -41.2642
   -41.2510 -41.2196 -41.1830 -41.1538 -41.1491 -41.1398 -41.1194 -41.1123
   -41.0643 -41.0580 -40.7072 -40.6835 -39.8664 -39.8583 -22.4736 -22.4357
   -22.3737 -22.2382 -22.2034 -22.0362 -21.2782 -21.2035 -21.1621 -21.0781
   -21.0397 -20.9065 -20.8885 -20.7117 -20.6709 -20.6667 -20.6309 -20.5136
    -3.1329  -1.9738  -1.3772  -1.3183  -1.3060  -1.1502  -0.9825  -0.7999
    -0.7922  -0.6953  -0.5831  -0.3845  -0.1444   0.2219   0.2773   0.3075
     0.4498   0.5672   0.6338   0.7651   0.7691   0.8958   1.0409   1.1282
     1.1790   1.3014   1.4360   1.4925   1.5651   1.5737   1.6635   1.8265
     1.8855   2.0231   2.0558   2.0980   2.2560   2.3405   2.4363   2.5671
     2.7184   2.8182

          k = 0.0279 0.0496 0.0000 ( 39122 PWs)   bands (ev):

   -70.7701 -70.7632 -69.8884 -69.8875 -69.6737 -69.6714 -43.4621 -43.4484
   -42.4042 -42.3801 -41.7730 -41.7680 -41.7430 -41.7247 -41.2700 -41.2646
   -41.2538 -41.2230 -41.1884 -41.1547 -41.1494 -41.1402 -41.1207 -41.1132
   -41.0602 -41.0481 -40.7039 -40.6836 -39.8664 -39.8583 -22.4715 -22.4377
   -22.3570 -22.2378 -22.2042 -22.0542 -21.2613 -21.2029 -21.1635 -21.0816
   -21.0399 -20.9267 -20.8708 -20.7064 -20.6717 -20.6712 -20.6334 -20.5343
    -2.9077  -1.8023  -1.3966  -1.2820  -1.2754  -1.1034  -1.0554  -0.8224
    -0.7622  -0.6927  -0.4429  -0.2509  -0.1497   0.1620   0.2943   0.3711
     0.4267   0.5473   0.6127   0.7208   0.7707   0.9250   1.0228   1.1138
     1.1839   1.3222   1.4363   1.4868   1.5766   1.6270   1.6334   1.6880
     1.8947   1.9810   2.0187   2.0862   2.1840   2.2596   2.3563   2.5361
     2.6577   2.7476

          k = 0.0279 0.0643 0.0000 ( 39125 PWs)   bands (ev):

   -70.7701 -70.7632 -69.8883 -69.8876 -69.6736 -69.6715 -43.4621 -43.4484
   -42.4021 -42.3824 -41.7732 -41.7682 -41.7416 -41.7262 -41.2696 -41.2651
   -41.2550 -41.2267 -41.1907 -41.1553 -41.1498 -41.1402 -41.1215 -41.1144
   -41.0581 -41.0407 -40.7004 -40.6848 -39.8664 -39.8583 -22.4682 -22.4409
   -22.3301 -22.2361 -22.2061 -22.0826 -21.2330 -21.2009 -21.1660 -21.0830
   -21.0410 -20.9583 -20.8418 -20.7001 -20.6778 -20.6699 -20.6369 -20.5664
    -2.6209  -1.6021  -1.5449  -1.2628  -1.2432  -1.2017  -0.9299  -0.8596
    -0.7584  -0.6503  -0.3614  -0.1611  -0.0898   0.1036   0.3024   0.3246
     0.3773   0.5575   0.6445   0.7136   0.7603   0.9199   1.0765   1.1039
     1.2176   1.3224   1.3373   1.4412   1.5551   1.6283   1.6470   1.7080
     1.8740   1.9086   1.9121   2.0566   2.1026   2.2498   2.3620   2.5161
     2.6129   2.7248

          k = 0.0279-0.0976 0.0000 ( 39109 PWs)   bands (ev):

   -70.7701 -70.7632 -69.8882 -69.8877 -69.6736 -69.6715 -43.4621 -43.4485
   -42.3992 -42.3853 -41.7732 -41.7683 -41.7397 -41.7282 -41.2690 -41.2658
   -41.2544 -41.2291 -41.1910 -41.1553 -41.1502 -41.1395 -41.1216 -41.1159
   -41.0594 -41.0364 -40.6971 -40.6872 -39.8664 -39.8583 -22.4641 -22.4450
   -22.2948 -22.2334 -22.2090 -22.1195 -21.1976 -21.1951 -21.1694 -21.0822
   -21.0426 -20.9987 -20.8030 -20.6932 -20.6849 -20.6669 -20.6408 -20.6075
    -2.2886  -1.8477  -1.4155  -1.2557  -1.2517  -1.1921  -0.9207  -0.8289
    -0.7154  -0.5877  -0.4890  -0.0873   0.0507   0.0643   0.2214   0.2548
     0.3584   0.6186   0.6570   0.7244   0.7821   0.8983   1.0143   1.1448
     1.1852   1.3054   1.3447   1.3966   1.5362   1.5836   1.6803   1.6907
     1.8312   1.8656   1.9386   1.9622   2.1128   2.3195   2.3202   2.4671
     2.5510   2.7993

          k = 0.0279-0.0829 0.0000 ( 39100 PWs)   bands (ev):

   -70.7701 -70.7632 -69.8881 -69.8878 -69.6736 -69.6715 -43.4621 -43.4485
   -42.3958 -42.3886 -41.7730 -41.7684 -41.7375 -41.7303 -41.2683 -41.2665
   -41.2518 -41.2301 -41.1892 -41.1549 -41.1503 -41.1376 -41.1210 -41.1175
   -41.0645 -41.0355 -40.6944 -40.6909 -39.8664 -39.8583 -22.4593 -22.4498
   -22.2532 -22.2297 -22.2126 -22.1621 -21.1931 -21.1744 -21.1490 -21.0791
   -21.0449 -21.0445 -20.7570 -20.6923 -20.6860 -20.6632 -20.6536 -20.6448
    -2.1969  -1.9350  -1.3188  -1.2979  -1.2489  -1.1686  -0.9997  -0.8134
    -0.6439  -0.6321  -0.4713  -0.1442   0.0313   0.0963   0.1753   0.1953
     0.4133   0.6356   0.7167   0.7205   0.8392   0.8708   0.9442   1.0561
     1.1992   1.2249   1.3228   1.3982   1.5317   1.5532   1.6443   1.7432
     1.8378   1.8543   1.9703   2.0553   2.1011   2.2483   2.4135   2.4210
     2.5197   2.8873

          k = 0.0279-0.0682 0.0000 ( 39117 PWs)   bands (ev):

   -70.7701 -70.7632 -69.8881 -69.8878 -69.6736 -69.6715 -43.4621 -43.4485
   -42.3922 -42.3921 -41.7726 -41.7684 -41.7357 -41.7320 -41.2675 -41.2672
   -41.2474 -41.2305 -41.1849 -41.1541 -41.1503 -41.1344 -41.1200 -41.1190
   -41.0731 -41.0379 -40.6954 -40.6922 -39.8664 -39.8583 -22.4550 -22.4542
   -22.2254 -22.2167 -22.2082 -22.2074 -21.1878 -21.1791 -21.0993 -21.0945
   -21.0734 -21.0468 -20.7066 -20.7046 -20.6997 -20.6790 -20.6560 -20.6487
    -2.5371  -1.6050  -1.4799  -1.2909  -1.2006  -1.1669  -1.0518  -0.7997
    -0.7492  -0.6859  -0.2891  -0.2653  -0.0791   0.1071   0.1660   0.1931
     0.4520   0.6468   0.7094   0.7922   0.8458   0.8662   0.9077   0.9920
     1.1225   1.2437   1.3132   1.3745   1.5256   1.5375   1.5721   1.6873
     1.8874   1.9562   2.0384   2.0628   2.2474   2.2510   2.3988   2.4677
     2.6196   2.8428

          k = 0.0279-0.0534 0.0000 ( 39143 PWs)   bands (ev):

   -70.7701 -70.7632 -69.8881 -69.8878 -69.6736 -69.6715 -43.4621 -43.4485
   -42.3956 -42.3885 -41.7722 -41.7683 -41.7365 -41.7309 -41.2679 -41.2666
   -41.2416 -41.2313 -41.1776 -41.1529 -41.1502 -41.1299 -41.1206 -41.1191
   -41.0840 -41.0431 -40.7003 -40.6906 -39.8664 -39.8583 -22.4602 -22.4492
   -22.2523 -22.2210 -22.2207 -22.1627 -21.1841 -21.1821 -21.1426 -21.0672
   -21.0503 -21.0477 -20.7535 -20.7065 -20.6727 -20.6557 -20.6521 -20.6495
    -2.8384  -1.6917  -1.4026  -1.3153  -1.1866  -1.1010  -1.0925  -0.8011
    -0.7958  -0.7730  -0.4380  -0.2269  -0.1144   0.0861   0.2048   0.2390
     0.5029   0.5604   0.6945   0.7210   0.8216   0.8715   1.0020   1.0602
     1.1085   1.2095   1.3326   1.3877   1.4580   1.5199   1.5564   1.6203
     1.9391   1.9657   2.0647   2.0951   2.3352   2.4580   2.5061   2.5630
     2.7285   2.7418

          k = 0.0279-0.0387 0.0000 ( 39205 PWs)   bands (ev):

   -70.7701 -70.7632 -69.8882 -69.8877 -69.6736 -69.6715 -43.4621 -43.4485
   -42.3989 -42.3850 -41.7718 -41.7681 -41.7385 -41.7287 -41.2686 -41.2658
   -41.2350 -41.2330 -41.1678 -41.1518 -41.1503 -41.1257 -41.1218 -41.1194
   -41.0942 -41.0503 -40.7048 -40.6893 -39.8664 -39.8583 -22.4649 -22.4446
   -22.2938 -22.2254 -22.2161 -22.1200 -21.1891 -21.1880 -21.1758 -21.0603
   -21.0529 -21.0003 -20.7988 -20.7121 -20.6675 -20.6561 -20.6430 -20.6069
    -3.0816  -1.8897  -1.3640  -1.3439  -1.2121  -1.1628  -1.0123  -0.8081
    -0.8059  -0.7660  -0.5637  -0.3585  -0.1274   0.1271   0.2839   0.2912
     0.4453   0.5704   0.6521   0.6705   0.8006   0.9136   1.0419   1.0751
     1.1109   1.2202   1.3824   1.4351   1.4501   1.4996   1.5615   1.5994
     1.8682   2.0153   2.1218   2.1498   2.3252   2.6437   2.6556   2.6769
     2.7052   2.8492

          k = 0.0279-0.0240 0.0000 ( 39181 PWs)   bands (ev):

   -70.7701 -70.7632 -69.8883 -69.8876 -69.6736 -69.6715 -43.4621 -43.4485
   -42.4017 -42.3821 -41.7717 -41.7679 -41.7404 -41.7265 -41.2692 -41.2651
   -41.2357 -41.2286 -41.1569 -41.1510 -41.1502 -41.1310 -41.1224 -41.1169
   -41.0973 -41.0582 -40.7084 -40.6881 -39.8664 -39.8583 -22.4690 -22.4406
   -22.3292 -22.2294 -22.2118 -22.0829 -21.2262 -21.1937 -21.1710 -21.0571
   -21.0536 -20.9586 -20.8376 -20.7160 -20.6638 -20.6597 -20.6373 -20.5650
    -3.2540  -2.0404  -1.3744  -1.3655  -1.2519  -1.2251  -1.0427  -0.7917
    -0.7708  -0.7135  -0.6555  -0.4543  -0.1937   0.1736   0.3311   0.3544
     0.3678   0.5942   0.6341   0.6877   0.7870   0.9126   1.0464   1.1005
     1.1044   1.1933   1.4278   1.4870   1.4914   1.5373   1.6037   1.6463
     1.7875   2.1211   2.1271   2.1956   2.2632   2.6483   2.6632   2.7657
     2.8298   2.8725

          k = 0.0419-0.0139 0.0000 ( 39157 PWs)   bands (ev):

   -70.7701 -70.7632 -69.8883 -69.8876 -69.6736 -69.6715 -43.4621 -43.4485
   -42.4018 -42.3821 -41.7719 -41.7681 -41.7407 -41.7264 -41.2693 -41.2651
   -41.2405 -41.2284 -41.1545 -41.1526 -41.1503 -41.1495 -41.1225 -41.1151
   -41.0777 -41.0581 -40.7067 -40.6874 -39.8664 -39.8583 -22.4688 -22.4407
   -22.3294 -22.2308 -22.2106 -22.0829 -21.2276 -21.1951 -21.1699 -21.0629
   -21.0510 -20.9585 -20.8385 -20.7124 -20.6668 -20.6619 -20.6371 -20.5653
    -3.1437  -1.9565  -1.3937  -1.3444  -1.2572  -1.1650  -1.1410  -0.7834
    -0.7801  -0.6377  -0.5692  -0.3913  -0.2040   0.1571   0.3327   0.3530
     0.4194   0.5573   0.5968   0.7127   0.8462   0.9062   1.0266   1.0908
     1.1407   1.1589   1.4490   1.4579   1.5410   1.5648   1.5778   1.6791
     1.8496   2.0740   2.0765   2.2017   2.2675   2.5351   2.5678   2.6491
     2.6975   2.8066

          k = 0.0419 0.0008 0.0000 ( 39154 PWs)   bands (ev):

   -70.7701 -70.7632 -69.8884 -69.8875 -69.6737 -69.6714 -43.4621 -43.4484
   -42.4040 -42.3799 -41.7722 -41.7679 -41.7424 -41.7247 -41.2698 -41.2646
   -41.2458 -41.2232 -41.1686 -41.1523 -41.1496 -41.1437 -41.1214 -41.1134
   -41.0685 -41.0631 -40.7077 -40.6854 -39.8664 -39.8583 -22.4718 -22.4376
   -22.3566 -22.2350 -22.2065 -22.0543 -21.2582 -21.1998 -21.1654 -21.0706
   -21.0445 -20.9265 -20.8689 -20.7129 -20.6666 -20.6660 -20.6331 -20.5334
    -3.1788  -1.9981  -1.3848  -1.3393  -1.2916  -1.1691  -1.0867  -0.7898
    -0.7703  -0.6903  -0.5607  -0.4104  -0.1967   0.1908   0.3135   0.3428
     0.4403   0.5572   0.6395   0.7113   0.8279   0.8586   1.0691   1.0783
     1.1631   1.2245   1.4479   1.4686   1.5658   1.5808   1.6731   1.7130
     1.8792   2.0263   2.1289   2.1340   2.2828   2.4417   2.5399   2.5643
     2.7319   2.8105

          k = 0.0419 0.0155 0.0000 ( 39126 PWs)   bands (ev):

   -70.7701 -70.7632 -69.8884 -69.8875 -69.6737 -69.6714 -43.4621 -43.4484
   -42.4055 -42.3786 -41.7727 -41.7678 -41.7437 -41.7237 -41.2702 -41.2642
   -41.2510 -41.2196 -41.1830 -41.1538 -41.1491 -41.1398 -41.1194 -41.1123
   -41.0643 -41.0580 -40.7072 -40.6835 -39.8664 -39.8583 -22.4736 -22.4357
   -22.3737 -22.2382 -22.2034 -22.0362 -21.2782 -21.2035 -21.1621 -21.0781
   -21.0397 -20.9065 -20.8885 -20.7117 -20.6709 -20.6667 -20.6309 -20.5136
    -3.1329  -1.9738  -1.3772  -1.3183  -1.3060  -1.1502  -0.9825  -0.7999
    -0.7922  -0.6953  -0.5831  -0.3845  -0.1444   0.2219   0.2773   0.3075
     0.4498   0.5672   0.6338   0.7651   0.7691   0.8958   1.0409   1.1282
     1.1790   1.3014   1.4360   1.4925   1.5651   1.5737   1.6635   1.8265
     1.8855   2.0231   2.0558   2.0980   2.2560   2.3405   2.4363   2.5671
     2.7184   2.8184

          k = 0.0419 0.0302 0.0000 ( 39104 PWs)   bands (ev):

   -70.7701 -70.7632 -69.8884 -69.8875 -69.6737 -69.6714 -43.4621 -43.4484
   -42.4060 -42.3782 -41.7732 -41.7678 -41.7443 -41.7233 -41.2704 -41.2641
   -41.2557 -41.2183 -41.1945 -41.1551 -41.1490 -41.1388 -41.1184 -41.1120
   -41.0622 -41.0477 -40.7055 -40.6820 -39.8664 -39.8583 -22.4740 -22.4351
   -22.3797 -22.2403 -22.2016 -22.0300 -21.2862 -21.2059 -21.1604 -21.0847
   -21.0367 -20.8999 -20.8959 -20.7091 -20.6741 -20.6689 -20.6305 -20.5073
    -3.0085  -1.8877  -1.3711  -1.3021  -1.2828  -1.1079  -0.8890  -0.8143
    -0.8116  -0.6903  -0.5963  -0.3129  -0.0723   0.2285   0.2376   0.2855
     0.4363   0.6022   0.6203   0.7123   0.8525   0.8902   1.0091   1.1646
     1.1883   1.3779   1.4275   1.5379   1.5553   1.5668   1.6702   1.8175
     1.8553   1.9665   2.0236   2.1010   2.1985   2.2591   2.3194   2.5723
     2.6685   2.8625

          k = 0.0419 0.0449 0.0000 ( 39119 PWs)   bands (ev):

   -70.7701 -70.7632 -69.8884 -69.8875 -69.6737 -69.6714 -43.4621 -43.4484
   -42.4057 -42.3788 -41.7736 -41.7679 -41.7442 -41.7236 -41.2704 -41.2642
   -41.2591 -41.2197 -41.2014 -41.1562 -41.1491 -41.1385 -41.1188 -41.1123
   -41.0590 -41.0389 -40.7030 -40.6813 -39.8664 -39.8583 -22.4732 -22.4358
   -22.3741 -22.2411 -22.2011 -22.0361 -21.2815 -21.2068 -21.1602 -21.0896
   -21.0352 -20.9070 -20.8906 -20.7053 -20.6758 -20.6726 -20.6316 -20.5148
    -2.8115  -1.7504  -1.3718  -1.2879  -1.2419  -1.0367  -0.9431  -0.8335
    -0.8225  -0.6947  -0.4957  -0.1989  -0.0572   0.1986   0.2111   0.3126
     0.4225   0.5635   0.6575   0.6798   0.8352   0.9513   0.9995   1.1778
     1.2050   1.4050   1.4511   1.5147   1.5912   1.5951   1.6542   1.6723
     1.8446   1.9428   1.9517   2.1091   2.1199   2.2240   2.2427   2.5620
     2.6158   2.7407

          k = 0.0419 0.0597 0.0000 ( 39131 PWs)   bands (ev):

   -70.7701 -70.7632 -69.8884 -69.8875 -69.6737 -69.6714 -43.4621 -43.4484
   -42.4044 -42.3802 -41.7739 -41.7680 -41.7435 -41.7246 -41.2702 -41.2647
   -41.2608 -41.2227 -41.2039 -41.1569 -41.1493 -41.1380 -41.1195 -41.1131
   -41.0571 -41.0323 -40.7002 -40.6817 -39.8664 -39.8583 -22.4711 -22.4378
   -22.3573 -22.2406 -22.2020 -22.0541 -21.2643 -21.2061 -21.1615 -21.0920
   -21.0352 -20.9270 -20.8728 -20.7005 -20.6773 -20.6757 -20.6339 -20.5353
    -2.5514  -1.5834  -1.4176  -1.2757  -1.2021  -1.1020  -0.9353  -0.8694
    -0.8152  -0.7104  -0.3532  -0.1116  -0.0571   0.1575   0.1744   0.3636
     0.3802   0.5478   0.6498   0.7052   0.8079   0.9259   1.1114   1.1530
     1.2402   1.3525   1.3904   1.4857   1.5727   1.6175   1.6251   1.6886
     1.7939   1.8881   1.9050   2.0000   2.1539   2.2335   2.2366   2.5411
     2.5670   2.6966

          k = 0.0419-0.1022 0.0000 ( 39148 PWs)   bands (ev):

   -70.7701 -70.7632 -69.8883 -69.8876 -69.6736 -69.6715 -43.4621 -43.4484
   -42.4022 -42.3825 -41.7739 -41.7681 -41.7420 -41.7262 -41.2698 -41.2654
   -41.2604 -41.2248 -41.2042 -41.1570 -41.1496 -41.1370 -41.1198 -41.1142
   -41.0581 -41.0287 -40.6976 -40.6836 -39.8664 -39.8584 -22.4679 -22.4410
   -22.3304 -22.2386 -22.2041 -22.0825 -21.2355 -21.2037 -21.1642 -21.0917
   -21.0362 -20.9583 -20.8433 -20.6949 -20.6830 -20.6736 -20.6370 -20.5671
    -2.2426  -1.6189  -1.4214  -1.2708  -1.1964  -1.1692  -0.9214  -0.8714
    -0.7555  -0.7037  -0.3697  -0.1062   0.0497   0.0975   0.2087   0.3133
     0.3397   0.5996   0.6430   0.7481   0.7619   0.9076   1.0885   1.1432
     1.1827   1.3531   1.3556   1.4594   1.5514   1.5721   1.6619   1.6958
     1.8207   1.8464   1.8935   1.9241   2.1752   2.2403   2.2554   2.4943
     2.4981   2.7397

          k = 0.0419-0.0875 0.0000 ( 39104 PWs)   bands (ev):

   -70.7701 -70.7632 -69.8882 -69.8877 -69.6736 -69.6715 -43.4621 -43.4484
   -42.3993 -42.3853 -41.7737 -41.7682 -41.7400 -41.7281 -41.2691 -41.2659
   -41.2582 -41.2255 -41.2025 -41.1566 -41.1497 -41.1351 -41.1196 -41.1156
   -41.0625 -41.0282 -40.6953 -40.6867 -39.8664 -39.8583 -22.4638 -22.4451
   -22.2950 -22.2353 -22.2072 -22.1194 -21.1998 -21.1968 -21.1679 -21.0886
   -21.0380 -20.9984 -20.8040 -20.6892 -20.6890 -20.6694 -20.6404 -20.6078
    -1.9381  -1.9087  -1.3004  -1.2700  -1.2331  -1.1461  -0.9953  -0.8887
    -0.7752  -0.5239  -0.5002  -0.1011   0.0549   0.0785   0.2347   0.2581
     0.3418   0.6424   0.6491   0.7186   0.7983   0.9029   1.0029   1.0434
     1.1665   1.2708   1.3724   1.4470   1.5356   1.5417   1.7259   1.7267
     1.7844   1.8514   1.9529   1.9852   2.0967   2.2187   2.3378   2.4274
     2.4333   2.8428

          k = 0.0419-0.0728 0.0000 ( 39092 PWs)   bands (ev):

   -70.7701 -70.7632 -69.8881 -69.8878 -69.6736 -69.6715 -43.4621 -43.4485
   -42.3959 -42.3886 -41.7732 -41.7682 -41.7377 -41.7302 -41.2683 -41.2665
   -41.2540 -41.2262 -41.1977 -41.1556 -41.1498 -41.1325 -41.1191 -41.1172
   -41.0697 -41.0308 -40.6935 -40.6909 -39.8664 -39.8583 -22.4592 -22.4499
   -22.2534 -22.2311 -22.2113 -22.1620 -21.1946 -21.1733 -21.1499 -21.0830
   -21.0447 -21.0408 -20.7574 -20.6956 -20.6830 -20.6637 -20.6545 -20.6442
    -2.2739  -1.6013  -1.3251  -1.2878  -1.1909  -1.1366  -1.0605  -0.9461
    -0.7897  -0.6660  -0.2486  -0.1880   0.0220   0.0692   0.1463   0.1961
     0.4009   0.6672   0.7387   0.7456   0.8073   0.8653   0.9213   0.9645
     1.1714   1.1959   1.3163   1.4581   1.5240   1.5303   1.6787   1.6847
     1.8787   1.8863   2.0035   2.0818   2.1517   2.1836   2.3675   2.3716
     2.4981   2.8929

          k = 0.0419-0.0581 0.0000 ( 39086 PWs)   bands (ev):

   -70.7701 -70.7632 -69.8881 -69.8878 -69.6736 -69.6715 -43.4621 -43.4485
   -42.3922 -42.3921 -41.7727 -41.7683 -41.7357 -41.7319 -41.2675 -41.2672
   -41.2482 -41.2280 -41.1892 -41.1543 -41.1499 -41.1297 -41.1190 -41.1189
   -41.0781 -41.0360 -40.6957 -40.6920 -39.8664 -39.8583 -22.4551 -22.4542
   -22.2261 -22.2160 -22.2083 -22.2073 -21.1885 -21.1785 -21.0996 -21.0938
   -21.0756 -21.0446 -20.7067 -20.7043 -20.7014 -20.6775 -20.6567 -20.6482
    -2.5819  -1.5001  -1.4342  -1.2990  -1.1565  -1.0751  -1.0496  -0.9933
    -0.7877  -0.7581  -0.3113  -0.0864  -0.0549  -0.0172   0.1830   0.1835
     0.4404   0.6494   0.7350   0.7501   0.8301   0.8553   0.9263   0.9638
     1.1091   1.2429   1.3104   1.3989   1.5122   1.5433   1.5683   1.6302
     1.9425   1.9881   1.9936   2.0506   2.3263   2.3307   2.3583   2.4108
     2.6251   2.8334

          k = 0.0419-0.0434 0.0000 ( 39143 PWs)   bands (ev):

   -70.7701 -70.7632 -69.8881 -69.8878 -69.6736 -69.6715 -43.4621 -43.4485
   -42.3956 -42.3885 -41.7722 -41.7683 -41.7365 -41.7309 -41.2679 -41.2666
   -41.2416 -41.2313 -41.1776 -41.1529 -41.1502 -41.1299 -41.1206 -41.1191
   -41.0840 -41.0431 -40.7003 -40.6906 -39.8664 -39.8583 -22.4602 -22.4492
   -22.2523 -22.2210 -22.2207 -22.1627 -21.1841 -21.1821 -21.1426 -21.0672
   -21.0503 -21.0477 -20.7535 -20.7065 -20.6727 -20.6557 -20.6521 -20.6495
    -2.8384  -1.6917  -1.4026  -1.3154  -1.1866  -1.1010  -1.0925  -0.8011
    -0.7958  -0.7730  -0.4380  -0.2269  -0.1144   0.0861   0.2048   0.2390
     0.5029   0.5604   0.6945   0.7210   0.8216   0.8715   1.0020   1.0602
     1.1085   1.2095   1.3326   1.3877   1.4580   1.5199   1.5564   1.6203
     1.9391   1.9657   2.0647   2.0951   2.3352   2.4580   2.5061   2.5630
     2.7286   2.7418

          k = 0.0419-0.0287 0.0000 ( 39151 PWs)   bands (ev):

   -70.7701 -70.7632 -69.8882 -69.8877 -69.6736 -69.6715 -43.4621 -43.4485
   -42.3989 -42.3850 -41.7719 -41.7682 -41.7386 -41.7286 -41.2686 -41.2658
   -41.2355 -41.2347 -41.1646 -41.1517 -41.1508 -41.1381 -41.1220 -41.1174
   -41.0837 -41.0509 -40.7041 -40.6891 -39.8664 -39.8583 -22.4649 -22.4446
   -22.2939 -22.2261 -22.2154 -22.1199 -21.1898 -21.1887 -21.1752 -21.0587
   -21.0557 -21.0001 -20.7992 -20.7102 -20.6691 -20.6572 -20.6427 -20.6069
    -3.0286  -1.8512  -1.3998  -1.3341  -1.2188  -1.1416  -1.1334  -0.8005
    -0.7812  -0.6322  -0.5494  -0.3295  -0.1729   0.1302   0.2814   0.2948
     0.4701   0.5192   0.6459   0.7255   0.8304   0.9256   1.0247   1.0718
     1.1316   1.1656   1.3984   1.4297   1.4409   1.5331   1.5657   1.6479
     1.8872   1.9872   2.0927   2.1920   2.2870   2.5449   2.5902   2.6602
     2.6814   2.7914

          k = 0.0559-0.0186 0.0000 ( 39110 PWs)   bands (ev):

   -70.7701 -70.7632 -69.8882 -69.8877 -69.6736 -69.6715 -43.4621 -43.4485
   -42.3990 -42.3851 -41.7721 -41.7683 -41.7389 -41.7285 -41.2687 -41.2658
   -41.2416 -41.2337 -41.1582 -41.1570 -41.1514 -41.1507 -41.1223 -41.1167
   -41.0659 -41.0529 -40.7022 -40.6886 -39.8664 -39.8583 -22.4646 -22.4447
   -22.2941 -22.2280 -22.2137 -22.1198 -21.1918 -21.1904 -21.1737 -21.0633
   -21.0545 -20.9996 -20.8003 -20.7054 -20.6733 -20.6599 -20.6421 -20.6069
    -2.8723  -1.7418  -1.5340  -1.3133  -1.2300  -1.2179  -1.0577  -0.8078
    -0.7874  -0.5147  -0.4412  -0.2428  -0.2185   0.0879   0.2596   0.3065
     0.4991   0.5318   0.6130   0.7493   0.9266   0.9485   0.9843   1.0441
     1.1252   1.1851   1.3544   1.4089   1.4945   1.5912   1.6135   1.7013
     1.9306   1.9396   2.0100   2.1542   2.2528   2.3720   2.4487   2.5973
     2.6613   2.7479

          k = 0.0559-0.0039 0.0000 ( 39126 PWs)   bands (ev):

   -70.7701 -70.7632 -69.8883 -69.8876 -69.6736 -69.6715 -43.4621 -43.4484
   -42.4019 -42.3822 -41.7724 -41.7682 -41.7411 -41.7263 -41.2694 -41.2651
   -41.2477 -41.2278 -41.1734 -41.1531 -41.1502 -41.1458 -41.1224 -41.1147
   -41.0581 -41.0576 -40.7038 -40.6862 -39.8664 -39.8583 -22.4685 -22.4408
   -22.3297 -22.2333 -22.2085 -22.0828 -21.2301 -21.1977 -21.1681 -21.0725
   -21.0464 -20.9584 -20.8400 -20.7065 -20.6719 -20.6657 -20.6369 -20.5658
    -2.9286  -1.8005  -1.4566  -1.3025  -1.2595  -1.1965  -1.0629  -0.8133
    -0.7669  -0.6179  -0.4223  -0.2658  -0.2033   0.1114   0.3497   0.3667
     0.4257   0.5225   0.5975   0.7426   0.8166   0.9309   1.0436   1.0449
     1.1505   1.2404   1.4286   1.4500   1.5174   1.6121   1.6459   1.6923
     1.9408   1.9742   1.9973   2.0990   2.2527   2.3414   2.4514   2.5047
     2.6707   2.7566

          k = 0.0559 0.0109 0.0000 ( 39122 PWs)   bands (ev):

   -70.7701 -70.7632 -69.8884 -69.8875 -69.6737 -69.6714 -43.4621 -43.4484
   -42.4042 -42.3801 -41.7730 -41.7680 -41.7430 -41.7247 -41.2700 -41.2646
   -41.2538 -41.2230 -41.1884 -41.1547 -41.1494 -41.1402 -41.1207 -41.1132
   -41.0602 -41.0481 -40.7039 -40.6836 -39.8664 -39.8583 -22.4715 -22.4377
   -22.3570 -22.2378 -22.2042 -22.0542 -21.2613 -21.2029 -21.1635 -21.0816
   -21.0399 -20.9267 -20.8708 -20.7064 -20.6717 -20.6712 -20.6334 -20.5343
    -2.9077  -1.8023  -1.3966  -1.2820  -1.2754  -1.1034  -1.0555  -0.8224
    -0.7622  -0.6927  -0.4429  -0.2509  -0.1497   0.1620   0.2943   0.3711
     0.4267   0.5473   0.6127   0.7208   0.7707   0.9250   1.0228   1.1138
     1.1839   1.3222   1.4363   1.4868   1.5766   1.6270   1.6334   1.6880
     1.8947   1.9810   2.0187   2.0862   2.1840   2.2596   2.3563   2.5362
     2.6578   2.7474

          k = 0.0559 0.0256 0.0000 ( 39119 PWs)   bands (ev):

   -70.7701 -70.7632 -69.8884 -69.8875 -69.6737 -69.6714 -43.4621 -43.4484
   -42.4057 -42.3788 -41.7736 -41.7679 -41.7442 -41.7236 -41.2704 -41.2642
   -41.2591 -41.2197 -41.2014 -41.1562 -41.1491 -41.1385 -41.1188 -41.1123
   -41.0590 -41.0389 -40.7030 -40.6813 -39.8664 -39.8583 -22.4732 -22.4358
   -22.3741 -22.2411 -22.2011 -22.0361 -21.2815 -21.2068 -21.1602 -21.0896
   -21.0352 -20.9070 -20.8906 -20.7053 -20.6758 -20.6726 -20.6316 -20.5148
    -2.8115  -1.7504  -1.3718  -1.2879  -1.2419  -1.0367  -0.9431  -0.8335
    -0.8225  -0.6947  -0.4957  -0.1989  -0.0572   0.1986   0.2111   0.3126
     0.4225   0.5635   0.6575   0.6798   0.8352   0.9513   0.9995   1.1778
     1.2050   1.4050   1.4511   1.5147   1.5912   1.5951   1.6542   1.6723
     1.8446   1.9428   1.9517   2.1091   2.1199   2.2240   2.2427   2.5621
     2.6158   2.7409

          k = 0.0559 0.0403 0.0000 ( 39168 PWs)   bands (ev):

   -70.7701 -70.7632 -69.8884 -69.8875 -69.6737 -69.6714 -43.4621 -43.4484
   -42.4062 -42.3784 -41.7742 -41.7678 -41.7449 -41.7233 -41.2706 -41.2640
   -41.2633 -41.2183 -41.2106 -41.1575 -41.1490 -41.1382 -41.1181 -41.1120
   -41.0563 -41.0310 -40.7013 -40.6797 -39.8665 -39.8584 -22.4737 -22.4352
   -22.3801 -22.2432 -22.1994 -22.0299 -21.2895 -21.2092 -21.1586 -21.0957
   -21.0324 -20.9004 -20.8981 -20.7031 -20.6790 -20.6746 -20.6314 -20.5085
    -2.6451  -1.6554  -1.3636  -1.2870  -1.2001  -1.0225  -0.8777  -0.8662
    -0.7904  -0.6877  -0.5274  -0.1157   0.0050   0.1092   0.2101   0.2971
     0.3908   0.5780   0.6643   0.7263   0.8716   0.9664   1.0336   1.2235
     1.2265   1.4300   1.5079   1.5154   1.5774   1.5923   1.6142   1.6442
     1.7884   1.8782   1.9001   2.0203   2.1134   2.1486   2.2750   2.5689
     2.5739   2.8169

          k = 0.0559 0.0550 0.0000 ( 39148 PWs)   bands (ev):

   -70.7701 -70.7632 -69.8884 -69.8875 -69.6737 -69.6714 -43.4621 -43.4484
   -42.4058 -42.3789 -41.7745 -41.7679 -41.7448 -41.7236 -41.2706 -41.2658
   -41.2640 -41.2201 -41.2140 -41.1582 -41.1491 -41.1379 -41.1183 -41.1123
   -41.0544 -41.0253 -40.6994 -40.6794 -39.8665 -39.8584 -22.4729 -22.4359
   -22.3744 -22.2437 -22.1991 -22.0360 -21.2844 -21.2099 -21.1586 -21.0990
   -21.0313 -20.9074 -20.8925 -20.7001 -20.6801 -20.6776 -20.6324 -20.5158
    -2.4171  -1.5391  -1.3706  -1.2861  -1.1585  -1.0467  -0.9341  -0.8586
    -0.8232  -0.6940  -0.4098  -0.0464  -0.0252   0.0764   0.1457   0.3526
     0.3980   0.5764   0.6800   0.7563   0.8646   0.9521   1.1421   1.2252
     1.2564   1.3476   1.4276   1.5508   1.5653   1.6020   1.6131   1.6525
     1.7005   1.8236   1.9118   1.9257   2.0955   2.1727   2.2931   2.5228
     2.5615   2.6749

          k = 0.0559-0.1069 0.0000 ( 39136 PWs)   bands (ev):

   -70.7701 -70.7632 -69.8884 -69.8875 -69.6737 -69.6714 -43.4621 -43.4484
   -42.4045 -42.3803 -41.7746 -41.7679 -41.7439 -41.7246 -41.2703 -41.2664
   -41.2639 -41.2219 -41.2143 -41.1584 -41.1493 -41.1372 -41.1184 -41.1130
   -41.0548 -41.0223 -40.6975 -40.6804 -39.8665 -39.8584 -22.4709 -22.4379
   -22.3576 -22.2426 -22.2003 -22.0540 -21.2666 -21.2086 -21.1602 -21.0994
   -21.0316 -20.9272 -20.8742 -20.6962 -20.6815 -20.6790 -20.6344 -20.5360
    -2.1419  -1.4411  -1.4371  -1.2830  -1.1282  -1.0905  -1.0873  -0.9274
    -0.7188  -0.6864  -0.3099  -0.0818  -0.0721   0.0891   0.1810   0.3199
     0.4562   0.5890   0.6946   0.7492   0.8269   0.9410   1.1386   1.1724
     1.1856   1.3595   1.4049   1.5416   1.5438   1.5576   1.6448   1.6693
     1.7408   1.7736   1.8604   1.9196   2.1625   2.2058   2.2706   2.4609
     2.5095   2.6781

          k = 0.0559-0.0922 0.0000 ( 39141 PWs)   bands (ev):

   -70.7701 -70.7632 -69.8883 -69.8876 -69.6736 -69.6715 -43.4621 -43.4484
   -42.4023 -42.3825 -41.7743 -41.7680 -41.7423 -41.7261 -41.2698 -41.2660
   -41.2629 -41.2220 -41.2130 -41.1580 -41.1494 -41.1358 -41.1184 -41.1141
   -41.0582 -41.0224 -40.6959 -40.6829 -39.8665 -39.8584 -22.4677 -22.4411
   -22.3306 -22.2400 -22.2029 -22.0825 -21.2369 -21.2054 -21.1632 -21.0965
   -21.0333 -20.9583 -20.8442 -20.6919 -20.6861 -20.6757 -20.6370 -20.5674
    -1.8500  -1.6595  -1.4022  -1.2497  -1.1878  -1.1199  -1.1003  -0.9878
    -0.7452  -0.4843  -0.3821  -0.1355  -0.0714   0.0599   0.2642   0.3423
     0.4194   0.6371   0.6637   0.7209   0.7593   0.9529   1.0288   1.0897
     1.1627   1.3314   1.4574   1.4586   1.5329   1.5384   1.6971   1.7269
     1.7358   1.8486   1.8855   1.8895   2.1892   2.1911   2.2804   2.3947
     2.4562   2.7503

          k = 0.0559-0.0775 0.0000 ( 39106 PWs)   bands (ev):

   -70.7701 -70.7632 -69.8882 -69.8877 -69.6736 -69.6715 -43.4621 -43.4485
   -42.3993 -42.3853 -41.7738 -41.7681 -41.7401 -41.7280 -41.2692 -41.2660
   -41.2594 -41.2231 -41.2076 -41.1570 -41.1495 -41.1339 -41.1184 -41.1156
   -41.0638 -41.0254 -40.6946 -40.6866 -39.8664 -39.8584 -22.4638 -22.4452
   -22.2951 -22.2361 -22.2066 -22.1193 -21.2006 -21.1974 -21.1674 -21.0909
   -21.0364 -20.9984 -20.8044 -20.6909 -20.6874 -20.6704 -20.6403 -20.6079
    -1.9690  -1.6394  -1.3514  -1.2272  -1.1989  -1.1204  -1.1037  -1.0478
    -0.7720  -0.5348  -0.2594  -0.1597  -0.1117   0.0881   0.2362   0.2691
     0.4152   0.6500   0.6576   0.7221   0.7815   0.9366   0.9665   1.0006
     1.1576   1.2426   1.3663   1.4912   1.5253   1.5376   1.6934   1.7858
     1.8007   1.8056   1.9897   2.0073   2.0950   2.1579   2.3521   2.3816
     2.4089   2.8525

          k = 0.0559-0.0627 0.0000 ( 39092 PWs)   bands (ev):

   -70.7701 -70.7632 -69.8881 -69.8878 -69.6736 -69.6715 -43.4621 -43.4485
   -42.3959 -42.3886 -41.7732 -41.7682 -41.7377 -41.7302 -41.2683 -41.2665
   -41.2540 -41.2262 -41.1977 -41.1556 -41.1498 -41.1325 -41.1191 -41.1172
   -41.0697 -41.0308 -40.6935 -40.6909 -39.8664 -39.8583 -22.4592 -22.4499
   -22.2534 -22.2311 -22.2113 -22.1620 -21.1946 -21.1733 -21.1499 -21.0830
   -21.0447 -21.0408 -20.7574 -20.6956 -20.6830 -20.6637 -20.6545 -20.6442
    -2.2739  -1.6013  -1.3251  -1.2878  -1.1909  -1.1366  -1.0605  -0.9461
    -0.7897  -0.6660  -0.2486  -0.1880   0.0220   0.0692   0.1463   0.1961
     0.4009   0.6672   0.7387   0.7456   0.8073   0.8653   0.9213   0.9645
     1.1714   1.1959   1.3163   1.4581   1.5240   1.5303   1.6787   1.6847
     1.8787   1.8863   2.0035   2.0818   2.1517   2.1836   2.3675   2.3717
     2.4981   2.9373

          k = 0.0559-0.0480 0.0000 ( 39117 PWs)   bands (ev):

   -70.7701 -70.7632 -69.8881 -69.8878 -69.6736 -69.6715 -43.4621 -43.4485
   -42.3922 -42.3921 -41.7726 -41.7684 -41.7357 -41.7320 -41.2675 -41.2672
   -41.2474 -41.2305 -41.1849 -41.1541 -41.1503 -41.1344 -41.1200 -41.1190
   -41.0731 -41.0379 -40.6954 -40.6922 -39.8664 -39.8583 -22.4550 -22.4542
   -22.2254 -22.2167 -22.2082 -22.2074 -21.1878 -21.1791 -21.0993 -21.0945
   -21.0734 -21.0468 -20.7066 -20.7046 -20.6997 -20.6790 -20.6560 -20.6487
    -2.5371  -1.6050  -1.4799  -1.2909  -1.2006  -1.1669  -1.0517  -0.7997
    -0.7492  -0.6859  -0.2891  -0.2653  -0.0791   0.1071   0.1660   0.1931
     0.4520   0.6468   0.7094   0.7922   0.8458   0.8662   0.9077   0.9920
     1.1225   1.2437   1.3132   1.3745   1.5256   1.5375   1.5721   1.6873
     1.8874   1.9562   2.0384   2.0628   2.2474   2.2510   2.3988   2.4677
     2.6196   2.8428

          k = 0.0559-0.0333 0.0000 ( 39118 PWs)   bands (ev):

   -70.7701 -70.7632 -69.8881 -69.8878 -69.6736 -69.6715 -43.4621 -43.4485
   -42.3957 -42.3885 -41.7722 -41.7684 -41.7366 -41.7308 -41.2680 -41.2666
   -41.2404 -41.2357 -41.1706 -41.1526 -41.1513 -41.1430 -41.1210 -41.1188
   -41.0716 -41.0457 -40.6994 -40.6906 -39.8664 -39.8583 -22.4600 -22.4493
   -22.2524 -22.2224 -22.2195 -22.1626 -21.1854 -21.1809 -21.1437 -21.0638
   -21.0557 -21.0466 -20.7541 -20.7031 -20.6757 -20.6577 -20.6514 -20.6486
    -2.7400  -1.6301  -1.5873  -1.3071  -1.2120  -1.1977  -1.0492  -0.8039
    -0.7877  -0.5094  -0.4030  -0.2441  -0.1819   0.1039   0.1586   0.2485
     0.5266   0.5815   0.6523   0.7755   0.8969   0.9049   1.0071   1.0115
     1.1146   1.2030   1.3074   1.3718   1.4892   1.5630   1.5682   1.7005
     1.8858   1.9806   2.0031   2.1676   2.2216   2.3120   2.4705   2.5896
     2.7039   2.7294

          k = 0.0698-0.0232 0.0000 ( 39147 PWs)   bands (ev):

   -70.7701 -70.7632 -69.8881 -69.8878 -69.6736 -69.6715 -43.4621 -43.4485
   -42.3957 -42.3885 -41.7723 -41.7686 -41.7369 -41.7307 -41.2681 -41.2665
   -41.2419 -41.2381 -41.1606 -41.1599 -41.1520 -41.1512 -41.1214 -41.1183
   -41.0571 -41.0506 -40.6978 -40.6907 -39.8664 -39.8583 -22.4598 -22.4495
   -22.2527 -22.2247 -22.2173 -22.1625 -21.1878 -21.1788 -21.1455 -21.0636
   -21.0579 -21.0459 -20.7551 -20.6975 -20.6809 -20.6601 -20.6515 -20.6472
    -2.5480  -1.8353  -1.5215  -1.3055  -1.2207  -1.2144  -0.9693  -0.8496
    -0.7601  -0.5040  -0.3515  -0.1139  -0.0946   0.0393   0.0855   0.2414
     0.5182   0.5840   0.6916   0.7580   0.9108   0.9397   0.9866   1.0703
     1.1661   1.2226   1.2782   1.3698   1.5205   1.5995   1.6048   1.7193
[...]
     0.4398   0.5834   0.6604   0.7393   0.8151   0.9423   1.0067   1.1126
     1.1770   1.2568   1.3013   1.4103   1.5384   1.6182   1.6642   1.6892
     1.8744   1.9124   1.9361   2.0770   2.0980   2.3572   2.4021   2.4995
     2.6392   2.7393

          k = 0.0698 0.0062 0.0000 ( 39125 PWs)   bands (ev):

   -70.7701 -70.7632 -69.8883 -69.8876 -69.6736 -69.6715 -43.4621 -43.4484
   -42.4021 -42.3824 -41.7732 -41.7682 -41.7416 -41.7262 -41.2696 -41.2651
   -41.2550 -41.2267 -41.1907 -41.1553 -41.1498 -41.1402 -41.1215 -41.1144
   -41.0581 -41.0407 -40.7004 -40.6848 -39.8664 -39.8583 -22.4682 -22.4409
   -22.3301 -22.2361 -22.2061 -22.0826 -21.2330 -21.2009 -21.1660 -21.0830
   -21.0410 -20.9583 -20.8418 -20.7001 -20.6778 -20.6699 -20.6369 -20.5664
    -2.6209  -1.6021  -1.5449  -1.2628  -1.2432  -1.2017  -0.9299  -0.8596
    -0.7584  -0.6503  -0.3614  -0.1611  -0.0898   0.1036   0.3024   0.3246
     0.3773   0.5575   0.6445   0.7136   0.7603   0.9199   1.0765   1.1039
     1.2176   1.3224   1.3373   1.4412   1.5551   1.6283   1.6470   1.7080
     1.8740   1.9086   1.9121   2.0566   2.1026   2.2498   2.3620   2.5161
     2.6128   2.7248

          k = 0.0698 0.0209 0.0000 ( 39131 PWs)   bands (ev):

   -70.7701 -70.7632 -69.8884 -69.8875 -69.6737 -69.6714 -43.4621 -43.4484
   -42.4044 -42.3802 -41.7739 -41.7680 -41.7435 -41.7246 -41.2702 -41.2647
   -41.2608 -41.2227 -41.2039 -41.1569 -41.1493 -41.1380 -41.1195 -41.1131
   -41.0571 -41.0323 -40.7002 -40.6817 -39.8664 -39.8583 -22.4711 -22.4378
   -22.3573 -22.2406 -22.2020 -22.0541 -21.2643 -21.2061 -21.1615 -21.0920
   -21.0352 -20.9270 -20.8728 -20.7005 -20.6773 -20.6757 -20.6339 -20.5353
    -2.5514  -1.5834  -1.4176  -1.2757  -1.2021  -1.1020  -0.9353  -0.8694
    -0.8152  -0.7104  -0.3532  -0.1116  -0.0571   0.1575   0.1744   0.3636
     0.3802   0.5478   0.6498   0.7052   0.8079   0.9259   1.1114   1.1530
     1.2402   1.3525   1.3904   1.4857   1.5727   1.6175   1.6251   1.6886
     1.7939   1.8881   1.9050   2.0000   2.1540   2.2335   2.2366   2.5411
     2.5670   2.6966

          k = 0.0698 0.0356 0.0000 ( 39148 PWs)   bands (ev):

   -70.7701 -70.7632 -69.8884 -69.8875 -69.6737 -69.6714 -43.4621 -43.4484
   -42.4058 -42.3789 -41.7745 -41.7679 -41.7448 -41.7236 -41.2706 -41.2658
   -41.2640 -41.2201 -41.2140 -41.1582 -41.1491 -41.1379 -41.1183 -41.1123
   -41.0544 -41.0253 -40.6994 -40.6794 -39.8665 -39.8584 -22.4729 -22.4359
   -22.3744 -22.2437 -22.1991 -22.0360 -21.2844 -21.2099 -21.1586 -21.0990
   -21.0313 -20.9074 -20.8925 -20.7001 -20.6801 -20.6776 -20.6324 -20.5158
    -2.4171  -1.5391  -1.3706  -1.2861  -1.1585  -1.0467  -0.9341  -0.8586
    -0.8232  -0.6940  -0.4098  -0.0464  -0.0252   0.0764   0.1457   0.3526
     0.3980   0.5764   0.6800   0.7563   0.8646   0.9521   1.1421   1.2252
     1.2564   1.3476   1.4276   1.5508   1.5653   1.6020   1.6131   1.6525
     1.7005   1.8236   1.9118   1.9257   2.0955   2.1727   2.2931   2.5227
     2.5615   2.6749

          k = 0.0698 0.0504 0.0000 ( 39174 PWs)   bands (ev):

   -70.7701 -70.7632 -69.8884 -69.8875 -69.6737 -69.6714 -43.4621 -43.4484
   -42.4064 -42.3785 -41.7749 -41.7678 -41.7453 -41.7233 -41.2708 -41.2684
   -41.2640 -41.2207 -41.2182 -41.1591 -41.1491 -41.1381 -41.1180 -41.1120
   -41.0520 -41.0204 -40.6983 -40.6781 -39.8665 -39.8584 -22.4734 -22.4352
   -22.3803 -22.2452 -22.1978 -22.0298 -21.2919 -21.2118 -21.1572 -21.1033
   -21.0292 -20.9008 -20.8996 -20.6989 -20.6825 -20.6787 -20.6321 -20.5094
    -2.2275  -1.5033  -1.3603  -1.3031  -1.1611  -1.1144  -0.9356  -0.7581
    -0.7417  -0.6857  -0.4501  -0.1361   0.0113   0.0745   0.1136   0.3223
     0.4876   0.6056   0.7087   0.8057   0.9146   0.9691   1.1831   1.2687
     1.2853   1.2876   1.4453   1.5166   1.5594   1.5942   1.6227   1.6232
     1.6803   1.7576   1.8415   1.9250   2.0096   2.1890   2.3377   2.4842
     2.5864   2.8020

          k = 0.0698-0.1115 0.0000 ( 39153 PWs)   bands (ev):

   -70.7701 -70.7632 -69.8884 -69.8875 -69.6737 -69.6714 -43.4621 -43.4484
   -42.4059 -42.3790 -41.7750 -41.7679 -41.7451 -41.7236 -41.2707 -41.2692
   -41.2641 -41.2224 -41.2184 -41.1594 -41.1492 -41.1378 -41.1180 -41.1123
   -41.0517 -41.0182 -40.6973 -40.6782 -39.8665 -39.8584 -22.4727 -22.4359
   -22.3746 -22.2451 -22.1980 -22.0360 -21.2861 -21.2117 -21.1576 -21.1043
   -21.0289 -20.9076 -20.8936 -20.6971 -20.6826 -20.6806 -20.6329 -20.5164
    -2.0029  -1.5382  -1.3713  -1.2943  -1.2081  -1.0792  -0.9814  -0.8523
    -0.6933  -0.6482  -0.3478  -0.2258  -0.0131   0.0383   0.1942   0.3022
     0.5619   0.6038   0.7277   0.8022   0.9217   0.9811   1.1162   1.1867
     1.2477   1.3781   1.4462   1.5129   1.5353   1.5959   1.6148   1.6374
     1.7062   1.7167   1.7800   1.9359   2.0426   2.2000   2.3443   2.4406
     2.5514   2.6451

          k = 0.0698-0.0968 0.0000 ( 39164 PWs)   bands (ev):

   -70.7701 -70.7632 -69.8884 -69.8875 -69.6737 -69.6714 -43.4621 -43.4484
   -42.4045 -42.3804 -41.7748 -41.7679 -41.7440 -41.7246 -41.2704 -41.2679
   -41.2641 -41.2200 -41.2195 -41.1590 -41.1493 -41.1370 -41.1180 -41.1130
   -41.0540 -41.0189 -40.6965 -40.6799 -39.8665 -39.8584 -22.4708 -22.4379
   -22.3577 -22.2433 -22.1997 -22.0540 -21.2674 -21.2095 -21.1596 -21.1020
   -21.0303 -20.9272 -20.8747 -20.6947 -20.6831 -20.6803 -20.6345 -20.5362
    -1.8298  -1.5542  -1.4449  -1.2430  -1.2226  -1.1002  -1.0677  -0.9672
    -0.7152  -0.5229  -0.2985  -0.2555  -0.0331   0.0268   0.2790   0.2881
     0.5232   0.6457   0.7389   0.7414   0.7902   0.9942   1.0293   1.1727
     1.1774   1.3993   1.4474   1.5229   1.5253   1.5483   1.6607   1.6994
     1.7145   1.7254   1.7988   1.9272   2.1378   2.2168   2.2995   2.4049
     2.4888   2.6748

          k = 0.0698-0.0821 0.0000 ( 39141 PWs)   bands (ev):

   -70.7701 -70.7632 -69.8883 -69.8876 -69.6736 -69.6715 -43.4621 -43.4484
   -42.4023 -42.3825 -41.7743 -41.7680 -41.7423 -41.7261 -41.2698 -41.2660
   -41.2629 -41.2220 -41.2130 -41.1580 -41.1494 -41.1358 -41.1184 -41.1141
   -41.0582 -41.0224 -40.6959 -40.6829 -39.8665 -39.8584 -22.4677 -22.4411
   -22.3306 -22.2400 -22.2029 -22.0825 -21.2369 -21.2054 -21.1632 -21.0965
   -21.0333 -20.9583 -20.8442 -20.6919 -20.6861 -20.6757 -20.6370 -20.5674
    -1.8500  -1.6595  -1.4022  -1.2497  -1.1878  -1.1199  -1.1003  -0.9878
    -0.7452  -0.4843  -0.3821  -0.1355  -0.0714   0.0599   0.2642   0.3423
     0.4194   0.6371   0.6637   0.7209   0.7593   0.9529   1.0288   1.0897
     1.1627   1.3314   1.4574   1.4586   1.5329   1.5384   1.6971   1.7269
     1.7358   1.8486   1.8855   1.8895   2.1892   2.1910   2.2805   2.3947
     2.4562   2.7500

          k = 0.0698-0.0674 0.0000 ( 39104 PWs)   bands (ev):

   -70.7701 -70.7632 -69.8882 -69.8877 -69.6736 -69.6715 -43.4621 -43.4484
   -42.3993 -42.3853 -41.7737 -41.7682 -41.7400 -41.7281 -41.2691 -41.2659
   -41.2582 -41.2255 -41.2025 -41.1566 -41.1497 -41.1351 -41.1196 -41.1156
   -41.0625 -41.0282 -40.6953 -40.6867 -39.8664 -39.8583 -22.4638 -22.4451
   -22.2950 -22.2353 -22.2072 -22.1194 -21.1998 -21.1968 -21.1679 -21.0886
   -21.0380 -20.9984 -20.8040 -20.6892 -20.6890 -20.6694 -20.6404 -20.6078
    -1.9381  -1.9087  -1.3004  -1.2700  -1.2331  -1.1461  -0.9953  -0.8886
    -0.7752  -0.5239  -0.5002  -0.1011   0.0549   0.0785   0.2347   0.2581
     0.3418   0.6424   0.6491   0.7186   0.7983   0.9029   1.0029   1.0434
     1.1665   1.2708   1.3724   1.4470   1.5356   1.5417   1.7259   1.7267
     1.7844   1.8514   1.9529   1.9852   2.0967   2.2187   2.3378   2.4274
     2.4333   2.8428

          k = 0.0698-0.0527 0.0000 ( 39100 PWs)   bands (ev):

   -70.7701 -70.7632 -69.8881 -69.8878 -69.6736 -69.6715 -43.4621 -43.4485
   -42.3958 -42.3886 -41.7730 -41.7684 -41.7375 -41.7303 -41.2683 -41.2665
   -41.2518 -41.2301 -41.1892 -41.1549 -41.1503 -41.1376 -41.1210 -41.1175
   -41.0645 -41.0355 -40.6944 -40.6909 -39.8664 -39.8583 -22.4593 -22.4498
   -22.2532 -22.2297 -22.2126 -22.1621 -21.1931 -21.1744 -21.1490 -21.0791
   -21.0449 -21.0445 -20.7570 -20.6923 -20.6860 -20.6632 -20.6536 -20.6448
    -2.1969  -1.9350  -1.3188  -1.2979  -1.2489  -1.1686  -0.9997  -0.8134
    -0.6439  -0.6320  -0.4713  -0.1442   0.0313   0.0963   0.1753   0.1953
     0.4133   0.6356   0.7167   0.7205   0.8392   0.8708   0.9442   1.0561
     1.1992   1.2249   1.3228   1.3982   1.5317   1.5532   1.6443   1.7432
     1.8378   1.8543   1.9703   2.0552   2.1011   2.2483   2.4135   2.4210
     2.5196   2.8873

          k = 0.0698-0.0379 0.0000 ( 39123 PWs)   bands (ev):

   -70.7701 -70.7632 -69.8881 -69.8878 -69.6736 -69.6715 -43.4621 -43.4485
   -42.3922 -42.3921 -41.7724 -41.7685 -41.7357 -41.7320 -41.2675 -41.2672
   -41.2449 -41.2357 -41.1744 -41.1533 -41.1516 -41.1459 -41.1205 -41.1194
   -41.0626 -41.0434 -40.6947 -40.6929 -39.8664 -39.8583 -22.4549 -22.4544
   -22.2236 -22.2185 -22.2080 -22.2075 -21.1859 -21.1809 -21.0985 -21.0958
   -21.0678 -21.0525 -20.7064 -20.7052 -20.6951 -20.6832 -20.6542 -20.6500
    -2.4048  -1.9125  -1.4268  -1.3093  -1.2275  -1.1888  -0.9903  -0.8365
    -0.7207  -0.5511  -0.2719  -0.2281  -0.0519   0.0532   0.1112   0.1941
     0.5349   0.5840   0.7204   0.8010   0.8531   0.8780   0.9771   1.0511
     1.1923   1.2308   1.2987   1.3411   1.5386   1.5489   1.5901   1.7427
     1.8360   1.8822   1.9677   2.0914   2.1873   2.1997   2.4613   2.5430
     2.5963   2.8596

          k =-0.0838 0.0279 0.0000 ( 39136 PWs)   bands (ev):

   -70.7701 -70.7632 -69.8881 -69.8878 -69.6736 -69.6715 -43.4621 -43.4485
   -42.3922 -42.3921 -41.7723 -41.7687 -41.7356 -41.7320 -41.2675 -41.2672
   -41.2410 -41.2407 -41.1613 -41.1611 -41.1522 -41.1514 -41.1204 -41.1196
   -41.0520 -41.0519 -40.6938 -40.6938 -39.8664 -39.8583 -22.4546 -22.4546
   -22.2211 -22.2211 -22.2078 -22.2077 -21.1833 -21.1833 -21.0973 -21.0973
   -21.0602 -21.0602 -20.7059 -20.7059 -20.6890 -20.6890 -20.6520 -20.6520
    -2.1923  -2.1914  -1.3621  -1.3617  -1.2155  -1.2094  -0.9095  -0.9045
    -0.6607  -0.6588  -0.1614  -0.1607  -0.0048  -0.0038   0.1163   0.1190
     0.5435   0.5438   0.7691   0.7693   0.8829   0.8835   1.0442   1.0444
     1.2349   1.2352   1.3247   1.3249   1.5321   1.5325   1.6591   1.6597
     1.8265   1.8275   1.9984   1.9988   2.2098   2.2107   2.5346   2.5354
     2.6878   2.6882

          k =-0.0838 0.0426 0.0000 ( 39109 PWs)   bands (ev):

   -70.7701 -70.7632 -69.8881 -69.8878 -69.6736 -69.6715 -43.4621 -43.4485
   -42.3958 -42.3886 -41.7726 -41.7685 -41.7372 -41.7305 -41.2682 -41.2665
   -41.2476 -41.2346 -41.1761 -41.1536 -41.1515 -41.1472 -41.1216 -41.1179
   -41.0573 -41.0446 -40.6959 -40.6908 -39.8664 -39.8583 -22.4595 -22.4497
   -22.2530 -22.2274 -22.2148 -22.1623 -21.1906 -21.1764 -21.1474 -21.0721
   -21.0508 -21.0454 -20.7561 -20.6913 -20.6869 -20.6620 -20.6523 -20.6459
    -2.2727  -2.0473  -1.3978  -1.3107  -1.2339  -1.1989  -0.9208  -0.8735
    -0.6975  -0.5921  -0.3566  -0.0666   0.0159   0.0172   0.1208   0.1800
     0.4753   0.5957   0.7369   0.7443   0.8329   0.8992   0.9773   1.1365
     1.1915   1.2675   1.3272   1.3539   1.5174   1.5786   1.6485   1.6832
     1.8197   1.8474   1.9837   1.9887   2.1332   2.3016   2.4591   2.4841
     2.5906   2.8099

          k =-0.0838 0.0573 0.0000 ( 39109 PWs)   bands (ev):

   -70.7701 -70.7632 -69.8882 -69.8877 -69.6736 -69.6715 -43.4621 -43.4485
   -42.3992 -42.3853 -41.7732 -41.7683 -41.7397 -41.7282 -41.2690 -41.2658
   -41.2544 -41.2291 -41.1910 -41.1553 -41.1502 -41.1395 -41.1216 -41.1159
   -41.0594 -41.0364 -40.6971 -40.6872 -39.8664 -39.8583 -22.4641 -22.4450
   -22.2948 -22.2334 -22.2090 -22.1195 -21.1976 -21.1951 -21.1694 -21.0822
   -21.0426 -20.9987 -20.8030 -20.6932 -20.6849 -20.6669 -20.6408 -20.6075
    -2.2886  -1.8477  -1.4155  -1.2557  -1.2517  -1.1921  -0.9207  -0.8288
    -0.7154  -0.5877  -0.4890  -0.0873   0.0507   0.0643   0.2214   0.2548
     0.3584   0.6186   0.6570   0.7244   0.7821   0.8983   1.0143   1.1448
     1.1852   1.3054   1.3447   1.3966   1.5362   1.5836   1.6803   1.6907
     1.8312   1.8656   1.9386   1.9622   2.1128   2.3196   2.3201   2.4671
     2.5509   2.7993

          k =-0.0838 0.0720 0.0000 ( 39148 PWs)   bands (ev):

   -70.7701 -70.7632 -69.8883 -69.8876 -69.6736 -69.6715 -43.4621 -43.4484
   -42.4022 -42.3825 -41.7739 -41.7681 -41.7420 -41.7262 -41.2698 -41.2654
   -41.2604 -41.2248 -41.2042 -41.1570 -41.1496 -41.1370 -41.1198 -41.1142
   -41.0581 -41.0287 -40.6976 -40.6836 -39.8664 -39.8584 -22.4679 -22.4410
   -22.3304 -22.2386 -22.2041 -22.0825 -21.2355 -21.2037 -21.1642 -21.0917
   -21.0362 -20.9583 -20.8433 -20.6949 -20.6830 -20.6736 -20.6370 -20.5671
    -2.2426  -1.6189  -1.4214  -1.2708  -1.1964  -1.1692  -0.9214  -0.8714
    -0.7555  -0.7037  -0.3697  -0.1062   0.0497   0.0975   0.2087   0.3133
     0.3397   0.5996   0.6430   0.7481   0.7619   0.9076   1.0885   1.1432
     1.1827   1.3531   1.3556   1.4594   1.5514   1.5721   1.6619   1.6958
     1.8207   1.8464   1.8935   1.9241   2.1752   2.2403   2.2555   2.4943
     2.4981   2.7397

          k =-0.0838 0.0867 0.0000 ( 39136 PWs)   bands (ev):

   -70.7701 -70.7632 -69.8884 -69.8875 -69.6737 -69.6714 -43.4621 -43.4484
   -42.4045 -42.3803 -41.7746 -41.7679 -41.7439 -41.7246 -41.2703 -41.2664
   -41.2639 -41.2219 -41.2143 -41.1584 -41.1493 -41.1372 -41.1184 -41.1130
   -41.0548 -41.0223 -40.6975 -40.6804 -39.8665 -39.8584 -22.4709 -22.4379
   -22.3576 -22.2426 -22.2003 -22.0540 -21.2666 -21.2086 -21.1602 -21.0994
   -21.0316 -20.9272 -20.8742 -20.6962 -20.6815 -20.6790 -20.6344 -20.5360
    -2.1419  -1.4411  -1.4371  -1.2830  -1.1282  -1.0905  -1.0873  -0.9274
    -0.7188  -0.6864  -0.3099  -0.0818  -0.0721   0.0891   0.1810   0.3199
     0.4562   0.5890   0.6946   0.7492   0.8269   0.9410   1.1386   1.1724
     1.1856   1.3595   1.4049   1.5416   1.5438   1.5576   1.6448   1.6693
     1.7408   1.7736   1.8604   1.9196   2.1625   2.2058   2.2706   2.4609
     2.5094   2.6781

          k =-0.0838 0.1015 0.0000 ( 39153 PWs)   bands (ev):

   -70.7701 -70.7632 -69.8884 -69.8875 -69.6737 -69.6714 -43.4621 -43.4484
   -42.4059 -42.3790 -41.7750 -41.7679 -41.7451 -41.7236 -41.2707 -41.2692
   -41.2641 -41.2224 -41.2184 -41.1594 -41.1492 -41.1378 -41.1180 -41.1123
   -41.0517 -41.0182 -40.6973 -40.6782 -39.8665 -39.8584 -22.4727 -22.4359
   -22.3746 -22.2451 -22.1980 -22.0360 -21.2861 -21.2117 -21.1576 -21.1043
   -21.0289 -20.9076 -20.8936 -20.6971 -20.6826 -20.6806 -20.6329 -20.5164
    -2.0029  -1.5382  -1.3713  -1.2943  -1.2081  -1.0792  -0.9814  -0.8523
    -0.6933  -0.6482  -0.3478  -0.2258  -0.0131   0.0383   0.1942   0.3022
     0.5619   0.6038   0.7277   0.8022   0.9217   0.9811   1.1162   1.1867
     1.2477   1.3781   1.4462   1.5129   1.5353   1.5959   1.6148   1.6374
     1.7062   1.7167   1.7800   1.9359   2.0426   2.2000   2.3443   2.4406
     2.5514   2.6451

          k =-0.0838-0.0604 0.0000 ( 39114 PWs)   bands (ev):

   -70.7701 -70.7632 -69.8884 -69.8875 -69.6737 -69.6714 -43.4621 -43.4484
   -42.4064 -42.3785 -41.7752 -41.7678 -41.7454 -41.7233 -41.2708 -41.2702
   -41.2640 -41.2242 -41.2182 -41.1597 -41.1491 -41.1381 -41.1179 -41.1120
   -41.0505 -41.0168 -40.6972 -40.6775 -39.8665 -39.8584 -22.4733 -22.4352
   -22.3804 -22.2460 -22.1972 -22.0298 -21.2928 -21.2128 -21.1568 -21.1060
   -21.0281 -20.9010 -20.9002 -20.6974 -20.6839 -20.6802 -20.6324 -20.5097
    -1.9023  -1.6417  -1.3595  -1.2978  -1.2309  -1.0553  -0.9864  -0.7242
    -0.6849  -0.6242  -0.4082  -0.2881   0.0064   0.0089   0.2014   0.2914
     0.6123   0.6131   0.7355   0.8350   0.9699   1.0469   1.0893   1.1481
     1.2833   1.4063   1.4713   1.4873   1.5176   1.5664   1.6013   1.6359
     1.6949   1.7307   1.7337   1.9380   1.9875   2.2030   2.3757   2.4294
     2.5934   2.8022

     the Fermi energy is     1.3911 ev

!    total energy              =   -1558.74460414 Ry
     estimated scf accuracy    <       0.00000847 Ry
     smearing contrib. (-TS)   =      -0.11081631 Ry
     internal energy E=F+TS    =   -1558.63378783 Ry

     The total energy is F=E-TS. E is the sum of the following terms:
     one-electron contribution =  -10088.19879223 Ry
     hartree contribution      =    5037.83653162 Ry
     xc contribution           =    -249.98633361 Ry
     ewald contribution        =    3741.71459176 Ry
     electric field correction =       0.00021462 Ry

     convergence has been achieved in  24 iterations

     negative rho (up, down):  2.432E-03 0.000E+00

     Forces acting on atoms (cartesian axes, Ry/au):

     atom    1 type  1   force =    -0.00079862   -0.00057303    0.03147398
     atom    2 type  1   force =    -0.00080582   -0.00058437    0.03140608
     atom    3 type  2   force =     0.00315469    0.00229606   -0.03419239
     atom    4 type  2   force =     0.00317539    0.00226848   -0.03418532
     atom    5 type  1   force =     0.00130976    0.00094728   -0.01290806
     atom    6 type  1   force =     0.00130234    0.00093429   -0.01184589
     atom    7 type  2   force =    -0.00388893   -0.00283712    0.01500139
     atom    8 type  2   force =    -0.00391777   -0.00279309    0.01500443
     atom    9 type  1   force =     0.00004992    0.00003637    0.00038917
     atom   10 type  1   force =     0.00011115    0.00008106   -0.00071832
     atom   11 type  2   force =     0.00016244    0.00010210    0.00028771
     atom   12 type  2   force =     0.00014546    0.00012196    0.00028723

     Total force =     0.071810     Total SCF correction =     0.008633
     SCF correction compared to forces is large: reduce conv_thr to get better values

     Writing output data file ./Cr2Y2/Cr2Y2_beef.save/

     init_run     :     65.90s CPU     75.27s WALL (       1 calls)
     electrons    :   2396.71s CPU   2831.53s WALL (       1 calls)
     forces       :     22.64s CPU     24.80s WALL (       1 calls)

     Called by init_run:
     wfcinit      :     54.88s CPU     63.54s WALL (       1 calls)
     potinit      :      7.62s CPU      8.12s WALL (       1 calls)
     hinit0       :      2.27s CPU      2.37s WALL (       1 calls)

     Called by electrons:
     c_bands      :   2098.17s CPU   2457.48s WALL (      24 calls)
     sum_band     :    266.00s CPU    331.30s WALL (      24 calls)
     v_of_rho     :     24.02s CPU     32.15s WALL (      25 calls)
     newd         :     14.58s CPU     16.19s WALL (      25 calls)
     mix_rho      :      0.64s CPU      1.22s WALL (      24 calls)
     vdW_kernel   :      5.66s CPU      5.77s WALL (       1 calls)

     Called by c_bands:
     init_us_2    :      7.51s CPU      7.81s WALL (    3700 calls)
     cegterg      :   2065.06s CPU   2419.36s WALL (    1776 calls)

     Called by *egterg:
     cdiaghg      :    190.66s CPU    224.09s WALL (    7686 calls)
     h_psi        :   1068.72s CPU   1338.14s WALL (    7760 calls)
     s_psi        :    235.46s CPU    235.82s WALL (    7760 calls)
     g_psi        :      1.60s CPU      1.64s WALL (    5910 calls)

     Called by h_psi:
     h_psi:calbec :    239.55s CPU    265.66s WALL (    7760 calls)
     vloc_psi     :    589.50s CPU    832.11s WALL (    7760 calls)
     add_vuspsi   :    237.36s CPU    237.80s WALL (    7760 calls)

     General routines
     calbec       :    362.94s CPU    400.27s WALL (    9832 calls)
     fft          :     10.77s CPU     19.31s WALL (    1634 calls)
     ffts         :      0.08s CPU      0.19s WALL (      49 calls)
     fftw         :    688.78s CPU    977.46s WALL (  871356 calls)
     interpolate  :      0.21s CPU      0.36s WALL (      25 calls)

     Parallel routines
     fft_scatt_xy :     41.43s CPU     58.00s WALL (  873039 calls)
     fft_scatt_yz :    203.15s CPU    374.38s WALL (  873039 calls)

     PWSCF        :  41m37.82s CPU  50m12.31s WALL


   This run was terminated on:  18:26:21  10Jul2022            

=------------------------------------------------------------------------------=
   JOB DONE.
=------------------------------------------------------------------------------=
