
     Program PWSCF v.6.6 starts on 10Jul2022 at 20:31:43 

     This program is part of the open-source Quantum ESPRESSO suite
     for quantum simulation of materials; please cite
         "P. Giannozzi et al., J. Phys.:Condens. Matter 21 395502 (2009);
         "P. Giannozzi et al., J. Phys.:Condens. Matter 29 465901 (2017);
          URL http://www.quantum-espresso.org", 
     in publications or presentations arising from this work. More details at
     http://www.quantum-espresso.org/quote

     Parallel version (MPI), running on    37 processors

     MPI processes distributed on     1 nodes
     R & G space division:  proc/nbgrp/npool/nimage =      37
     Fft bands division:     nmany     =       1
     Reading input from Cu2Ag2.in
Warning: card &CELL ignored
Warning: card / ignored

     Current dimensions of program PWSCF are:
     Max number of different atomic species (ntypx) = 10
     Max number of k-points (npk) =  40000
     Max angular momentum in pseudopotentials (lmaxx) =  3
     Presently stress not available with electric field and gates

     Message from routine cell_base_init:
     DEPRECATED: use true lattice parameter, not A to a.u. conversion factor
     file Cu.pbe-dn-rrkjus_psl.1.0.0.UPF: wavefunction(s)  3D renormalized

     **************************************************************************
     Initializing libbeef V0.1.2 with the BEEF-vdW functional.
     Citation: Wellendorff et al., PRB 85, 235149 (2012).
     **************************************************************************


     IMPORTANT: XC functional enforced from input :
     Exchange-correlation= BEEF-VDW
                           (   1   4  43  14   2   0   0)
     Any further DFT definition will be discarded
     Please, verify this is what you really want


     Subspace diagonalization in iterative solution of the eigenvalue problem:
     a serial algorithm will be used

     Found symmetry operation: I + (  0.5000  0.5000  0.0000)
     This is a supercell, fractional translations are disabled

     Parallelization info
     --------------------
     sticks:   dense  smooth     PW     G-vecs:    dense   smooth      PW
     Min         115      45     13                26579     6709    1031
     Max         116      46     14                26588     6742    1048
     Sum        4263    1699    495               983589   249009   38367



     bravais-lattice index     =            0
     lattice parameter (alat)  =       1.8897  a.u.
     unit-cell volume          =    4500.4959 (a.u.)^3
     number of atoms/cell      =           12
     number of atomic types    =            2
     number of electrons       =       132.00
     number of Kohn-Sham states=           79
     kinetic-energy cutoff     =      55.1240  Ry
     charge density cutoff     =     551.2396  Ry
     convergence threshold     =      1.0E-05
     mixing beta               =       0.1000
     number of iterations used =           10  plain     mixing
     Exchange-correlation= BEEF-VDW
                           (   1   4  43  14   2   0   0)

     celldm(1)=   1.889726  celldm(2)=   0.000000  celldm(3)=   0.000000
     celldm(4)=   0.000000  celldm(5)=   0.000000  celldm(6)=   0.000000

     crystal axes: (cart. coord. in units of alat)
               a(1) = (   5.542170   0.000000   0.000000 )  
               a(2) = (   2.592308   4.898529   0.000000 )  
               a(3) = (   0.000000   0.000000  24.565088 )  

     reciprocal axes: (cart. coord. in units 2 pi/alat)
               b(1) = (  0.180435 -0.095486  0.000000 )  
               b(2) = (  0.000000  0.204143  0.000000 )  
               b(3) = (  0.000000  0.000000  0.040708 )  


     PseudoPot. # 1 for Cu read from file:
     ../pseudo/Cu.pbe-dn-rrkjus_psl.1.0.0.UPF
     MD5 check sum: 8469560995d0c2df1ffe68c099c04a63
     Pseudo is Ultrasoft + core correction, Zval = 11.0
     Generated using "atomic" code by A. Dal Corso v.6.3
     Using radial grid of 1199 points,  6 beta functions with: 
                l(1) =   0
                l(2) =   0
                l(3) =   1
                l(4) =   1
                l(5) =   2
                l(6) =   2
     Q(r) pseudized with 0 coefficients 


     PseudoPot. # 2 for Ag read from file:
     ../pseudo/Ag.pbe-n-rrkjus_psl.1.0.0.UPF
     MD5 check sum: d841cbfac2b0861aec33b46768a516bf
     Pseudo is Ultrasoft + core correction, Zval = 11.0
     Generated using "atomic" code by A. Dal Corso v.6.2.2
     Using radial grid of 1237 points,  6 beta functions with: 
                l(1) =   0
                l(2) =   0
                l(3) =   1
                l(4) =   1
                l(5) =   2
                l(6) =   2
     Q(r) pseudized with 0 coefficients 


     atomic species   valence    mass     pseudopotential
        Cu            11.00    63.54600     Cu( 1.00)
        Ag            11.00   107.86820     Ag( 1.00)

     No symmetry found



   Cartesian axes

     site n.     atom                  positions (alat units)
         1           Cu  tau(   1) = (   0.0000000   0.0000000  10.0000000  )
         2           Cu  tau(   2) = (   4.0672389   2.4492644  10.0000000  )
         3           Ag  tau(   3) = (   2.7710849   0.0000000  10.0000000  )
         4           Ag  tau(   4) = (   1.2961541   2.4492644  10.0000000  )
         5           Cu  tau(   5) = (   5.5421697   3.3374579  12.2825442  )
         6           Cu  tau(   6) = (   1.4749308   0.8881936  12.2825442  )
         7           Ag  tau(   7) = (   2.7710849   3.3374579  12.2825442  )
         8           Ag  tau(   8) = (   4.2460157   0.8881936  12.2825442  )
         9           Cu  tau(   9) = (   2.9284373   1.7634963  14.4776698  )
        10           Cu  tau(  10) = (   6.9956757   4.2127554  14.4776793  )
        11           Ag  tau(  11) = (   5.7363985   1.7856903  14.6230551  )
        12           Ag  tau(  12) = (   4.2614660   4.2349588  14.6230557  )

     number of k points=    74  Fermi-Dirac smearing, width (Ry)=  0.0100
                       cart. coord. in units 2pi/alat
        k(    1) = (   0.0000000   0.0000000   0.0000000), wk =   0.0138889
        k(    2) = (   0.0000000   0.0170119   0.0000000), wk =   0.0277778
        k(    3) = (   0.0000000   0.0340238   0.0000000), wk =   0.0277778
        k(    4) = (   0.0000000   0.0510357   0.0000000), wk =   0.0277778
        k(    5) = (   0.0000000   0.0680476   0.0000000), wk =   0.0277778
        k(    6) = (   0.0000000   0.0850595   0.0000000), wk =   0.0277778
        k(    7) = (   0.0000000  -0.1020715   0.0000000), wk =   0.0138889
        k(    8) = (   0.0150362  -0.0079572   0.0000000), wk =   0.0277778
        k(    9) = (   0.0150362   0.0090547   0.0000000), wk =   0.0277778
        k(   10) = (   0.0150362   0.0260666   0.0000000), wk =   0.0277778
        k(   11) = (   0.0150362   0.0430785   0.0000000), wk =   0.0277778
        k(   12) = (   0.0150362   0.0600904   0.0000000), wk =   0.0277778
        k(   13) = (   0.0150362   0.0771024   0.0000000), wk =   0.0277778
        k(   14) = (   0.0150362  -0.1100287   0.0000000), wk =   0.0277778
        k(   15) = (   0.0150362  -0.0930167   0.0000000), wk =   0.0277778
        k(   16) = (   0.0150362  -0.0760048   0.0000000), wk =   0.0277778
        k(   17) = (   0.0150362  -0.0589929   0.0000000), wk =   0.0277778
        k(   18) = (   0.0150362  -0.0419810   0.0000000), wk =   0.0277778
        k(   19) = (   0.0150362  -0.0249691   0.0000000), wk =   0.0277778
        k(   20) = (   0.0300725  -0.0159144   0.0000000), wk =   0.0277778
        k(   21) = (   0.0300725   0.0010975   0.0000000), wk =   0.0277778
        k(   22) = (   0.0300725   0.0181094   0.0000000), wk =   0.0277778
        k(   23) = (   0.0300725   0.0351213   0.0000000), wk =   0.0277778
        k(   24) = (   0.0300725   0.0521333   0.0000000), wk =   0.0277778
        k(   25) = (   0.0300725   0.0691452   0.0000000), wk =   0.0277778
        k(   26) = (   0.0300725  -0.1179858   0.0000000), wk =   0.0277778
        k(   27) = (   0.0300725  -0.1009739   0.0000000), wk =   0.0277778
        k(   28) = (   0.0300725  -0.0839620   0.0000000), wk =   0.0277778
        k(   29) = (   0.0300725  -0.0669501   0.0000000), wk =   0.0277778
        k(   30) = (   0.0300725  -0.0499382   0.0000000), wk =   0.0277778
        k(   31) = (   0.0300725  -0.0329263   0.0000000), wk =   0.0277778
        k(   32) = (   0.0451087  -0.0238716   0.0000000), wk =   0.0277778
        k(   33) = (   0.0451087  -0.0068597   0.0000000), wk =   0.0277778
        k(   34) = (   0.0451087   0.0101522   0.0000000), wk =   0.0277778
        k(   35) = (   0.0451087   0.0271642   0.0000000), wk =   0.0277778
        k(   36) = (   0.0451087   0.0441761   0.0000000), wk =   0.0277778
        k(   37) = (   0.0451087   0.0611880   0.0000000), wk =   0.0277778
        k(   38) = (   0.0451087  -0.1259430   0.0000000), wk =   0.0277778
        k(   39) = (   0.0451087  -0.1089311   0.0000000), wk =   0.0277778
        k(   40) = (   0.0451087  -0.0919192   0.0000000), wk =   0.0277778
        k(   41) = (   0.0451087  -0.0749073   0.0000000), wk =   0.0277778
        k(   42) = (   0.0451087  -0.0578954   0.0000000), wk =   0.0277778
        k(   43) = (   0.0451087  -0.0408835   0.0000000), wk =   0.0277778
        k(   44) = (   0.0601449  -0.0318288   0.0000000), wk =   0.0277778
        k(   45) = (   0.0601449  -0.0148169   0.0000000), wk =   0.0277778
        k(   46) = (   0.0601449   0.0021951   0.0000000), wk =   0.0277778
        k(   47) = (   0.0601449   0.0192070   0.0000000), wk =   0.0277778
        k(   48) = (   0.0601449   0.0362189   0.0000000), wk =   0.0277778
        k(   49) = (   0.0601449   0.0532308   0.0000000), wk =   0.0277778
        k(   50) = (   0.0601449  -0.1339002   0.0000000), wk =   0.0277778
        k(   51) = (   0.0601449  -0.1168883   0.0000000), wk =   0.0277778
        k(   52) = (   0.0601449  -0.0998764   0.0000000), wk =   0.0277778
        k(   53) = (   0.0601449  -0.0828645   0.0000000), wk =   0.0277778
        k(   54) = (   0.0601449  -0.0658526   0.0000000), wk =   0.0277778
        k(   55) = (   0.0601449  -0.0488407   0.0000000), wk =   0.0277778
        k(   56) = (   0.0751811  -0.0397860   0.0000000), wk =   0.0277778
        k(   57) = (   0.0751811  -0.0227740   0.0000000), wk =   0.0277778
        k(   58) = (   0.0751811  -0.0057621   0.0000000), wk =   0.0277778
        k(   59) = (   0.0751811   0.0112498   0.0000000), wk =   0.0277778
        k(   60) = (   0.0751811   0.0282617   0.0000000), wk =   0.0277778
        k(   61) = (   0.0751811   0.0452736   0.0000000), wk =   0.0277778
        k(   62) = (   0.0751811  -0.1418574   0.0000000), wk =   0.0277778
        k(   63) = (   0.0751811  -0.1248455   0.0000000), wk =   0.0277778
        k(   64) = (   0.0751811  -0.1078336   0.0000000), wk =   0.0277778
        k(   65) = (   0.0751811  -0.0908217   0.0000000), wk =   0.0277778
        k(   66) = (   0.0751811  -0.0738098   0.0000000), wk =   0.0277778
        k(   67) = (   0.0751811  -0.0567979   0.0000000), wk =   0.0277778
        k(   68) = (  -0.0902174   0.0477432   0.0000000), wk =   0.0138889
        k(   69) = (  -0.0902174   0.0647551   0.0000000), wk =   0.0277778
        k(   70) = (  -0.0902174   0.0817670   0.0000000), wk =   0.0277778
        k(   71) = (  -0.0902174   0.0987789   0.0000000), wk =   0.0277778
        k(   72) = (  -0.0902174   0.1157908   0.0000000), wk =   0.0277778
        k(   73) = (  -0.0902174   0.1328027   0.0000000), wk =   0.0277778
        k(   74) = (  -0.0902174  -0.0543283   0.0000000), wk =   0.0138889

     Dense  grid:   983589 G-vectors     FFT dimensions: (  80,  80, 360)

     Smooth grid:   249009 G-vectors     FFT dimensions: (  50,  50, 225)

     Estimated max dynamical RAM per process >     182.37 MB

     Estimated total dynamical RAM >       6.59 GB

     Initial potential from superposition of free atoms

     starting charge  131.99622, renormalised to  132.00000

     negative rho (up, down):  1.687E-04 0.000E+00


     %%%%%%%%%%%%%%%%%%%%%%%%%%%%%%%%%%%%%%%%%%%%%%%%%%%%%%%%%%%%%%%%%%%%%%%%
     %                                                                      %
     % You are using vdW-DF, which was implemented by the Thonhauser group. %
     % Please cite the following two papers that made this development      %
     % possible and the two reviews that describe the various versions:     %
     %                                                                      %
     %   T. Thonhauser et al., PRL 115, 136402 (2015).                      %
     %   T. Thonhauser et al., PRB 76, 125112 (2007).                       %
     %   K. Berland et al., Rep. Prog. Phys. 78, 066501 (2015).             %
     %   D.C. Langreth et al., J. Phys.: Condens. Matter 21, 084203 (2009). %
     %                                                                      %
     %                                                                      %
     % If you are calculating the stress with vdW-DF, please also cite:     %
     %                                                                      %
     %   R. Sabatini et al., J. Phys.: Condens. Matter 24, 424209 (2012).   %
     %                                                                      %
     %%%%%%%%%%%%%%%%%%%%%%%%%%%%%%%%%%%%%%%%%%%%%%%%%%%%%%%%%%%%%%%%%%%%%%%%



     Adding external electric field

     Computed dipole along edir(3) : 
        Dipole                0.0000 Ry au,          0.0001 Debye
        Dipole field          0.0000 Ry au, 

        Potential amp.       -0.0000 Ry
        Total length         45.2608 bohr

     Starting wfcs are  108 randomized atomic wfcs

     total cpu time spent up to now is       86.4 secs

     Self-consistent Calculation

     iteration #  1     ecut=    55.12 Ry     beta= 0.10
     Davidson diagonalization with overlap
     ethr =  1.00E-02,  avg # of iterations =  3.3

     Threshold (ethr) on eigenvalues was too large:
     Diagonalizing with lowered threshold

     Davidson diagonalization with overlap
     ethr =  2.22E-04,  avg # of iterations =  6.6

     negative rho (up, down):  1.637E-04 0.000E+00

     Adding external electric field

     Computed dipole along edir(3) : 
        Dipole                0.0010 Ry au,          0.0026 Debye
        Dipole field          0.0000 Ry au, 

        Potential amp.       -0.0003 Ry
        Total length         45.2608 bohr


     total cpu time spent up to now is      482.4 secs

     total energy              =   -1254.34031798 Ry
     estimated scf accuracy    <       0.27423804 Ry

     iteration #  2     ecut=    55.12 Ry     beta= 0.10
     Davidson diagonalization with overlap
     ethr =  2.08E-04,  avg # of iterations =  2.2

     negative rho (up, down):  1.569E-04 0.000E+00

     Adding external electric field

     Computed dipole along edir(3) : 
        Dipole                0.0064 Ry au,          0.0162 Debye
        Dipole field          0.0000 Ry au, 

        Potential amp.       -0.0016 Ry
        Total length         45.2608 bohr


     total cpu time spent up to now is      635.1 secs

     total energy              =   -1254.32803345 Ry
     estimated scf accuracy    <       0.08412407 Ry

     iteration #  3     ecut=    55.12 Ry     beta= 0.10
     Davidson diagonalization with overlap
     c_bands:  2 eigenvalues not converged
     c_bands:  1 eigenvalues not converged
     c_bands:  1 eigenvalues not converged
     ethr =  6.37E-05,  avg # of iterations = 11.7

     negative rho (up, down):  1.517E-04 0.000E+00

     Adding external electric field

     Computed dipole along edir(3) : 
        Dipole               -0.0060 Ry au,         -0.0151 Debye
        Dipole field         -0.0000 Ry au, 

        Potential amp.        0.0015 Ry
        Total length         45.2608 bohr


     total cpu time spent up to now is      815.7 secs

     total energy              =   -1254.33297144 Ry
     estimated scf accuracy    <       0.01488720 Ry

     iteration #  4     ecut=    55.12 Ry     beta= 0.10
     Davidson diagonalization with overlap
     c_bands:  1 eigenvalues not converged
     c_bands:  1 eigenvalues not converged
     c_bands:  1 eigenvalues not converged
     ethr =  1.13E-05,  avg # of iterations =  9.1

     negative rho (up, down):  1.481E-04 0.000E+00

     Adding external electric field

     Computed dipole along edir(3) : 
        Dipole                0.0167 Ry au,          0.0425 Debye
        Dipole field          0.0000 Ry au, 

        Potential amp.       -0.0042 Ry
        Total length         45.2608 bohr


     total cpu time spent up to now is      995.8 secs

     total energy              =   -1254.33422161 Ry
     estimated scf accuracy    <       0.00504671 Ry

     iteration #  5     ecut=    55.12 Ry     beta= 0.10
     Davidson diagonalization with overlap
     c_bands:  1 eigenvalues not converged
     c_bands:  1 eigenvalues not converged
     c_bands:  1 eigenvalues not converged
     c_bands:  1 eigenvalues not converged
     ethr =  3.82E-06,  avg # of iterations =  5.2

     negative rho (up, down):  1.498E-04 0.000E+00

     Adding external electric field

     Computed dipole along edir(3) : 
        Dipole                0.0037 Ry au,          0.0093 Debye
        Dipole field          0.0000 Ry au, 

        Potential amp.       -0.0009 Ry
        Total length         45.2608 bohr


     total cpu time spent up to now is     1155.0 secs

     total energy              =   -1254.33445747 Ry
     estimated scf accuracy    <       0.00363293 Ry

     iteration #  6     ecut=    55.12 Ry     beta= 0.10
     Davidson diagonalization with overlap
     c_bands:  1 eigenvalues not converged
     c_bands:  1 eigenvalues not converged
     c_bands:  1 eigenvalues not converged
     c_bands:  1 eigenvalues not converged
     ethr =  2.75E-06,  avg # of iterations =  5.9

     negative rho (up, down):  1.505E-04 0.000E+00

     Adding external electric field

     Computed dipole along edir(3) : 
        Dipole                0.0047 Ry au,          0.0120 Debye
        Dipole field          0.0000 Ry au, 

        Potential amp.       -0.0012 Ry
        Total length         45.2608 bohr


     total cpu time spent up to now is     1317.1 secs

     total energy              =   -1254.33472700 Ry
     estimated scf accuracy    <       0.00139441 Ry

     iteration #  7     ecut=    55.12 Ry     beta= 0.10
     Davidson diagonalization with overlap
     c_bands:  1 eigenvalues not converged
     ethr =  1.06E-06,  avg # of iterations =  3.0

     negative rho (up, down):  1.578E-04 0.000E+00

     Adding external electric field

     Computed dipole along edir(3) : 
        Dipole                0.0045 Ry au,          0.0115 Debye
        Dipole field          0.0000 Ry au, 

        Potential amp.       -0.0011 Ry
        Total length         45.2608 bohr


     total cpu time spent up to now is     1471.9 secs

     total energy              =   -1254.33507118 Ry
     estimated scf accuracy    <       0.00087883 Ry

     iteration #  8     ecut=    55.12 Ry     beta= 0.10
     Davidson diagonalization with overlap
     c_bands:  1 eigenvalues not converged
     c_bands:  2 eigenvalues not converged
     ethr =  6.66E-07,  avg # of iterations =  3.4

     negative rho (up, down):  1.561E-04 0.000E+00

     Adding external electric field

     Computed dipole along edir(3) : 
        Dipole                0.0038 Ry au,          0.0096 Debye
        Dipole field          0.0000 Ry au, 

        Potential amp.       -0.0010 Ry
        Total length         45.2608 bohr


     total cpu time spent up to now is     1625.5 secs

     total energy              =   -1254.33519543 Ry
     estimated scf accuracy    <       0.00011918 Ry

     iteration #  9     ecut=    55.12 Ry     beta= 0.10
     Davidson diagonalization with overlap
     c_bands:  1 eigenvalues not converged
     c_bands:  1 eigenvalues not converged
     ethr =  9.03E-08,  avg # of iterations =  7.4

     negative rho (up, down):  1.547E-04 0.000E+00

     Adding external electric field

     Computed dipole along edir(3) : 
        Dipole                0.0037 Ry au,          0.0093 Debye
        Dipole field          0.0000 Ry au, 

        Potential amp.       -0.0009 Ry
        Total length         45.2608 bohr


     total cpu time spent up to now is     1821.0 secs

     total energy              =   -1254.33521237 Ry
     estimated scf accuracy    <       0.00018442 Ry

     iteration # 10     ecut=    55.12 Ry     beta= 0.10
     Davidson diagonalization with overlap
     c_bands:  1 eigenvalues not converged
     ethr =  9.03E-08,  avg # of iterations =  2.6

     negative rho (up, down):  1.251E-04 0.000E+00

     Adding external electric field

     Computed dipole along edir(3) : 
        Dipole                0.0034 Ry au,          0.0088 Debye
        Dipole field          0.0000 Ry au, 

        Potential amp.       -0.0009 Ry
        Total length         45.2608 bohr


     total cpu time spent up to now is     1981.8 secs

     End of self-consistent calculation

          k = 0.0000 0.0000 0.0000 ( 31169 PWs)   bands (ev):

    -7.5201  -6.2412  -6.1660  -6.1460  -6.1121  -6.0322  -5.7185  -5.7063
    -5.6747  -5.5547  -5.4820  -5.3937  -5.3840  -5.1511  -5.0982  -4.8127
    -4.7779  -4.7767  -4.5507  -4.5174  -4.4969  -4.4836  -4.4694  -4.3644
    -4.3032  -4.2147  -4.1929  -4.1637  -4.1185  -3.9026  -3.8098  -3.3555
    -2.9707  -2.9002  -2.8055  -2.7769  -2.7417  -2.6422  -2.5949  -2.5351
    -2.5179  -2.5099  -2.5027  -2.3789  -2.2818  -2.2810  -2.2803  -2.2178
    -2.1974  -2.1127  -2.1045  -2.0714  -2.0711  -2.0583  -2.0531  -1.9963
    -1.9619  -1.9554  -1.8957  -1.8614  -1.8314  -1.7863  -1.5443   0.0561
     0.0793   0.0896   0.2442   0.8062   0.8955   1.1362   1.2378   1.3482
     2.0045   3.3909   3.4210   3.8301   3.9152   3.9205   4.2942

          k = 0.0000 0.0170 0.0000 ( 31146 PWs)   bands (ev):

    -7.4728  -6.2215  -6.1462  -6.1105  -6.0851  -6.0051  -5.7030  -5.6799
    -5.6600  -5.5300  -5.4642  -5.3944  -5.3821  -5.1379  -5.0954  -4.7989
    -4.7810  -4.7723  -4.5705  -4.5259  -4.5079  -4.4919  -4.4735  -4.3690
    -4.2766  -4.2252  -4.2099  -4.1797  -4.1304  -3.9284  -3.8254  -3.3907
    -2.9616  -2.9038  -2.7990  -2.7689  -2.7514  -2.7085  -2.6151  -2.5692
    -2.5382  -2.4882  -2.4625  -2.4494  -2.2915  -2.2854  -2.2797  -2.2108
    -2.2063  -2.1379  -2.1140  -2.0934  -2.0760  -2.0726  -2.0633  -2.0068
    -1.9784  -1.9683  -1.9210  -1.8938  -1.8511  -1.8125  -1.4776  -0.5127
    -0.0192   0.0878   0.2561   0.5482   0.8698   1.3263   1.3784   1.6838
     2.1690   3.4695   3.5801   3.9166   3.9548   3.9693   4.3381

          k = 0.0000 0.0340 0.0000 ( 31127 PWs)   bands (ev):

    -7.3329  -6.1650  -6.0881  -6.0384  -5.9791  -5.9257  -5.6723  -5.6238
    -5.5857  -5.4574  -5.4137  -5.3941  -5.3736  -5.1138  -5.0757  -4.8034
    -4.7694  -4.7462  -4.6248  -4.5787  -4.5421  -4.4915  -4.4539  -4.3750
    -4.2714  -4.2599  -4.2437  -4.2017  -4.1609  -3.9962  -3.8711  -3.5023
    -2.9351  -2.9120  -2.9057  -2.7821  -2.7741  -2.7467  -2.6662  -2.6152
    -2.5696  -2.5651  -2.4807  -2.4353  -2.3200  -2.3123  -2.2877  -2.2464
    -2.1984  -2.1830  -2.1729  -2.1310  -2.1271  -2.0935  -2.0850  -2.0331
    -2.0139  -1.9997  -1.9939  -1.9501  -1.9121  -1.8723  -1.3077  -1.3048
    -0.2330  -0.0929  -0.0237   0.4920   0.8885   1.2517   1.8509   2.0176
     2.5854   3.5987   3.8295   4.0281   4.0604   4.1418   4.4171

          k = 0.0000 0.0510 0.0000 ( 31105 PWs)   bands (ev):

    -7.1078  -6.0819  -5.9968  -5.9469  -5.8103  -5.7991  -5.6227  -5.5934
    -5.4302  -5.3980  -5.3536  -5.3385  -5.3237  -5.1091  -5.0173  -4.8707
    -4.7530  -4.6979  -4.6806  -4.6506  -4.5626  -4.4847  -4.4343  -4.3898
    -4.3492  -4.3195  -4.3173  -4.2064  -4.1711  -4.0654  -3.9385  -3.7005
    -3.2019  -2.9202  -2.9120  -2.8931  -2.7779  -2.7647  -2.7249  -2.7083
    -2.5805  -2.5788  -2.4949  -2.4331  -2.3589  -2.3566  -2.3044  -2.2985
    -2.2529  -2.2376  -2.2349  -2.1948  -2.1806  -2.1430  -2.1191  -2.0686
    -2.0567  -2.0480  -2.0382  -1.9989  -1.9825  -1.9428  -1.8902  -1.0619
    -0.9189  -0.2306  -0.1343   0.8823   0.9031   1.1607   1.6063   2.4203
     3.0337   3.7989   4.0286   4.2614   4.3558   4.5703   4.6582

          k = 0.0000 0.0680 0.0000 ( 31112 PWs)   bands (ev):

    -6.8138  -6.0030  -5.8798  -5.8417  -5.6632  -5.6243  -5.5976  -5.5448
    -5.4075  -5.3130  -5.2360  -5.2160  -5.1653  -5.1046  -4.9709  -4.9404
    -4.8039  -4.7437  -4.6759  -4.6026  -4.5835  -4.4842  -4.4694  -4.4331
    -4.4226  -4.3904  -4.3654  -4.2850  -4.2273  -4.0830  -3.9767  -3.9554
    -3.6124  -3.1645  -2.9273  -2.8454  -2.8363  -2.8084  -2.7718  -2.6510
    -2.6087  -2.5616  -2.5240  -2.4509  -2.4149  -2.3970  -2.3716  -2.3481
    -2.3178  -2.3045  -2.2909  -2.2658  -2.2278  -2.2211  -2.1781  -2.1637
    -2.1406  -2.0828  -2.0815  -2.0552  -2.0483  -1.9876  -1.9742  -1.5041
    -0.7649  -0.2728  -0.2048   0.9058   1.0423   1.0800   1.3749   2.9033
     3.2533   3.9561   4.0752   4.2483   4.6484   4.7638   5.3148

          k = 0.0000 0.0851 0.0000 ( 31130 PWs)   bands (ev):

    -6.4845  -6.0095  -5.7497  -5.7418  -5.6179  -5.5634  -5.5395  -5.4359
    -5.3890  -5.2905  -5.1544  -5.1051  -5.0778  -4.9672  -4.9152  -4.8825
    -4.8652  -4.7379  -4.6994  -4.6336  -4.5915  -4.5286  -4.5265  -4.4697
    -4.4639  -4.4289  -4.4100  -4.3564  -4.2882  -4.2412  -4.1731  -4.0171
    -3.8225  -3.3845  -2.9636  -2.9352  -2.8138  -2.7952  -2.7842  -2.6522
    -2.5977  -2.5845  -2.5542  -2.4906  -2.4713  -2.4135  -2.4057  -2.3944
    -2.3771  -2.3570  -2.3507  -2.3172  -2.2920  -2.2634  -2.2447  -2.2305
    -2.1555  -2.1279  -2.0849  -2.0623  -2.0578  -1.9982  -1.9815  -1.8381
    -0.4215  -0.2832  -0.2386   0.4761   0.9506   1.0213   1.9406   3.1416
     3.2537   3.2764   4.4291   4.8040   5.0600   5.3709   5.4485

          k = 0.0000-0.1021 0.0000 ( 31136 PWs)   bands (ev):

    -6.1851  -6.1851  -5.6792  -5.6792  -5.5962  -5.5961  -5.4864  -5.4864
    -5.2626  -5.2626  -5.1618  -5.1618  -4.9854  -4.9854  -4.8149  -4.8149
    -4.7321  -4.7321  -4.7006  -4.7006  -4.6135  -4.6135  -4.5626  -4.5626
    -4.4407  -4.4407  -4.4049  -4.4049  -4.2834  -4.2834  -4.2476  -4.2476
    -3.6128  -3.6128  -2.9898  -2.9898  -2.7826  -2.7826  -2.7388  -2.7388
    -2.6196  -2.6196  -2.5269  -2.5269  -2.4482  -2.4482  -2.3968  -2.3968
    -2.3669  -2.3669  -2.3509  -2.3509  -2.3283  -2.3283  -2.2601  -2.2601
    -2.1491  -2.1491  -2.0676  -2.0676  -2.0334  -2.0334  -1.9571  -1.9571
    -0.2790  -0.2790   0.0058   0.0058   0.9791   0.9791   2.5681   2.5682
     3.2380   3.2380   4.8611   4.8611   5.5489   5.6098   5.6181

          k = 0.0150-0.0080 0.0000 ( 31146 PWs)   bands (ev):

    -7.4728  -6.2215  -6.1462  -6.1105  -6.0851  -6.0051  -5.7030  -5.6799
    -5.6600  -5.5300  -5.4642  -5.3944  -5.3821  -5.1379  -5.0954  -4.7989
    -4.7810  -4.7723  -4.5705  -4.5259  -4.5079  -4.4919  -4.4735  -4.3690
    -4.2766  -4.2252  -4.2099  -4.1797  -4.1304  -3.9284  -3.8254  -3.3907
    -2.9616  -2.9038  -2.7990  -2.7689  -2.7514  -2.7085  -2.6151  -2.5692
    -2.5382  -2.4882  -2.4625  -2.4494  -2.2915  -2.2854  -2.2797  -2.2108
    -2.2063  -2.1379  -2.1140  -2.0934  -2.0760  -2.0726  -2.0633  -2.0068
    -1.9784  -1.9683  -1.9210  -1.8938  -1.8511  -1.8125  -1.4776  -0.5127
    -0.0192   0.0878   0.2561   0.5482   0.8698   1.3263   1.3784   1.6838
     2.1690   3.4697   3.5801   3.9173   3.9548   3.9695   4.3381

          k = 0.0150 0.0091 0.0000 ( 31093 PWs)   bands (ev):

    -7.4708  -6.2205  -6.1500  -6.1139  -6.0814  -6.0256  -5.7131  -5.7003
    -5.6543  -5.5397  -5.4755  -5.3896  -5.3776  -5.1556  -5.0936  -4.8070
    -4.7783  -4.7675  -4.5407  -4.5290  -4.5197  -4.4648  -4.4530  -4.3919
    -4.2628  -4.2309  -4.1818  -4.1532  -4.1069  -3.9066  -3.8067  -3.3567
    -2.9778  -2.9159  -2.8201  -2.7836  -2.7581  -2.6565  -2.6304  -2.5675
    -2.5437  -2.5276  -2.4679  -2.3946  -2.3469  -2.3166  -2.2834  -2.2052
    -2.2049  -2.1268  -2.1191  -2.0930  -2.0877  -2.0776  -2.0715  -2.0112
    -1.9789  -1.9657  -1.9103  -1.8787  -1.8565  -1.8107  -1.4757  -0.3237
    -0.1191  -0.0446   0.2292   0.8498   0.8599   0.9886   1.3588   1.5013
     2.3670   3.4860   3.5373   3.9401   4.0267   4.0279   4.1356

          k = 0.0150 0.0261 0.0000 ( 31134 PWs)   bands (ev):

    -7.3752  -6.1820  -6.1152  -6.0556  -6.0208  -5.9912  -5.6850  -5.6756
    -5.6220  -5.5008  -5.4516  -5.3853  -5.3722  -5.1454  -5.0891  -4.7880
    -4.7831  -4.7534  -4.5779  -4.5360  -4.5231  -4.4834  -4.4280  -4.4059
    -4.2533  -4.2263  -4.1848  -4.1586  -4.1086  -3.9344  -3.8214  -3.3941
    -2.9747  -2.9337  -2.8304  -2.7959  -2.7824  -2.7317  -2.6904  -2.5984
    -2.5765  -2.5046  -2.4874  -2.4566  -2.3640  -2.3509  -2.2869  -2.2273
    -2.2199  -2.1718  -2.1467  -2.1328  -2.1217  -2.0887  -2.0810  -2.0422
    -2.0087  -1.9864  -1.9473  -1.9256  -1.9003  -1.8407  -1.3562  -0.8866
    -0.6523   0.2226   0.4074   0.4127   0.6738   1.0791   1.4717   2.0405
     2.5906   3.5732   3.6053   3.8856   4.0429   4.1322   4.6162

          k = 0.0150 0.0431 0.0000 ( 31083 PWs)   bands (ev):

    -7.1901  -6.1103  -6.0467  -5.9708  -5.9096  -5.8798  -5.6456  -5.5798
    -5.5797  -5.4191  -5.3963  -5.3762  -5.3670  -5.1125  -5.0836  -4.8053
    -4.7524  -4.7265  -4.6533  -4.5614  -4.5476  -4.5023  -4.4165  -4.4043
    -4.2899  -4.2533  -4.2149  -4.1388  -4.1298  -3.9952  -3.8707  -3.5123
    -2.9916  -2.9567  -2.9482  -2.8406  -2.8186  -2.7632  -2.7487  -2.6692
    -2.6183  -2.6010  -2.4812  -2.4654  -2.3942  -2.3823  -2.2946  -2.2780
    -2.2668  -2.2470  -2.2011  -2.1888  -2.1677  -2.1254  -2.1061  -2.0864
    -2.0459  -2.0244  -2.0036  -1.9856  -1.9638  -1.8905  -1.5789  -1.1542
    -0.8330  -0.5031   0.4433   0.5777   0.7387   1.3840   1.8144   1.9143
     2.6581   3.7350   3.8251   4.2491   4.3706   4.4775   4.7215

          k = 0.0150 0.0601 0.0000 ( 31093 PWs)   bands (ev):

    -6.9265  -6.0199  -5.9541  -5.8724  -5.7801  -5.6993  -5.5845  -5.5640
    -5.4237  -5.3830  -5.3443  -5.3027  -5.3021  -5.1056  -5.0353  -4.8798
    -4.7379  -4.7178  -4.6620  -4.6421  -4.5675  -4.4987  -4.4293  -4.3916
    -4.3410  -4.3270  -4.2971  -4.1728  -4.1439  -4.0053  -3.9413  -3.7265
    -3.3517  -2.9900  -2.9790  -2.9080  -2.8559  -2.8334  -2.7701  -2.7216
    -2.6364  -2.6091  -2.5137  -2.4896  -2.4388  -2.4106  -2.3576  -2.3441
    -2.3100  -2.2937  -2.2778  -2.2600  -2.2176  -2.1900  -2.1558  -2.1362
    -2.0684  -2.0529  -2.0453  -2.0359  -2.0101  -1.9824  -1.9116  -1.1715
    -0.9520  -0.8458   0.2981   0.5656   1.1813   1.3412   1.6902   2.4003
     2.6081   3.9724   4.2178   4.3357   4.5270   4.6963   4.9608

          k = 0.0150 0.0771 0.0000 ( 31081 PWs)   bands (ev):

    -6.6081  -5.9646  -5.8434  -5.7730  -5.6391  -5.5856  -5.5379  -5.4983
    -5.4035  -5.3224  -5.2347  -5.1915  -5.1354  -5.0957  -4.9860  -4.9578
    -4.7963  -4.7420  -4.6895  -4.6048  -4.5668  -4.4996  -4.4631  -4.4366
    -4.4150  -4.3973  -4.3447  -4.2480  -4.2283  -4.0666  -4.0265  -3.8666
    -3.7811  -3.2030  -3.0590  -2.9251  -2.8547  -2.8327  -2.7886  -2.6773
    -2.6649  -2.6012  -2.5583  -2.5555  -2.4795  -2.4227  -2.4221  -2.3771
    -2.3543  -2.3424  -2.3342  -2.3014  -2.2619  -2.2400  -2.2398  -2.1477
    -2.1403  -2.0816  -2.0704  -2.0652  -2.0605  -2.0038  -1.9629  -1.6479
    -0.9543  -0.5497   0.2115   0.5400   0.7735   1.7101   1.8148   2.5344
     3.1568   3.6198   4.2874   4.4609   4.8926   5.1176   5.3082

          k = 0.0150-0.1100 0.0000 ( 31126 PWs)   bands (ev):

    -6.2850  -6.0564  -5.7238  -5.6948  -5.6089  -5.5433  -5.4986  -5.4376
    -5.3522  -5.3192  -5.1679  -5.0918  -5.0666  -4.9581  -4.9002  -4.8721
    -4.8595  -4.7565  -4.7207  -4.6286  -4.5976  -4.5171  -4.5163  -4.4755
    -4.4734  -4.4288  -4.4278  -4.3296  -4.2802  -4.2381  -4.1773  -4.1314
    -3.7036  -3.4807  -3.0959  -2.9599  -2.8067  -2.7855  -2.7560  -2.7531
    -2.6687  -2.6082  -2.5861  -2.5046  -2.4994  -2.4380  -2.4022  -2.3992
    -2.3860  -2.3643  -2.3480  -2.3263  -2.3005  -2.2749  -2.2557  -2.2369
    -2.1430  -2.1292  -2.0868  -2.0703  -2.0535  -1.9901  -1.9816  -1.9013
    -0.9636  -0.1748   0.1624   0.2511   0.5491   1.8734   2.3064   2.4770
     2.9265   3.8462   4.6618   4.6810   5.1175   5.3340   5.3780

          k = 0.0150-0.0930 0.0000 ( 31111 PWs)   bands (ev):

    -6.3091  -6.0451  -5.6947  -5.6649  -5.6029  -5.5949  -5.4950  -5.4730
    -5.2724  -5.2430  -5.1855  -5.1461  -4.9844  -4.9809  -4.8230  -4.8041
    -4.7621  -4.7240  -4.7068  -4.6802  -4.6233  -4.6093  -4.5779  -4.5479
    -4.4617  -4.4591  -4.4245  -4.3817  -4.3139  -4.3018  -4.2239  -4.1525
    -3.7510  -3.5487  -3.0149  -2.9295  -2.8228  -2.7842  -2.7791  -2.6670
    -2.6223  -2.5829  -2.5272  -2.5135  -2.4474  -2.4471  -2.4151  -2.3912
    -2.3767  -2.3586  -2.3426  -2.3261  -2.3233  -2.2741  -2.2579  -2.2447
    -2.1732  -2.1243  -2.0830  -2.0714  -2.0426  -2.0343  -1.9784  -1.9000
    -0.9717  -0.1883   0.1105   0.2917   0.5671   1.9133   2.2789   2.4371
     2.9639   4.0613   4.6453   5.1461   5.2449   5.3129   5.3364

          k = 0.0150-0.0760 0.0000 ( 31136 PWs)   bands (ev):

    -6.6310  -5.9717  -5.7845  -5.7670  -5.6246  -5.5931  -5.5628  -5.4321
    -5.4168  -5.2690  -5.1506  -5.1109  -5.0848  -4.9749  -4.9323  -4.9009
    -4.8520  -4.7405  -4.6632  -4.6343  -4.6047  -4.5477  -4.5358  -4.4715
    -4.4660  -4.4427  -4.3900  -4.3838  -4.2688  -4.2364  -4.1727  -3.9327
    -3.8562  -3.3953  -2.9036  -2.8789  -2.8172  -2.7864  -2.7655  -2.6079
    -2.5892  -2.5289  -2.4704  -2.4697  -2.4228  -2.4122  -2.3989  -2.3924
    -2.3467  -2.3444  -2.3224  -2.3139  -2.2719  -2.2431  -2.1931  -2.1699
    -2.1574  -2.1040  -2.0980  -2.0718  -2.0670  -2.0183  -1.9884  -1.6536
    -0.9773  -0.5664   0.1061   0.6073   0.8005   1.6837   1.9481   2.4131
     3.6622   3.7987   4.2569   4.6507   4.8760   5.0800   5.4667

          k = 0.0150-0.0590 0.0000 ( 31151 PWs)   bands (ev):

    -6.9434  -6.0281  -5.9044  -5.8914  -5.7060  -5.6691  -5.6055  -5.5676
    -5.4131  -5.3138  -5.2338  -5.2271  -5.1927  -5.1059  -4.9666  -4.9246
    -4.8113  -4.7525  -4.6531  -4.6317  -4.5567  -4.4973  -4.4568  -4.4536
    -4.4390  -4.3756  -4.3554  -4.3140  -4.2222  -4.1296  -3.9913  -3.9519
    -3.4714  -3.1540  -2.9066  -2.8391  -2.8040  -2.7346  -2.7229  -2.6476
    -2.5646  -2.5582  -2.4820  -2.4054  -2.3690  -2.3638  -2.3460  -2.3119
    -2.2808  -2.2807  -2.2680  -2.2381  -2.2140  -2.1745  -2.1549  -2.1198
    -2.1041  -2.0662  -2.0613  -2.0450  -2.0002  -1.9864  -1.9613  -1.1722
    -0.9545  -0.8885   0.1182   0.6569   1.1670   1.3785   1.9342   2.3716
     3.1467   3.9425   4.3604   4.4199   4.4751   4.5220   4.9524

          k = 0.0150-0.0420 0.0000 ( 31121 PWs)   bands (ev):

    -7.2011  -6.1147  -6.0197  -5.9890  -5.8718  -5.8142  -5.6396  -5.6119
    -5.4325  -5.4084  -5.3586  -5.3582  -5.3336  -5.1108  -5.0061  -4.8690
    -4.7639  -4.6951  -4.6933  -4.6452  -4.5513  -4.4764  -4.4686  -4.3714
    -4.3382  -4.3328  -4.2875  -4.2436  -4.2139  -4.0851  -3.9366  -3.6887
    -3.1379  -2.9042  -2.8856  -2.8620  -2.7567  -2.7263  -2.6989  -2.6729
    -2.5608  -2.5524  -2.4953  -2.4003  -2.3233  -2.3009  -2.2857  -2.2647
    -2.2382  -2.2248  -2.2039  -2.1606  -2.1575  -2.1052  -2.1034  -2.0745
    -2.0660  -2.0547  -2.0156  -1.9774  -1.9696  -1.9319  -1.5169  -1.1562
    -0.9465  -0.4442   0.1756   0.6297   0.7788   1.7916   1.9270   2.2504
     2.5808   3.6925   4.0093   4.1251   4.2286   4.3206   4.7054

          k = 0.0150-0.0250 0.0000 ( 31155 PWs)   bands (ev):

    -7.3813  -6.1846  -6.1021  -6.0627  -6.0146  -5.9324  -5.6812  -5.6400
    -5.5875  -5.4696  -5.4196  -5.4002  -5.3763  -5.1154  -5.0717  -4.8027
    -4.7763  -4.7540  -4.6176  -4.5827  -4.5337  -4.4859  -4.4788  -4.3500
    -4.2777  -4.2629  -4.2378  -4.2276  -4.1815  -3.9959  -3.8713  -3.4990
    -2.9295  -2.9005  -2.8811  -2.7659  -2.7618  -2.7385  -2.6296  -2.5947
    -2.5687  -2.5283  -2.5046  -2.4163  -2.2892  -2.2876  -2.2449  -2.2356
    -2.2224  -2.1882  -2.1388  -2.1163  -2.0968  -2.0788  -2.0777  -2.0278
    -2.0191  -1.9892  -1.9832  -1.9347  -1.8908  -1.8611  -1.3606  -0.8305
    -0.7745   0.2771   0.3395   0.3616   0.5621   1.5619   1.9746   2.0208
     2.2454   3.5288   3.7761   3.8772   3.9190   4.0483   4.4664

          k = 0.0301-0.0159 0.0000 ( 31127 PWs)   bands (ev):

    -7.3329  -6.1650  -6.0881  -6.0384  -5.9791  -5.9257  -5.6723  -5.6238
    -5.5857  -5.4574  -5.4137  -5.3941  -5.3736  -5.1138  -5.0757  -4.8034
    -4.7695  -4.7462  -4.6248  -4.5787  -4.5421  -4.4915  -4.4539  -4.3750
    -4.2714  -4.2599  -4.2437  -4.2017  -4.1609  -3.9962  -3.8711  -3.5023
    -2.9351  -2.9120  -2.9057  -2.7821  -2.7741  -2.7467  -2.6662  -2.6152
    -2.5696  -2.5651  -2.4807  -2.4353  -2.3200  -2.3123  -2.2877  -2.2464
    -2.1984  -2.1830  -2.1729  -2.1310  -2.1271  -2.0935  -2.0850  -2.0331
    -2.0139  -1.9997  -1.9939  -1.9501  -1.9121  -1.8723  -1.3077  -1.3048
    -0.2330  -0.0928  -0.0237   0.4920   0.8885   1.2517   1.8509   2.0176
     2.5854   3.5988   3.8295   4.0281   4.0613   4.1421   4.4171

          k = 0.0301 0.0011 0.0000 ( 31134 PWs)   bands (ev):

    -7.3752  -6.1820  -6.1152  -6.0556  -6.0208  -5.9912  -5.6850  -5.6756
    -5.6220  -5.5008  -5.4516  -5.3853  -5.3722  -5.1454  -5.0891  -4.7880
    -4.7831  -4.7534  -4.5779  -4.5360  -4.5231  -4.4834  -4.4280  -4.4059
    -4.2533  -4.2263  -4.1848  -4.1586  -4.1086  -3.9343  -3.8214  -3.3941
    -2.9747  -2.9337  -2.8304  -2.7959  -2.7824  -2.7317  -2.6904  -2.5984
    -2.5765  -2.5046  -2.4874  -2.4566  -2.3640  -2.3509  -2.2869  -2.2273
    -2.2199  -2.1718  -2.1467  -2.1328  -2.1217  -2.0887  -2.0810  -2.0422
    -2.0087  -1.9864  -1.9473  -1.9256  -1.9003  -1.8407  -1.3562  -0.8866
    -0.6523   0.2226   0.4074   0.4127   0.6738   1.0791   1.4717   2.0405
     2.5906   3.5732   3.6053   3.8856   4.0429   4.1322   4.6163

          k = 0.0301 0.0181 0.0000 ( 31131 PWs)   bands (ev):

    -7.3255  -6.1651  -6.1012  -6.0328  -6.0117  -5.9865  -5.7049  -5.6753
    -5.5968  -5.4906  -5.4565  -5.3794  -5.3591  -5.1688  -5.0806  -4.7918
    -4.7797  -4.7404  -4.5787  -4.5321  -4.5143  -4.4505  -4.4304  -4.3983
    -4.2617  -4.1983  -4.1521  -4.1228  -4.0844  -3.9172  -3.7988  -3.3601
    -2.9984  -2.9661  -2.8708  -2.8171  -2.8019  -2.7437  -2.6665  -2.6361
    -2.6327  -2.5390  -2.4504  -2.4449  -2.4399  -2.3891  -2.2899  -2.2644
    -2.2290  -2.2008  -2.1609  -2.1482  -2.1390  -2.1181  -2.0823  -2.0821
    -2.0370  -1.9863  -1.9441  -1.9218  -1.9171  -1.8357  -1.3092  -1.1362
    -0.3903  -0.2188   0.1845   0.4987   0.7734   0.8272   1.9398   2.0226
     2.4394   3.6219   3.6930   4.1152   4.1838   4.2404   4.3854

          k = 0.0301 0.0351 0.0000 ( 31115 PWs)   bands (ev):

    -7.1854  -6.1161  -6.0507  -5.9789  -5.9575  -5.9018  -5.6696  -5.6476
    -5.5543  -5.4338  -5.4273  -5.3716  -5.3518  -5.1604  -5.0760  -4.7822
    -4.7697  -4.7241  -4.6317  -4.5322  -4.5059  -4.4699  -4.4449  -4.3710
    -4.2810  -4.1792  -4.1411  -4.1134  -4.0825  -3.9445  -3.8142  -3.4004
    -3.0199  -2.9924  -2.9108  -2.9040  -2.8184  -2.8025  -2.7540  -2.6654
    -2.6371  -2.5953  -2.5238  -2.4543  -2.4482  -2.4152  -2.3213  -2.2947
    -2.2720  -2.2534  -2.2146  -2.1887  -2.1804  -2.1693  -2.1121  -2.0823
    -2.0743  -2.0347  -1.9872  -1.9575  -1.9455  -1.8554  -1.4338  -1.1318
    -1.0873  -0.1670   0.0588   0.3886   0.7461   1.3760   1.9330   2.2251
     2.2499   3.7449   3.8381   4.1193   4.2590   4.7099   4.7153

          k = 0.0301 0.0521 0.0000 ( 31113 PWs)   bands (ev):

    -6.9618  -6.0383  -5.9738  -5.8957  -5.8640  -5.7598  -5.6012  -5.5667
    -5.5232  -5.3739  -5.3581  -5.3468  -5.3433  -5.1212  -5.0834  -4.8112
    -4.7323  -4.7051  -4.6962  -4.5412  -4.5379  -4.5085  -4.4559  -4.3536
    -4.3024  -4.2276  -4.1842  -4.1005  -4.0768  -3.9823  -3.8699  -3.5303
    -3.1636  -3.1017  -2.9704  -2.9173  -2.9085  -2.8359  -2.7776  -2.7296
    -2.6727  -2.6652  -2.5493  -2.4788  -2.4768  -2.4541  -2.4004  -2.3461
    -2.2999  -2.2973  -2.2876  -2.2539  -2.2454  -2.2246  -2.1350  -2.1058
    -2.0999  -2.0663  -2.0386  -1.9935  -1.9827  -1.8972  -1.6437  -1.5038
    -0.9093  -0.6676  -0.3822   1.0901   1.1218   1.6697   1.7687   2.0325
     2.2284   3.9286   3.9442   4.4917   4.6683   4.9320   4.9475

          k = 0.0301 0.0691 0.0000 ( 31098 PWs)   bands (ev):

    -6.6705  -5.9417  -5.8923  -5.7923  -5.7501  -5.6100  -5.5375  -5.5031
    -5.4090  -5.3836  -5.3328  -5.2589  -5.2529  -5.0999  -5.0525  -4.9096
    -4.7335  -4.7314  -4.6489  -4.6243  -4.5555  -4.5170  -4.4622  -4.3608
    -4.3288  -4.3143  -4.2742  -4.1400  -4.1346  -3.9602  -3.9048  -3.7778
    -3.5418  -3.2151  -3.0356  -2.9558  -2.9233  -2.8915  -2.7858  -2.7326
    -2.7091  -2.6598  -2.6068  -2.5518  -2.5177  -2.4604  -2.4552  -2.3834
    -2.3552  -2.3376  -2.3150  -2.3002  -2.2770  -2.2544  -2.1871  -2.1215
    -2.1033  -2.0725  -2.0476  -2.0348  -2.0306  -1.9809  -1.9044  -1.5056
    -1.2687  -0.6310  -0.4893   1.1522   1.4444   1.5971   1.8878   2.1343
     2.6726   4.0492   4.2202   4.2220   4.7887   4.8353   5.2321

          k = 0.0301-0.1180 0.0000 ( 31113 PWs)   bands (ev):

    -6.3466  -5.9201  -5.8028  -5.7122  -5.6162  -5.5694  -5.4940  -5.4127
    -5.4019  -5.3452  -5.2293  -5.1434  -5.1137  -5.0819  -5.0196  -4.9699
    -4.7895  -4.7637  -4.6800  -4.6037  -4.5425  -4.5356  -4.4770  -4.4435
    -4.4026  -4.3678  -4.3449  -4.2161  -4.2000  -4.1124  -4.0730  -3.8931
    -3.7770  -3.3042  -3.2746  -2.9830  -2.8649  -2.8227  -2.7953  -2.7769
    -2.7251  -2.6509  -2.6230  -2.5578  -2.5337  -2.4651  -2.4258  -2.3975
    -2.3966  -2.3557  -2.3097  -2.3069  -2.2912  -2.2638  -2.2561  -2.1375
    -2.1187  -2.0985  -2.0825  -2.0733  -2.0691  -2.0135  -1.9635  -1.6860
    -1.4967  -0.5735  -0.2580   0.5995   1.4653   1.7908   2.1541   2.7421
     3.1377   3.3732   4.5617   4.7150   4.8103   5.2542   5.4525

          k = 0.0301-0.1010 0.0000 ( 31089 PWs)   bands (ev):

    -6.0993  -6.0632  -5.6922  -5.6719  -5.6034  -5.5225  -5.4641  -5.4359
    -5.3474  -5.3184  -5.1857  -5.0911  -5.0298  -4.9524  -4.8852  -4.8711
    -4.8449  -4.8060  -4.7164  -4.6267  -4.6075  -4.5634  -4.5118  -4.4967
    -4.4649  -4.4285  -4.4201  -4.3212  -4.2812  -4.2319  -4.1698  -4.1317
    -3.6962  -3.6189  -3.1728  -2.9484  -2.8500  -2.8124  -2.7810  -2.7455
    -2.7038  -2.6241  -2.5508  -2.5157  -2.5117  -2.4525  -2.4229  -2.4057
    -2.3628  -2.3535  -2.3326  -2.3092  -2.2726  -2.2624  -2.2383  -2.2328
    -2.1508  -2.1148  -2.1022  -2.0932  -2.0728  -1.9922  -1.9278  -1.9240
    -1.4931  -0.6055   0.1169   0.1583   1.4796   1.7414   2.7017   2.7747
     2.8750   4.0430   4.6354   4.7702   4.9933   5.0294   5.3347

          k = 0.0301-0.0840 0.0000 ( 31096 PWs)   bands (ev):

    -6.3929  -5.9239  -5.7056  -5.6624  -5.6135  -5.5954  -5.4988  -5.4594
    -5.2700  -5.2227  -5.2128  -5.1355  -4.9761  -4.9760  -4.8227  -4.8080
    -4.7865  -4.7366  -4.7066  -4.6612  -4.6283  -4.6152  -4.5905  -4.5355
    -4.4886  -4.4870  -4.4273  -4.3704  -4.3362  -4.3192  -4.1742  -4.0048
    -3.8656  -3.6368  -2.9761  -2.9047  -2.8549  -2.7793  -2.7753  -2.6921
    -2.5616  -2.5516  -2.5196  -2.4754  -2.4494  -2.4414  -2.4137  -2.3892
    -2.3759  -2.3546  -2.3378  -2.3126  -2.3023  -2.2570  -2.1932  -2.1884
    -2.1313  -2.1110  -2.1045  -2.0921  -2.0648  -2.0445  -1.9986  -1.7143
    -1.4865  -0.6235  -0.2947   0.6529   1.5084   1.7338   2.1012   2.8662
     3.4489   3.8721   4.5305   4.6504   4.9533   5.1575   5.3358

          k = 0.0301-0.0670 0.0000 ( 31124 PWs)   bands (ev):

    -6.7079  -5.9512  -5.8087  -5.7754  -5.6279  -5.6154  -5.5711  -5.4315
    -5.4289  -5.2589  -5.1513  -5.1115  -5.0871  -4.9776  -4.9464  -4.9089
    -4.8408  -4.7474  -4.6451  -4.6344  -4.6189  -4.5610  -4.5176  -4.4838
    -4.4645  -4.4593  -4.4093  -4.3734  -4.2509  -4.2295  -4.1770  -3.9928
    -3.7112  -3.4651  -2.9069  -2.8543  -2.8004  -2.7684  -2.7352  -2.5916
    -2.5876  -2.5065  -2.4394  -2.4291  -2.4163  -2.3851  -2.3838  -2.3835
    -2.3417  -2.3293  -2.3253  -2.3122  -2.2364  -2.2315  -2.1741  -2.1494
    -2.1066  -2.0905  -2.0838  -2.0835  -2.0494  -2.0004  -1.9321  -1.5580
    -1.2136  -0.6425  -0.6204   1.2225   1.4641   1.6173   1.7665   2.5852
     3.2412   4.1511   4.1569   4.5814   4.7130   4.7581   5.2054

          k = 0.0301-0.0499 0.0000 ( 31159 PWs)   bands (ev):

    -6.9876  -6.0367  -5.9131  -5.9092  -5.7305  -5.6763  -5.6084  -5.5753
    -5.4154  -5.3150  -5.2309  -5.2301  -5.2058  -5.1053  -4.9659  -4.9181
    -4.8142  -4.7566  -4.6440  -4.6425  -4.5417  -4.5025  -4.4721  -4.4493
    -4.4427  -4.3695  -4.3411  -4.3319  -4.2180  -4.1586  -3.9975  -3.9440
    -3.4195  -3.1509  -2.9050  -2.8367  -2.7995  -2.7001  -2.6963  -2.6552
    -2.5668  -2.5375  -2.4706  -2.3868  -2.3596  -2.3526  -2.3214  -2.3168
    -2.2828  -2.2721  -2.2506  -2.2042  -2.2017  -2.1711  -2.1377  -2.1245
    -2.1151  -2.0823  -2.0569  -2.0405  -2.0017  -1.9894  -1.5772  -1.5422
    -0.9308  -0.6236  -0.5341   1.0595   1.3420   1.8088   1.8570   2.1073
     2.8814   3.8540   4.2052   4.4472   4.6899   4.7388   4.9126

          k = 0.0301-0.0329 0.0000 ( 31121 PWs)   bands (ev):

    -7.2011  -6.1147  -6.0197  -5.9890  -5.8718  -5.8142  -5.6396  -5.6119
    -5.4325  -5.4084  -5.3586  -5.3582  -5.3336  -5.1108  -5.0061  -4.8690
    -4.7639  -4.6951  -4.6933  -4.6452  -4.5513  -4.4764  -4.4686  -4.3714
    -4.3382  -4.3328  -4.2875  -4.2436  -4.2139  -4.0851  -3.9366  -3.6887
    -3.1379  -2.9042  -2.8856  -2.8620  -2.7567  -2.7263  -2.6989  -2.6729
    -2.5608  -2.5524  -2.4953  -2.4003  -2.3233  -2.3009  -2.2857  -2.2647
    -2.2382  -2.2248  -2.2039  -2.1606  -2.1575  -2.1052  -2.1034  -2.0745
    -2.0660  -2.0547  -2.0156  -1.9774  -1.9696  -1.9319  -1.5169  -1.1562
    -0.9465  -0.4442   0.1756   0.6297   0.7788   1.7916   1.9270   2.2504
     2.5808   3.6925   4.0093   4.1251   4.2286   4.3205   4.7056

          k = 0.0451-0.0239 0.0000 ( 31105 PWs)   bands (ev):

    -7.1078  -6.0819  -5.9968  -5.9469  -5.8103  -5.7991  -5.6227  -5.5934
    -5.4302  -5.3980  -5.3536  -5.3385  -5.3237  -5.1091  -5.0173  -4.8707
    -4.7530  -4.6979  -4.6806  -4.6506  -4.5626  -4.4848  -4.4343  -4.3898
    -4.3492  -4.3195  -4.3173  -4.2064  -4.1711  -4.0654  -3.9385  -3.7005
    -3.2019  -2.9202  -2.9120  -2.8931  -2.7778  -2.7647  -2.7249  -2.7083
    -2.5805  -2.5788  -2.4949  -2.4331  -2.3589  -2.3566  -2.3044  -2.2985
    -2.2529  -2.2376  -2.2349  -2.1948  -2.1806  -2.1430  -2.1191  -2.0686
    -2.0567  -2.0480  -2.0382  -1.9989  -1.9825  -1.9428  -1.8902  -1.0619
    -0.9189  -0.2306  -0.1343   0.8823   0.9030   1.1607   1.6063   2.4203
     3.0337   3.7992   4.0286   4.2618   4.3564   4.5701   4.6581

          k = 0.0451-0.0069 0.0000 ( 31083 PWs)   bands (ev):

    -7.1901  -6.1103  -6.0467  -5.9708  -5.9096  -5.8798  -5.6456  -5.5798
    -5.5797  -5.4191  -5.3963  -5.3762  -5.3670  -5.1125  -5.0836  -4.8053
    -4.7524  -4.7265  -4.6533  -4.5614  -4.5476  -4.5023  -4.4165  -4.4043
    -4.2899  -4.2533  -4.2149  -4.1388  -4.1298  -3.9952  -3.8707  -3.5123
    -2.9916  -2.9567  -2.9482  -2.8406  -2.8186  -2.7632  -2.7487  -2.6692
    -2.6183  -2.6010  -2.4812  -2.4654  -2.3942  -2.3823  -2.2946  -2.2780
    -2.2668  -2.2470  -2.2011  -2.1888  -2.1677  -2.1254  -2.1061  -2.0864
    -2.0459  -2.0244  -2.0036  -1.9856  -1.9638  -1.8905  -1.5789  -1.1542
    -0.8330  -0.5031   0.4433   0.5777   0.7387   1.3840   1.8144   1.9143
     2.6581   3.7350   3.8250   4.2489   4.3707   4.4770   4.7215

          k = 0.0451 0.0102 0.0000 ( 31115 PWs)   bands (ev):

    -7.1854  -6.1161  -6.0507  -5.9789  -5.9575  -5.9018  -5.6696  -5.6476
    -5.5543  -5.4338  -5.4273  -5.3716  -5.3518  -5.1604  -5.0760  -4.7822
    -4.7697  -4.7241  -4.6317  -4.5322  -4.5059  -4.4699  -4.4449  -4.3710
    -4.2810  -4.1792  -4.1411  -4.1134  -4.0825  -3.9445  -3.8142  -3.4004
    -3.0199  -2.9924  -2.9108  -2.9040  -2.8184  -2.8025  -2.7540  -2.6654
    -2.6371  -2.5953  -2.5238  -2.4543  -2.4482  -2.4152  -2.3213  -2.2947
    -2.2720  -2.2534  -2.2146  -2.1887  -2.1804  -2.1693  -2.1121  -2.0823
    -2.0743  -2.0347  -1.9872  -1.9575  -1.9455  -1.8554  -1.4338  -1.1318
    -1.0874  -0.1670   0.0588   0.3886   0.7461   1.3760   1.9329   2.2251
     2.2499   3.7449   3.8381   4.1193   4.2591   4.7098   4.7153

          k = 0.0451 0.0272 0.0000 ( 31139 PWs)   bands (ev):

    -7.0933  -6.0970  -6.0147  -5.9915  -5.9199  -5.8691  -5.6934  -5.6333
    -5.5161  -5.4258  -5.3916  -5.3658  -5.3315  -5.1883  -5.0612  -4.7729
    -4.7715  -4.7089  -4.6538  -4.5201  -4.4833  -4.4730  -4.4231  -4.3414
    -4.2825  -4.1371  -4.1124  -4.0767  -4.0592  -3.9310  -3.7880  -3.3645
    -3.1185  -3.0201  -2.9559  -2.9549  -2.8760  -2.8252  -2.7266  -2.7059
    -2.7015  -2.6122  -2.5540  -2.4977  -2.4886  -2.4164  -2.3707  -2.3046
    -2.3039  -2.2763  -2.2623  -2.2530  -2.2108  -2.1856  -2.1435  -2.1043
    -2.0881  -2.0376  -1.9956  -1.9465  -1.9442  -1.8447  -1.8295  -1.0398
    -0.6338  -0.5591  -0.3457   0.6642   0.8259   0.9059   1.8499   2.5165
     2.5806   3.7031   3.8298   4.3574   4.3780   4.7567   4.7739

          k = 0.0451 0.0442 0.0000 ( 31125 PWs)   bands (ev):

    -6.9175  -6.0500  -5.9557  -5.9487  -5.8510  -5.7913  -5.6519  -5.5990
    -5.4814  -5.3926  -5.3548  -5.3240  -5.3140  -5.1789  -5.0590  -4.7785
    -4.7490  -4.6985  -4.6937  -4.5171  -4.5002  -4.4804  -4.4304  -4.3231
    -4.2849  -4.1372  -4.1045  -4.0564  -4.0511  -3.9564  -3.8054  -3.4088
    -3.2679  -3.1047  -3.0198  -2.9776  -2.9483  -2.8225  -2.8009  -2.7292
    -2.7123  -2.6833  -2.6152  -2.5240  -2.5136  -2.4518  -2.4352  -2.3694
    -2.3421  -2.3102  -2.2991  -2.2978  -2.2689  -2.2173  -2.1587  -2.1291
    -2.1190  -2.0875  -2.0392  -1.9665  -1.9572  -1.9043  -1.8597  -1.1624
    -0.9523  -0.8430  -0.0389   0.2869   1.2009   1.5093   1.5587   2.2767
     2.6672   3.9897   4.1351   4.4923   4.5599   4.6654   4.9138

          k = 0.0451 0.0612 0.0000 ( 31086 PWs)   bands (ev):

    -6.6685  -5.9764  -5.8740  -5.8650  -5.7783  -5.6737  -5.5516  -5.5279
    -5.4844  -5.3764  -5.3317  -5.2877  -5.2373  -5.1349  -5.0765  -4.8471
    -4.7174  -4.7073  -4.6910  -4.5537  -4.5250  -4.4918  -4.4602  -4.3230
    -4.2852  -4.2024  -4.1601  -4.0739  -4.0465  -3.9544  -3.8623  -3.5641
    -3.4260  -3.3697  -3.0099  -2.9894  -2.9625  -2.9081  -2.7957  -2.7745
    -2.7381  -2.7294  -2.6714  -2.5724  -2.5383  -2.5030  -2.4986  -2.4062
    -2.3774  -2.3370  -2.3263  -2.3017  -2.3002  -2.2805  -2.1738  -2.1451
    -2.1423  -2.0881  -2.0625  -1.9961  -1.9838  -1.8985  -1.8788  -1.6407
    -1.0974  -0.7354  -0.6038   1.0903   1.3473   1.6106   1.6492   2.2747
     2.7025   4.1844   4.3023   4.3985   4.6057   4.8310   4.9639

          k = 0.0451-0.1259 0.0000 ( 31068 PWs)   bands (ev):

    -6.3684  -5.8816  -5.7990  -5.7662  -5.7090  -5.5642  -5.5311  -5.4177
    -5.4123  -5.3685  -5.3217  -5.1988  -5.1914  -5.0938  -5.0634  -4.9728
    -4.7440  -4.7228  -4.6362  -4.6239  -4.5326  -4.5214  -4.4596  -4.3428
    -4.3246  -4.3035  -4.2533  -4.1272  -4.1074  -3.9784  -3.8736  -3.8485
    -3.6617  -3.4965  -3.1204  -3.0258  -2.9360  -2.9101  -2.8148  -2.7970
    -2.7917  -2.7119  -2.6723  -2.5898  -2.5694  -2.5073  -2.4697  -2.4205
    -2.4064  -2.3484  -2.3316  -2.3066  -2.2961  -2.2876  -2.2130  -2.1417
    -2.1400  -2.0903  -2.0544  -2.0290  -2.0256  -1.9757  -1.8952  -1.8506
    -1.2950  -1.1688  -0.2861   1.0396   1.2096   1.9635   2.1099   2.5303
     3.2375   3.8981   4.0646   4.4333   4.5667   5.2004   5.5584

          k = 0.0451-0.1089 0.0000 ( 31076 PWs)   bands (ev):

    -6.0677  -5.8826  -5.7690  -5.7107  -5.5990  -5.5450  -5.4708  -5.4489
    -5.3603  -5.3219  -5.2082  -5.1067  -5.0777  -5.0735  -5.0707  -4.9768
    -4.8079  -4.7826  -4.6613  -4.5876  -4.5791  -4.5105  -4.5005  -4.4297
    -4.3985  -4.3683  -4.3324  -4.1965  -4.1742  -4.1564  -4.0897  -3.9360
    -3.8427  -3.4159  -3.3706  -2.9977  -2.8745  -2.8738  -2.8412  -2.7890
    -2.7881  -2.6912  -2.5760  -2.5656  -2.5576  -2.4930  -2.4330  -2.4154
    -2.3924  -2.3446  -2.3214  -2.2975  -2.2679  -2.2652  -2.2453  -2.1440
    -2.1337  -2.1108  -2.1029  -2.0786  -2.0734  -1.9722  -1.9679  -1.8141
    -1.6913  -1.2043   0.1047   0.5061   1.1327   2.4632   2.6859   2.9883
     3.2209   3.7769   3.9702   4.7294   4.8121   4.9658   5.3535

          k = 0.0451-0.0919 0.0000 ( 31040 PWs)   bands (ev):

    -6.1249  -5.8697  -5.7080  -5.6649  -5.6065  -5.5035  -5.4463  -5.4316
    -5.3665  -5.3077  -5.1894  -5.0974  -4.9659  -4.9522  -4.8904  -4.8725
    -4.8563  -4.8423  -4.6948  -4.6630  -4.6070  -4.5856  -4.5196  -4.5107
    -4.4484  -4.4214  -4.4161  -4.3259  -4.3188  -4.2187  -4.1002  -4.0590
    -3.8618  -3.7101  -3.1414  -2.9364  -2.9012  -2.8138  -2.7948  -2.7795
    -2.6904  -2.6272  -2.5258  -2.5142  -2.4753  -2.4676  -2.4244  -2.4093
    -2.3537  -2.3535  -2.3338  -2.3129  -2.2707  -2.2303  -2.1916  -2.1534
    -2.1514  -2.1193  -2.1151  -2.1085  -2.0915  -1.9990  -1.9294  -1.9027
    -1.6514  -1.2244   0.0512   0.5747   1.1117   2.4602   2.6331   3.3244
     3.5814   3.9553   3.9869   4.0209   4.8581   5.3534   5.4483

          k = 0.0451-0.0749 0.0000 ( 31125 PWs)   bands (ev):

    -6.4223  -5.8703  -5.7094  -5.6702  -5.6172  -5.5956  -5.4998  -5.4536
    -5.2636  -5.2286  -5.2142  -5.1305  -4.9740  -4.9698  -4.8236  -4.8200
    -4.7859  -4.7467  -4.7072  -4.6589  -4.6271  -4.6209  -4.5926  -4.5305
    -4.4968  -4.4960  -4.4268  -4.3651  -4.3457  -4.3273  -4.1515  -3.9106
    -3.8602  -3.7736  -2.9529  -2.9108  -2.8509  -2.7805  -2.7635  -2.7091
    -2.5493  -2.5391  -2.5142  -2.4579  -2.4516  -2.4175  -2.4078  -2.3880
    -2.3749  -2.3557  -2.3525  -2.3079  -2.2772  -2.2529  -2.1934  -2.1492
    -2.1294  -2.1107  -2.1046  -2.0882  -2.0452  -2.0079  -1.9184  -1.8922
    -1.2675  -1.2003  -0.3297   1.0898   1.1836   2.0097   2.3644   2.8253
     3.7609   3.9780   4.0554   4.4122   4.7194   5.1125   5.1281

          k = 0.0451-0.0579 0.0000 ( 31124 PWs)   bands (ev):

    -6.7079  -5.9512  -5.8087  -5.7754  -5.6279  -5.6154  -5.5711  -5.4315
    -5.4289  -5.2589  -5.1513  -5.1115  -5.0871  -4.9776  -4.9464  -4.9089
    -4.8408  -4.7474  -4.6451  -4.6344  -4.6189  -4.5610  -4.5176  -4.4838
    -4.4645  -4.4593  -4.4093  -4.3734  -4.2509  -4.2295  -4.1770  -3.9928
    -3.7112  -3.4651  -2.9069  -2.8543  -2.8004  -2.7684  -2.7352  -2.5916
    -2.5876  -2.5065  -2.4394  -2.4291  -2.4163  -2.3851  -2.3838  -2.3835
    -2.3417  -2.3293  -2.3253  -2.3122  -2.2364  -2.2315  -2.1741  -2.1494
    -2.1066  -2.0905  -2.0838  -2.0835  -2.0494  -2.0004  -1.9321  -1.5580
    -1.2136  -0.6425  -0.6204   1.2225   1.4641   1.6173   1.7665   2.5852
     3.2412   4.1511   4.1565   4.5814   4.7128   4.7579   5.2050

          k = 0.0451-0.0409 0.0000 ( 31151 PWs)   bands (ev):

    -6.9434  -6.0281  -5.9044  -5.8914  -5.7060  -5.6691  -5.6055  -5.5676
    -5.4131  -5.3138  -5.2338  -5.2271  -5.1927  -5.1059  -4.9666  -4.9246
    -4.8113  -4.7525  -4.6531  -4.6317  -4.5567  -4.4973  -4.4568  -4.4536
    -4.4390  -4.3756  -4.3554  -4.3140  -4.2222  -4.1296  -3.9913  -3.9519
    -3.4714  -3.1540  -2.9066  -2.8391  -2.8040  -2.7346  -2.7229  -2.6476
    -2.5646  -2.5582  -2.4820  -2.4054  -2.3690  -2.3638  -2.3460  -2.3119
    -2.2808  -2.2807  -2.2680  -2.2381  -2.2140  -2.1745  -2.1549  -2.1198
    -2.1041  -2.0662  -2.0613  -2.0450  -2.0002  -1.9864  -1.9613  -1.1722
    -0.9545  -0.8885   0.1182   0.6569   1.1670   1.3785   1.9342   2.3716
     3.1467   3.9425   4.3605   4.4199   4.4751   4.5219   4.9521

          k = 0.0601-0.0318 0.0000 ( 31112 PWs)   bands (ev):

    -6.8138  -6.0030  -5.8798  -5.8417  -5.6632  -5.6243  -5.5976  -5.5448
    -5.4075  -5.3130  -5.2360  -5.2160  -5.1653  -5.1046  -4.9709  -4.9404
    -4.8039  -4.7437  -4.6759  -4.6026  -4.5835  -4.4842  -4.4694  -4.4331
    -4.4226  -4.3904  -4.3654  -4.2850  -4.2273  -4.0830  -3.9767  -3.9554
    -3.6124  -3.1645  -2.9273  -2.8454  -2.8363  -2.8084  -2.7718  -2.6510
    -2.6087  -2.5616  -2.5240  -2.4509  -2.4149  -2.3970  -2.3716  -2.3481
    -2.3178  -2.3045  -2.2909  -2.2658  -2.2278  -2.2211  -2.1781  -2.1637
    -2.1406  -2.0828  -2.0815  -2.0552  -2.0483  -1.9876  -1.9742  -1.5041
    -0.7649  -0.2728  -0.2048   0.9058   1.0423   1.0800   1.3749   2.9033
     3.2533   3.9561   4.0751   4.2483   4.6481   4.7632   5.0895

          k = 0.0601-0.0148 0.0000 ( 31093 PWs)   bands (ev):

    -6.9265  -6.0199  -5.9541  -5.8724  -5.7801  -5.6993  -5.5845  -5.5640
    -5.4237  -5.3830  -5.3443  -5.3027  -5.3021  -5.1056  -5.0353  -4.8798
    -4.7379  -4.7178  -4.6620  -4.6421  -4.5675  -4.4987  -4.4293  -4.3916
    -4.3410  -4.3270  -4.2971  -4.1728  -4.1439  -4.0053  -3.9413  -3.7265
    -3.3517  -2.9900  -2.9790  -2.9080  -2.8559  -2.8334  -2.7701  -2.7216
    -2.6364  -2.6091  -2.5137  -2.4896  -2.4388  -2.4106  -2.3576  -2.3441
    -2.3100  -2.2937  -2.2778  -2.2600  -2.2176  -2.1900  -2.1558  -2.1362
    -2.0684  -2.0529  -2.0453  -2.0359  -2.0101  -1.9824  -1.9116  -1.1715
    -0.9520  -0.8458   0.2981   0.5656   1.1813   1.3412   1.6902   2.4003
     2.6081   3.9724   4.2178   4.3358   4.5269   4.6963   4.9608

          k = 0.0601 0.0022 0.0000 ( 31113 PWs)   bands (ev):

    -6.9618  -6.0383  -5.9738  -5.8957  -5.8640  -5.7598  -5.6012  -5.5667
    -5.5232  -5.3739  -5.3581  -5.3468  -5.3433  -5.1212  -5.0834  -4.8112
    -4.7323  -4.7051  -4.6962  -4.5412  -4.5379  -4.5085  -4.4559  -4.3536
    -4.3024  -4.2276  -4.1842  -4.1005  -4.0768  -3.9823  -3.8699  -3.5303
    -3.1636  -3.1017  -2.9704  -2.9173  -2.9085  -2.8359  -2.7776  -2.7296
    -2.6727  -2.6652  -2.5493  -2.4788  -2.4768  -2.4541  -2.4004  -2.3461
    -2.2999  -2.2973  -2.2876  -2.2539  -2.2454  -2.2246  -2.1350  -2.1058
    -2.0999  -2.0663  -2.0386  -1.9935  -1.9827  -1.8972  -1.6437  -1.5038
    -0.9093  -0.6676  -0.3822   1.0901   1.1218   1.6697   1.7687   2.0325
     2.2284   3.9286   3.9441   4.4917   4.6680   4.9258   4.9472

          k = 0.0601 0.0192 0.0000 ( 31125 PWs)   bands (ev):

    -6.9175  -6.0500  -5.9557  -5.9487  -5.8510  -5.7913  -5.6519  -5.5990
    -5.4814  -5.3926  -5.3548  -5.3240  -5.3140  -5.1789  -5.0590  -4.7785
    -4.7490  -4.6985  -4.6937  -4.5171  -4.5002  -4.4804  -4.4304  -4.3231
    -4.2849  -4.1372  -4.1045  -4.0564  -4.0511  -3.9564  -3.8054  -3.4088
    -3.2679  -3.1047  -3.0198  -2.9776  -2.9483  -2.8225  -2.8009  -2.7292
    -2.7123  -2.6833  -2.6152  -2.5240  -2.5136  -2.4518  -2.4352  -2.3694
    -2.3421  -2.3102  -2.2991  -2.2978  -2.2689  -2.2173  -2.1587  -2.1291
    -2.1190  -2.0875  -2.0392  -1.9665  -1.9572  -1.9043  -1.8597  -1.1624
    -0.9523  -0.8430  -0.0389   0.2869   1.2009   1.5093   1.5587   2.2767
     2.6672   3.9900   4.1351   4.4926   4.5601   4.6654   4.9138

          k = 0.0601 0.0362 0.0000 ( 31099 PWs)   bands (ev):

    -6.7959  -6.0373  -5.9762  -5.8984  -5.8186  -5.7811  -5.6619  -5.5838
    -5.4548  -5.3721  -5.3521  -5.3017  -5.2427  -5.2079  -5.0396  -4.7772
    -4.7510  -4.6962  -4.6865  -4.5058  -4.5020  -4.4601  -4.3846  -4.3067
    -4.2657  -4.0973  -4.0738  -4.0354  -4.0254  -3.9437  -3.7770  -3.4799
    -3.3665  -3.1612  -3.0466  -3.0177  -3.0056  -2.8513  -2.7955  -2.7720
    -2.7483  -2.7080  -2.6686  -2.5748  -2.5570  -2.4727  -2.4518  -2.4296
    -2.3993  -2.3481  -2.3393  -2.3086  -2.3063  -2.2158  -2.1846  -2.1473
    -2.1289  -2.1208  -2.0946  -2.0321  -1.9535  -1.9502  -1.8472  -1.3241
    -0.7253  -0.6442  -0.4123   0.5830   0.8287   1.1885   1.4155   2.7628
     2.9757   4.0449   4.1458   4.1700   4.6967   4.7475   5.4294

          k = 0.0601 0.0532 0.0000 ( 31077 PWs)   bands (ev):

    -6.6041  -5.9982  -5.9504  -5.8281  -5.7833  -5.7217  -5.6052  -5.5490
    -5.4529  -5.3628  -5.3208  -5.2875  -5.1926  -5.1779  -5.0431  -4.8218
    -4.7308  -4.6860  -4.6750  -4.5198  -4.5006  -4.4652  -4.3910  -4.3011
    -4.2520  -4.1027  -4.0852  -4.0364  -4.0059  -3.9724  -3.7956  -3.6686
    -3.4218  -3.3046  -3.0587  -3.0412  -3.0216  -2.8602  -2.8487  -2.7891
    -2.7833  -2.7478  -2.7205  -2.6278  -2.5773  -2.5368  -2.5234  -2.4350
    -2.4212  -2.3803  -2.3519  -2.3381  -2.3077  -2.2654  -2.1944  -2.1749
    -2.1619  -2.1235  -2.0842  -2.0376  -1.9662  -1.9588  -1.8607  -1.5262
    -1.1819  -0.5202  -0.0856   0.2170   0.9195   1.5375   1.7462   2.2390
     3.4167   3.7551   4.3228   4.3348   4.9331   5.1611   5.4730

          k = 0.0601-0.1339 0.0000 ( 31086 PWs)   bands (ev):

    -6.3571  -5.9348  -5.8878  -5.7482  -5.7433  -5.6212  -5.5049  -5.4976
    -5.4768  -5.3862  -5.3081  -5.2191  -5.1531  -5.1456  -5.0713  -4.9112
    -4.7165  -4.6797  -4.6589  -4.5793  -4.5079  -4.4776  -4.4080  -4.3087
    -4.2605  -4.1948  -4.1456  -4.0557  -4.0514  -3.9859  -3.8494  -3.7147
    -3.6400  -3.4837  -3.0862  -3.0042  -2.9849  -2.9499  -2.8792  -2.8348
    -2.8002  -2.7638  -2.7412  -2.6503  -2.5803  -2.5550  -2.5162  -2.4547
    -2.4251  -2.3736  -2.3560  -2.3334  -2.3119  -2.3036  -2.2056  -2.1707
    -2.1679  -2.1241  -2.0530  -2.0282  -1.9928  -1.9821  -1.8989  -1.6278
    -1.6078  -0.7583  -0.2406   0.7356   1.0365   1.5809   2.1794   2.4271
     3.5134   3.5920   4.4953   4.6163   4.8057   5.2588   5.3264

          k = 0.0601-0.1169 0.0000 ( 31023 PWs)   bands (ev):

    -6.0831  -5.8511  -5.8271  -5.6964  -5.6943  -5.5670  -5.5340  -5.4391
    -5.3749  -5.3246  -5.3148  -5.1619  -5.1263  -5.0922  -5.0732  -5.0465
    -4.7641  -4.7033  -4.6350  -4.6242  -4.5142  -4.5002  -4.4133  -4.3438
    -4.3369  -4.3034  -4.2201  -4.1426  -4.0879  -4.0038  -3.9529  -3.9455
    -3.7026  -3.5662  -3.1939  -3.0425  -2.9454  -2.9286  -2.8913  -2.8718
    -2.7949  -2.7573  -2.6420  -2.6235  -2.5732  -2.5405  -2.4702  -2.4383
    -2.4244  -2.3564  -2.3517  -2.2985  -2.2938  -2.2815  -2.2343  -2.1623
    -2.1614  -2.1148  -2.0620  -2.0414  -2.0205  -1.9741  -1.9083  -1.8880
    -1.6385  -1.2995   0.1153   0.6263   0.9843   1.9484   2.6988   3.3512
     3.3612   3.5917   3.8306   4.7032   4.9807   5.2001   5.5648

          k = 0.0601-0.0999 0.0000 ( 31031 PWs)   bands (ev):

    -5.8676  -5.8556  -5.8086  -5.7552  -5.5931  -5.5181  -5.4858  -5.4617
    -5.3639  -5.2947  -5.1734  -5.1252  -5.1028  -5.0696  -5.0283  -4.9877
    -4.8370  -4.7813  -4.6542  -4.5866  -4.5771  -4.5090  -4.4999  -4.4252
    -4.4029  -4.3816  -4.3106  -4.2225  -4.1435  -4.1162  -4.0840  -3.9884
    -3.9455  -3.4614  -3.3501  -2.9999  -2.9075  -2.8793  -2.8717  -2.7982
    -2.7867  -2.7037  -2.5717  -2.5606  -2.5370  -2.5088  -2.4364  -2.4168
    -2.3866  -2.3604  -2.3284  -2.2911  -2.2792  -2.2274  -2.2029  -2.1545
    -2.1459  -2.1088  -2.0940  -2.0792  -2.0740  -2.0608  -1.9698  -1.6909
    -1.6738  -1.6382   0.4759   0.5089   0.6289   2.9329   3.1410   3.2535
     3.3393   3.5371   3.6571   4.2942   5.1011   5.2339   5.4015

          k = 0.0601-0.0829 0.0000 ( 31040 PWs)   bands (ev):

    -6.1249  -5.8697  -5.7080  -5.6649  -5.6065  -5.5035  -5.4463  -5.4316
    -5.3665  -5.3077  -5.1894  -5.0974  -4.9659  -4.9522  -4.8904  -4.8725
    -4.8563  -4.8423  -4.6948  -4.6630  -4.6070  -4.5856  -4.5196  -4.5107
    -4.4484  -4.4214  -4.4161  -4.3259  -4.3188  -4.2187  -4.1002  -4.0590
    -3.8618  -3.7101  -3.1414  -2.9364  -2.9012  -2.8138  -2.7948  -2.7795
    -2.6904  -2.6272  -2.5258  -2.5142  -2.4753  -2.4676  -2.4244  -2.4093
    -2.3537  -2.3535  -2.3338  -2.3129  -2.2707  -2.2303  -2.1916  -2.1534
    -2.1514  -2.1193  -2.1151  -2.1085  -2.0915  -1.9990  -1.9294  -1.9027
    -1.6514  -1.2244   0.0512   0.5747   1.1117   2.4602   2.6331   3.3244
     3.5814   3.9553   3.9869   4.0209   4.8582   5.3538   5.4482

          k = 0.0601-0.0659 0.0000 ( 31096 PWs)   bands (ev):

    -6.3929  -5.9239  -5.7056  -5.6624  -5.6135  -5.5954  -5.4988  -5.4594
    -5.2700  -5.2227  -5.2128  -5.1355  -4.9761  -4.9760  -4.8227  -4.8080
    -4.7865  -4.7366  -4.7066  -4.6612  -4.6283  -4.6152  -4.5905  -4.5355
    -4.4886  -4.4870  -4.4273  -4.3704  -4.3362  -4.3192  -4.1742  -4.0048
    -3.8656  -3.6368  -2.9761  -2.9047  -2.8549  -2.7793  -2.7753  -2.6921
    -2.5616  -2.5516  -2.5196  -2.4754  -2.4494  -2.4414  -2.4137  -2.3892
    -2.3759  -2.3546  -2.3378  -2.3126  -2.3023  -2.2570  -2.1932  -2.1884
    -2.1314  -2.1110  -2.1045  -2.0921  -2.0648  -2.0445  -1.9986  -1.7143
    -1.4865  -0.6235  -0.2947   0.6529   1.5084   1.7338   2.1012   2.8662
     3.4489   3.8721   4.5305   4.6505   4.9533   5.1575   5.3357

          k = 0.0601-0.0488 0.0000 ( 31136 PWs)   bands (ev):

    -6.6310  -5.9717  -5.7845  -5.7670  -5.6246  -5.5931  -5.5628  -5.4321
    -5.4168  -5.2690  -5.1506  -5.1109  -5.0848  -4.9749  -4.9323  -4.9009
    -4.8520  -4.7405  -4.6632  -4.6343  -4.6047  -4.5477  -4.5358  -4.4715
    -4.4660  -4.4427  -4.3900  -4.3838  -4.2688  -4.2364  -4.1727  -3.9327
    -3.8562  -3.3953  -2.9036  -2.8789  -2.8172  -2.7864  -2.7655  -2.6079
    -2.5892  -2.5289  -2.4704  -2.4697  -2.4228  -2.4122  -2.3989  -2.3924
    -2.3467  -2.3444  -2.3224  -2.3139  -2.2719  -2.2431  -2.1931  -2.1699
    -2.1574  -2.1040  -2.0980  -2.0718  -2.0670  -2.0183  -1.9884  -1.6536
    -0.9773  -0.5664   0.1061   0.6073   0.8005   1.6837   1.9481   2.4131
     3.6622   3.7987   4.2572   4.6508   4.8760   5.0799   5.4680

          k = 0.0752-0.0398 0.0000 ( 31130 PWs)   bands (ev):

    -6.4845  -6.0095  -5.7497  -5.7418  -5.6178  -5.5634  -5.5395  -5.4359
    -5.3890  -5.2905  -5.1544  -5.1051  -5.0778  -4.9672  -4.9152  -4.8825
    -4.8652  -4.7379  -4.6994  -4.6336  -4.5915  -4.5286  -4.5265  -4.4697
    -4.4639  -4.4289  -4.4100  -4.3564  -4.2882  -4.2412  -4.1731  -4.0171
    -3.8225  -3.3845  -2.9635  -2.9352  -2.8138  -2.7952  -2.7842  -2.6522
    -2.5977  -2.5845  -2.5542  -2.4906  -2.4713  -2.4135  -2.4057  -2.3944
    -2.3771  -2.3570  -2.3507  -2.3172  -2.2920  -2.2634  -2.2447  -2.2305
    -2.1555  -2.1279  -2.0849  -2.0623  -2.0578  -1.9982  -1.9815  -1.8381
    -0.4215  -0.2832  -0.2386   0.4761   0.9506   1.0213   1.9406   3.1416
     3.2538   3.2764   4.4291   4.8040   5.0600   5.3707   5.4484

          k = 0.0752-0.0228 0.0000 ( 31081 PWs)   bands (ev):

    -6.6081  -5.9646  -5.8434  -5.7730  -5.6391  -5.5856  -5.5379  -5.4983
    -5.4035  -5.3224  -5.2347  -5.1915  -5.1354  -5.0957  -4.9860  -4.9578
    -4.7963  -4.7420  -4.6895  -4.6048  -4.5668  -4.4996  -4.4631  -4.4366
    -4.4150  -4.3973  -4.3447  -4.2480  -4.2283  -4.0666  -4.0265  -3.8666
    -3.7811  -3.2030  -3.0590  -2.9251  -2.8547  -2.8327  -2.7886  -2.6773
    -2.6649  -2.6012  -2.5583  -2.5555  -2.4795  -2.4227  -2.4221  -2.3771
    -2.3543  -2.3424  -2.3342  -2.3014  -2.2619  -2.2400  -2.2398  -2.1477
    -2.1403  -2.0816  -2.0704  -2.0652  -2.0605  -2.0038  -1.9629  -1.6479
    -0.9543  -0.5497   0.2115   0.5400   0.7735   1.7101   1.8148   2.5344
     3.1568   3.6198   4.2873   4.4609   4.8926   5.1176   5.3083

          k = 0.0752-0.0058 0.0000 ( 31098 PWs)   bands (ev):

    -6.6705  -5.9417  -5.8923  -5.7923  -5.7501  -5.6100  -5.5375  -5.5031
    -5.4090  -5.3836  -5.3328  -5.2589  -5.2529  -5.0999  -5.0525  -4.9096
    -4.7335  -4.7314  -4.6489  -4.6243  -4.5555  -4.5170  -4.4622  -4.3608
    -4.3288  -4.3143  -4.2742  -4.1400  -4.1346  -3.9602  -3.9048  -3.7778
    -3.5418  -3.2151  -3.0356  -2.9558  -2.9233  -2.8915  -2.7858  -2.7326
    -2.7091  -2.6598  -2.6068  -2.5518  -2.5177  -2.4604  -2.4552  -2.3834
    -2.3552  -2.3376  -2.3150  -2.3002  -2.2770  -2.2544  -2.1871  -2.1215
    -2.1033  -2.0725  -2.0476  -2.0348  -2.0306  -1.9809  -1.9044  -1.5056
    -1.2687  -0.6310  -0.4893   1.1522   1.4444   1.5971   1.8878   2.1343
     2.6726   4.0494   4.2205   4.2220   4.7888   4.8353   5.2325

          k = 0.0752 0.0112 0.0000 ( 31086 PWs)   bands (ev):

    -6.6685  -5.9764  -5.8740  -5.8650  -5.7783  -5.6737  -5.5516  -5.5279
    -5.4844  -5.3764  -5.3317  -5.2877  -5.2373  -5.1349  -5.0765  -4.8471
    -4.7174  -4.7073  -4.6910  -4.5537  -4.5250  -4.4918  -4.4602  -4.3230
    -4.2852  -4.2024  -4.1601  -4.0739  -4.0465  -3.9544  -3.8623  -3.5641
    -3.4260  -3.3697  -3.0099  -2.9894  -2.9625  -2.9081  -2.7957  -2.7745
    -2.7381  -2.7294  -2.6714  -2.5724  -2.5383  -2.5030  -2.4986  -2.4062
    -2.3774  -2.3370  -2.3263  -2.3017  -2.3002  -2.2805  -2.1738  -2.1451
    -2.1423  -2.0881  -2.0625  -1.9961  -1.9838  -1.8985  -1.8788  -1.6407
    -1.0974  -0.7354  -0.6038   1.0903   1.3473   1.6106   1.6492   2.2747
     2.7025   4.1843   4.3022   4.3986   4.6056   4.8315   4.9639

          k = 0.0752 0.0283 0.0000 ( 31077 PWs)   bands (ev):

    -6.6041  -5.9982  -5.9504  -5.8281  -5.7833  -5.7217  -5.6052  -5.5490
    -5.4529  -5.3628  -5.3208  -5.2875  -5.1926  -5.1779  -5.0431  -4.8218
    -4.7308  -4.6860  -4.6750  -4.5198  -4.5006  -4.4652  -4.3910  -4.3011
    -4.2520  -4.1027  -4.0852  -4.0364  -4.0059  -3.9724  -3.7956  -3.6686
    -3.4218  -3.3046  -3.0587  -3.0412  -3.0216  -2.8602  -2.8487  -2.7891
    -2.7833  -2.7478  -2.7205  -2.6278  -2.5773  -2.5368  -2.5234  -2.4350
    -2.4212  -2.3803  -2.3519  -2.3381  -2.3077  -2.2654  -2.1944  -2.1749
    -2.1619  -2.1235  -2.0842  -2.0376  -1.9662  -1.9588  -1.8607  -1.5262
    -1.1819  -0.5202  -0.0856   0.2170   0.9195   1.5375   1.7462   2.2390
     3.4167   3.7551   4.3228   4.3347   4.9331   5.1609   5.4728

          k = 0.0752 0.0453 0.0000 ( 31094 PWs)   bands (ev):

    -6.4853  -5.9960  -5.9893  -5.7907  -5.7848  -5.7257  -5.5963  -5.5411
    -5.4521  -5.3420  -5.3012  -5.2783  -5.2177  -5.1407  -5.0224  -4.8309
    -4.7350  -4.6776  -4.6232  -4.4898  -4.4819  -4.4464  -4.3507  -4.2881
    -4.2259  -4.1127  -4.0478  -4.0233  -3.9837  -3.9508  -3.8842  -3.7688
    -3.3617  -3.3404  -3.1002  -3.0665  -3.0487  -2.9181  -2.8517  -2.8243
    -2.8180  -2.7472  -2.7418  -2.6701  -2.6175  -2.5909  -2.5440  -2.4655
    -2.4473  -2.4089  -2.3913  -2.3653  -2.3112  -2.2417  -2.2094  -2.1953
    -2.1719  -2.1608  -2.1386  -2.0387  -1.9568  -1.9507  -1.8477  -1.7626
    -0.6813  -0.4399  -0.3606   0.5362   0.5960   0.8310   1.9999   2.7724
     3.1322   3.3529   4.4998   4.9327   5.1248   5.4705   5.4991

          k = 0.0752-0.1419 0.0000 ( 31075 PWs)   bands (ev):

    -6.3281  -5.9875  -5.9693  -5.7829  -5.7308  -5.6801  -5.5461  -5.5160
    -5.4732  -5.3535  -5.2949  -5.2400  -5.2010  -5.1383  -5.0339  -4.8648
    -4.7196  -4.6831  -4.5774  -4.4998  -4.4914  -4.4629  -4.3450  -4.2875
    -4.2220  -4.1462  -4.0711  -4.0497  -4.0298  -3.9756  -3.8994  -3.7856
    -3.4751  -3.3832  -3.1216  -3.0551  -3.0303  -2.9585  -2.8790  -2.8343
    -2.8069  -2.7958  -2.7691  -2.7034  -2.6185  -2.6059  -2.5436  -2.4875
    -2.4459  -2.4098  -2.3963  -2.3720  -2.3097  -2.2876  -2.2148  -2.1820
    -2.1775  -2.1608  -2.1133  -2.0427  -1.9705  -1.9583  -1.8607  -1.8440
    -1.1845  -0.1265  -0.1036   0.1844   0.3679   1.5387   2.2089   2.3598
     3.0401   3.7514   4.7460   4.9234   5.1648   5.2446   5.9013

          k = 0.0752-0.1248 0.0000 ( 31072 PWs)   bands (ev):

    -6.1689  -5.9425  -5.9198  -5.7521  -5.6681  -5.5993  -5.5373  -5.4769
    -5.4546  -5.3875  -5.2988  -5.1768  -5.1587  -5.1474  -5.0701  -4.9370
    -4.7199  -4.6737  -4.6128  -4.5851  -4.5003  -4.4769  -4.3254  -4.3044
    -4.2535  -4.2504  -4.1388  -4.1101  -4.0499  -4.0001  -3.8852  -3.7396
    -3.6890  -3.5057  -3.1143  -3.0102  -2.9856  -2.9550  -2.9440  -2.8930
    -2.8110  -2.7875  -2.7343  -2.6752  -2.5901  -2.5804  -2.5122  -2.4800
    -2.4378  -2.3842  -2.3777  -2.3401  -2.3165  -2.3033  -2.2187  -2.1762
    -2.1747  -2.1501  -2.0606  -2.0063  -1.9932  -1.9812  -1.8990  -1.8343
    -1.6222  -0.7634   0.1378   0.2728   1.0160   1.5580   2.4440   2.7742
     2.8638   4.3884   4.4715   4.8512   4.9433   5.0467   5.1047

          k = 0.0752-0.1078 0.0000 ( 31023 PWs)   bands (ev):

    -6.0831  -5.8511  -5.8271  -5.6964  -5.6943  -5.5670  -5.5340  -5.4391
    -5.3749  -5.3246  -5.3148  -5.1619  -5.1263  -5.0922  -5.0732  -5.0465
    -4.7641  -4.7033  -4.6350  -4.6242  -4.5142  -4.5002  -4.4133  -4.3438
    -4.3369  -4.3034  -4.2201  -4.1426  -4.0879  -4.0038  -3.9529  -3.9455
    -3.7026  -3.5662  -3.1939  -3.0425  -2.9454  -2.9286  -2.8913  -2.8718
    -2.7949  -2.7573  -2.6420  -2.6235  -2.5732  -2.5405  -2.4702  -2.4383
    -2.4244  -2.3564  -2.3517  -2.2985  -2.2938  -2.2815  -2.2343  -2.1623
    -2.1614  -2.1148  -2.0620  -2.0414  -2.0205  -1.9741  -1.9083  -1.8880
    -1.6385  -1.2995   0.1153   0.6263   0.9843   1.9484   2.6987   3.3512
     3.3612   3.5917   3.8305   4.7032   4.9810   5.2001   5.5662

          k = 0.0752-0.0908 0.0000 ( 31076 PWs)   bands (ev):

    -6.0677  -5.8826  -5.7690  -5.7107  -5.5990  -5.5450  -5.4708  -5.4489
    -5.3603  -5.3219  -5.2082  -5.1067  -5.0777  -5.0735  -5.0707  -4.9768
    -4.8079  -4.7826  -4.6613  -4.5876  -4.5791  -4.5105  -4.5005  -4.4297
    -4.3985  -4.3683  -4.3324  -4.1965  -4.1742  -4.1564  -4.0897  -3.9360
    -3.8427  -3.4159  -3.3706  -2.9977  -2.8745  -2.8738  -2.8412  -2.7890
    -2.7881  -2.6912  -2.5760  -2.5656  -2.5576  -2.4930  -2.4330  -2.4154
    -2.3924  -2.3446  -2.3214  -2.2975  -2.2679  -2.2652  -2.2453  -2.1440
    -2.1337  -2.1108  -2.1029  -2.0786  -2.0734  -1.9722  -1.9679  -1.8141
    -1.6913  -1.2043   0.1047   0.5061   1.1326   2.4632   2.6858   2.9883
     3.2208   3.7769   3.9702   4.7294   4.8121   4.9655   5.3535

          k = 0.0752-0.0738 0.0000 ( 31089 PWs)   bands (ev):

    -6.0993  -6.0632  -5.6922  -5.6719  -5.6034  -5.5225  -5.4641  -5.4359
    -5.3474  -5.3184  -5.1857  -5.0911  -5.0298  -4.9524  -4.8852  -4.8711
    -4.8449  -4.8060  -4.7164  -4.6267  -4.6075  -4.5634  -4.5118  -4.4967
    -4.4649  -4.4285  -4.4201  -4.3212  -4.2812  -4.2319  -4.1698  -4.1317
    -3.6962  -3.6189  -3.1728  -2.9484  -2.8500  -2.8124  -2.7810  -2.7455
    -2.7038  -2.6241  -2.5508  -2.5157  -2.5117  -2.4525  -2.4229  -2.4057
    -2.3628  -2.3535  -2.3326  -2.3092  -2.2726  -2.2624  -2.2383  -2.2328
    -2.1508  -2.1148  -2.1022  -2.0932  -2.0728  -1.9922  -1.9278  -1.9240
    -1.4931  -0.6055   0.1169   0.1583   1.4796   1.7413   2.7017   2.7747
     2.8750   4.0430   4.6354   4.7702   4.9930   5.0294   5.3346

          k = 0.0752-0.0568 0.0000 ( 31111 PWs)   bands (ev):

    -6.3091  -6.0451  -5.6947  -5.6649  -5.6029  -5.5949  -5.4950  -5.4730
    -5.2724  -5.2430  -5.1855  -5.1461  -4.9844  -4.9809  -4.8230  -4.8041
    -4.7621  -4.7240  -4.7068  -4.6802  -4.6233  -4.6093  -4.5779  -4.5479
    -4.4617  -4.4591  -4.4245  -4.3817  -4.3139  -4.3018  -4.2239  -4.1525
    -3.7510  -3.5487  -3.0149  -2.9295  -2.8228  -2.7842  -2.7791  -2.6670
    -2.6223  -2.5829  -2.5272  -2.5135  -2.4474  -2.4471  -2.4151  -2.3912
    -2.3767  -2.3586  -2.3426  -2.3261  -2.3233  -2.2741  -2.2579  -2.2447
    -2.1732  -2.1243  -2.0830  -2.0714  -2.0426  -2.0343  -1.9784  -1.9000
    -0.9717  -0.1883   0.1105   0.2917   0.5671   1.9133   2.2789   2.4371
     2.9640   4.0613   4.6453   5.1461   5.2449   5.3129   5.3364

          k =-0.0902 0.0477 0.0000 ( 31136 PWs)   bands (ev):

    -6.1851  -6.1851  -5.6792  -5.6792  -5.5962  -5.5961  -5.4864  -5.4864
    -5.2626  -5.2626  -5.1618  -5.1618  -4.9854  -4.9854  -4.8149  -4.8149
    -4.7321  -4.7321  -4.7006  -4.7006  -4.6135  -4.6135  -4.5626  -4.5626
    -4.4407  -4.4407  -4.4049  -4.4049  -4.2834  -4.2834  -4.2476  -4.2476
    -3.6128  -3.6128  -2.9898  -2.9898  -2.7826  -2.7826  -2.7388  -2.7388
    -2.6196  -2.6196  -2.5269  -2.5269  -2.4482  -2.4482  -2.3968  -2.3968
    -2.3669  -2.3669  -2.3509  -2.3509  -2.3283  -2.3283  -2.2601  -2.2601
    -2.1491  -2.1491  -2.0676  -2.0676  -2.0334  -2.0334  -1.9571  -1.9571
    -0.2790  -0.2790   0.0058   0.0058   0.9791   0.9791   2.5681   2.5682
     3.2380   3.2380   4.8612   4.8613   5.5488   5.6015   5.6180

          k =-0.0902 0.0648 0.0000 ( 31126 PWs)   bands (ev):

    -6.2850  -6.0564  -5.7238  -5.6948  -5.6089  -5.5433  -5.4986  -5.4376
    -5.3522  -5.3192  -5.1679  -5.0918  -5.0666  -4.9581  -4.9002  -4.8721
    -4.8595  -4.7565  -4.7207  -4.6286  -4.5976  -4.5171  -4.5163  -4.4755
    -4.4734  -4.4288  -4.4278  -4.3296  -4.2802  -4.2381  -4.1773  -4.1314
    -3.7036  -3.4807  -3.0959  -2.9599  -2.8067  -2.7855  -2.7560  -2.7531
    -2.6687  -2.6082  -2.5861  -2.5046  -2.4994  -2.4380  -2.4022  -2.3992
    -2.3860  -2.3643  -2.3480  -2.3263  -2.3005  -2.2749  -2.2557  -2.2369
    -2.1430  -2.1292  -2.0868  -2.0703  -2.0535  -1.9901  -1.9816  -1.9013
    -0.9636  -0.1748   0.1624   0.2511   0.5491   1.8734   2.3064   2.4770
     2.9265   3.8462   4.6618   4.6810   5.1175   5.3341   5.3781

          k =-0.0902 0.0818 0.0000 ( 31113 PWs)   bands (ev):

    -6.3466  -5.9201  -5.8028  -5.7122  -5.6162  -5.5694  -5.4940  -5.4127
    -5.4019  -5.3452  -5.2293  -5.1434  -5.1137  -5.0819  -5.0196  -4.9699
    -4.7895  -4.7637  -4.6800  -4.6037  -4.5425  -4.5356  -4.4770  -4.4435
    -4.4026  -4.3678  -4.3449  -4.2161  -4.2000  -4.1124  -4.0730  -3.8931
    -3.7770  -3.3042  -3.2746  -2.9830  -2.8649  -2.8227  -2.7953  -2.7769
    -2.7251  -2.6509  -2.6230  -2.5578  -2.5337  -2.4651  -2.4258  -2.3975
    -2.3966  -2.3557  -2.3097  -2.3069  -2.2912  -2.2638  -2.2561  -2.1375
    -2.1187  -2.0985  -2.0825  -2.0733  -2.0691  -2.0135  -1.9635  -1.6860
    -1.4967  -0.5735  -0.2580   0.5995   1.4653   1.7908   2.1540   2.7421
     3.1377   3.3732   4.5616   4.7150   4.8103   5.2302   5.2547

          k =-0.0902 0.0988 0.0000 ( 31068 PWs)   bands (ev):

    -6.3684  -5.8816  -5.7990  -5.7662  -5.7090  -5.5642  -5.5311  -5.4177
    -5.4123  -5.3685  -5.3217  -5.1988  -5.1914  -5.0938  -5.0634  -4.9728
    -4.7440  -4.7228  -4.6362  -4.6239  -4.5326  -4.5214  -4.4596  -4.3428
    -4.3246  -4.3035  -4.2533  -4.1272  -4.1074  -3.9784  -3.8736  -3.8485
    -3.6617  -3.4965  -3.1204  -3.0258  -2.9360  -2.9101  -2.8148  -2.7970
    -2.7917  -2.7119  -2.6723  -2.5898  -2.5694  -2.5073  -2.4697  -2.4205
    -2.4064  -2.3484  -2.3316  -2.3066  -2.2961  -2.2876  -2.2130  -2.1417
    -2.1400  -2.0903  -2.0544  -2.0290  -2.0256  -1.9757  -1.8952  -1.8506
    -1.2950  -1.1688  -0.2861   1.0396   1.2095   1.9635   2.1099   2.5303
     3.2375   3.8981   4.0647   4.4333   4.5664   5.2006   5.5584

          k =-0.0902 0.1158 0.0000 ( 31086 PWs)   bands (ev):

    -6.3571  -5.9348  -5.8878  -5.7482  -5.7433  -5.6212  -5.5049  -5.4976
    -5.4768  -5.3862  -5.3081  -5.2191  -5.1531  -5.1456  -5.0713  -4.9112
    -4.7165  -4.6797  -4.6589  -4.5793  -4.5079  -4.4776  -4.4080  -4.3087
    -4.2605  -4.1948  -4.1456  -4.0557  -4.0514  -3.9859  -3.8494  -3.7147
    -3.6400  -3.4837  -3.0862  -3.0042  -2.9849  -2.9499  -2.8792  -2.8348
    -2.8002  -2.7638  -2.7412  -2.6503  -2.5803  -2.5550  -2.5162  -2.4547
    -2.4251  -2.3736  -2.3560  -2.3334  -2.3119  -2.3036  -2.2056  -2.1707
    -2.1679  -2.1241  -2.0530  -2.0282  -1.9928  -1.9821  -1.8989  -1.6278
    -1.6077  -0.7583  -0.2406   0.7356   1.0365   1.5809   2.1795   2.4271
     3.5135   3.5920   4.4954   4.6167   4.8058   5.2594   5.3265

          k =-0.0902 0.1328 0.0000 ( 31075 PWs)   bands (ev):

    -6.3281  -5.9875  -5.9693  -5.7829  -5.7308  -5.6801  -5.5461  -5.5160
    -5.4732  -5.3535  -5.2949  -5.2400  -5.2010  -5.1383  -5.0339  -4.8648
    -4.7196  -4.6831  -4.5774  -4.4998  -4.4914  -4.4629  -4.3450  -4.2875
    -4.2220  -4.1462  -4.0711  -4.0497  -4.0298  -3.9756  -3.8994  -3.7856
    -3.4751  -3.3832  -3.1216  -3.0551  -3.0303  -2.9585  -2.8790  -2.8343
    -2.8069  -2.7958  -2.7691  -2.7034  -2.6185  -2.6059  -2.5436  -2.4875
    -2.4459  -2.4098  -2.3963  -2.3720  -2.3097  -2.2876  -2.2148  -2.1820
    -2.1775  -2.1608  -2.1133  -2.0427  -1.9705  -1.9583  -1.8607  -1.8440
    -1.1845  -0.1265  -0.1036   0.1844   0.3679   1.5387   2.2089   2.3597
     3.0400   3.7514   4.7457   4.9234   5.1647   5.2436   5.4179

          k =-0.0902-0.0543 0.0000 ( 31046 PWs)   bands (ev):

    -6.3105  -6.0290  -5.9811  -5.7962  -5.7305  -5.7050  -5.5551  -5.5244
    -5.4664  -5.3384  -5.2694  -5.2688  -5.2197  -5.1396  -5.0157  -4.8517
    -4.7285  -4.6760  -4.5107  -4.4863  -4.4753  -4.4418  -4.3373  -4.2791
    -4.2060  -4.1714  -4.0418  -4.0396  -4.0226  -3.9654  -3.9541  -3.7657
    -3.4114  -3.3560  -3.1366  -3.0742  -3.0397  -3.0003  -2.8764  -2.8486
    -2.8349  -2.7640  -2.7377  -2.7310  -2.6428  -2.6413  -2.5540  -2.4996
    -2.4539  -2.4258  -2.4113  -2.3910  -2.3118  -2.2536  -2.2188  -2.1993
    -2.1797  -2.1774  -2.1530  -2.0392  -1.9578  -1.9505  -1.9063  -1.8477
    -0.6916  -0.4469   0.0087   0.1490   0.5211   0.8318   2.6053   2.6962
     2.7608   3.1653   4.9282   4.9849   5.6297   5.6309   5.6747

     the Fermi energy is    -0.2167 ev

!    total energy              =   -1254.33523552 Ry
     estimated scf accuracy    <       0.00000612 Ry
     smearing contrib. (-TS)   =      -0.01719801 Ry
     internal energy E=F+TS    =   -1254.31803751 Ry

     The total energy is F=E-TS. E is the sum of the following terms:
     one-electron contribution =   -9633.76747989 Ry
     hartree contribution      =    4933.30794582 Ry
     xc contribution           =    -414.69841491 Ry
     ewald contribution        =    3860.83991144 Ry
     electric field correction =       0.00000003 Ry

     convergence has been achieved in  10 iterations

     negative rho (up, down):  1.251E-04 0.000E+00

     Forces acting on atoms (cartesian axes, Ry/au):

     atom    1 type  1   force =     0.00501427    0.00301421    0.00933205
     atom    2 type  1   force =     0.00500628    0.00300851    0.00932356
     atom    3 type  2   force =    -0.00539465   -0.00324394   -0.00744953
     atom    4 type  2   force =    -0.00539100   -0.00324466   -0.00746054
     atom    5 type  1   force =    -0.00179610   -0.00107840    0.00201783
     atom    6 type  1   force =    -0.00178840   -0.00107666    0.00201656
     atom    7 type  2   force =     0.00450139    0.00270887   -0.00364194
     atom    8 type  2   force =     0.00449829    0.00270889   -0.00364484
     atom    9 type  1   force =    -0.00105056   -0.00062735   -0.00071177
     atom   10 type  1   force =    -0.00104561   -0.00063292   -0.00070382
     atom   11 type  2   force =    -0.00127689   -0.00077082    0.00046000
     atom   12 type  2   force =    -0.00127703   -0.00076573    0.00046244

     Total force =     0.023242     Total SCF correction =     0.009851
     SCF correction compared to forces is large: reduce conv_thr to get better values

     Writing output data file ./Cu2Ag2/Cu2Ag2_beef.save/

     init_run     :     83.67s CPU     84.25s WALL (       1 calls)
     electrons    :   1882.57s CPU   1895.64s WALL (       1 calls)
     forces       :     56.52s CPU     56.86s WALL (       1 calls)

     Called by init_run:
     wfcinit      :     71.21s CPU     71.53s WALL (       1 calls)
     potinit      :      8.49s CPU      8.59s WALL (       1 calls)
     hinit0       :      2.13s CPU      2.14s WALL (       1 calls)

     Called by electrons:
     c_bands      :   1649.25s CPU   1657.50s WALL (      11 calls)
     sum_band     :    209.51s CPU    212.08s WALL (      11 calls)
     v_of_rho     :     20.04s CPU     20.95s WALL (      11 calls)
     newd         :     11.56s CPU     12.84s WALL (      11 calls)
     mix_rho      :      0.38s CPU      0.41s WALL (      11 calls)
     vdW_kernel   :      6.15s CPU      6.16s WALL (       1 calls)

     Called by c_bands:
     init_us_2    :      7.77s CPU      7.87s WALL (    1776 calls)
     cegterg      :   1630.76s CPU   1637.59s WALL (     814 calls)

     Called by *egterg:
     cdiaghg      :     81.14s CPU     81.27s WALL (    5201 calls)
     h_psi        :    907.39s CPU    912.75s WALL (    5349 calls)
     s_psi        :    271.88s CPU    272.37s WALL (    5349 calls)
     g_psi        :      0.68s CPU      0.69s WALL (    4461 calls)

     Called by h_psi:
     h_psi:calbec :    321.36s CPU    322.37s WALL (    5349 calls)
     vloc_psi     :    301.05s CPU    304.87s WALL (    5349 calls)
     add_vuspsi   :    282.25s CPU    282.71s WALL (    5349 calls)

     General routines
     calbec       :    497.43s CPU    498.95s WALL (    6459 calls)
     fft          :     11.43s CPU     11.87s WALL (     753 calls)
     ffts         :      0.06s CPU      0.06s WALL (      22 calls)
     fftw         :    339.47s CPU    343.73s WALL (  382018 calls)
     interpolate  :      0.16s CPU      0.17s WALL (      11 calls)

     Parallel routines
     fft_scatt_xy :     26.53s CPU     26.86s WALL (  382793 calls)
     fft_scatt_yz :    102.56s CPU    104.22s WALL (  382793 calls)

     PWSCF        :  33m57.65s CPU  34m30.32s WALL


   This run was terminated on:  21: 6:13  10Jul2022            

=------------------------------------------------------------------------------=
   JOB DONE.
=------------------------------------------------------------------------------=
