
     Program PWSCF v.6.6 starts on 10Jul2022 at 21:52:59 

     This program is part of the open-source Quantum ESPRESSO suite
     for quantum simulation of materials; please cite
         "P. Giannozzi et al., J. Phys.:Condens. Matter 21 395502 (2009);
         "P. Giannozzi et al., J. Phys.:Condens. Matter 29 465901 (2017);
          URL http://www.quantum-espresso.org", 
     in publications or presentations arising from this work. More details at
     http://www.quantum-espresso.org/quote

     Parallel version (MPI), running on    37 processors

     MPI processes distributed on     1 nodes
     R & G space division:  proc/nbgrp/npool/nimage =      37
     Fft bands division:     nmany     =       1
     Reading input from Cu2Cd2.in
Warning: card &CELL ignored
Warning: card / ignored

     Current dimensions of program PWSCF are:
     Max number of different atomic species (ntypx) = 10
     Max number of k-points (npk) =  40000
     Max angular momentum in pseudopotentials (lmaxx) =  3
     Presently stress not available with electric field and gates

     Message from routine cell_base_init:
     DEPRECATED: use true lattice parameter, not A to a.u. conversion factor
     file Cu.pbe-dn-rrkjus_psl.1.0.0.UPF: wavefunction(s)  3D renormalized
     file Cd.pbe-n-rrkjus_psl.1.0.0.UPF: wavefunction(s)  4D renormalized

     **************************************************************************
     Initializing libbeef V0.1.2 with the BEEF-vdW functional.
     Citation: Wellendorff et al., PRB 85, 235149 (2012).
     **************************************************************************


     IMPORTANT: XC functional enforced from input :
     Exchange-correlation= BEEF-VDW
                           (   1   4  43  14   2   0   0)
     Any further DFT definition will be discarded
     Please, verify this is what you really want


     Subspace diagonalization in iterative solution of the eigenvalue problem:
     a serial algorithm will be used


     Parallelization info
     --------------------
     sticks:   dense  smooth     PW     G-vecs:    dense   smooth      PW
     Min         124      49     14                28774     7271    1092
     Max         126      50     15                28786     7284    1101
     Sum        4593    1841    527              1064883   269251   40643



     bravais-lattice index     =            0
     lattice parameter (alat)  =       1.8897  a.u.
     unit-cell volume          =    4872.0125 (a.u.)^3
     number of atoms/cell      =           12
     number of atomic types    =            2
     number of electrons       =       138.00
     number of Kohn-Sham states=           83
     kinetic-energy cutoff     =      55.1240  Ry
     charge density cutoff     =     551.2396  Ry
     convergence threshold     =      1.0E-05
     mixing beta               =       0.1000
     number of iterations used =           10  plain     mixing
     Exchange-correlation= BEEF-VDW
                           (   1   4  43  14   2   0   0)

     celldm(1)=   1.889726  celldm(2)=   0.000000  celldm(3)=   0.000000
     celldm(4)=   0.000000  celldm(5)=   0.000000  celldm(6)=   0.000000

     crystal axes: (cart. coord. in units of alat)
               a(1) = (   5.602999   0.000000   0.000000 )  
               a(2) = (   1.993727   5.236282   0.000000 )  
               a(3) = (   0.000000   0.000000  24.607546 )  

     reciprocal axes: (cart. coord. in units 2 pi/alat)
               b(1) = (  0.178476 -0.067955  0.000000 )  
               b(2) = (  0.000000  0.190975  0.000000 )  
               b(3) = (  0.000000  0.000000  0.040638 )  


     PseudoPot. # 1 for Cu read from file:
     ../pseudo/Cu.pbe-dn-rrkjus_psl.1.0.0.UPF
     MD5 check sum: 8469560995d0c2df1ffe68c099c04a63
     Pseudo is Ultrasoft + core correction, Zval = 11.0
     Generated using "atomic" code by A. Dal Corso v.6.3
     Using radial grid of 1199 points,  6 beta functions with: 
                l(1) =   0
                l(2) =   0
                l(3) =   1
                l(4) =   1
                l(5) =   2
                l(6) =   2
     Q(r) pseudized with 0 coefficients 


     PseudoPot. # 2 for Cd read from file:
     ../pseudo/Cd.pbe-n-rrkjus_psl.1.0.0.UPF
     MD5 check sum: a744746c89d2344a134ead0d8ab94e7a
     Pseudo is Ultrasoft + core correction, Zval = 12.0
     Generated using "atomic" code by A. Dal Corso v.6.3
     Using radial grid of 1239 points,  6 beta functions with: 
                l(1) =   0
                l(2) =   0
                l(3) =   1
                l(4) =   1
                l(5) =   2
                l(6) =   2
     Q(r) pseudized with 0 coefficients 


     atomic species   valence    mass     pseudopotential
        Cu            11.00    63.54600     Cu( 1.00)
        Cd            12.00   112.41400     Cd( 1.00)

     No symmetry found



   Cartesian axes

     site n.     atom                  positions (alat units)
         1           Cu  tau(   1) = (   0.0000000   0.0000000  10.0000000  )
         2           Cu  tau(   2) = (   3.7983629   2.6181412  10.0000000  )
         3           Cd  tau(   3) = (   2.8014996   0.0000000  10.0000000  )
         4           Cd  tau(   4) = (   0.9968633   2.6181412  10.0000000  )
         5           Cu  tau(   5) = (   5.6029991   3.8620435  12.3037730  )
         6           Cu  tau(   6) = (   1.8046362   1.2439023  12.3037730  )
         7           Cd  tau(   7) = (   2.8014996   3.8620435  12.3037730  )
         8           Cd  tau(   8) = (   4.6061358   1.2439023  12.3037730  )
         9           Cu  tau(   9) = (   3.6042568   2.4843004  14.5600256  )
        10           Cu  tau(  10) = (   7.4026039   5.1024959  14.5600081  )
        11           Cd  tau(  11) = (   6.4237987   2.4967988  14.8245582  )
        12           Cd  tau(  12) = (   4.6191719   5.1149181  14.8245473  )

     number of k points=    74  Fermi-Dirac smearing, width (Ry)=  0.0100
                       cart. coord. in units 2pi/alat
        k(    1) = (   0.0000000   0.0000000   0.0000000), wk =   0.0138889
        k(    2) = (   0.0000000   0.0159146   0.0000000), wk =   0.0277778
        k(    3) = (   0.0000000   0.0318292   0.0000000), wk =   0.0277778
        k(    4) = (   0.0000000   0.0477438   0.0000000), wk =   0.0277778
        k(    5) = (   0.0000000   0.0636584   0.0000000), wk =   0.0277778
        k(    6) = (   0.0000000   0.0795730   0.0000000), wk =   0.0277778
        k(    7) = (   0.0000000  -0.0954876   0.0000000), wk =   0.0138889
        k(    8) = (   0.0148730  -0.0056629   0.0000000), wk =   0.0277778
        k(    9) = (   0.0148730   0.0102517   0.0000000), wk =   0.0277778
        k(   10) = (   0.0148730   0.0261663   0.0000000), wk =   0.0277778
        k(   11) = (   0.0148730   0.0420809   0.0000000), wk =   0.0277778
        k(   12) = (   0.0148730   0.0579955   0.0000000), wk =   0.0277778
        k(   13) = (   0.0148730   0.0739101   0.0000000), wk =   0.0277778
        k(   14) = (   0.0148730  -0.1011505   0.0000000), wk =   0.0277778
        k(   15) = (   0.0148730  -0.0852359   0.0000000), wk =   0.0277778
        k(   16) = (   0.0148730  -0.0693213   0.0000000), wk =   0.0277778
        k(   17) = (   0.0148730  -0.0534067   0.0000000), wk =   0.0277778
        k(   18) = (   0.0148730  -0.0374921   0.0000000), wk =   0.0277778
        k(   19) = (   0.0148730  -0.0215775   0.0000000), wk =   0.0277778
        k(   20) = (   0.0297460  -0.0113259   0.0000000), wk =   0.0277778
        k(   21) = (   0.0297460   0.0045887   0.0000000), wk =   0.0277778
        k(   22) = (   0.0297460   0.0205033   0.0000000), wk =   0.0277778
        k(   23) = (   0.0297460   0.0364179   0.0000000), wk =   0.0277778
        k(   24) = (   0.0297460   0.0523325   0.0000000), wk =   0.0277778
        k(   25) = (   0.0297460   0.0682471   0.0000000), wk =   0.0277778
        k(   26) = (   0.0297460  -0.1068135   0.0000000), wk =   0.0277778
        k(   27) = (   0.0297460  -0.0908989   0.0000000), wk =   0.0277778
        k(   28) = (   0.0297460  -0.0749843   0.0000000), wk =   0.0277778
        k(   29) = (   0.0297460  -0.0590697   0.0000000), wk =   0.0277778
        k(   30) = (   0.0297460  -0.0431551   0.0000000), wk =   0.0277778
        k(   31) = (   0.0297460  -0.0272405   0.0000000), wk =   0.0277778
        k(   32) = (   0.0446190  -0.0169888   0.0000000), wk =   0.0277778
        k(   33) = (   0.0446190  -0.0010742   0.0000000), wk =   0.0277778
        k(   34) = (   0.0446190   0.0148404   0.0000000), wk =   0.0277778
        k(   35) = (   0.0446190   0.0307550   0.0000000), wk =   0.0277778
        k(   36) = (   0.0446190   0.0466696   0.0000000), wk =   0.0277778
        k(   37) = (   0.0446190   0.0625842   0.0000000), wk =   0.0277778
        k(   38) = (   0.0446190  -0.1124764   0.0000000), wk =   0.0277778
        k(   39) = (   0.0446190  -0.0965618   0.0000000), wk =   0.0277778
        k(   40) = (   0.0446190  -0.0806472   0.0000000), wk =   0.0277778
        k(   41) = (   0.0446190  -0.0647326   0.0000000), wk =   0.0277778
        k(   42) = (   0.0446190  -0.0488180   0.0000000), wk =   0.0277778
        k(   43) = (   0.0446190  -0.0329034   0.0000000), wk =   0.0277778
        k(   44) = (   0.0594919  -0.0226517   0.0000000), wk =   0.0277778
        k(   45) = (   0.0594919  -0.0067371   0.0000000), wk =   0.0277778
        k(   46) = (   0.0594919   0.0091775   0.0000000), wk =   0.0277778
        k(   47) = (   0.0594919   0.0250921   0.0000000), wk =   0.0277778
        k(   48) = (   0.0594919   0.0410067   0.0000000), wk =   0.0277778
        k(   49) = (   0.0594919   0.0569213   0.0000000), wk =   0.0277778
        k(   50) = (   0.0594919  -0.1181393   0.0000000), wk =   0.0277778
        k(   51) = (   0.0594919  -0.1022247   0.0000000), wk =   0.0277778
        k(   52) = (   0.0594919  -0.0863101   0.0000000), wk =   0.0277778
        k(   53) = (   0.0594919  -0.0703955   0.0000000), wk =   0.0277778
        k(   54) = (   0.0594919  -0.0544809   0.0000000), wk =   0.0277778
        k(   55) = (   0.0594919  -0.0385663   0.0000000), wk =   0.0277778
        k(   56) = (   0.0743649  -0.0283146   0.0000000), wk =   0.0277778
        k(   57) = (   0.0743649  -0.0124000   0.0000000), wk =   0.0277778
        k(   58) = (   0.0743649   0.0035146   0.0000000), wk =   0.0277778
        k(   59) = (   0.0743649   0.0194292   0.0000000), wk =   0.0277778
        k(   60) = (   0.0743649   0.0353438   0.0000000), wk =   0.0277778
        k(   61) = (   0.0743649   0.0512584   0.0000000), wk =   0.0277778
        k(   62) = (   0.0743649  -0.1238022   0.0000000), wk =   0.0277778
        k(   63) = (   0.0743649  -0.1078876   0.0000000), wk =   0.0277778
        k(   64) = (   0.0743649  -0.0919730   0.0000000), wk =   0.0277778
        k(   65) = (   0.0743649  -0.0760584   0.0000000), wk =   0.0277778
        k(   66) = (   0.0743649  -0.0601438   0.0000000), wk =   0.0277778
        k(   67) = (   0.0743649  -0.0442292   0.0000000), wk =   0.0277778
        k(   68) = (  -0.0892379   0.0339776   0.0000000), wk =   0.0138889
        k(   69) = (  -0.0892379   0.0498922   0.0000000), wk =   0.0277778
        k(   70) = (  -0.0892379   0.0658068   0.0000000), wk =   0.0277778
        k(   71) = (  -0.0892379   0.0817214   0.0000000), wk =   0.0277778
        k(   72) = (  -0.0892379   0.0976360   0.0000000), wk =   0.0277778
        k(   73) = (  -0.0892379   0.1135506   0.0000000), wk =   0.0277778
        k(   74) = (  -0.0892379  -0.0615100   0.0000000), wk =   0.0138889

     Dense  grid:  1064883 G-vectors     FFT dimensions: (  80,  80, 360)

     Smooth grid:   269251 G-vectors     FFT dimensions: (  54,  54, 225)

     Estimated max dynamical RAM per process >     201.01 MB

     Estimated total dynamical RAM >       7.26 GB

     Initial potential from superposition of free atoms

     starting charge  137.96932, renormalised to  138.00000

     negative rho (up, down):  2.728E-03 0.000E+00


     %%%%%%%%%%%%%%%%%%%%%%%%%%%%%%%%%%%%%%%%%%%%%%%%%%%%%%%%%%%%%%%%%%%%%%%%
     %                                                                      %
     % You are using vdW-DF, which was implemented by the Thonhauser group. %
     % Please cite the following two papers that made this development      %
     % possible and the two reviews that describe the various versions:     %
     %                                                                      %
     %   T. Thonhauser et al., PRL 115, 136402 (2015).                      %
     %   T. Thonhauser et al., PRB 76, 125112 (2007).                       %
     %   K. Berland et al., Rep. Prog. Phys. 78, 066501 (2015).             %
     %   D.C. Langreth et al., J. Phys.: Condens. Matter 21, 084203 (2009). %
     %                                                                      %
     %                                                                      %
     % If you are calculating the stress with vdW-DF, please also cite:     %
     %                                                                      %
     %   R. Sabatini et al., J. Phys.: Condens. Matter 24, 424209 (2012).   %
     %                                                                      %
     %%%%%%%%%%%%%%%%%%%%%%%%%%%%%%%%%%%%%%%%%%%%%%%%%%%%%%%%%%%%%%%%%%%%%%%%



     Adding external electric field

     Computed dipole along edir(3) : 
        Dipole                0.0022 Ry au,          0.0056 Debye
        Dipole field          0.0000 Ry au, 

        Potential amp.       -0.0005 Ry
        Total length         45.3390 bohr

     Starting wfcs are  108 randomized atomic wfcs

     total cpu time spent up to now is       69.9 secs

     Self-consistent Calculation

     iteration #  1     ecut=    55.12 Ry     beta= 0.10
     Davidson diagonalization with overlap
     ethr =  1.00E-02,  avg # of iterations =  2.6

     Threshold (ethr) on eigenvalues was too large:
     Diagonalizing with lowered threshold

     Davidson diagonalization with overlap
     ethr =  3.59E-04,  avg # of iterations =  5.7

     negative rho (up, down):  2.742E-03 0.000E+00

     Adding external electric field

     Computed dipole along edir(3) : 
        Dipole                0.0281 Ry au,          0.0714 Debye
        Dipole field          0.0001 Ry au, 

        Potential amp.       -0.0066 Ry
        Total length         45.3390 bohr


     total cpu time spent up to now is      427.1 secs

     total energy              =   -1351.41759391 Ry
     estimated scf accuracy    <       0.46789997 Ry

     iteration #  2     ecut=    55.12 Ry     beta= 0.10
     Davidson diagonalization with overlap
     ethr =  3.39E-04,  avg # of iterations =  2.0

     negative rho (up, down):  2.775E-03 0.000E+00

     Adding external electric field

     Computed dipole along edir(3) : 
        Dipole               -0.0442 Ry au,         -0.1122 Debye
        Dipole field         -0.0001 Ry au, 

        Potential amp.        0.0103 Ry
        Total length         45.3390 bohr


     total cpu time spent up to now is      600.5 secs

     total energy              =   -1351.36355576 Ry
     estimated scf accuracy    <       0.21859594 Ry

     iteration #  3     ecut=    55.12 Ry     beta= 0.10
     Davidson diagonalization with overlap
     c_bands:  1 eigenvalues not converged
     c_bands:  1 eigenvalues not converged
     c_bands:  1 eigenvalues not converged
     c_bands:  1 eigenvalues not converged
     c_bands:  1 eigenvalues not converged
     c_bands:  1 eigenvalues not converged
     ethr =  1.58E-04,  avg # of iterations =  9.5

     negative rho (up, down):  2.788E-03 0.000E+00

     Adding external electric field

     Computed dipole along edir(3) : 
        Dipole                0.0693 Ry au,          0.1762 Debye
        Dipole field          0.0002 Ry au, 

        Potential amp.       -0.0162 Ry
        Total length         45.3390 bohr


     total cpu time spent up to now is      800.8 secs

     total energy              =   -1351.37390276 Ry
     estimated scf accuracy    <       0.07152386 Ry

     iteration #  4     ecut=    55.12 Ry     beta= 0.10
     Davidson diagonalization with overlap
     c_bands:  1 eigenvalues not converged
     c_bands:  1 eigenvalues not converged
     c_bands:  1 eigenvalues not converged
     c_bands:  1 eigenvalues not converged
     c_bands:  3 eigenvalues not converged
     c_bands:  1 eigenvalues not converged
     c_bands:  1 eigenvalues not converged
     c_bands:  2 eigenvalues not converged
     c_bands:  2 eigenvalues not converged
     c_bands:  1 eigenvalues not converged
     c_bands:  1 eigenvalues not converged
     c_bands:  1 eigenvalues not converged
     c_bands:  1 eigenvalues not converged
     c_bands:  1 eigenvalues not converged
     c_bands:  1 eigenvalues not converged
     c_bands:  1 eigenvalues not converged
     c_bands:  2 eigenvalues not converged
     c_bands:  1 eigenvalues not converged
     c_bands:  1 eigenvalues not converged
     c_bands:  4 eigenvalues not converged
     c_bands:  1 eigenvalues not converged
     c_bands:  1 eigenvalues not converged
     ethr =  5.18E-05,  avg # of iterations = 11.8

     negative rho (up, down):  2.825E-03 0.000E+00

     Adding external electric field

     Computed dipole along edir(3) : 
        Dipole                0.0109 Ry au,          0.0278 Debye
        Dipole field          0.0000 Ry au, 

        Potential amp.       -0.0026 Ry
        Total length         45.3390 bohr


     total cpu time spent up to now is     1016.3 secs

     total energy              =   -1351.37005703 Ry
     estimated scf accuracy    <       0.04784693 Ry

     iteration #  5     ecut=    55.12 Ry     beta= 0.10
     Davidson diagonalization with overlap
     c_bands:  2 eigenvalues not converged
     c_bands:  1 eigenvalues not converged
     ethr =  3.47E-05,  avg # of iterations =  4.3

     negative rho (up, down):  2.873E-03 0.000E+00

     Adding external electric field

     Computed dipole along edir(3) : 
        Dipole                0.0193 Ry au,          0.0491 Debye
        Dipole field          0.0000 Ry au, 

        Potential amp.       -0.0045 Ry
        Total length         45.3390 bohr


     total cpu time spent up to now is     1221.7 secs

     total energy              =   -1351.37281233 Ry
     estimated scf accuracy    <       0.00888059 Ry

     iteration #  6     ecut=    55.12 Ry     beta= 0.10
     Davidson diagonalization with overlap
     c_bands:  1 eigenvalues not converged
     c_bands:  1 eigenvalues not converged
     c_bands:  1 eigenvalues not converged
     c_bands:  3 eigenvalues not converged
     c_bands:  1 eigenvalues not converged
     c_bands:  3 eigenvalues not converged
     c_bands:  1 eigenvalues not converged
     c_bands:  2 eigenvalues not converged
     c_bands:  2 eigenvalues not converged
     c_bands:  1 eigenvalues not converged
     c_bands:  3 eigenvalues not converged
     c_bands:  2 eigenvalues not converged
     c_bands:  2 eigenvalues not converged
     c_bands:  1 eigenvalues not converged
     c_bands:  1 eigenvalues not converged
     c_bands:  1 eigenvalues not converged
     c_bands:  1 eigenvalues not converged
     c_bands:  1 eigenvalues not converged
     c_bands:  2 eigenvalues not converged
     c_bands:  3 eigenvalues not converged
     c_bands:  2 eigenvalues not converged
     c_bands:  1 eigenvalues not converged
     c_bands:  1 eigenvalues not converged
     c_bands:  1 eigenvalues not converged
     c_bands:  1 eigenvalues not converged
     c_bands:  1 eigenvalues not converged
     c_bands:  1 eigenvalues not converged
     c_bands:  1 eigenvalues not converged
     c_bands:  2 eigenvalues not converged
     c_bands:  1 eigenvalues not converged
     c_bands:  1 eigenvalues not converged
     c_bands:  2 eigenvalues not converged
     c_bands:  2 eigenvalues not converged
     c_bands:  1 eigenvalues not converged
     c_bands:  1 eigenvalues not converged
     c_bands:  1 eigenvalues not converged
     c_bands:  1 eigenvalues not converged
     c_bands:  1 eigenvalues not converged
     c_bands:  2 eigenvalues not converged
     c_bands:  2 eigenvalues not converged
     ethr =  6.44E-06,  avg # of iterations = 16.5

     negative rho (up, down):  2.857E-03 0.000E+00

     Adding external electric field

     Computed dipole along edir(3) : 
        Dipole                0.0228 Ry au,          0.0581 Debye
        Dipole field          0.0001 Ry au, 

        Potential amp.       -0.0053 Ry
        Total length         45.3390 bohr


     total cpu time spent up to now is     1550.5 secs

     total energy              =   -1351.37489469 Ry
     estimated scf accuracy    <       0.00414893 Ry

     iteration #  7     ecut=    55.12 Ry     beta= 0.10
     Davidson diagonalization with overlap
     c_bands:  1 eigenvalues not converged
     c_bands:  2 eigenvalues not converged
     c_bands:  1 eigenvalues not converged
     c_bands:  2 eigenvalues not converged
     c_bands:  1 eigenvalues not converged
     c_bands:  1 eigenvalues not converged
     c_bands:  1 eigenvalues not converged
     c_bands:  1 eigenvalues not converged
     ethr =  3.01E-06,  avg # of iterations =  6.7

     negative rho (up, down):  2.907E-03 0.000E+00

     Adding external electric field

     Computed dipole along edir(3) : 
        Dipole                0.0280 Ry au,          0.0712 Debye
        Dipole field          0.0001 Ry au, 

        Potential amp.       -0.0065 Ry
        Total length         45.3390 bohr


     total cpu time spent up to now is     1744.1 secs

     total energy              =   -1351.37547670 Ry
     estimated scf accuracy    <       0.00202889 Ry

     iteration #  8     ecut=    55.12 Ry     beta= 0.10
     Davidson diagonalization with overlap
     c_bands:  1 eigenvalues not converged
     c_bands:  1 eigenvalues not converged
     c_bands:  1 eigenvalues not converged
     c_bands:  1 eigenvalues not converged
     c_bands:  1 eigenvalues not converged
     c_bands:  1 eigenvalues not converged
     c_bands:  1 eigenvalues not converged
     ethr =  1.47E-06,  avg # of iterations =  7.0

     negative rho (up, down):  2.958E-03 0.000E+00

     Adding external electric field

     Computed dipole along edir(3) : 
        Dipole                0.0292 Ry au,          0.0742 Debye
        Dipole field          0.0001 Ry au, 

        Potential amp.       -0.0068 Ry
        Total length         45.3390 bohr


     total cpu time spent up to now is     1971.4 secs

     total energy              =   -1351.37534427 Ry
     estimated scf accuracy    <       0.00188619 Ry

     iteration #  9     ecut=    55.12 Ry     beta= 0.10
     Davidson diagonalization with overlap
     c_bands:  2 eigenvalues not converged
     c_bands:  1 eigenvalues not converged
     c_bands:  1 eigenvalues not converged
     c_bands:  1 eigenvalues not converged
     c_bands:  1 eigenvalues not converged
     c_bands:  1 eigenvalues not converged
     ethr =  1.37E-06,  avg # of iterations =  5.4

     negative rho (up, down):  2.955E-03 0.000E+00

     Adding external electric field

     Computed dipole along edir(3) : 
        Dipole                0.0269 Ry au,          0.0683 Debye
        Dipole field          0.0001 Ry au, 

        Potential amp.       -0.0063 Ry
        Total length         45.3390 bohr


     total cpu time spent up to now is     2161.8 secs

     total energy              =   -1351.37565304 Ry
     estimated scf accuracy    <       0.00014262 Ry

     iteration # 10     ecut=    55.12 Ry     beta= 0.10
     Davidson diagonalization with overlap
     c_bands:  1 eigenvalues not converged
     ethr =  1.03E-07,  avg # of iterations =  6.3

     negative rho (up, down):  2.944E-03 0.000E+00

     Adding external electric field

     Computed dipole along edir(3) : 
        Dipole                0.0270 Ry au,          0.0685 Debye
        Dipole field          0.0001 Ry au, 

        Potential amp.       -0.0063 Ry
        Total length         45.3390 bohr


     total cpu time spent up to now is     2439.6 secs

     total energy              =   -1351.37569901 Ry
     estimated scf accuracy    <       0.00010006 Ry

     iteration # 11     ecut=    55.12 Ry     beta= 0.10
     Davidson diagonalization with overlap
     ethr =  7.25E-08,  avg # of iterations =  2.2

     negative rho (up, down):  2.937E-03 0.000E+00

     Adding external electric field

     Computed dipole along edir(3) : 
        Dipole                0.0262 Ry au,          0.0666 Debye
        Dipole field          0.0001 Ry au, 

        Potential amp.       -0.0061 Ry
        Total length         45.3390 bohr


     total cpu time spent up to now is     2643.2 secs

     total energy              =   -1351.37571450 Ry
     estimated scf accuracy    <       0.00002472 Ry

     iteration # 12     ecut=    55.12 Ry     beta= 0.10
     Davidson diagonalization with overlap
     ethr =  1.79E-08,  avg # of iterations =  4.9

     negative rho (up, down):  2.896E-03 0.000E+00

     Adding external electric field

     Computed dipole along edir(3) : 
        Dipole                0.0305 Ry au,          0.0774 Debye
        Dipole field          0.0001 Ry au, 

        Potential amp.       -0.0071 Ry
        Total length         45.3390 bohr


     total cpu time spent up to now is     2878.1 secs

     End of self-consistent calculation

          k = 0.0000 0.0000 0.0000 ( 33743 PWs)   bands (ev):

    -9.4243  -9.4184  -9.3851  -9.3140  -9.2249  -9.1681  -9.1013  -9.0864
    -9.0472  -9.0090  -8.9691  -8.9393  -8.9036  -8.8788  -8.8647  -8.8595
    -8.8455  -8.7889  -8.7539  -8.7279  -8.7067  -8.6925  -8.6374  -8.5930
    -8.5757  -8.5129  -8.5009  -8.4458  -8.4038  -8.2974  -8.0144  -6.1413
    -4.0816  -3.8252  -3.5215  -3.4301  -3.0504  -2.9229  -2.9110  -2.8997
    -2.8182  -2.7880  -2.7787  -2.7260  -2.6178  -2.6077  -2.6013  -2.5711
    -2.5210  -2.5145  -2.4781  -2.4698  -2.4674  -2.3466  -2.3342  -2.3205
    -2.3167  -2.2912  -2.2878  -2.2684  -2.2461  -2.1527  -2.0439  -1.1794
    -1.0607  -0.8865  -0.7182  -0.5395  -0.4796  -0.4174  -0.2991   1.2714
     1.3772   1.5860   1.8124   2.3564   2.6819   2.8596   2.9874   3.3080
     3.6261   3.7060   3.7780

          k = 0.0000 0.0159 0.0000 ( 33751 PWs)   bands (ev):

    -9.4112  -9.4082  -9.3759  -9.3074  -9.2220  -9.1543  -9.0881  -9.0785
    -9.0508  -9.0119  -8.9643  -8.9320  -8.9050  -8.8803  -8.8703  -8.8540
    -8.8504  -8.7871  -8.7551  -8.7247  -8.7073  -8.6896  -8.6428  -8.6015
    -8.5813  -8.5206  -8.5042  -8.4654  -8.4083  -8.3106  -7.9705  -6.1025
    -4.0643  -3.9074  -3.5711  -3.4694  -3.0470  -2.9575  -2.9035  -2.8745
    -2.8136  -2.8088  -2.7779  -2.7163  -2.6269  -2.6166  -2.6004  -2.5822
    -2.5221  -2.5124  -2.4808  -2.4675  -2.4657  -2.3571  -2.3538  -2.3358
    -2.3336  -2.2979  -2.2839  -2.2831  -2.2559  -2.1703  -2.0125  -1.6586
    -1.2247  -0.8226  -0.6065  -0.5234  -0.4022  -0.3759  -0.0968   1.2594
     1.4539   1.9215   1.9241   2.0395   2.6350   2.9389   3.0217   3.5553
     3.6435   3.7511   4.1522

          k = 0.0000 0.0318 0.0000 ( 33716 PWs)   bands (ev):

    -9.3785  -9.3734  -9.3490  -9.2885  -9.2129  -9.1141  -9.0632  -9.0552
    -9.0494  -9.0181  -8.9496  -8.9153  -8.9069  -8.9004  -8.8864  -8.8503
    -8.8380  -8.7824  -8.7572  -8.7185  -8.7083  -8.6826  -8.6593  -8.6253
    -8.5975  -8.5412  -8.5134  -8.5123  -8.4311  -8.3490  -7.8401  -5.9861
    -4.2205  -4.0148  -3.6978  -3.5310  -3.0381  -2.9670  -2.9140  -2.8636
    -2.8441  -2.8043  -2.7842  -2.7073  -2.6755  -2.6107  -2.6098  -2.5860
    -2.5456  -2.5015  -2.4889  -2.4628  -2.4591  -2.3987  -2.3884  -2.3694
    -2.3676  -2.3413  -2.3114  -2.2987  -2.2793  -2.2148  -2.0775  -1.9263
    -1.4314  -1.3224  -0.7200  -0.3729  -0.2140  -0.2028   0.5168   0.9406
     1.6863   1.7675   2.3858   2.4631   2.8309   3.0644   3.1832   3.7520
     3.8771   3.9225   4.1642

          k = 0.0000 0.0477 0.0000 ( 33705 PWs)   bands (ev):

    -9.3323  -9.3153  -9.3064  -9.2601  -9.1975  -9.0771  -9.0516  -9.0486
    -9.0032  -8.9888  -8.9382  -8.9302  -8.9211  -8.9194  -8.8798  -8.8366
    -8.8127  -8.7765  -8.7588  -8.7144  -8.7084  -8.6867  -8.6741  -8.6589
    -8.6234  -8.5732  -8.5709  -8.5274  -8.4779  -8.4090  -7.6244  -5.7917
    -4.7521  -3.9415  -3.7955  -3.6468  -3.0318  -2.9668  -2.9295  -2.9141
    -2.8508  -2.8473  -2.7743  -2.7101  -2.6881  -2.6488  -2.5978  -2.5782
    -2.5740  -2.5115  -2.4947  -2.4820  -2.4627  -2.4425  -2.4367  -2.4099
    -2.4082  -2.4010  -2.3931  -2.3134  -2.3035  -2.2802  -2.2543  -1.9424
    -1.7952  -1.3646  -0.9132  -0.3183   0.0712   0.2421   0.2927   0.6339
     2.1454   2.3098   2.5107   2.7811   3.1591   3.3131   3.3262   4.0506
     4.2253   4.4190   4.4272

          k = 0.0000 0.0637 0.0000 ( 33666 PWs)   bands (ev):

    -9.2742  -9.2515  -9.2452  -9.2258  -9.1747  -9.0964  -9.0655  -9.0020
    -8.9727  -8.9586  -8.9573  -8.9516  -8.9075  -8.8890  -8.8424  -8.8199
    -8.7817  -8.7698  -8.7622  -8.7283  -8.7077  -8.7073  -8.6957  -8.6697
    -8.6569  -8.6362  -8.6071  -8.5448  -8.5440  -8.4833  -7.3238  -5.5203
    -5.3552  -3.9558  -3.8632  -3.7928  -3.0549  -2.9920  -2.9581  -2.9447
    -2.9030  -2.8533  -2.7529  -2.7205  -2.6860  -2.6673  -2.6133  -2.5947
    -2.5884  -2.5705  -2.5432  -2.5279  -2.5000  -2.4696  -2.4600  -2.4509
    -2.4374  -2.4304  -2.4101  -2.3635  -2.3381  -2.3356  -2.3133  -2.1817
    -1.6207  -1.3584  -1.0650  -0.3261  -0.1871   0.2596   0.5710   0.8746
     2.2921   2.5763   2.6234   2.8210   3.5417   3.6351   3.9428   4.0754
     4.3238   4.6134   4.9011

          k = 0.0000 0.0796 0.0000 ( 33680 PWs)   bands (ev):

    -9.2131  -9.1939  -9.1899  -9.1821  -9.1332  -9.1184  -9.0847  -9.0570
    -9.0273  -8.9979  -8.9027  -8.8720  -8.8500  -8.8214  -8.8058  -8.8008
    -8.7904  -8.7723  -8.7495  -8.7405  -8.7236  -8.7157  -8.7069  -8.6934
    -8.6893  -8.6857  -8.6470  -8.6183  -8.5603  -8.5503  -6.9398  -5.9425
    -5.1762  -4.3378  -3.8130  -3.8107  -3.0901  -3.0233  -2.9942  -2.9610
    -2.9021  -2.8601  -2.7494  -2.7377  -2.7009  -2.6786  -2.6467  -2.6302
    -2.6044  -2.5856  -2.5605  -2.5497  -2.5324  -2.4889  -2.4817  -2.4667
    -2.4591  -2.4462  -2.4186  -2.4049  -2.3842  -2.3571  -2.3082  -2.2533
    -1.3953  -1.3209  -1.1771  -0.7368  -0.1462   0.1073   0.9862   1.5205
     2.0908   2.3489   2.3682   3.2428   3.3375   3.8485   4.6575   4.6649
     4.8069   4.8505   4.9233

          k = 0.0000-0.0955 0.0000 ( 33646 PWs)   bands (ev):

    -9.1770  -9.1770  -9.1518  -9.1518  -9.1194  -9.1194  -9.0795  -9.0794
    -9.0608  -9.0608  -8.8467  -8.8466  -8.8169  -8.8169  -8.7800  -8.7799
    -8.7640  -8.7639  -8.7531  -8.7531  -8.7395  -8.7395  -8.7078  -8.7078
    -8.6935  -8.6935  -8.6804  -8.6803  -8.5699  -8.5699  -6.4764  -6.4764
    -4.7715  -4.7715  -3.8025  -3.8025  -3.0733  -3.0733  -2.9857  -2.9856
    -2.8779  -2.8779  -2.7533  -2.7533  -2.6978  -2.6978  -2.6399  -2.6399
    -2.6102  -2.6102  -2.5470  -2.5470  -2.5183  -2.5183  -2.4972  -2.4972
    -2.4553  -2.4553  -2.4205  -2.4205  -2.3751  -2.3751  -2.2883  -2.2883
    -1.2609  -1.2609  -1.1042  -1.1042  -0.0373  -0.0373   1.5112   1.5112
     2.0970   2.0970   2.5795   2.5796   4.0465   4.0465   4.2307   4.2307
     5.0922   5.0925   5.3204

          k = 0.0149-0.0057 0.0000 ( 33751 PWs)   bands (ev):

    -9.4112  -9.4082  -9.3759  -9.3074  -9.2220  -9.1543  -9.0881  -9.0785
    -9.0508  -9.0119  -8.9643  -8.9320  -8.9050  -8.8803  -8.8703  -8.8540
    -8.8504  -8.7871  -8.7551  -8.7247  -8.7073  -8.6896  -8.6428  -8.6015
    -8.5813  -8.5206  -8.5042  -8.4654  -8.4083  -8.3106  -7.9705  -6.1025
    -4.0643  -3.9074  -3.5711  -3.4694  -3.0470  -2.9575  -2.9035  -2.8745
    -2.8136  -2.8088  -2.7779  -2.7163  -2.6269  -2.6166  -2.6004  -2.5822
    -2.5221  -2.5124  -2.4808  -2.4675  -2.4657  -2.3571  -2.3538  -2.3358
    -2.3336  -2.2979  -2.2839  -2.2831  -2.2559  -2.1703  -2.0125  -1.6586
    -1.2246  -0.8226  -0.6065  -0.5234  -0.4022  -0.3759  -0.0968   1.2594
     1.4539   1.9215   1.9241   2.0395   2.6350   2.9389   3.0211   3.5553
     3.6432   3.7514   4.1521

          k = 0.0149 0.0103 0.0000 ( 33733 PWs)   bands (ev):

    -9.4214  -9.4097  -9.3797  -9.3003  -9.2224  -9.1639  -9.0996  -9.0795
    -9.0537  -9.0200  -8.9739  -8.9337  -8.8994  -8.8700  -8.8628  -8.8596
    -8.8452  -8.7812  -8.7645  -8.7232  -8.7065  -8.6778  -8.6344  -8.5935
    -8.5727  -8.5165  -8.5127  -8.4750  -8.3837  -8.3009  -7.9579  -6.0877
    -4.0608  -3.8413  -3.5163  -3.4166  -3.1035  -3.0703  -2.9146  -2.8911
    -2.8264  -2.8060  -2.8022  -2.7425  -2.6301  -2.6160  -2.5732  -2.5673
    -2.5292  -2.5225  -2.4948  -2.4703  -2.4571  -2.3825  -2.3505  -2.3431
    -2.3430  -2.3004  -2.2783  -2.2593  -2.2461  -2.1719  -2.0049  -1.4276
    -1.4163  -0.9231  -0.6269  -0.4550  -0.4281  -0.3905  -0.2341   0.7828
     1.5245   1.7993   2.1850   2.3049   2.5149   2.9416   3.0684   3.6461
     3.7727   3.7732   3.9126

          k = 0.0149 0.0262 0.0000 ( 33696 PWs)   bands (ev):

    -9.4057  -9.3918  -9.3657  -9.2809  -9.2165  -9.1467  -9.0846  -9.0665
    -9.0621  -9.0319  -8.9713  -8.9237  -8.8970  -8.8723  -8.8627  -8.8542
    -8.8464  -8.7744  -8.7720  -8.7201  -8.7046  -8.6633  -8.6378  -8.6019
    -8.5760  -8.5341  -8.5197  -8.5072  -8.3839  -8.3171  -7.8572  -5.9953
    -4.0278  -4.0065  -3.5473  -3.4621  -3.1526  -3.0953  -2.9334  -2.9026
    -2.8474  -2.8324  -2.8200  -2.7491  -2.6615  -2.6143  -2.5873  -2.5587
    -2.5458  -2.5167  -2.5114  -2.4705  -2.4591  -2.4226  -2.3805  -2.3767
    -2.3461  -2.3202  -2.3010  -2.2637  -2.2549  -2.1947  -1.9398  -1.9282
    -1.2649  -1.1429  -1.0960  -0.4916  -0.2555  -0.1889   0.3329   0.4537
     1.5253   1.7682   2.4870   2.5135   2.7017   2.9771   3.1232   3.6755
     3.8389   4.1443   4.2078

          k = 0.0149 0.0421 0.0000 ( 33693 PWs)   bands (ev):

    -9.3655  -9.3567  -9.3349  -9.2517  -9.2032  -9.1052  -9.0770  -9.0566
    -9.0444  -9.0291  -8.9562  -8.9052  -8.8990  -8.8975  -8.8827  -8.8379
    -8.8341  -8.7766  -8.7690  -8.7181  -8.7014  -8.6545  -8.6482  -8.6238
    -8.5914  -8.5555  -8.5551  -8.5390  -8.4118  -8.3570  -7.6695  -5.8250
    -4.4857  -3.9786  -3.6260  -3.5334  -3.1349  -3.0997  -2.9572  -2.9163
    -2.8878  -2.8780  -2.8129  -2.7532  -2.6893  -2.6208  -2.6107  -2.5973
    -2.5584  -2.5320  -2.5104  -2.5097  -2.4713  -2.4342  -2.4239  -2.3998
    -2.3791  -2.3589  -2.3250  -2.3211  -2.2766  -2.2309  -2.1776  -1.8272
    -1.7163  -1.4945  -0.7610  -0.4582  -0.1511   0.1062   0.1570   0.4657
     1.5919   2.1324   2.1848   2.9052   3.2623   3.3631   3.6669   3.7201
     4.0086   4.1536   4.3072

          k = 0.0149 0.0580 0.0000 ( 33638 PWs)   bands (ev):

    -9.3087  -9.3054  -9.2898  -9.2165  -9.1834  -9.0947  -9.0755  -9.0425
    -8.9907  -8.9828  -8.9387  -8.9310  -8.9212  -8.9138  -8.8745  -8.8174
    -8.8119  -8.7779  -8.7670  -8.7185  -8.6973  -8.6844  -8.6545  -8.6367
    -8.6185  -8.6090  -8.5789  -8.5666  -8.4652  -8.4164  -7.3965  -5.5769
    -5.0922  -3.9444  -3.8202  -3.5865  -3.1868  -3.0552  -2.9815  -2.9378
    -2.9190  -2.9124  -2.7948  -2.7616  -2.7000  -2.6611  -2.6507  -2.6216
    -2.6029  -2.5661  -2.5335  -2.5201  -2.4871  -2.4601  -2.4468  -2.4395
    -2.4201  -2.3940  -2.3760  -2.3301  -2.3044  -2.2825  -2.2582  -2.0871
    -1.6860  -1.6142  -0.6691  -0.3901  -0.0634  -0.0116   0.4056   0.4566
     1.8431   1.8908   2.9415   3.0491   3.2682   3.4737   4.0726   4.2468
     4.4646   4.5413   4.8414

          k = 0.0149 0.0739 0.0000 ( 33653 PWs)   bands (ev):

    -9.2531  -9.2348  -9.2338  -9.1800  -9.1572  -9.1154  -9.0977  -9.0012
    -8.9800  -8.9505  -8.9492  -8.9401  -8.9021  -8.8933  -8.8392  -8.8034
    -8.7787  -8.7782  -8.7692  -8.7262  -8.7166  -8.6933  -8.6904  -8.6637
    -8.6551  -8.6343  -8.6075  -8.5948  -8.5355  -8.4846  -7.0409  -5.7006
    -5.2546  -4.1796  -3.9663  -3.6109  -3.1906  -3.0617  -3.0141  -2.9568
    -2.9199  -2.9007  -2.7824  -2.7690  -2.7073  -2.6986  -2.6942  -2.6268
    -2.6220  -2.5793  -2.5533  -2.5474  -2.5328  -2.4821  -2.4656  -2.4551
    -2.4386  -2.4011  -2.3920  -2.3500  -2.3428  -2.3303  -2.3189  -2.2292
    -1.7200  -1.4573  -0.6381  -0.6009  -0.5280   0.5916   0.6469   0.8358
     1.6589   2.2664   2.4557   3.0428   3.7531   4.3898   4.4554   4.5600
     4.6205   4.6666   4.8671

          k = 0.0149-0.1012 0.0000 ( 33648 PWs)   bands (ev):

    -9.2017  -9.1799  -9.1704  -9.1510  -9.1369  -9.1167  -9.1090  -9.0608
    -9.0361  -9.0001  -8.8887  -8.8655  -8.8535  -8.8192  -8.7998  -8.7996
    -8.7941  -8.7760  -8.7450  -8.7401  -8.7281  -8.7167  -8.7034  -8.6946
    -8.6898  -8.6794  -8.6456  -8.6151  -8.6128  -8.5256  -6.6069  -6.2618
    -4.8682  -4.6104  -4.0381  -3.6362  -3.1233  -3.0846  -3.0504  -2.9506
    -2.8969  -2.8806  -2.8030  -2.7388  -2.7099  -2.7045  -2.6809  -2.6396
    -2.6169  -2.5915  -2.5684  -2.5599  -2.5290  -2.4916  -2.4809  -2.4754
    -2.4583  -2.4366  -2.4066  -2.4033  -2.3720  -2.3586  -2.3026  -2.2723
    -1.7760  -1.1963  -0.9494  -0.7538  -0.5594   0.7713   1.3191   1.3383
     1.4853   1.7749   3.0098   3.1054   3.6026   4.0918   4.4106   4.5087
     4.9710   5.1449   5.2744

          k = 0.0149-0.0852 0.0000 ( 33674 PWs)   bands (ev):

    -9.1994  -9.1654  -9.1645  -9.1412  -9.1181  -9.1162  -9.0795  -9.0699
    -9.0662  -9.0489  -8.8556  -8.8361  -8.8202  -8.8080  -8.7850  -8.7837
    -8.7732  -8.7620  -8.7528  -8.7518  -8.7409  -8.7357  -8.7151  -8.7003
    -8.6956  -8.6923  -8.6828  -8.6782  -8.6134  -8.5264  -6.7543  -6.1021
    -5.0274  -4.4467  -4.1030  -3.6924  -3.1005  -3.0669  -2.9974  -2.9350
    -2.8850  -2.8641  -2.7979  -2.7088  -2.6871  -2.6751  -2.6510  -2.6257
    -2.6154  -2.5894  -2.5525  -2.5396  -2.5361  -2.5077  -2.4986  -2.4956
    -2.4788  -2.4425  -2.4266  -2.4182  -2.3958  -2.3578  -2.2921  -2.2699
    -1.8232  -1.2720  -0.9195  -0.8022  -0.4673   0.8783   1.2677   1.3411
     1.9101   2.1138   2.8917   3.2009   3.7853   4.0127   4.1880   4.4114
     4.5464   4.8429   4.8474

          k = 0.0149-0.0693 0.0000 ( 33683 PWs)   bands (ev):

    -9.2284  -9.2252  -9.1996  -9.1922  -9.1445  -9.1013  -9.0566  -9.0540
    -9.0194  -8.9929  -8.9130  -8.8777  -8.8422  -8.8256  -8.8121  -8.8050
    -8.7832  -8.7791  -8.7550  -8.7393  -8.7232  -8.7175  -8.7121  -8.7045
    -8.6880  -8.6758  -8.6495  -8.6266  -8.5629  -8.5161  -7.1677  -5.5414
    -5.3905  -4.1704  -4.0002  -3.7829  -3.0824  -2.9995  -2.9251  -2.9132
    -2.9016  -2.8304  -2.7733  -2.6881  -2.6531  -2.6371  -2.6106  -2.6099
    -2.5820  -2.5656  -2.5486  -2.5441  -2.5320  -2.4992  -2.4794  -2.4791
    -2.4585  -2.4405  -2.4282  -2.4139  -2.4009  -2.3567  -2.2964  -2.2070
    -1.8631  -1.5238  -0.9618  -0.4122  -0.3462   0.6621   1.1810   1.1953
     2.3025   2.5321   2.9680   3.2880   3.5329   3.7008   3.7012   4.1043
     4.4696   4.5980   4.6206

          k = 0.0149-0.0534 0.0000 ( 33692 PWs)   bands (ev):

    -9.2904  -9.2640  -9.2623  -9.2456  -9.1861  -9.0810  -9.0413  -9.0040
    -8.9684  -8.9660  -8.9605  -8.9535  -8.9105  -8.8815  -8.8489  -8.8333
    -8.7910  -8.7740  -8.7436  -8.7290  -8.7140  -8.7063  -8.6994  -8.6978
    -8.6619  -8.6091  -8.6091  -8.5587  -8.5058  -8.4806  -7.4966  -5.6835
    -4.9565  -4.1210  -3.8838  -3.7279  -3.0077  -2.9641  -2.9152  -2.8655
    -2.8644  -2.8064  -2.7534  -2.6707  -2.6613  -2.6492  -2.6316  -2.5854
    -2.5485  -2.5316  -2.5026  -2.4801  -2.4792  -2.4612  -2.4605  -2.4366
    -2.4327  -2.4206  -2.4116  -2.3730  -2.3439  -2.3398  -2.2926  -2.0328
    -1.8871  -1.7177  -1.0068  -0.2106   0.0847   0.2702   0.9545   1.3812
     1.9576   2.6372   2.8819   3.0198   3.2870   3.3745   3.5703   3.8720
     4.0757   4.1890   4.4701

          k = 0.0149-0.0375 0.0000 ( 33719 PWs)   bands (ev):

    -9.3462  -9.3217  -9.3151  -9.2828  -9.2051  -9.0658  -9.0568  -9.0400
    -9.0009  -8.9915  -8.9382  -8.9306  -8.9212  -8.9160  -8.8867  -8.8481
    -8.8130  -8.7889  -8.7435  -8.7143  -8.7109  -8.6987  -8.6889  -8.6614
    -8.6281  -8.5724  -8.5403  -8.4992  -8.4972  -8.4044  -7.7394  -5.9006
    -4.4215  -4.0062  -3.9721  -3.5874  -2.9909  -2.9209  -2.9051  -2.8449
    -2.8068  -2.7837  -2.7507  -2.6975  -2.6634  -2.6394  -2.6390  -2.6100
    -2.5216  -2.4890  -2.4769  -2.4720  -2.4681  -2.4233  -2.4215  -2.4007
    -2.3855  -2.3694  -2.3446  -2.3159  -2.2882  -2.2789  -2.1783  -1.8839
    -1.8631  -1.5894  -1.0055  -0.1256  -0.0468   0.4918   0.6256   1.5728
     1.7810   2.0084   2.0651   2.5918   3.1638   3.1972   3.2072   3.9135
     3.9621   4.1627   4.2543

          k = 0.0149-0.0216 0.0000 ( 33741 PWs)   bands (ev):

    -9.3866  -9.3764  -9.3539  -9.3014  -9.2164  -9.1172  -9.0639  -9.0529
    -9.0510  -9.0082  -8.9446  -8.9208  -8.9100  -8.9020  -8.8883  -8.8555
    -8.8378  -8.7902  -8.7474  -8.7215  -8.7083  -8.6971  -8.6613  -8.6254
    -8.6005  -8.5419  -8.4984  -8.4862  -8.4490  -8.3459  -7.8971  -6.0402
    -4.0790  -4.0344  -3.7783  -3.5198  -3.0205  -2.9009  -2.8685  -2.8598
    -2.8297  -2.7942  -2.7457  -2.6824  -2.6724  -2.6303  -2.6177  -2.6075
    -2.5086  -2.5020  -2.4732  -2.4715  -2.4712  -2.3839  -2.3627  -2.3607
    -2.3454  -2.3279  -2.3094  -2.2870  -2.2824  -2.2055  -1.9628  -1.8191
    -1.8023  -1.0478  -0.8566  -0.2973  -0.1902   0.1888   0.2329   1.5139
     1.7087   1.9096   2.0620   2.1412   2.3824   2.7775   3.0787   3.8120
     3.9315   4.1121   4.2629

          k = 0.0297-0.0113 0.0000 ( 33716 PWs)   bands (ev):

    -9.3785  -9.3734  -9.3490  -9.2885  -9.2129  -9.1141  -9.0632  -9.0552
    -9.0494  -9.0181  -8.9496  -8.9153  -8.9069  -8.9004  -8.8864  -8.8503
    -8.8380  -8.7824  -8.7572  -8.7185  -8.7083  -8.6826  -8.6593  -8.6253
    -8.5975  -8.5412  -8.5134  -8.5123  -8.4311  -8.3490  -7.8401  -5.9861
    -4.2205  -4.0148  -3.6978  -3.5310  -3.0381  -2.9670  -2.9140  -2.8636
    -2.8441  -2.8043  -2.7842  -2.7073  -2.6755  -2.6107  -2.6098  -2.5860
    -2.5456  -2.5015  -2.4889  -2.4628  -2.4591  -2.3987  -2.3884  -2.3694
    -2.3676  -2.3413  -2.3114  -2.2987  -2.2793  -2.2148  -2.0775  -1.9263
    -1.4314  -1.3224  -0.7200  -0.3729  -0.2140  -0.2028   0.5168   0.9406
     1.6863   1.7675   2.3858   2.4631   2.8309   3.0644   3.1832   3.7520
     3.8771   3.9225   4.1643

          k = 0.0297 0.0046 0.0000 ( 33696 PWs)   bands (ev):

    -9.4057  -9.3918  -9.3657  -9.2809  -9.2165  -9.1467  -9.0846  -9.0665
    -9.0621  -9.0319  -8.9713  -8.9237  -8.8970  -8.8723  -8.8627  -8.8542
    -8.8464  -8.7744  -8.7720  -8.7201  -8.7046  -8.6633  -8.6378  -8.6019
    -8.5760  -8.5341  -8.5197  -8.5072  -8.3839  -8.3171  -7.8572  -5.9953
    -4.0278  -4.0065  -3.5473  -3.4621  -3.1526  -3.0953  -2.9334  -2.9026
    -2.8474  -2.8324  -2.8200  -2.7491  -2.6615  -2.6143  -2.5873  -2.5587
    -2.5458  -2.5167  -2.5114  -2.4705  -2.4591  -2.4226  -2.3805  -2.3767
    -2.3461  -2.3202  -2.3010  -2.2637  -2.2549  -2.1947  -1.9398  -1.9282
    -1.2649  -1.1429  -1.0960  -0.4916  -0.2555  -0.1889   0.3329   0.4537
     1.5253   1.7682   2.4870   2.5135   2.7017   2.9771   3.1232   3.6755
     3.8389   4.1444   4.2077

          k = 0.0297 0.0205 0.0000 ( 33691 PWs)   bands (ev):

    -9.4137  -9.3863  -9.3646  -9.2614  -9.2160  -9.1517  -9.0940  -9.0692
    -9.0607  -9.0471  -8.9804  -8.9255  -8.8864  -8.8594  -8.8585  -8.8470
    -8.8439  -8.7843  -8.7675  -8.7209  -8.6993  -8.6425  -8.6268  -8.5938
    -8.5658  -8.5593  -8.5232  -8.5119  -8.3621  -8.3097  -7.7882  -5.9279
    -4.0192  -3.8784  -3.5137  -3.4158  -3.3759  -3.1752  -2.9629  -2.9457
    -2.8972  -2.8373  -2.8371  -2.7789  -2.6779  -2.6213  -2.5797  -2.5668
    -2.5424  -2.5335  -2.5272  -2.4994  -2.4898  -2.4267  -2.3945  -2.3896
    -2.3380  -2.3243  -2.3033  -2.2468  -2.2444  -2.1961  -1.9114  -1.8121
    -1.6678  -1.5844  -0.7424  -0.7339  -0.2983  -0.0613   0.2452   0.4652
     1.8377   2.0481   2.1196   2.1857   2.3859   3.1695   3.5758   3.9037
     4.2051   4.4943   4.5192

          k = 0.0297 0.0364 0.0000 ( 33680 PWs)   bands (ev):

    -9.3962  -9.3646  -9.3459  -9.2322  -9.2074  -9.1325  -9.0803  -9.0769
    -9.0654  -9.0411  -8.9760  -8.9175  -8.8807  -8.8672  -8.8536  -8.8533
    -8.8286  -8.7923  -8.7635  -8.7225  -8.6928  -8.6296  -8.6221  -8.6009
    -8.5866  -8.5686  -8.5556  -8.5183  -8.3695  -8.3261  -7.6308  -5.7830
    -4.1792  -4.0153  -3.5511  -3.4746  -3.2980  -3.2803  -2.9983  -2.9797
    -2.9367  -2.8686  -2.8428  -2.7912  -2.6991  -2.6318  -2.6067  -2.6027
    -2.5961  -2.5712  -2.5349  -2.5027  -2.5011  -2.4278  -2.4270  -2.3842
    -2.3598  -2.3416  -2.3235  -2.2637  -2.2553  -2.2133  -2.0965  -1.9561
    -1.7721  -1.3741  -1.3301  -0.6647  -0.2411   0.0898   0.2655   0.7526
     1.6301   1.9008   2.0813   2.4080   3.2173   3.2872   4.0368   4.2684
     4.2922   4.3380   4.4225

          k = 0.0297 0.0523 0.0000 ( 33669 PWs)   bands (ev):

    -9.3549  -9.3304  -9.3109  -9.1966  -9.1897  -9.0952  -9.0919  -9.0851
    -9.0349  -9.0104  -8.9587  -8.9000  -8.8955  -8.8835  -8.8793  -8.8363
    -8.8134  -8.7943  -8.7634  -8.7252  -8.6863  -8.6483  -8.6212  -8.6130
    -8.6118  -8.5908  -8.5851  -8.5368  -8.4051  -8.3648  -7.3866  -5.5602
    -4.7629  -4.0717  -3.6886  -3.4617  -3.3474  -3.1885  -3.0441  -3.0084
    -2.9551  -2.9071  -2.8371  -2.8002  -2.7152  -2.7079  -2.6473  -2.6386
    -2.6290  -2.5874  -2.5380  -2.5142  -2.5084  -2.4596  -2.4319  -2.4280
    -2.3766  -2.3540  -2.3512  -2.3397  -2.2759  -2.2465  -2.2083  -2.0380
    -1.8518  -1.6515  -0.9742  -0.8999   0.1882   0.3080   0.3623   0.3951
     1.2908   1.9764   2.7567   2.9940   3.3605   3.4709   4.2355   4.2627
     4.3255   4.5595   4.6466

          k = 0.0297 0.0682 0.0000 ( 33646 PWs)   bands (ev):

    -9.2946  -9.2866  -9.2634  -9.1660  -9.1585  -9.1146  -9.1055  -9.0321
    -8.9718  -8.9708  -8.9403  -8.9308  -8.9226  -8.9017  -8.8725  -8.8101
    -8.8045  -8.7892  -8.7677  -8.7275  -8.6817  -8.6815  -8.6503  -8.6476
    -8.6382  -8.6139  -8.5890  -8.5651  -8.4618  -8.4231  -7.0591  -5.3816
    -5.2619  -4.2125  -3.9873  -3.4694  -3.3097  -3.1266  -3.1076  -3.0019
    -2.9487  -2.9304  -2.8266  -2.8204  -2.7525  -2.7267  -2.6648  -2.6579
    -2.6560  -2.5823  -2.5557  -2.5328  -2.5254  -2.5064  -2.4724  -2.4352
    -2.4252  -2.3640  -2.3608  -2.3468  -2.3018  -2.2863  -2.2549  -2.1371
    -2.0747  -1.4716  -1.1899  -0.3896  -0.2226   0.2752   0.7915   0.9681
     1.0292   1.9580   2.7546   3.3438   3.7092   4.1052   4.1356   4.2790
     4.5531   4.8388   5.1843

          k = 0.0297-0.1068 0.0000 ( 33639 PWs)   bands (ev):

    -9.2354  -9.2241  -9.2128  -9.1375  -9.1364  -9.1233  -9.1233  -9.0035
    -8.9886  -8.9429  -8.9421  -8.9244  -8.8937  -8.8921  -8.8378  -8.7983
    -8.7846  -8.7777  -8.7755  -8.7283  -8.7226  -8.6859  -8.6854  -8.6760
    -8.6654  -8.6474  -8.6088  -8.6008  -8.5288  -8.4818  -6.6536  -5.9645
    -4.8982  -4.3930  -4.3753  -3.5045  -3.2295  -3.1481  -3.1258  -2.9526
    -2.9228  -2.9190  -2.8528  -2.7925  -2.7390  -2.7279  -2.6749  -2.6615
    -2.6551  -2.5714  -2.5692  -2.5582  -2.5519  -2.5257  -2.4810  -2.4619
    -2.4240  -2.3822  -2.3767  -2.3568  -2.3414  -2.3159  -2.3128  -2.2514
    -2.0998  -1.3599  -1.2071  -0.7211   0.2141   0.4344   0.8356   1.2661
     1.5180   2.0183   2.2876   3.7798   3.8341   4.1312   4.4685   4.7037
     4.8164   4.9216   5.2070

          k = 0.0297-0.0909 0.0000 ( 33665 PWs)   bands (ev):

    -9.1985  -9.1743  -9.1600  -9.1505  -9.1174  -9.1145  -9.0954  -9.0649
    -9.0400  -9.0024  -8.8751  -8.8618  -8.8526  -8.8164  -8.8009  -8.7991
    -8.7902  -8.7873  -8.7475  -8.7391  -8.7282  -8.7150  -8.7067  -8.7039
    -8.6807  -8.6769  -8.6653  -8.6401  -8.6156  -8.4980  -6.4837  -6.1778
    -4.8113  -4.5575  -4.4350  -3.5818  -3.2638  -3.0967  -3.0346  -2.9274
    -2.8904  -2.8846  -2.8518  -2.7507  -2.7120  -2.6989  -2.6601  -2.6456
    -2.6412  -2.5837  -2.5753  -2.5566  -2.5330  -2.5165  -2.4873  -2.4760
    -2.4528  -2.4238  -2.4061  -2.4028  -2.3819  -2.3402  -2.2892  -2.2774
    -2.1250  -1.4566  -1.0826  -0.8970   0.3683   0.7046   1.1191   1.4604
     1.8048   1.8944   2.7929   3.7445   3.9589   4.0466   4.0711   4.2950
     4.4946   5.0917   5.2005

          k = 0.0297-0.0750 0.0000 ( 33674 PWs)   bands (ev):

    -9.2190  -9.1730  -9.1633  -9.1391  -9.1132  -9.1124  -9.0792  -9.0661
    -9.0595  -9.0265  -8.8608  -8.8273  -8.8177  -8.8027  -8.7959  -8.7958
    -8.7755  -8.7662  -8.7516  -8.7499  -8.7437  -8.7285  -8.7150  -8.7065
    -8.6925  -8.6922  -8.6841  -8.6786  -8.6431  -8.4947  -6.9258  -5.6459
    -5.1881  -4.5911  -4.0680  -3.6892  -3.2637  -3.0264  -2.9170  -2.9105
    -2.8877  -2.8421  -2.8244  -2.7024  -2.6807  -2.6416  -2.6335  -2.6195
    -2.5941  -2.5779  -2.5709  -2.5354  -2.5272  -2.5015  -2.4992  -2.4906
    -2.4721  -2.4558  -2.4247  -2.4169  -2.4018  -2.3551  -2.2830  -2.2293
    -2.1486  -1.5329  -1.3681  -0.4938   0.4834   0.6278   0.9908   1.9441
     2.0438   2.3947   3.0903   3.3792   3.6158   3.6935   3.8465   4.2073
     4.6092   4.6512   4.7128

          k = 0.0297-0.0591 0.0000 ( 33688 PWs)   bands (ev):

    -9.2473  -9.2327  -9.2051  -9.1979  -9.1505  -9.0909  -9.0523  -9.0403
    -9.0148  -8.9849  -8.9173  -8.8811  -8.8335  -8.8297  -8.8137  -8.8114
    -8.7990  -8.7712  -8.7565  -8.7380  -8.7258  -8.7241  -8.7131  -8.7073
    -8.6923  -8.6614  -8.6509  -8.6372  -8.5665  -8.4910  -7.2837  -5.5002
    -5.0885  -4.5785  -3.8013  -3.7871  -3.1626  -2.9376  -2.9174  -2.8993
    -2.8163  -2.8015  -2.7850  -2.7047  -2.6378  -2.6182  -2.6025  -2.5888
    -2.5830  -2.5614  -2.5239  -2.5218  -2.5147  -2.4906  -2.4814  -2.4654
    -2.4610  -2.4247  -2.4176  -2.4066  -2.3973  -2.3629  -2.2826  -2.1882
    -2.0415  -1.5876  -1.5843  -0.0160   0.5190   0.6016   0.6065   2.1204
     2.3928   2.7706   2.8598   2.9977   3.3943   3.5635   3.6133   3.6845
     4.3725   4.4304   4.5401

          k = 0.0297-0.0432 0.0000 ( 33748 PWs)   bands (ev):

    -9.2963  -9.2741  -9.2661  -9.2492  -9.1901  -9.0750  -9.0331  -9.0050
    -8.9685  -8.9673  -8.9610  -8.9513  -8.9115  -8.8766  -8.8535  -8.8382
    -8.7986  -8.7747  -8.7358  -8.7241  -8.7156  -8.7121  -8.7089  -8.6993
    -8.6651  -8.6098  -8.5903  -8.5723  -8.4919  -8.4794  -7.5547  -5.7386
    -4.6277  -4.4098  -3.8992  -3.6568  -3.0177  -2.9501  -2.9041  -2.8386
    -2.7912  -2.7813  -2.7539  -2.6972  -2.6543  -2.6422  -2.6214  -2.6173
    -2.5170  -2.5164  -2.4952  -2.4838  -2.4832  -2.4640  -2.4614  -2.4391
    -2.4195  -2.3905  -2.3767  -2.3648  -2.3483  -2.2834  -2.2731  -2.1723
    -1.7508  -1.6999  -1.5472   0.1962   0.4029   0.4053   0.6989   1.8173
     2.2481   2.2853   2.3159   3.0558   3.2565   3.3553   3.6779   3.8115
     4.1145   4.3216   4.3852

          k = 0.0297-0.0272 0.0000 ( 33719 PWs)   bands (ev):

    -9.3462  -9.3217  -9.3151  -9.2828  -9.2051  -9.0658  -9.0568  -9.0400
    -9.0009  -8.9915  -8.9382  -8.9306  -8.9212  -8.9160  -8.8867  -8.8481
    -8.8130  -8.7889  -8.7435  -8.7143  -8.7109  -8.6987  -8.6889  -8.6614
    -8.6281  -8.5724  -8.5403  -8.4992  -8.4972  -8.4044  -7.7394  -5.9006
    -4.4215  -4.0062  -3.9721  -3.5874  -2.9909  -2.9209  -2.9051  -2.8449
    -2.8068  -2.7837  -2.7507  -2.6975  -2.6634  -2.6394  -2.6390  -2.6100
    -2.5216  -2.4890  -2.4769  -2.4720  -2.4681  -2.4233  -2.4215  -2.4007
    -2.3855  -2.3694  -2.3446  -2.3159  -2.2882  -2.2789  -2.1783  -1.8839
    -1.8631  -1.5894  -1.0055  -0.1256  -0.0468   0.4918   0.6256   1.5728
     1.7810   2.0084   2.0651   2.5918   3.1638   3.1972   3.2072   3.9135
     3.9622   4.1627   4.2543

          k = 0.0446-0.0170 0.0000 ( 33705 PWs)   bands (ev):

    -9.3323  -9.3153  -9.3064  -9.2601  -9.1975  -9.0771  -9.0516  -9.0486
    -9.0032  -8.9888  -8.9382  -8.9302  -8.9211  -8.9194  -8.8798  -8.8366
    -8.8127  -8.7765  -8.7588  -8.7144  -8.7084  -8.6867  -8.6741  -8.6589
    -8.6234  -8.5732  -8.5709  -8.5274  -8.4779  -8.4090  -7.6244  -5.7917
    -4.7521  -3.9415  -3.7955  -3.6468  -3.0318  -2.9668  -2.9295  -2.9141
    -2.8508  -2.8473  -2.7743  -2.7101  -2.6881  -2.6488  -2.5978  -2.5782
    -2.5740  -2.5115  -2.4947  -2.4820  -2.4627  -2.4425  -2.4367  -2.4099
    -2.4082  -2.4011  -2.3931  -2.3134  -2.3034  -2.2802  -2.2543  -1.9424
    -1.7952  -1.3646  -0.9132  -0.3183   0.0712   0.2421   0.2927   0.6339
     2.1454   2.3098   2.5107   2.7811   3.1591   3.3128   3.3262   4.0494
     4.2253   4.3517   4.4189

          k = 0.0446-0.0011 0.0000 ( 33693 PWs)   bands (ev):

    -9.3655  -9.3567  -9.3349  -9.2517  -9.2032  -9.1052  -9.0770  -9.0566
    -9.0444  -9.0291  -8.9562  -8.9052  -8.8990  -8.8975  -8.8827  -8.8379
    -8.8341  -8.7766  -8.7690  -8.7181  -8.7014  -8.6545  -8.6482  -8.6238
    -8.5914  -8.5555  -8.5551  -8.5390  -8.4118  -8.3570  -7.6695  -5.8250
    -4.4857  -3.9786  -3.6260  -3.5334  -3.1349  -3.0997  -2.9572  -2.9163
    -2.8878  -2.8780  -2.8129  -2.7532  -2.6893  -2.6208  -2.6107  -2.5973
    -2.5584  -2.5320  -2.5104  -2.5097  -2.4713  -2.4342  -2.4239  -2.3998
    -2.3791  -2.3589  -2.3250  -2.3211  -2.2766  -2.2309  -2.1776  -1.8272
    -1.7163  -1.4945  -0.7610  -0.4582  -0.1511   0.1062   0.1570   0.4657
     1.5919   2.1324   2.1848   2.9052   3.2622   3.3631   3.6669   3.7201
     4.0088   4.1535   4.3072

          k = 0.0446 0.0148 0.0000 ( 33680 PWs)   bands (ev):

    -9.3962  -9.3646  -9.3459  -9.2322  -9.2074  -9.1325  -9.0803  -9.0769
    -9.0654  -9.0411  -8.9760  -8.9175  -8.8807  -8.8672  -8.8536  -8.8533
    -8.8286  -8.7923  -8.7635  -8.7225  -8.6928  -8.6296  -8.6221  -8.6009
    -8.5866  -8.5686  -8.5556  -8.5183  -8.3695  -8.3261  -7.6308  -5.7830
    -4.1792  -4.0153  -3.5511  -3.4746  -3.2980  -3.2803  -2.9983  -2.9797
    -2.9367  -2.8686  -2.8428  -2.7912  -2.6991  -2.6318  -2.6067  -2.6027
    -2.5961  -2.5712  -2.5349  -2.5027  -2.5011  -2.4278  -2.4270  -2.3842
    -2.3598  -2.3416  -2.3235  -2.2637  -2.2553  -2.2133  -2.0965  -1.9561
    -1.7721  -1.3741  -1.3301  -0.6647  -0.2411   0.0898   0.2655   0.7526
     1.6301   1.9008   2.0813   2.4080   3.2173   3.2872   4.0366   4.2684
     4.2922   4.3374   4.4226

          k = 0.0446 0.0308 0.0000 ( 33639 PWs)   bands (ev):

    -9.4030  -9.3587  -9.3383  -9.2083  -9.2034  -9.1338  -9.0874  -9.0823
    -9.0787  -9.0354  -8.9826  -8.9217  -8.8655  -8.8576  -8.8546  -8.8399
    -8.8204  -8.8028  -8.7609  -8.7276  -8.6836  -8.6194  -8.6170  -8.6002
    -8.5924  -8.5698  -8.5577  -8.5105  -8.3572  -8.3161  -7.5055  -5.6647
    -4.1077  -3.9192  -3.7515  -3.5216  -3.4143  -3.3227  -3.0570  -3.0309
    -2.9728  -2.8822  -2.8610  -2.8155  -2.7197  -2.6871  -2.6557  -2.6145
    -2.6006  -2.5901  -2.5660  -2.5376  -2.4913  -2.4449  -2.4244  -2.3662
    -2.3616  -2.3445  -2.3195  -2.2485  -2.2455  -2.2062  -2.1951  -2.0889
    -1.7156  -1.6559  -1.1093  -0.9894  -0.8451   0.2397   0.8985   1.1025
     1.1627   1.7937   2.0242   2.9217   3.1357   3.3770   4.1234   4.2076
     4.4574   4.6645   4.8464

          k = 0.0446 0.0467 0.0000 ( 33668 PWs)   bands (ev):

    -9.3852  -9.3410  -9.3137  -9.1979  -9.1696  -9.1151  -9.1004  -9.0925
    -9.0616  -9.0169  -8.9760  -8.9155  -8.8644  -8.8582  -8.8508  -8.8481
    -8.8172  -8.7997  -8.7612  -8.7324  -8.6755  -8.6505  -8.6204  -8.6106
    -8.5981  -8.5665  -8.5612  -8.5165  -8.3745  -8.3288  -7.2924  -5.4691
    -4.3859  -4.3078  -3.5977  -3.5408  -3.4420  -3.2959  -3.1427  -3.0722
    -2.9879  -2.9147  -2.8670  -2.8282  -2.7719  -2.7388  -2.6837  -2.6507
    -2.6159  -2.6106  -2.5726  -2.5596  -2.4905  -2.4701  -2.4222  -2.4157
    -2.3599  -2.3504  -2.3254  -2.2939  -2.2743  -2.2555  -2.2361  -2.1899
    -1.6054  -1.5136  -1.4680  -1.4225  -0.3634   0.4985   0.6507   0.7863
     1.1668   2.1305   2.6907   2.8713   3.5143   3.6966   3.8677   4.3437
     4.5007   4.6347   5.1466

          k = 0.0446 0.0626 0.0000 ( 33625 PWs)   bands (ev):

    -9.3444  -9.3119  -9.2766  -9.1767  -9.1329  -9.1189  -9.1062  -9.0780
    -9.0178  -8.9892  -8.9573  -8.8983  -8.8951  -8.8780  -8.8636  -8.8341
    -8.8173  -8.7931  -8.7651  -8.7336  -8.6772  -8.6707  -8.6433  -8.6408
    -8.6161  -8.5802  -8.5508  -8.5346  -8.4152  -8.3668  -6.9944  -5.1980
    -4.9957  -4.5613  -3.7898  -3.3957  -3.3797  -3.2473  -3.2350  -3.1026
    -2.9822  -2.9454  -2.8603  -2.8599  -2.7987  -2.7547  -2.7024  -2.6792
    -2.6384  -2.6142  -2.5781  -2.5705  -2.5017  -2.4993  -2.4802  -2.4228
    -2.4020  -2.3662  -2.3373  -2.3347  -2.2841  -2.2724  -2.2595  -2.2193
    -1.9119  -1.6413  -1.4205  -1.0677   0.0997   0.2678   0.4943   0.8518
     1.2127   2.6246   2.7565   3.2226   3.4865   3.8398   3.8504   4.6066
     4.8906   5.1270   5.4772

          k = 0.0446-0.1125 0.0000 ( 33612 PWs)   bands (ev):

    -9.2855  -9.2724  -9.2320  -9.1492  -9.1405  -9.1210  -9.0977  -9.0237
    -8.9546  -8.9541  -8.9421  -8.9288  -8.9274  -8.8897  -8.8701  -8.8127
    -8.8088  -8.7929  -8.7729  -8.7304  -8.6995  -8.6782  -8.6746  -8.6642
    -8.6442  -8.6133  -8.5630  -8.5500  -8.4666  -8.4270  -6.6174  -5.5899
    -4.8823  -4.7700  -4.1365  -3.4169  -3.3946  -3.2168  -3.1781  -3.0507
    -2.9569  -2.9470  -2.8874  -2.8400  -2.7798  -2.7635  -2.7034  -2.6897
    -2.6505  -2.5991  -2.5876  -2.5689  -2.5475  -2.5225  -2.4911  -2.4538
    -2.4206  -2.3668  -2.3519  -2.3313  -2.3034  -2.2898  -2.2820  -2.2529
    -2.1564  -1.7594  -1.1960  -0.5508  -0.3503   0.2817   0.9816   1.2582
     1.2840   2.4349   2.9047   3.2616   3.2887   4.1154   4.8215   4.9485
     4.9923   5.1366   5.2499

          k = 0.0446-0.0966 0.0000 ( 33699 PWs)   bands (ev):

    -9.2245  -9.2172  -9.1923  -9.1571  -9.1353  -9.1197  -9.0695  -9.0096
    -8.9965  -8.9405  -8.9387  -8.9129  -8.8914  -8.8749  -8.8351  -8.8046
    -8.7945  -8.7861  -8.7751  -8.7336  -8.7221  -8.7022  -8.6960  -8.6795
    -8.6684  -8.6564  -8.5995  -8.5961  -8.5243  -8.4751  -6.1701  -6.1299
    -4.9868  -4.5361  -4.4516  -3.5206  -3.4718  -3.1437  -3.0885  -2.9622
    -2.9222  -2.9144  -2.8965  -2.8047  -2.7525  -2.7405  -2.6925  -2.6827
    -2.6438  -2.6008  -2.5762  -2.5612  -2.5457  -2.5386  -2.4948  -2.4674
    -2.4232  -2.3781  -2.3645  -2.3609  -2.3359  -2.3181  -2.2998  -2.2858
    -2.2634  -1.8358  -0.8954  -0.8223   0.1387   0.2006   1.3282   1.7757
     1.7846   1.9018   2.9120   3.1437   3.7320   4.0204   4.4798   4.5694
     5.1764   5.3357   5.3941

          k = 0.0446-0.0806 0.0000 ( 33684 PWs)   bands (ev):

    -9.2027  -9.1706  -9.1574  -9.1540  -9.1156  -9.0943  -9.0847  -9.0681
    -9.0320  -9.0045  -8.8667  -8.8644  -8.8495  -8.8147  -8.8012  -8.7966
    -8.7939  -8.7880  -8.7563  -8.7387  -8.7259  -8.7166  -8.7093  -8.7071
    -8.6912  -8.6800  -8.6741  -8.6402  -8.6167  -8.4806  -6.5977  -5.6674
    -5.0915  -4.9165  -4.0679  -3.5824  -3.5543  -3.0825  -2.9713  -2.9200
    -2.8961  -2.8767  -2.8615  -2.7521  -2.7238  -2.6856  -2.6773  -2.6403
    -2.6349  -2.6117  -2.5659  -2.5358  -2.5281  -2.5063  -2.4870  -2.4723
    -2.4505  -2.4284  -2.4023  -2.3960  -2.3804  -2.3344  -2.3107  -2.2742
    -2.2515  -1.8842  -1.1469  -0.5158   0.0662   0.9904   1.3474   1.4512
     2.3313   2.6272   2.7890   3.0471   3.0854   4.1141   4.2720   4.6257
     4.7696   4.9042   5.0075

          k = 0.0446-0.0647 0.0000 ( 33698 PWs)   bands (ev):

    -9.2264  -9.1760  -9.1635  -9.1394  -9.1110  -9.1108  -9.0802  -9.0646
    -9.0556  -9.0137  -8.8622  -8.8220  -8.8159  -8.8129  -8.8036  -8.7896
    -8.7757  -8.7689  -8.7511  -8.7503  -8.7446  -8.7223  -8.7135  -8.7125
    -8.6927  -8.6923  -8.6839  -8.6811  -8.6519  -8.4831  -6.9838  -5.2428
    -5.1866  -5.0629  -3.8524  -3.6977  -3.4019  -3.0071  -2.9132  -2.8885
    -2.8757  -2.8331  -2.8064  -2.7349  -2.6795  -2.6292  -2.6238  -2.6092
    -2.5956  -2.5883  -2.5626  -2.5354  -2.5100  -2.4982  -2.4965  -2.4805
    -2.4727  -2.4405  -2.4238  -2.4062  -2.3962  -2.3563  -2.2931  -2.2773
    -2.1202  -1.8738  -1.3996  -0.1390   0.1464   0.9240   1.2508   1.8744
     2.2077   2.8063   3.0061   3.2187   3.4767   3.6080   3.8197   3.9614
     3.9916   4.6505   4.9231

          k = 0.0446-0.0488 0.0000 ( 33688 PWs)   bands (ev):

    -9.2473  -9.2327  -9.2051  -9.1979  -9.1505  -9.0909  -9.0523  -9.0403
    -9.0148  -8.9849  -8.9173  -8.8811  -8.8335  -8.8297  -8.8137  -8.8114
    -8.7990  -8.7712  -8.7565  -8.7380  -8.7258  -8.7241  -8.7131  -8.7073
    -8.6923  -8.6614  -8.6509  -8.6372  -8.5665  -8.4910  -7.2837  -5.5002
    -5.0885  -4.5785  -3.8013  -3.7871  -3.1626  -2.9376  -2.9174  -2.8993
    -2.8163  -2.8015  -2.7850  -2.7047  -2.6378  -2.6182  -2.6025  -2.5888
    -2.5830  -2.5614  -2.5239  -2.5218  -2.5147  -2.4906  -2.4814  -2.4654
    -2.4610  -2.4247  -2.4176  -2.4066  -2.3973  -2.3629  -2.2826  -2.1882
    -2.0415  -1.5876  -1.5843  -0.0160   0.5190   0.6016   0.6065   2.1204
     2.3928   2.7706   2.8598   2.9977   3.3943   3.5634   3.6133   3.6845
     4.3728   4.4304   4.5402

          k = 0.0446-0.0329 0.0000 ( 33692 PWs)   bands (ev):

    -9.2904  -9.2640  -9.2623  -9.2456  -9.1861  -9.0810  -9.0413  -9.0040
    -8.9684  -8.9660  -8.9605  -8.9535  -8.9105  -8.8815  -8.8489  -8.8333
    -8.7910  -8.7740  -8.7436  -8.7290  -8.7140  -8.7063  -8.6994  -8.6978
    -8.6619  -8.6091  -8.6091  -8.5587  -8.5058  -8.4806  -7.4966  -5.6835
    -4.9565  -4.1210  -3.8838  -3.7279  -3.0077  -2.9641  -2.9152  -2.8655
    -2.8644  -2.8064  -2.7534  -2.6707  -2.6613  -2.6492  -2.6316  -2.5854
    -2.5485  -2.5316  -2.5026  -2.4801  -2.4792  -2.4612  -2.4605  -2.4366
    -2.4327  -2.4206  -2.4116  -2.3730  -2.3439  -2.3398  -2.2926  -2.0328
    -1.8871  -1.7177  -1.0068  -0.2106   0.0847   0.2702   0.9545   1.3812
     1.9576   2.6372   2.8819   3.0198   3.2870   3.3746   3.5704   3.8720
     4.0757   4.1891   4.5978

          k = 0.0595-0.0227 0.0000 ( 33666 PWs)   bands (ev):

    -9.2742  -9.2515  -9.2452  -9.2258  -9.1747  -9.0964  -9.0655  -9.0020
    -8.9727  -8.9586  -8.9573  -8.9516  -8.9075  -8.8890  -8.8424  -8.8199
    -8.7817  -8.7698  -8.7622  -8.7283  -8.7077  -8.7073  -8.6957  -8.6697
    -8.6569  -8.6362  -8.6071  -8.5448  -8.5440  -8.4833  -7.3238  -5.5203
    -5.3552  -3.9558  -3.8632  -3.7928  -3.0549  -2.9920  -2.9581  -2.9447
    -2.9030  -2.8533  -2.7529  -2.7205  -2.6860  -2.6673  -2.6133  -2.5947
    -2.5884  -2.5705  -2.5432  -2.5279  -2.5000  -2.4696  -2.4600  -2.4509
    -2.4374  -2.4304  -2.4101  -2.3635  -2.3381  -2.3356  -2.3133  -2.1817
    -1.6207  -1.3584  -1.0650  -0.3261  -0.1871   0.2596   0.5710   0.8746
     2.2921   2.5763   2.6234   2.8210   3.5418   3.6351   3.9428   4.0754
     4.3234   4.6130   4.9009

          k = 0.0595-0.0067 0.0000 ( 33638 PWs)   bands (ev):

    -9.3087  -9.3054  -9.2898  -9.2165  -9.1834  -9.0947  -9.0755  -9.0425
    -8.9907  -8.9828  -8.9387  -8.9310  -8.9212  -8.9138  -8.8745  -8.8174
    -8.8119  -8.7779  -8.7670  -8.7185  -8.6973  -8.6844  -8.6545  -8.6367
    -8.6185  -8.6090  -8.5789  -8.5666  -8.4652  -8.4164  -7.3965  -5.5769
    -5.0922  -3.9444  -3.8202  -3.5865  -3.1868  -3.0552  -2.9815  -2.9378
    -2.9190  -2.9124  -2.7948  -2.7616  -2.7000  -2.6611  -2.6507  -2.6216
    -2.6029  -2.5661  -2.5335  -2.5201  -2.4871  -2.4601  -2.4468  -2.4395
    -2.4201  -2.3940  -2.3760  -2.3301  -2.3044  -2.2825  -2.2582  -2.0871
    -1.6860  -1.6142  -0.6691  -0.3901  -0.0634  -0.0116   0.4056   0.4566
     1.8431   1.8908   2.9415   3.0491   3.2682   3.4736   4.0725   4.2467
     4.4647   4.5412   4.8416

          k = 0.0595 0.0092 0.0000 ( 33669 PWs)   bands (ev):

    -9.3549  -9.3304  -9.3109  -9.1966  -9.1897  -9.0952  -9.0919  -9.0851
    -9.0349  -9.0104  -8.9587  -8.9000  -8.8955  -8.8835  -8.8793  -8.8363
    -8.8134  -8.7943  -8.7634  -8.7252  -8.6863  -8.6483  -8.6212  -8.6130
    -8.6118  -8.5908  -8.5851  -8.5368  -8.4051  -8.3648  -7.3866  -5.5602
    -4.7629  -4.0717  -3.6886  -3.4617  -3.3474  -3.1885  -3.0441  -3.0085
    -2.9551  -2.9071  -2.8371  -2.8002  -2.7152  -2.7079  -2.6473  -2.6386
    -2.6290  -2.5874  -2.5380  -2.5142  -2.5084  -2.4597  -2.4319  -2.4280
    -2.3766  -2.3540  -2.3512  -2.3397  -2.2759  -2.2465  -2.2083  -2.0380
    -1.8518  -1.6515  -0.9742  -0.8999   0.1882   0.3080   0.3623   0.3951
     1.2908   1.9764   2.7567   2.9940   3.3605   3.4709   4.2355   4.2627
     4.3255   4.5606   4.6466

          k = 0.0595 0.0251 0.0000 ( 33668 PWs)   bands (ev):

    -9.3852  -9.3410  -9.3137  -9.1979  -9.1696  -9.1151  -9.1004  -9.0925
    -9.0616  -9.0169  -8.9760  -8.9155  -8.8644  -8.8582  -8.8508  -8.8481
    -8.8172  -8.7997  -8.7612  -8.7324  -8.6755  -8.6505  -8.6204  -8.6106
    -8.5981  -8.5665  -8.5612  -8.5165  -8.3745  -8.3288  -7.2924  -5.4691
    -4.3859  -4.3078  -3.5977  -3.5408  -3.4420  -3.2959  -3.1427  -3.0722
    -2.9879  -2.9147  -2.8670  -2.8282  -2.7719  -2.7388  -2.6837  -2.6507
    -2.6159  -2.6106  -2.5726  -2.5596  -2.4905  -2.4701  -2.4222  -2.4157
    -2.3599  -2.3504  -2.3254  -2.2939  -2.2743  -2.2555  -2.2361  -2.1899
    -1.6054  -1.5136  -1.4680  -1.4225  -0.3634   0.4985   0.6507   0.7863
     1.1668   2.1305   2.6907   2.8713   3.5143   3.6966   3.8677   4.3437
     4.5007   4.6347   5.1466

          k = 0.0595 0.0410 0.0000 ( 33630 PWs)   bands (ev):

    -9.3924  -9.3397  -9.3016  -9.2008  -9.1397  -9.1159  -9.1109  -9.0981
    -9.0601  -9.0124  -8.9808  -8.9201  -8.8550  -8.8525  -8.8401  -8.8341
    -8.8263  -8.7982  -8.7607  -8.7369  -8.6831  -8.6669  -8.6265  -8.6079
    -8.5900  -8.5500  -8.5408  -8.5089  -8.3728  -8.3141  -7.1116  -5.3028
    -4.6277  -4.0336  -3.9533  -3.5347  -3.4425  -3.2786  -3.2784  -3.1159
    -3.0065  -2.9480  -2.8839  -2.8399  -2.8334  -2.7669  -2.7238  -2.6597
    -2.6381  -2.6136  -2.6029  -2.5892  -2.4967  -2.4814  -2.4205  -2.4190
    -2.3978  -2.3688  -2.3306  -2.3176  -2.2671  -2.2519  -2.2507  -2.2116
    -1.7387  -1.6836  -1.4883  -1.1741  -0.9100   0.3762   0.7080   1.1322
     1.1597   2.4947   2.5316   3.3646   3.6445   3.7429   4.0086   4.5022
     4.6782   4.6851   4.7889

          k = 0.0595 0.0569 0.0000 ( 33595 PWs)   bands (ev):

    -9.3756  -9.3261  -9.2779  -9.1904  -9.1242  -9.1116  -9.1056  -9.0962
    -9.0358  -8.9990  -8.9733  -8.9128  -8.8635  -8.8490  -8.8454  -8.8338
    -8.8300  -8.8004  -8.7628  -8.7353  -8.7088  -8.6635  -8.6481  -8.6131
    -8.5954  -8.5550  -8.5194  -8.5147  -8.3954  -8.3263  -6.8453  -5.0730
    -4.9408  -4.5639  -3.6623  -3.5753  -3.5068  -3.3248  -3.2678  -3.1542
    -3.0069  -2.9885  -2.8872  -2.8770  -2.8349  -2.7941  -2.7461  -2.6833
    -2.6455  -2.6285  -2.6180  -2.5957  -2.5243  -2.4968  -2.4789  -2.4223
    -2.3960  -2.3735  -2.3685  -2.3210  -2.3143  -2.2584  -2.2552  -2.2095
    -1.8986  -1.5914  -1.5353  -1.3382  -0.4625   0.0600   0.5487   1.0096
     1.7130   2.4257   3.0417   3.4998   3.6450   3.9254   3.9718   4.7383
     5.0160   5.0800   5.3785

          k = 0.0595-0.1181 0.0000 ( 33597 PWs)   bands (ev):

    -9.3366  -9.3009  -9.2457  -9.1676  -9.1407  -9.1158  -9.0782  -9.0663
    -8.9935  -8.9774  -8.9542  -8.8963  -8.8944  -8.8815  -8.8465  -8.8328
    -8.8286  -8.8048  -8.7682  -8.7315  -8.7237  -8.6772  -8.6556  -8.6361
    -8.6132  -8.5770  -8.5330  -8.5065  -8.4367  -8.3659  -6.4985  -5.2451
    -5.1488  -4.7373  -3.8746  -3.6917  -3.3415  -3.2611  -3.2302  -3.1808
    -2.9946  -2.9863  -2.8991  -2.8763  -2.8162  -2.8146  -2.7468  -2.6980
    -2.6426  -2.6357  -2.6193  -2.5892  -2.5565  -2.5216  -2.4859  -2.4457
    -2.4195  -2.3954  -2.3705  -2.3323  -2.3063  -2.2788  -2.2701  -2.2251
    -1.9774  -1.9386  -1.1613  -1.1245  -0.1726   0.0035   0.1844   1.3935
     2.2303   2.5397   2.7760   2.9673   3.8972   4.1941   4.6907   4.9148
     5.0507   5.2622   5.3687

          k = 0.0595-0.1022 0.0000 ( 33622 PWs)   bands (ev):

    -9.2802  -9.2652  -9.2078  -9.1603  -9.1392  -9.1278  -9.0513  -9.0194
    -8.9482  -8.9474  -8.9361  -8.9317  -8.9261  -8.8818  -8.8668  -8.8220
    -8.8086  -8.8073  -8.7771  -8.7354  -8.7227  -8.6913  -8.6735  -8.6591
    -8.6412  -8.6138  -8.5618  -8.5239  -8.4746  -8.4286  -6.0804  -5.6988
    -5.4608  -4.3678  -4.2214  -3.8570  -3.3665  -3.1904  -3.1284  -3.0829
    -2.9680  -2.9458  -2.9083  -2.8503  -2.8127  -2.7827  -2.7271  -2.7039
    -2.6470  -2.6158  -2.6121  -2.5672  -2.5573  -2.5239  -2.5153  -2.4645
    -2.4239  -2.3918  -2.3628  -2.3468  -2.3144  -2.3089  -2.2915  -2.2528
    -2.1632  -2.0118  -0.8405  -0.6374  -0.4121  -0.3273   0.9244   1.8395
     2.3094   2.4385   2.5998   3.1756   3.6006   3.9430   4.5236   4.9128
     5.1280   5.1545   5.4408

          k = 0.0595-0.0863 0.0000 ( 33678 PWs)   bands (ev):

    -9.2206  -9.2147  -9.1823  -9.1670  -9.1389  -9.1125  -9.0380  -9.0191
    -9.0007  -8.9420  -8.9379  -8.9094  -8.8895  -8.8618  -8.8331  -8.8098
    -8.8036  -8.7903  -8.7749  -8.7435  -8.7198  -8.7100  -8.6996  -8.6768
    -8.6657  -8.6597  -8.5989  -8.5928  -8.5229  -8.4713  -6.1863  -5.6323
    -5.5746  -4.5860  -4.0455  -3.8955  -3.4698  -3.1408  -3.0446  -2.9679
    -2.9262  -2.9085  -2.9002  -2.8078  -2.7700  -2.7371  -2.7070  -2.6892
    -2.6436  -2.6157  -2.5810  -2.5415  -2.5353  -2.5238  -2.5173  -2.4684
    -2.4262  -2.3768  -2.3700  -2.3611  -2.3454  -2.3334  -2.3201  -2.2929
    -2.2675  -2.0034  -0.8554  -0.5463  -0.3398   0.1547   1.7388   1.8480
     2.2369   2.2917   2.6208   2.7315   3.9473   3.9748   4.1504   4.5271
     4.8278   5.1679   5.3848

          k = 0.0595-0.0704 0.0000 ( 33684 PWs)   bands (ev):

    -9.2027  -9.1706  -9.1574  -9.1540  -9.1156  -9.0943  -9.0847  -9.0681
    -9.0320  -9.0045  -8.8667  -8.8644  -8.8495  -8.8147  -8.8012  -8.7966
    -8.7939  -8.7880  -8.7563  -8.7387  -8.7259  -8.7166  -8.7093  -8.7071
    -8.6912  -8.6800  -8.6741  -8.6402  -8.6167  -8.4806  -6.5977  -5.6674
    -5.0915  -4.9165  -4.0679  -3.5824  -3.5543  -3.0825  -2.9713  -2.9200
    -2.8961  -2.8767  -2.8615  -2.7521  -2.7238  -2.6856  -2.6773  -2.6403
    -2.6349  -2.6117  -2.5659  -2.5358  -2.5281  -2.5063  -2.4870  -2.4723
    -2.4505  -2.4284  -2.4023  -2.3960  -2.3804  -2.3344  -2.3107  -2.2742
    -2.2515  -1.8842  -1.1469  -0.5158   0.0662   0.9904   1.3474   1.4512
     2.3313   2.6272   2.7890   3.0471   3.0854   4.1141   4.2720   4.6257
     4.7697   4.9042   5.0076

          k = 0.0595-0.0545 0.0000 ( 33674 PWs)   bands (ev):

    -9.2190  -9.1730  -9.1633  -9.1391  -9.1132  -9.1124  -9.0792  -9.0661
    -9.0595  -9.0265  -8.8608  -8.8273  -8.8177  -8.8027  -8.7959  -8.7958
    -8.7755  -8.7662  -8.7516  -8.7499  -8.7437  -8.7285  -8.7150  -8.7065
    -8.6925  -8.6922  -8.6841  -8.6786  -8.6431  -8.4947  -6.9258  -5.6459
    -5.1881  -4.5911  -4.0680  -3.6892  -3.2637  -3.0264  -2.9170  -2.9105
    -2.8877  -2.8421  -2.8244  -2.7024  -2.6807  -2.6416  -2.6335  -2.6195
    -2.5941  -2.5779  -2.5709  -2.5354  -2.5272  -2.5015  -2.4992  -2.4906
    -2.4721  -2.4558  -2.4247  -2.4169  -2.4018  -2.3551  -2.2830  -2.2293
    -2.1486  -1.5329  -1.3681  -0.4938   0.4834   0.6278   0.9908   1.9441
     2.0438   2.3947   3.0903   3.3792   3.6158   3.6935   3.8463   4.2074
     4.6166   4.6510   4.9542

          k = 0.0595-0.0386 0.0000 ( 33683 PWs)   bands (ev):

    -9.2284  -9.2252  -9.1996  -9.1922  -9.1445  -9.1013  -9.0567  -9.0540
    -9.0194  -8.9929  -8.9130  -8.8777  -8.8422  -8.8256  -8.8121  -8.8050
    -8.7832  -8.7791  -8.7550  -8.7393  -8.7232  -8.7175  -8.7121  -8.7045
    -8.6880  -8.6758  -8.6495  -8.6266  -8.5629  -8.5161  -7.1677  -5.5414
    -5.3905  -4.1704  -4.0002  -3.7829  -3.0824  -2.9995  -2.9251  -2.9132
    -2.9016  -2.8304  -2.7733  -2.6881  -2.6531  -2.6371  -2.6106  -2.6099
    -2.5820  -2.5656  -2.5486  -2.5441  -2.5320  -2.4992  -2.4794  -2.4791
    -2.4585  -2.4405  -2.4282  -2.4139  -2.4009  -2.3567  -2.2964  -2.2070
    -1.8631  -1.5238  -0.9618  -0.4122  -0.3462   0.6621   1.1810   1.1953
     2.3025   2.5321   2.9680   3.2880   3.5329   3.7009   3.7012   4.1046
     4.4695   4.5981   4.6207

          k = 0.0744-0.0283 0.0000 ( 33680 PWs)   bands (ev):

    -9.2131  -9.1939  -9.1899  -9.1821  -9.1332  -9.1184  -9.0847  -9.0570
    -9.0273  -8.9979  -8.9027  -8.8720  -8.8500  -8.8214  -8.8058  -8.8008
    -8.7904  -8.7723  -8.7495  -8.7405  -8.7236  -8.7157  -8.7069  -8.6934
    -8.6893  -8.6857  -8.6470  -8.6183  -8.5603  -8.5503  -6.9398  -5.9425
    -5.1762  -4.3378  -3.8130  -3.8107  -3.0901  -3.0233  -2.9942  -2.9610
    -2.9021  -2.8601  -2.7494  -2.7377  -2.7009  -2.6786  -2.6467  -2.6302
    -2.6044  -2.5856  -2.5605  -2.5497  -2.5324  -2.4889  -2.4817  -2.4667
    -2.4591  -2.4462  -2.4186  -2.4049  -2.3842  -2.3571  -2.3082  -2.2533
    -1.3953  -1.3209  -1.1770  -0.7368  -0.1462   0.1073   0.9862   1.5205
     2.0908   2.3489   2.3682   3.2428   3.3375   3.8489   4.6575   4.6654
     4.8087   4.8511   4.9232

          k = 0.0744-0.0124 0.0000 ( 33653 PWs)   bands (ev):

    -9.2531  -9.2348  -9.2338  -9.1800  -9.1572  -9.1154  -9.0977  -9.0012
    -8.9800  -8.9505  -8.9492  -8.9401  -8.9021  -8.8933  -8.8392  -8.8034
    -8.7787  -8.7782  -8.7692  -8.7262  -8.7166  -8.6933  -8.6904  -8.6637
    -8.6551  -8.6343  -8.6075  -8.5948  -8.5355  -8.4846  -7.0409  -5.7006
    -5.2546  -4.1796  -3.9663  -3.6109  -3.1906  -3.0617  -3.0141  -2.9568
    -2.9199  -2.9007  -2.7824  -2.7690  -2.7073  -2.6986  -2.6942  -2.6268
    -2.6220  -2.5793  -2.5533  -2.5474  -2.5328  -2.4821  -2.4656  -2.4551
    -2.4386  -2.4011  -2.3920  -2.3500  -2.3428  -2.3303  -2.3189  -2.2292
    -1.7200  -1.4573  -0.6381  -0.6009  -0.5280   0.5916   0.6469   0.8358
     1.6589   2.2664   2.4557   3.0428   3.7531   4.3899   4.4553   4.5600
     4.6203   4.6667   4.8677

          k = 0.0744 0.0035 0.0000 ( 33646 PWs)   bands (ev):

    -9.2946  -9.2866  -9.2634  -9.1660  -9.1585  -9.1146  -9.1055  -9.0321
    -8.9718  -8.9708  -8.9403  -8.9308  -8.9226  -8.9017  -8.8725  -8.8101
    -8.8045  -8.7892  -8.7677  -8.7275  -8.6817  -8.6815  -8.6503  -8.6476
    -8.6382  -8.6139  -8.5890  -8.5651  -8.4618  -8.4231  -7.0591  -5.3816
    -5.2619  -4.2125  -3.9873  -3.4694  -3.3097  -3.1266  -3.1076  -3.0019
    -2.9487  -2.9304  -2.8266  -2.8204  -2.7525  -2.7267  -2.6648  -2.6579
    -2.6560  -2.5823  -2.5557  -2.5328  -2.5254  -2.5064  -2.4724  -2.4352
    -2.4252  -2.3640  -2.3608  -2.3468  -2.3018  -2.2863  -2.2549  -2.1371
    -2.0747  -1.4716  -1.1899  -0.3896  -0.2226   0.2752   0.7915   0.9681
     1.0292   1.9580   2.7546   3.3438   3.7092   4.1052   4.1356   4.2790
     4.5529   4.8387   5.1836

          k = 0.0744 0.0194 0.0000 ( 33625 PWs)   bands (ev):

    -9.3444  -9.3119  -9.2766  -9.1767  -9.1329  -9.1189  -9.1062  -9.0780
    -9.0178  -8.9892  -8.9573  -8.8983  -8.8951  -8.8780  -8.8636  -8.8341
    -8.8173  -8.7931  -8.7651  -8.7336  -8.6772  -8.6707  -8.6433  -8.6408
    -8.6161  -8.5802  -8.5508  -8.5346  -8.4152  -8.3668  -6.9944  -5.1980
    -4.9957  -4.5613  -3.7898  -3.3957  -3.3797  -3.2473  -3.2350  -3.1026
    -2.9822  -2.9454  -2.8603  -2.8599  -2.7987  -2.7547  -2.7024  -2.6792
    -2.6384  -2.6142  -2.5781  -2.5705  -2.5017  -2.4993  -2.4802  -2.4228
    -2.4020  -2.3662  -2.3373  -2.3347  -2.2841  -2.2724  -2.2595  -2.2193
    -1.9119  -1.6413  -1.4205  -1.0677   0.0997   0.2678   0.4943   0.8518
     1.2127   2.6246   2.7565   3.2226   3.4865   3.8398   3.8504   4.6066
     4.8908   5.1271   5.4774

          k = 0.0744 0.0353 0.0000 ( 33595 PWs)   bands (ev):

    -9.3756  -9.3261  -9.2779  -9.1904  -9.1242  -9.1116  -9.1056  -9.0962
    -9.0358  -8.9990  -8.9733  -8.9128  -8.8635  -8.8490  -8.8454  -8.8338
    -8.8300  -8.8004  -8.7628  -8.7353  -8.7088  -8.6635  -8.6481  -8.6131
    -8.5954  -8.5550  -8.5194  -8.5147  -8.3954  -8.3263  -6.8453  -5.0730
    -4.9408  -4.5639  -3.6623  -3.5753  -3.5068  -3.3248  -3.2678  -3.1542
    -3.0069  -2.9885  -2.8872  -2.8770  -2.8349  -2.7941  -2.7461  -2.6833
    -2.6455  -2.6285  -2.6180  -2.5957  -2.5243  -2.4968  -2.4789  -2.4223
    -2.3960  -2.3735  -2.3685  -2.3210  -2.3143  -2.2584  -2.2552  -2.2095
    -1.8986  -1.5914  -1.5353  -1.3382  -0.4625   0.0600   0.5487   1.0096
     1.7130   2.4257   3.0417   3.4998   3.6450   3.9254   3.9718   4.7381
     5.0155   5.0801   5.3787

          k = 0.0744 0.0513 0.0000 ( 33644 PWs)   bands (ev):

    -9.3845  -9.3284  -9.2699  -9.1960  -9.1301  -9.1125  -9.1071  -9.0761
    -9.0303  -9.0010  -8.9773  -8.9158  -8.8537  -8.8515  -8.8405  -8.8293
    -8.8161  -8.8131  -8.7618  -8.7360  -8.7289  -8.6689  -8.6506  -8.6017
    -8.5879  -8.5444  -8.5076  -8.4953  -8.3981  -8.3111  -6.6117  -5.3350
    -4.8418  -4.2181  -3.9757  -3.7509  -3.5460  -3.2814  -3.2563  -3.1772
    -3.0381  -3.0140  -2.9007  -2.8904  -2.8495  -2.8367  -2.7723  -2.6917
    -2.6652  -2.6451  -2.6166  -2.6140  -2.5614  -2.5341  -2.4691  -2.4249
    -2.4247  -2.3853  -2.3690  -2.3154  -2.3002  -2.2607  -2.2523  -2.2158
    -2.0182  -1.6932  -1.2820  -1.1993  -0.9443  -0.2783   1.0697   1.1038
     1.2586   2.6489   3.4696   3.5251   3.9283   4.0986   4.4086   4.9459
     5.1560   5.1575   5.2875

          k = 0.0744-0.1238 0.0000 ( 33576 PWs)   bands (ev):

    -9.3700  -9.3186  -9.2543  -9.1865  -9.1383  -9.1116  -9.0996  -9.0572
    -9.0103  -8.9936  -8.9696  -8.9082  -8.8646  -8.8483  -8.8479  -8.8399
    -8.8164  -8.8161  -8.7638  -8.7457  -8.7268  -8.6812  -8.6500  -8.6089
    -8.5938  -8.5514  -8.5137  -8.4794  -8.4211  -8.3244  -6.2977  -5.6532
    -4.6645  -4.5647  -3.9977  -3.6994  -3.5916  -3.2494  -3.2163  -3.2079
    -3.0489  -2.9985  -2.9026  -2.9009  -2.8689  -2.8417  -2.7762  -2.7009
    -2.6649  -2.6496  -2.6246  -2.6041  -2.5863  -2.5578  -2.4652  -2.4341
    -2.4271  -2.4135  -2.3879  -2.3193  -2.2890  -2.2682  -2.2599  -2.2150
    -2.0626  -1.6273  -1.5617  -0.9992  -0.5273  -0.5136   0.4857   1.5815
     1.7105   2.3432   3.4074   3.5520   4.3312   4.5788   4.6923   4.7928
     4.9594   5.2312   5.2956

          k = 0.0744-0.1079 0.0000 ( 33606 PWs)   bands (ev):

    -9.3338  -9.2972  -9.2327  -9.1645  -9.1494  -9.1189  -9.0681  -9.0477
    -8.9792  -8.9754  -8.9520  -8.8981  -8.8916  -8.8852  -8.8398  -8.8358
    -8.8322  -8.8139  -8.7694  -8.7453  -8.7240  -8.6882  -8.6527  -8.6343
    -8.6120  -8.5760  -8.5324  -8.4758  -8.4595  -8.3655  -5.9446  -5.8692
    -5.2020  -4.2627  -4.1733  -3.9071  -3.3085  -3.2697  -3.2239  -3.1641
    -3.0159  -2.9704  -2.9086  -2.8859  -2.8633  -2.8181  -2.7604  -2.7039
    -2.6528  -2.6449  -2.6196  -2.5874  -2.5754  -2.5584  -2.4765  -2.4632
    -2.4235  -2.4189  -2.3835  -2.3313  -2.2905  -2.2805  -2.2788  -2.2272
    -2.0642  -1.9464  -1.1908  -0.7782  -0.6458  -0.0289   0.1528   1.8698
     2.2331   2.4111   2.9175   3.4823   3.4896   4.5388   4.8667   4.8784
     5.1113   5.3544   5.7501

          k = 0.0744-0.0920 0.0000 ( 33622 PWs)   bands (ev):

    -9.2802  -9.2652  -9.2078  -9.1603  -9.1392  -9.1278  -9.0513  -9.0194
    -8.9482  -8.9474  -8.9361  -8.9318  -8.9261  -8.8818  -8.8668  -8.8220
    -8.8086  -8.8073  -8.7771  -8.7354  -8.7227  -8.6913  -8.6735  -8.6591
    -8.6412  -8.6138  -8.5618  -8.5239  -8.4746  -8.4286  -6.0804  -5.6988
    -5.4608  -4.3678  -4.2214  -3.8570  -3.3665  -3.1904  -3.1284  -3.0829
    -2.9680  -2.9458  -2.9083  -2.8503  -2.8127  -2.7827  -2.7271  -2.7039
    -2.6470  -2.6158  -2.6121  -2.5672  -2.5573  -2.5239  -2.5153  -2.4645
    -2.4239  -2.3918  -2.3628  -2.3468  -2.3144  -2.3089  -2.2915  -2.2528
    -2.1632  -2.0118  -0.8405  -0.6374  -0.4121  -0.3273   0.9244   1.8395
     2.3094   2.4385   2.5998   3.1756   3.6006   3.9430   4.5236   4.9124
     5.1280   5.1542   5.4408

          k = 0.0744-0.0761 0.0000 ( 33699 PWs)   bands (ev):

    -9.2245  -9.2172  -9.1923  -9.1571  -9.1353  -9.1197  -9.0695  -9.0096
    -8.9965  -8.9405  -8.9387  -8.9129  -8.8914  -8.8749  -8.8351  -8.8046
    -8.7945  -8.7861  -8.7751  -8.7336  -8.7221  -8.7022  -8.6960  -8.6795
    -8.6684  -8.6564  -8.5995  -8.5961  -8.5243  -8.4751  -6.1701  -6.1299
    -4.9868  -4.5361  -4.4516  -3.5206  -3.4718  -3.1437  -3.0885  -2.9622
    -2.9222  -2.9144  -2.8965  -2.8047  -2.7525  -2.7405  -2.6925  -2.6827
    -2.6438  -2.6008  -2.5762  -2.5612  -2.5457  -2.5386  -2.4948  -2.4674
    -2.4232  -2.3781  -2.3645  -2.3609  -2.3359  -2.3181  -2.2998  -2.2858
    -2.2634  -1.8358  -0.8954  -0.8223   0.1387   0.2006   1.3282   1.7757
     1.7846   1.9018   2.9120   3.1437   3.7320   4.0204   4.4799   4.5693
     5.1763   5.3380   5.3949

          k = 0.0744-0.0601 0.0000 ( 33665 PWs)   bands (ev):

    -9.1985  -9.1743  -9.1600  -9.1505  -9.1174  -9.1145  -9.0954  -9.0649
    -9.0400  -9.0024  -8.8751  -8.8618  -8.8526  -8.8164  -8.8009  -8.7991
    -8.7902  -8.7873  -8.7475  -8.7391  -8.7282  -8.7150  -8.7067  -8.7039
    -8.6807  -8.6769  -8.6653  -8.6401  -8.6156  -8.4980  -6.4837  -6.1778
    -4.8113  -4.5575  -4.4350  -3.5818  -3.2638  -3.0967  -3.0346  -2.9274
    -2.8904  -2.8846  -2.8518  -2.7507  -2.7120  -2.6989  -2.6601  -2.6456
    -2.6412  -2.5837  -2.5753  -2.5566  -2.5330  -2.5165  -2.4873  -2.4760
    -2.4528  -2.4238  -2.4061  -2.4028  -2.3819  -2.3402  -2.2892  -2.2774
    -2.1250  -1.4566  -1.0826  -0.8970   0.3683   0.7046   1.1191   1.4604
     1.8048   1.8944   2.7929   3.7445   3.9589   4.0466   4.0711   4.2951
     4.4946   5.0919   5.2005

          k = 0.0744-0.0442 0.0000 ( 33674 PWs)   bands (ev):

    -9.1994  -9.1654  -9.1645  -9.1412  -9.1181  -9.1162  -9.0795  -9.0699
    -9.0662  -9.0489  -8.8556  -8.8361  -8.8202  -8.8080  -8.7850  -8.7837
    -8.7732  -8.7620  -8.7528  -8.7518  -8.7409  -8.7357  -8.7151  -8.7003
    -8.6956  -8.6923  -8.6828  -8.6782  -8.6134  -8.5264  -6.7543  -6.1021
    -5.0274  -4.4467  -4.1030  -3.6924  -3.1005  -3.0669  -2.9974  -2.9350
    -2.8850  -2.8641  -2.7979  -2.7088  -2.6871  -2.6751  -2.6510  -2.6257
    -2.6154  -2.5894  -2.5525  -2.5396  -2.5361  -2.5077  -2.4986  -2.4956
    -2.4788  -2.4425  -2.4266  -2.4182  -2.3958  -2.3578  -2.2921  -2.2699
    -1.8232  -1.2720  -0.9195  -0.8022  -0.4673   0.8783   1.2677   1.3411
     1.9101   2.1138   2.8917   3.2009   3.7853   4.0127   4.1880   4.4114
     4.5465   4.8428   4.8470

          k =-0.0892 0.0340 0.0000 ( 33646 PWs)   bands (ev):

    -9.1770  -9.1770  -9.1518  -9.1518  -9.1194  -9.1194  -9.0795  -9.0794
    -9.0608  -9.0608  -8.8467  -8.8466  -8.8169  -8.8169  -8.7800  -8.7799
    -8.7640  -8.7639  -8.7531  -8.7531  -8.7395  -8.7395  -8.7078  -8.7078
    -8.6935  -8.6935  -8.6804  -8.6803  -8.5699  -8.5699  -6.4764  -6.4764
    -4.7715  -4.7715  -3.8025  -3.8025  -3.0733  -3.0733  -2.9857  -2.9856
    -2.8779  -2.8779  -2.7533  -2.7533  -2.6978  -2.6978  -2.6399  -2.6399
    -2.6102  -2.6102  -2.5470  -2.5470  -2.5183  -2.5183  -2.4972  -2.4972
    -2.4553  -2.4553  -2.4205  -2.4205  -2.3751  -2.3751  -2.2883  -2.2883
    -1.2609  -1.2609  -1.1042  -1.1042  -0.0373  -0.0373   1.5112   1.5112
     2.0970   2.0971   2.5795   2.5796   4.0464   4.0465   4.2307   4.2307
     5.0922   5.0926   5.3191

          k =-0.0892 0.0499 0.0000 ( 33648 PWs)   bands (ev):

    -9.2017  -9.1799  -9.1704  -9.1510  -9.1369  -9.1167  -9.1090  -9.0608
    -9.0361  -9.0001  -8.8887  -8.8655  -8.8535  -8.8192  -8.7998  -8.7996
    -8.7941  -8.7760  -8.7450  -8.7401  -8.7281  -8.7167  -8.7034  -8.6946
    -8.6898  -8.6794  -8.6456  -8.6151  -8.6128  -8.5256  -6.6069  -6.2618
    -4.8682  -4.6104  -4.0381  -3.6362  -3.1233  -3.0846  -3.0504  -2.9506
    -2.8969  -2.8806  -2.8030  -2.7388  -2.7099  -2.7045  -2.6809  -2.6396
    -2.6169  -2.5915  -2.5684  -2.5599  -2.5290  -2.4916  -2.4809  -2.4754
    -2.4583  -2.4366  -2.4066  -2.4033  -2.3720  -2.3586  -2.3026  -2.2723
    -1.7760  -1.1963  -0.9494  -0.7538  -0.5594   0.7713   1.3191   1.3383
     1.4853   1.7749   3.0098   3.1054   3.6026   4.0918   4.4106   4.5087
     4.9710   5.1450   5.2474

          k =-0.0892 0.0658 0.0000 ( 33639 PWs)   bands (ev):

    -9.2354  -9.2241  -9.2128  -9.1375  -9.1364  -9.1233  -9.1233  -9.0035
    -8.9886  -8.9429  -8.9421  -8.9244  -8.8937  -8.8921  -8.8378  -8.7983
    -8.7846  -8.7777  -8.7755  -8.7283  -8.7226  -8.6859  -8.6854  -8.6760
    -8.6654  -8.6474  -8.6088  -8.6008  -8.5288  -8.4818  -6.6536  -5.9645
    -4.8982  -4.3930  -4.3753  -3.5045  -3.2295  -3.1481  -3.1258  -2.9526
    -2.9228  -2.9190  -2.8528  -2.7925  -2.7390  -2.7279  -2.6749  -2.6615
    -2.6551  -2.5714  -2.5692  -2.5582  -2.5519  -2.5257  -2.4810  -2.4619
    -2.4240  -2.3822  -2.3767  -2.3568  -2.3414  -2.3159  -2.3128  -2.2514
    -2.0998  -1.3599  -1.2071  -0.7211   0.2141   0.4344   0.8356   1.2661
     1.5180   2.0183   2.2876   3.7798   3.8340   4.1311   4.4685   4.7037
     4.8165   4.9217   5.2064

          k =-0.0892 0.0817 0.0000 ( 33612 PWs)   bands (ev):

    -9.2855  -9.2724  -9.2320  -9.1492  -9.1405  -9.1210  -9.0977  -9.0237
    -8.9546  -8.9541  -8.9421  -8.9288  -8.9274  -8.8897  -8.8701  -8.8127
    -8.8088  -8.7929  -8.7729  -8.7304  -8.6995  -8.6782  -8.6746  -8.6642
    -8.6442  -8.6133  -8.5630  -8.5500  -8.4666  -8.4270  -6.6174  -5.5899
    -4.8823  -4.7700  -4.1365  -3.4169  -3.3946  -3.2168  -3.1781  -3.0507
    -2.9569  -2.9470  -2.8874  -2.8400  -2.7798  -2.7635  -2.7034  -2.6897
    -2.6505  -2.5991  -2.5876  -2.5689  -2.5475  -2.5225  -2.4911  -2.4538
    -2.4206  -2.3668  -2.3519  -2.3313  -2.3034  -2.2898  -2.2820  -2.2529
    -2.1564  -1.7594  -1.1960  -0.5508  -0.3503   0.2817   0.9816   1.2583
     1.2840   2.4349   2.9048   3.2616   3.2887   4.1152   4.8215   4.9479
     4.9922   5.1366   5.2498

          k =-0.0892 0.0976 0.0000 ( 33597 PWs)   bands (ev):

    -9.3366  -9.3009  -9.2457  -9.1676  -9.1407  -9.1158  -9.0782  -9.0663
    -8.9935  -8.9774  -8.9542  -8.8963  -8.8944  -8.8815  -8.8465  -8.8328
    -8.8286  -8.8048  -8.7682  -8.7315  -8.7237  -8.6772  -8.6556  -8.6361
    -8.6132  -8.5770  -8.5330  -8.5065  -8.4367  -8.3659  -6.4985  -5.2451
    -5.1488  -4.7373  -3.8746  -3.6917  -3.3415  -3.2611  -3.2302  -3.1808
    -2.9946  -2.9863  -2.8991  -2.8763  -2.8162  -2.8146  -2.7468  -2.6980
    -2.6426  -2.6357  -2.6193  -2.5892  -2.5565  -2.5216  -2.4859  -2.4457
    -2.4195  -2.3954  -2.3705  -2.3323  -2.3063  -2.2788  -2.2701  -2.2251
    -1.9774  -1.9386  -1.1613  -1.1245  -0.1726   0.0035   0.1844   1.3935
     2.2303   2.5397   2.7760   2.9673   3.8972   4.1941   4.6907   4.9148
     5.0507   5.2611   5.3690

          k =-0.0892 0.1136 0.0000 ( 33576 PWs)   bands (ev):

    -9.3700  -9.3186  -9.2543  -9.1865  -9.1383  -9.1116  -9.0996  -9.0572
    -9.0103  -8.9936  -8.9696  -8.9082  -8.8646  -8.8483  -8.8479  -8.8399
    -8.8164  -8.8161  -8.7638  -8.7457  -8.7268  -8.6812  -8.6500  -8.6089
    -8.5938  -8.5514  -8.5137  -8.4794  -8.4211  -8.3244  -6.2977  -5.6532
    -4.6645  -4.5647  -3.9977  -3.6994  -3.5916  -3.2494  -3.2163  -3.2079
    -3.0489  -2.9985  -2.9026  -2.9009  -2.8689  -2.8417  -2.7762  -2.7009
    -2.6649  -2.6496  -2.6246  -2.6041  -2.5863  -2.5578  -2.4652  -2.4341
    -2.4271  -2.4135  -2.3879  -2.3193  -2.2890  -2.2682  -2.2599  -2.2150
    -2.0626  -1.6273  -1.5617  -0.9992  -0.5273  -0.5136   0.4857   1.5815
     1.7105   2.3432   3.4074   3.5520   4.3311   4.5788   4.6922   4.7928
     4.9592   5.2311   5.2951

          k =-0.0892-0.0615 0.0000 ( 33570 PWs)   bands (ev):

    -9.3816  -9.3246  -9.2572  -9.1944  -9.1369  -9.1101  -9.1092  -9.0515
    -9.0141  -8.9997  -8.9747  -8.9127  -8.8534  -8.8511  -8.8478  -8.8275
    -8.8275  -8.8050  -8.7618  -8.7525  -8.7262  -8.6841  -8.6479  -8.5994
    -8.5871  -8.5422  -8.5071  -8.4701  -8.4163  -8.3100  -6.0591  -5.9638
    -4.3927  -4.2820  -4.2195  -3.9835  -3.5503  -3.2516  -3.2063  -3.1996
    -3.0771  -2.9965  -2.9149  -2.9034  -2.8926  -2.8511  -2.7861  -2.7032
    -2.6763  -2.6503  -2.6184  -2.6147  -2.6073  -2.5703  -2.4612  -2.4349
    -2.4299  -2.4035  -2.3909  -2.3147  -2.2828  -2.2700  -2.2530  -2.2176
    -2.0834  -1.6955  -1.3172  -0.9549  -0.8527  -0.7502   1.0339   1.0802
     1.7439   2.0989   3.9301   4.2875   4.4415   4.4607   4.6299   4.7810
     4.8000   4.8588   5.4891

     the Fermi energy is     0.0081 ev

!    total energy              =   -1351.37571661 Ry
     estimated scf accuracy    <       0.00000934 Ry
     smearing contrib. (-TS)   =      -0.01993221 Ry
     internal energy E=F+TS    =   -1351.35578439 Ry

     The total energy is F=E-TS. E is the sum of the following terms:
     one-electron contribution =   -9629.00186427 Ry
     hartree contribution      =    4926.67549207 Ry
     xc contribution           =    -418.25775695 Ry
     ewald contribution        =    3769.22834236 Ry
     electric field correction =       0.00000239 Ry

     convergence has been achieved in  12 iterations

     negative rho (up, down):  2.896E-03 0.000E+00

     Forces acting on atoms (cartesian axes, Ry/au):

     atom    1 type  1   force =     0.00108033    0.00074619    0.00346864
     atom    2 type  1   force =     0.00108062    0.00074948    0.00346960
     atom    3 type  2   force =    -0.00154367   -0.00107323   -0.01451958
     atom    4 type  2   force =    -0.00154605   -0.00106741   -0.01452960
     atom    5 type  1   force =    -0.00045163   -0.00029581    0.01008441
     atom    6 type  1   force =    -0.00043824   -0.00030703    0.01008795
     atom    7 type  2   force =     0.00144946    0.00098794    0.00056686
     atom    8 type  2   force =     0.00142090    0.00098358    0.00055976
     atom    9 type  1   force =     0.00091077    0.00062583    0.00072333
     atom   10 type  1   force =     0.00091730    0.00064240    0.00073214
     atom   11 type  2   force =    -0.00143663   -0.00100683   -0.00033335
     atom   12 type  2   force =    -0.00144316   -0.00098512   -0.00031016

     Total force =     0.026022     Total SCF correction =     0.004539
     SCF correction compared to forces is large: reduce conv_thr to get better values

     Writing output data file ./Cu2Cd2/Cu2Cd2_beef.save/

     init_run     :     67.25s CPU     67.71s WALL (       1 calls)
     electrons    :   2790.83s CPU   2808.58s WALL (       1 calls)
     forces       :     62.97s CPU     63.28s WALL (       1 calls)

     Called by init_run:
     wfcinit      :     56.38s CPU     56.67s WALL (       1 calls)
     potinit      :      7.51s CPU      7.58s WALL (       1 calls)
     hinit0       :      2.02s CPU      2.03s WALL (       1 calls)

     Called by electrons:
     c_bands      :   2472.33s CPU   2484.02s WALL (      13 calls)
     sum_band     :    284.45s CPU    287.73s WALL (      13 calls)
     v_of_rho     :     26.37s CPU     27.50s WALL (      13 calls)
     newd         :     13.86s CPU     15.43s WALL (      13 calls)
     mix_rho      :      0.52s CPU      0.55s WALL (      13 calls)
     vdW_kernel   :      5.69s CPU      5.70s WALL (       1 calls)

     Called by c_bands:
     init_us_2    :      9.70s CPU      9.82s WALL (    2072 calls)
     cegterg      :   2444.03s CPU   2453.86s WALL (     962 calls)

     Called by *egterg:
     cdiaghg      :    128.10s CPU    128.29s WALL (    7175 calls)
     h_psi        :   1272.76s CPU   1280.44s WALL (    7323 calls)
     s_psi        :    383.48s CPU    384.10s WALL (    7323 calls)
     g_psi        :      1.03s CPU      1.05s WALL (    6287 calls)

     Called by h_psi:
     h_psi:calbec :    439.07s CPU    440.17s WALL (    7323 calls)
     vloc_psi     :    438.00s CPU    443.82s WALL (    7323 calls)
     add_vuspsi   :    391.41s CPU    392.12s WALL (    7323 calls)

     General routines
     calbec       :    662.68s CPU    664.25s WALL (    8581 calls)
     fft          :     17.00s CPU     17.57s WALL (     879 calls)
     ffts         :      0.07s CPU      0.07s WALL (      26 calls)
     fftw         :    490.43s CPU    496.85s WALL (  493148 calls)
     interpolate  :      0.20s CPU      0.21s WALL (      13 calls)

     Parallel routines
     fft_scatt_xy :     40.50s CPU     40.98s WALL (  494053 calls)
     fft_scatt_yz :    142.10s CPU    145.11s WALL (  494053 calls)

     PWSCF        :  50m 0.78s CPU  51m18.56s WALL


   This run was terminated on:  22:44:17  10Jul2022            

=------------------------------------------------------------------------------=
   JOB DONE.
=------------------------------------------------------------------------------=
