
     Program PWSCF v.6.6 starts on 23Jun2022 at 20:38:35 

     This program is part of the open-source Quantum ESPRESSO suite
     for quantum simulation of materials; please cite
         "P. Giannozzi et al., J. Phys.:Condens. Matter 21 395502 (2009);
         "P. Giannozzi et al., J. Phys.:Condens. Matter 29 465901 (2017);
          URL http://www.quantum-espresso.org", 
     in publications or presentations arising from this work. More details at
     http://www.quantum-espresso.org/quote

     Parallel version (MPI), running on    37 processors

     MPI processes distributed on     3 nodes
     R & G space division:  proc/nbgrp/npool/nimage =      37
     Fft bands division:     nmany     =       1
     Reading input from Cu2Ir2.in
Warning: card &CELL ignored
Warning: card / ignored

     Current dimensions of program PWSCF are:
     Max number of different atomic species (ntypx) = 10
     Max number of k-points (npk) =  40000
     Max angular momentum in pseudopotentials (lmaxx) =  3
     Presently stress not available with electric field and gates

     Message from routine cell_base_init:
     DEPRECATED: use true lattice parameter, not A to a.u. conversion factor
     file Cu.pbe-dn-rrkjus_psl.1.0.0.UPF: wavefunction(s)  3D renormalized
     file Ir.pbe-n-rrkjus_psl.0.2.3.UPF: wavefunction(s)  5D renormalized

     **************************************************************************
     Initializing libbeef V0.1.2 with the BEEF-vdW functional.
     Citation: Wellendorff et al., PRB 85, 235149 (2012).
     **************************************************************************


     IMPORTANT: XC functional enforced from input :
     Exchange-correlation= BEEF-VDW
                           (   1   4  43  14   2   0   0)
     Any further DFT definition will be discarded
     Please, verify this is what you really want


     Subspace diagonalization in iterative solution of the eigenvalue problem:
     a serial algorithm will be used


     Parallelization info
     --------------------
     sticks:   dense  smooth     PW     G-vecs:    dense   smooth      PW
     Min         105      42     12                24151     6102     941
     Max         106      43     14                24171     6114     958
     Sum        3889    1555    451               894029   226035   35187



     bravais-lattice index     =            0
     lattice parameter (alat)  =       1.8897  a.u.
     unit-cell volume          =    4091.0333 (a.u.)^3
     number of atoms/cell      =           12
     number of atomic types    =            2
     number of electrons       =       120.00
     number of Kohn-Sham states=           72
     kinetic-energy cutoff     =      55.1240  Ry
     charge density cutoff     =     551.2396  Ry
     convergence threshold     =      1.0E-05
     mixing beta               =       0.1000
     number of iterations used =           10  plain     mixing
     Exchange-correlation= BEEF-VDW
                           (   1   4  43  14   2   0   0)

     celldm(1)=   1.889726  celldm(2)=   0.000000  celldm(3)=   0.000000
     celldm(4)=   0.000000  celldm(5)=   0.000000  celldm(6)=   0.000000

     crystal axes: (cart. coord. in units of alat)
               a(1) = (   5.354642   0.000000   0.000000 )  
               a(2) = (   2.664480   4.644646   0.000000 )  
               a(3) = (   0.000000   0.000000  24.375495 )  

     reciprocal axes: (cart. coord. in units 2 pi/alat)
               b(1) = (  0.186754 -0.107135  0.000000 )  
               b(2) = (  0.000000  0.215302  0.000000 )  
               b(3) = (  0.000000  0.000000  0.041025 )  


     PseudoPot. # 1 for Cu read from file:
     ../pseudo/Cu.pbe-dn-rrkjus_psl.1.0.0.UPF
     MD5 check sum: 8469560995d0c2df1ffe68c099c04a63
     Pseudo is Ultrasoft + core correction, Zval = 11.0
     Generated using "atomic" code by A. Dal Corso v.6.3
     Using radial grid of 1199 points,  6 beta functions with: 
                l(1) =   0
                l(2) =   0
                l(3) =   1
                l(4) =   1
                l(5) =   2
                l(6) =   2
     Q(r) pseudized with 0 coefficients 


     PseudoPot. # 2 for Ir read from file:
     ../pseudo/Ir.pbe-n-rrkjus_psl.0.2.3.UPF
     MD5 check sum: a93e608e8ddc29ee62145620b5f41564
     Pseudo is Ultrasoft + core correction, Zval =  9.0
     Generated using "atomic" code by A. Dal Corso v.5.0.2 svn rev. 9415
     Using radial grid of 1277 points,  6 beta functions with: 
                l(1) =   0
                l(2) =   0
                l(3) =   1
                l(4) =   1
                l(5) =   2
                l(6) =   2
     Q(r) pseudized with 0 coefficients 


     atomic species   valence    mass     pseudopotential
        Cu            11.00    63.54600     Cu( 1.00)
        Ir             9.00   192.21700     Ir( 1.00)

     No symmetry found



   Cartesian axes

     site n.     atom                  positions (alat units)
         1           Cu  tau(   1) = (   0.0000000   0.0000000  10.0000000  )
         2           Cu  tau(   2) = (   4.0095609   2.3223230  10.0000000  )
         3           Ir  tau(   3) = (   2.6773209   0.0000000  10.0000000  )
         4           Ir  tau(   4) = (   1.3322400   2.3223230  10.0000000  )
         5           Cu  tau(   5) = (   5.3546418   3.1013889  12.1877477  )
         6           Cu  tau(   6) = (   1.3450809   0.7790659  12.1877477  )
         7           Ir  tau(   7) = (   2.6773209   3.1013889  12.1877477  )
         8           Ir  tau(   8) = (   4.0224019   0.7790659  12.1877477  )
         9           Cu  tau(   9) = (   2.4904001   1.4427320  14.4195712  )
        10           Cu  tau(  10) = (   6.5002022   3.7645929  14.4195645  )
        11           Ir  tau(  11) = (   5.1762634   1.4473738  14.3496816  )
        12           Ir  tau(  12) = (   3.8315827   3.7699387  14.3496667  )

     number of k points=    74  Fermi-Dirac smearing, width (Ry)=  0.0100
                       cart. coord. in units 2pi/alat
        k(    1) = (   0.0000000   0.0000000   0.0000000), wk =   0.0138889
        k(    2) = (   0.0000000   0.0179418   0.0000000), wk =   0.0277778
        k(    3) = (   0.0000000   0.0358836   0.0000000), wk =   0.0277778
        k(    4) = (   0.0000000   0.0538254   0.0000000), wk =   0.0277778
        k(    5) = (   0.0000000   0.0717672   0.0000000), wk =   0.0277778
        k(    6) = (   0.0000000   0.0897090   0.0000000), wk =   0.0277778
        k(    7) = (   0.0000000  -0.1076508   0.0000000), wk =   0.0138889
        k(    8) = (   0.0155628  -0.0089279   0.0000000), wk =   0.0277778
        k(    9) = (   0.0155628   0.0090139   0.0000000), wk =   0.0277778
        k(   10) = (   0.0155628   0.0269557   0.0000000), wk =   0.0277778
        k(   11) = (   0.0155628   0.0448975   0.0000000), wk =   0.0277778
        k(   12) = (   0.0155628   0.0628393   0.0000000), wk =   0.0277778
        k(   13) = (   0.0155628   0.0807811   0.0000000), wk =   0.0277778
        k(   14) = (   0.0155628  -0.1165787   0.0000000), wk =   0.0277778
        k(   15) = (   0.0155628  -0.0986369   0.0000000), wk =   0.0277778
        k(   16) = (   0.0155628  -0.0806951   0.0000000), wk =   0.0277778
        k(   17) = (   0.0155628  -0.0627533   0.0000000), wk =   0.0277778
        k(   18) = (   0.0155628  -0.0448115   0.0000000), wk =   0.0277778
        k(   19) = (   0.0155628  -0.0268697   0.0000000), wk =   0.0277778
        k(   20) = (   0.0311256  -0.0178558   0.0000000), wk =   0.0277778
        k(   21) = (   0.0311256   0.0000861   0.0000000), wk =   0.0277778
        k(   22) = (   0.0311256   0.0180279   0.0000000), wk =   0.0277778
        k(   23) = (   0.0311256   0.0359697   0.0000000), wk =   0.0277778
        k(   24) = (   0.0311256   0.0539115   0.0000000), wk =   0.0277778
        k(   25) = (   0.0311256   0.0718533   0.0000000), wk =   0.0277778
        k(   26) = (   0.0311256  -0.1255066   0.0000000), wk =   0.0277778
        k(   27) = (   0.0311256  -0.1075648   0.0000000), wk =   0.0277778
        k(   28) = (   0.0311256  -0.0896230   0.0000000), wk =   0.0277778
        k(   29) = (   0.0311256  -0.0716812   0.0000000), wk =   0.0277778
        k(   30) = (   0.0311256  -0.0537394   0.0000000), wk =   0.0277778
        k(   31) = (   0.0311256  -0.0357976   0.0000000), wk =   0.0277778
        k(   32) = (   0.0466885  -0.0267836   0.0000000), wk =   0.0277778
        k(   33) = (   0.0466885  -0.0088418   0.0000000), wk =   0.0277778
        k(   34) = (   0.0466885   0.0091000   0.0000000), wk =   0.0277778
        k(   35) = (   0.0466885   0.0270418   0.0000000), wk =   0.0277778
        k(   36) = (   0.0466885   0.0449836   0.0000000), wk =   0.0277778
        k(   37) = (   0.0466885   0.0629254   0.0000000), wk =   0.0277778
        k(   38) = (   0.0466885  -0.1344345   0.0000000), wk =   0.0277778
        k(   39) = (   0.0466885  -0.1164927   0.0000000), wk =   0.0277778
        k(   40) = (   0.0466885  -0.0985508   0.0000000), wk =   0.0277778
        k(   41) = (   0.0466885  -0.0806090   0.0000000), wk =   0.0277778
        k(   42) = (   0.0466885  -0.0626672   0.0000000), wk =   0.0277778
        k(   43) = (   0.0466885  -0.0447254   0.0000000), wk =   0.0277778
        k(   44) = (   0.0622513  -0.0357115   0.0000000), wk =   0.0277778
        k(   45) = (   0.0622513  -0.0177697   0.0000000), wk =   0.0277778
        k(   46) = (   0.0622513   0.0001721   0.0000000), wk =   0.0277778
        k(   47) = (   0.0622513   0.0181139   0.0000000), wk =   0.0277778
        k(   48) = (   0.0622513   0.0360557   0.0000000), wk =   0.0277778
        k(   49) = (   0.0622513   0.0539975   0.0000000), wk =   0.0277778
        k(   50) = (   0.0622513  -0.1433623   0.0000000), wk =   0.0277778
        k(   51) = (   0.0622513  -0.1254205   0.0000000), wk =   0.0277778
        k(   52) = (   0.0622513  -0.1074787   0.0000000), wk =   0.0277778
        k(   53) = (   0.0622513  -0.0895369   0.0000000), wk =   0.0277778
        k(   54) = (   0.0622513  -0.0715951   0.0000000), wk =   0.0277778
        k(   55) = (   0.0622513  -0.0536533   0.0000000), wk =   0.0277778
        k(   56) = (   0.0778141  -0.0446394   0.0000000), wk =   0.0277778
        k(   57) = (   0.0778141  -0.0266976   0.0000000), wk =   0.0277778
        k(   58) = (   0.0778141  -0.0087558   0.0000000), wk =   0.0277778
        k(   59) = (   0.0778141   0.0091860   0.0000000), wk =   0.0277778
        k(   60) = (   0.0778141   0.0271278   0.0000000), wk =   0.0277778
        k(   61) = (   0.0778141   0.0450696   0.0000000), wk =   0.0277778
        k(   62) = (   0.0778141  -0.1522902   0.0000000), wk =   0.0277778
        k(   63) = (   0.0778141  -0.1343484   0.0000000), wk =   0.0277778
        k(   64) = (   0.0778141  -0.1164066   0.0000000), wk =   0.0277778
        k(   65) = (   0.0778141  -0.0984648   0.0000000), wk =   0.0277778
        k(   66) = (   0.0778141  -0.0805230   0.0000000), wk =   0.0277778
        k(   67) = (   0.0778141  -0.0625812   0.0000000), wk =   0.0277778
        k(   68) = (  -0.0933769   0.0535673   0.0000000), wk =   0.0138889
        k(   69) = (  -0.0933769   0.0715091   0.0000000), wk =   0.0277778
        k(   70) = (  -0.0933769   0.0894509   0.0000000), wk =   0.0277778
        k(   71) = (  -0.0933769   0.1073927   0.0000000), wk =   0.0277778
        k(   72) = (  -0.0933769   0.1253345   0.0000000), wk =   0.0277778
        k(   73) = (  -0.0933769   0.1432763   0.0000000), wk =   0.0277778
        k(   74) = (  -0.0933769  -0.0540836   0.0000000), wk =   0.0138889

     Dense  grid:   894029 G-vectors     FFT dimensions: (  75,  75, 360)

     Smooth grid:   226035 G-vectors     FFT dimensions: (  48,  48, 225)

     Estimated max dynamical RAM per process >     159.91 MB

     Estimated total dynamical RAM >       5.78 GB

     Initial potential from superposition of free atoms

     starting charge  119.99772, renormalised to  120.00000

     negative rho (up, down):  3.420E-04 0.000E+00


     %%%%%%%%%%%%%%%%%%%%%%%%%%%%%%%%%%%%%%%%%%%%%%%%%%%%%%%%%%%%%%%%%%%%%%%%
     %                                                                      %
     % You are using vdW-DF, which was implemented by the Thonhauser group. %
     % Please cite the following two papers that made this development      %
     % possible and the two reviews that describe the various versions:     %
     %                                                                      %
     %   T. Thonhauser et al., PRL 115, 136402 (2015).                      %
     %   T. Thonhauser et al., PRB 76, 125112 (2007).                       %
     %   K. Berland et al., Rep. Prog. Phys. 78, 066501 (2015).             %
     %   D.C. Langreth et al., J. Phys.: Condens. Matter 21, 084203 (2009). %
     %                                                                      %
     %                                                                      %
     % If you are calculating the stress with vdW-DF, please also cite:     %
     %                                                                      %
     %   R. Sabatini et al., J. Phys.: Condens. Matter 24, 424209 (2012).   %
     %                                                                      %
     %%%%%%%%%%%%%%%%%%%%%%%%%%%%%%%%%%%%%%%%%%%%%%%%%%%%%%%%%%%%%%%%%%%%%%%%



     Adding external electric field

     Computed dipole along edir(3) : 
        Dipole                0.0000 Ry au,          0.0000 Debye
        Dipole field          0.0000 Ry au, 

        Potential amp.       -0.0000 Ry
        Total length         44.9114 bohr

     Starting wfcs are  108 randomized atomic wfcs

     total cpu time spent up to now is       96.7 secs

     Self-consistent Calculation

     iteration #  1     ecut=    55.12 Ry     beta= 0.10
     Davidson diagonalization with overlap
     ethr =  1.00E-02,  avg # of iterations =  2.0

     negative rho (up, down):  2.461E-04 0.000E+00

     Adding external electric field

     Computed dipole along edir(3) : 
        Dipole                0.1027 Ry au,          0.2611 Debye
        Dipole field          0.0003 Ry au, 

        Potential amp.       -0.0283 Ry
        Total length         44.9114 bohr


     total cpu time spent up to now is      249.0 secs

     total energy              =   -1122.09095646 Ry
     estimated scf accuracy    <       1.68856437 Ry

     iteration #  2     ecut=    55.12 Ry     beta= 0.10
     Davidson diagonalization with overlap
     ethr =  1.41E-03,  avg # of iterations =  2.0

     negative rho (up, down):  2.431E-04 0.000E+00

     Adding external electric field

     Computed dipole along edir(3) : 
        Dipole               -0.3119 Ry au,         -0.7928 Debye
        Dipole field         -0.0010 Ry au, 

        Potential amp.        0.0861 Ry
        Total length         44.9114 bohr


     total cpu time spent up to now is      394.3 secs

     total energy              =   -1122.22749981 Ry
     estimated scf accuracy    <       0.64966526 Ry

     iteration #  3     ecut=    55.12 Ry     beta= 0.10
     Davidson diagonalization with overlap
     ethr =  5.41E-04,  avg # of iterations =  2.0

     negative rho (up, down):  2.515E-04 0.000E+00

     Adding external electric field

     Computed dipole along edir(3) : 
        Dipole                0.0474 Ry au,          0.1205 Debye
        Dipole field          0.0001 Ry au, 

        Potential amp.       -0.0131 Ry
        Total length         44.9114 bohr


     total cpu time spent up to now is      547.6 secs

     total energy              =   -1122.19156139 Ry
     estimated scf accuracy    <       7.47363303 Ry

     iteration #  4     ecut=    55.12 Ry     beta= 0.10
     Davidson diagonalization with overlap
     ethr =  5.41E-04,  avg # of iterations =  1.0

     negative rho (up, down):  2.587E-04 0.000E+00

     Adding external electric field

     Computed dipole along edir(3) : 
        Dipole                0.0266 Ry au,          0.0676 Debye
        Dipole field          0.0001 Ry au, 

        Potential amp.       -0.0073 Ry
        Total length         44.9114 bohr


     total cpu time spent up to now is      686.4 secs

     total energy              =   -1122.30839094 Ry
     estimated scf accuracy    <       0.10224997 Ry

     iteration #  5     ecut=    55.12 Ry     beta= 0.10
     Davidson diagonalization with overlap
     c_bands:  1 eigenvalues not converged
     ethr =  8.52E-05,  avg # of iterations =  2.7

     negative rho (up, down):  2.703E-04 0.000E+00

     Adding external electric field

     Computed dipole along edir(3) : 
        Dipole                0.0300 Ry au,          0.0762 Debye
        Dipole field          0.0001 Ry au, 

        Potential amp.       -0.0083 Ry
        Total length         44.9114 bohr


     total cpu time spent up to now is      839.5 secs

     total energy              =   -1122.30994125 Ry
     estimated scf accuracy    <       0.04956007 Ry

     iteration #  6     ecut=    55.12 Ry     beta= 0.10
     Davidson diagonalization with overlap
     c_bands:  1 eigenvalues not converged
     c_bands:  1 eigenvalues not converged
     c_bands:  1 eigenvalues not converged
     ethr =  4.13E-05,  avg # of iterations =  3.6

     negative rho (up, down):  2.903E-04 0.000E+00

     Adding external electric field

     Computed dipole along edir(3) : 
        Dipole                0.0270 Ry au,          0.0687 Debye
        Dipole field          0.0001 Ry au, 

        Potential amp.       -0.0075 Ry
        Total length         44.9114 bohr


     total cpu time spent up to now is      994.2 secs

     total energy              =   -1122.31299690 Ry
     estimated scf accuracy    <       0.01966424 Ry

     iteration #  7     ecut=    55.12 Ry     beta= 0.10
     Davidson diagonalization with overlap
     c_bands:  1 eigenvalues not converged
     ethr =  1.64E-05,  avg # of iterations =  6.4

     negative rho (up, down):  3.992E-04 0.000E+00

     Adding external electric field

     Computed dipole along edir(3) : 
        Dipole                0.0281 Ry au,          0.0713 Debye
        Dipole field          0.0001 Ry au, 

        Potential amp.       -0.0077 Ry
        Total length         44.9114 bohr


     total cpu time spent up to now is     1156.3 secs

     total energy              =   -1122.31358410 Ry
     estimated scf accuracy    <       0.01083970 Ry

     iteration #  8     ecut=    55.12 Ry     beta= 0.10
     Davidson diagonalization with overlap
     ethr =  9.03E-06,  avg # of iterations =  3.7

     negative rho (up, down):  4.937E-04 0.000E+00

     Adding external electric field

     Computed dipole along edir(3) : 
        Dipole                0.0312 Ry au,          0.0793 Debye
        Dipole field          0.0001 Ry au, 

        Potential amp.       -0.0086 Ry
        Total length         44.9114 bohr


     total cpu time spent up to now is     1298.7 secs

     total energy              =   -1122.31477392 Ry
     estimated scf accuracy    <       0.00251967 Ry

     iteration #  9     ecut=    55.12 Ry     beta= 0.10
     Davidson diagonalization with overlap
     ethr =  2.10E-06,  avg # of iterations =  8.0

     negative rho (up, down):  4.860E-04 0.000E+00

     Adding external electric field

     Computed dipole along edir(3) : 
        Dipole                0.0286 Ry au,          0.0727 Debye
        Dipole field          0.0001 Ry au, 

        Potential amp.       -0.0079 Ry
        Total length         44.9114 bohr


     total cpu time spent up to now is     1511.2 secs

     total energy              =   -1122.31485971 Ry
     estimated scf accuracy    <       0.00154120 Ry

     iteration # 10     ecut=    55.12 Ry     beta= 0.10
     Davidson diagonalization with overlap
     ethr =  1.28E-06,  avg # of iterations =  2.0

     negative rho (up, down):  4.946E-04 0.000E+00

     Adding external electric field

     Computed dipole along edir(3) : 
        Dipole                0.0299 Ry au,          0.0760 Debye
        Dipole field          0.0001 Ry au, 

        Potential amp.       -0.0083 Ry
        Total length         44.9114 bohr


     total cpu time spent up to now is     1660.0 secs

     total energy              =   -1122.31518234 Ry
     estimated scf accuracy    <       0.00041666 Ry

     iteration # 11     ecut=    55.12 Ry     beta= 0.10
     Davidson diagonalization with overlap
     ethr =  3.47E-07,  avg # of iterations =  2.1

     negative rho (up, down):  4.763E-04 0.000E+00

     Adding external electric field

     Computed dipole along edir(3) : 
        Dipole                0.0294 Ry au,          0.0748 Debye
        Dipole field          0.0001 Ry au, 

        Potential amp.       -0.0081 Ry
        Total length         44.9114 bohr


     total cpu time spent up to now is     1817.3 secs

     total energy              =   -1122.31520342 Ry
     estimated scf accuracy    <       0.00017672 Ry

     iteration # 12     ecut=    55.12 Ry     beta= 0.10
     Davidson diagonalization with overlap
     ethr =  1.47E-07,  avg # of iterations =  1.4

     negative rho (up, down):  4.596E-04 0.000E+00

     Adding external electric field

     Computed dipole along edir(3) : 
        Dipole                0.0298 Ry au,          0.0757 Debye
        Dipole field          0.0001 Ry au, 

        Potential amp.       -0.0082 Ry
        Total length         44.9114 bohr


     total cpu time spent up to now is     1956.2 secs

     total energy              =   -1122.31521030 Ry
     estimated scf accuracy    <       0.00004158 Ry

     iteration # 13     ecut=    55.12 Ry     beta= 0.10
     Davidson diagonalization with overlap
     ethr =  3.47E-08,  avg # of iterations =  2.9

     negative rho (up, down):  3.617E-04 0.000E+00

     Adding external electric field

     Computed dipole along edir(3) : 
        Dipole                0.0269 Ry au,          0.0683 Debye
        Dipole field          0.0001 Ry au, 

        Potential amp.       -0.0074 Ry
        Total length         44.9114 bohr


     total cpu time spent up to now is     2136.1 secs

     End of self-consistent calculation

          k = 0.0000 0.0000 0.0000 ( 28215 PWs)   bands (ev):

    -8.5285  -6.6985  -5.8490  -5.7927  -5.5361  -5.3508  -5.1258  -5.0084
    -4.8971  -4.8460  -4.6207  -4.5382  -4.5320  -4.3489  -4.0433  -3.7942
    -3.3717  -3.1882  -3.0663  -3.0414  -2.9892  -2.9154  -2.8133  -2.8062
    -2.6691  -2.6175  -2.5599  -2.5333  -2.5074  -2.4901  -2.4769  -2.4271
    -2.2661  -2.2185  -1.9665  -1.8884  -1.8633  -1.8393  -1.7301  -1.7277
    -1.6641  -1.4880  -1.4554  -1.2311  -1.1310  -1.1066  -1.0338  -0.9396
    -0.9328  -0.7156  -0.5785  -0.3664  -0.2872   0.0759   0.1393   0.1695
     0.2604   0.4426   0.4809   0.5412   0.5419   0.5534   0.8235   1.0752
     1.1068   1.2575   1.5072   2.3061   2.5474   2.7976   2.8554   3.3085

          k = 0.0000 0.0179 0.0000 ( 28197 PWs)   bands (ev):

    -8.4679  -6.6375  -5.8173  -5.7407  -5.5088  -5.3076  -5.0841  -5.0439
    -4.8756  -4.7927  -4.5713  -4.5236  -4.5029  -4.3392  -4.0210  -3.7718
    -3.3688  -3.1981  -3.0553  -3.0270  -2.9715  -2.9160  -2.8540  -2.7936
    -2.6919  -2.5930  -2.5700  -2.5314  -2.5135  -2.4948  -2.4894  -2.4098
    -2.2778  -2.2394  -1.9883  -1.9708  -1.8718  -1.8459  -1.7311  -1.7266
    -1.6754  -1.5178  -1.4593  -1.3935  -1.1474  -1.1427  -1.0427  -0.9227
    -0.8503  -0.7306  -0.7190  -0.4326  -0.3228  -0.0776   0.0959   0.1100
     0.1654   0.2949   0.3241   0.4417   0.4474   0.6923   0.8061   0.9542
     1.1348   1.4556   1.5107   2.0791   2.2754   2.5586   3.1289   3.6317

          k = 0.0000 0.0359 0.0000 ( 28224 PWs)   bands (ev):

    -8.2889  -6.4587  -5.7319  -5.5939  -5.4449  -5.1786  -5.1032  -4.9679
    -4.8051  -4.6816  -4.4819  -4.4262  -4.4191  -4.3018  -3.9555  -3.7085
    -3.3658  -3.2241  -3.0267  -2.9966  -2.9643  -2.9304  -2.8846  -2.8326
    -2.6793  -2.6209  -2.5965  -2.5559  -2.5190  -2.5060  -2.4677  -2.3505
    -2.3162  -2.2974  -2.1351  -2.0488  -1.8980  -1.8763  -1.7629  -1.7616
    -1.6806  -1.6619  -1.5987  -1.4773  -1.3022  -1.1980  -1.0562  -1.0444
    -0.8991  -0.7548  -0.7544  -0.6284  -0.4452  -0.4283  -0.1767  -0.0783
    -0.0710   0.0225   0.1707   0.2396   0.3365   0.4496   0.5873   1.0740
     1.2798   1.4527   1.4860   1.6962   2.3517   2.4086   3.5615   3.7304

          k = 0.0000 0.0538 0.0000 ( 28233 PWs)   bands (ev):

    -7.9998  -6.1774  -5.6656  -5.4010  -5.3818  -5.0907  -4.9694  -4.8158
    -4.6557  -4.5771  -4.4197  -4.2898  -4.2057  -4.1967  -3.8488  -3.6160
    -3.3797  -3.2616  -3.0958  -3.0046  -2.9782  -2.9305  -2.8991  -2.8518
    -2.7396  -2.6943  -2.6183  -2.5510  -2.5315  -2.4951  -2.4171  -2.3763
    -2.3738  -2.2726  -2.2458  -2.1258  -1.9886  -1.9593  -1.8921  -1.8517
    -1.8475  -1.7576  -1.6839  -1.5196  -1.4454  -1.3085  -1.2747  -1.1222
    -1.0125  -0.9855  -0.8399  -0.8210  -0.7317  -0.6549  -0.5272  -0.5173
    -0.2895  -0.1388  -0.1162   0.1568   0.1575   0.3507   0.4273   0.6963
     0.7557   1.5159   1.7968   2.0750   2.4058   2.6101   3.1358   4.3181

          k = 0.0000 0.0718 0.0000 ( 28263 PWs)   bands (ev):

    -7.6160  -5.8378  -5.8252  -5.2879  -5.1505  -4.9620  -4.7500  -4.6189
    -4.5398  -4.4138  -4.3471  -4.1333  -4.0312  -3.9198  -3.7101  -3.5088
    -3.4259  -3.2978  -3.2333  -3.1116  -3.0749  -2.9764  -2.9046  -2.8931
    -2.7599  -2.7001  -2.6660  -2.5670  -2.5515  -2.4924  -2.4568  -2.4025
    -2.3287  -2.2970  -2.2229  -2.2073  -2.1513  -2.1003  -2.0427  -2.0325
    -1.9193  -1.8886  -1.7712  -1.6308  -1.5499  -1.4843  -1.4833  -1.3156
    -1.2653  -1.1769  -1.0611  -1.0467  -0.8624  -0.8195  -0.7345  -0.7264
    -0.5414  -0.3812  -0.2051  -0.1273   0.0249   0.0380   0.2077   0.3568
     0.9541   1.5906   1.8775   2.5243   2.6150   2.6750   2.8287   4.7321

          k = 0.0000 0.0897 0.0000 ( 28269 PWs)   bands (ev):

    -7.1621  -6.2108  -5.4627  -5.1581  -4.9516  -4.8399  -4.6304  -4.5574
    -4.3357  -4.2736  -4.1508  -3.9920  -3.8341  -3.7712  -3.6142  -3.4283
    -3.3693  -3.3361  -3.3101  -3.2304  -3.2076  -3.1542  -2.9054  -2.8978
    -2.7316  -2.6579  -2.6429  -2.5959  -2.5778  -2.5371  -2.5175  -2.3962
    -2.3898  -2.3730  -2.3477  -2.3086  -2.2783  -2.2287  -2.2100  -2.1552
    -2.1279  -1.9461  -1.9045  -1.7004  -1.6166  -1.5450  -1.4911  -1.3691
    -1.3413  -1.3401  -1.1888  -1.1831  -1.0260  -0.9678  -0.9540  -0.8710
    -0.7671  -0.6526  -0.4342  -0.2029  -0.0534   0.0012   0.1337   0.1695
     1.2537   1.6228   1.9180   2.2479   2.6581   2.7431   3.4152   4.7815

          k = 0.0000-0.1077 0.0000 ( 28304 PWs)   bands (ev):

    -6.6758  -6.6757  -5.1986  -5.1985  -4.8362  -4.8360  -4.5753  -4.5750
    -4.2203  -4.2201  -3.9455  -3.9454  -3.7894  -3.7890  -3.5522  -3.5521
    -3.3256  -3.3253  -3.2816  -3.2816  -3.1796  -3.1793  -2.8948  -2.8946
    -2.6518  -2.6516  -2.6191  -2.6189  -2.5962  -2.5960  -2.5079  -2.5078
    -2.4530  -2.4529  -2.4138  -2.4136  -2.3881  -2.3879  -2.2580  -2.2578
    -2.0683  -2.0681  -1.7348  -1.7348  -1.4889  -1.4887  -1.4465  -1.4463
    -1.3184  -1.3182  -1.2946  -1.2944  -1.1990  -1.1985  -1.0232  -1.0230
    -0.7301  -0.7299  -0.3657  -0.3656  -0.0173  -0.0171   0.1083   0.1085
     1.5223   1.5224   1.9943   1.9944   2.7290   2.7292   4.1012   4.1013

          k = 0.0156-0.0089 0.0000 ( 28197 PWs)   bands (ev):

    -8.4679  -6.6375  -5.8173  -5.7407  -5.5088  -5.3076  -5.0841  -5.0439
    -4.8756  -4.7927  -4.5713  -4.5236  -4.5030  -4.3392  -4.0210  -3.7718
    -3.3688  -3.1981  -3.0553  -3.0270  -2.9715  -2.9160  -2.8540  -2.7936
    -2.6919  -2.5930  -2.5700  -2.5314  -2.5135  -2.4948  -2.4894  -2.4098
    -2.2778  -2.2394  -1.9883  -1.9708  -1.8718  -1.8459  -1.7311  -1.7266
    -1.6754  -1.5178  -1.4593  -1.3935  -1.1474  -1.1427  -1.0427  -0.9227
    -0.8503  -0.7306  -0.7190  -0.4326  -0.3228  -0.0776   0.0959   0.1100
     0.1654   0.2949   0.3241   0.4417   0.4474   0.6923   0.8061   0.9542
     1.1348   1.4556   1.5107   2.0791   2.2754   2.5586   3.1289   3.6317

          k = 0.0156 0.0090 0.0000 ( 28189 PWs)   bands (ev):

    -8.4726  -6.6501  -5.8194  -5.7423  -5.4985  -5.3650  -5.1133  -4.9971
    -4.8883  -4.8038  -4.5944  -4.5118  -4.5096  -4.3404  -3.9966  -3.7998
    -3.3685  -3.1959  -3.0420  -3.0300  -2.9736  -2.9290  -2.8359  -2.7893
    -2.6969  -2.6008  -2.5870  -2.5227  -2.5223  -2.4973  -2.4684  -2.4365
    -2.2750  -2.2661  -1.9702  -1.9338  -1.8647  -1.8620  -1.7484  -1.7307
    -1.6821  -1.4912  -1.4629  -1.3118  -1.2845  -1.2620  -1.0526  -0.9557
    -0.7952  -0.6948  -0.6104  -0.4802  -0.3435  -0.0313   0.0788   0.0858
     0.1502   0.2332   0.4320   0.4508   0.5302   0.8184   0.8321   0.9416
     0.9798   1.3019   1.7502   1.7988   2.2984   3.2723   3.2824   3.3996

          k = 0.0156 0.0270 0.0000 ( 28197 PWs)   bands (ev):

    -8.3571  -6.5422  -5.7608  -5.6410  -5.4432  -5.3398  -5.0596  -5.0159
    -4.8572  -4.7134  -4.5205  -4.4758  -4.4554  -4.3179  -3.9323  -3.7826
    -3.3631  -3.2103  -3.0152  -3.0150  -2.9588  -2.9426  -2.8691  -2.7825
    -2.7129  -2.6368  -2.5719  -2.5607  -2.5244  -2.5067  -2.4661  -2.4005
    -2.3204  -2.2983  -2.0431  -1.9973  -1.8966  -1.8722  -1.7792  -1.7657
    -1.6883  -1.5464  -1.4922  -1.4697  -1.4079  -1.3204  -1.0460  -0.9887
    -0.8681  -0.8249  -0.6701  -0.5473  -0.4646  -0.2676  -0.1331   0.0261
     0.0574   0.0935   0.3163   0.3405   0.4180   0.6360   0.7158   0.9128
     1.2434   1.3798   1.6543   1.8249   2.0936   3.1492   3.5769   3.7014

          k = 0.0156 0.0449 0.0000 ( 28258 PWs)   bands (ev):

    -8.1254  -6.3200  -5.6637  -5.4503  -5.4018  -5.2349  -5.0250  -4.9336
    -4.7761  -4.5778  -4.4136  -4.3553  -4.3535  -4.2571  -3.8344  -3.7204
    -3.3611  -3.2424  -3.0713  -2.9902  -2.9697  -2.8969  -2.8827  -2.8624
    -2.7167  -2.6782  -2.5927  -2.5860  -2.5602  -2.5174  -2.4305  -2.3748
    -2.3461  -2.3145  -2.2008  -2.0664  -1.9543  -1.9147  -1.8592  -1.8482
    -1.7649  -1.6896  -1.6463  -1.5156  -1.4914  -1.3791  -1.1369  -1.1337
    -1.0579  -0.9506  -0.9392  -0.7143  -0.6731  -0.4872  -0.3688  -0.3213
    -0.0778  -0.0481   0.0806   0.2309   0.2731   0.4548   0.6484   1.0482
     1.1304   1.2200   1.6039   1.9598   2.2652   3.0998   3.4520   3.8743

          k = 0.0156 0.0628 0.0000 ( 28280 PWs)   bands (ev):

    -7.7881  -6.0026  -5.6845  -5.3676  -5.2369  -5.0301  -4.9238  -4.7789
    -4.6119  -4.4804  -4.3404  -4.2122  -4.1234  -4.1107  -3.7229  -3.6093
    -3.3824  -3.2875  -3.1885  -3.0413  -3.0319  -2.9535  -2.8678  -2.8647
    -2.7544  -2.7478  -2.6400  -2.6347  -2.5574  -2.4856  -2.4095  -2.4080
    -2.3614  -2.3143  -2.2416  -2.1418  -2.0835  -2.0160  -2.0073  -1.9520
    -1.9296  -1.8690  -1.7290  -1.6171  -1.5680  -1.4579  -1.3978  -1.3958
    -1.2155  -1.1398  -1.0789  -0.9149  -0.8708  -0.7262  -0.6122  -0.4630
    -0.3436  -0.1632  -0.1363   0.1274   0.1337   0.3358   0.4417   0.8065
     0.8342   1.1630   1.7876   2.2929   2.5107   2.9066   3.4005   4.0868

          k = 0.0156 0.0808 0.0000 ( 28284 PWs)   bands (ev):

    -7.3645  -5.9774  -5.6323  -5.2247  -5.0780  -4.7747  -4.7688  -4.6011
    -4.4593  -4.3540  -4.2726  -4.0552  -3.9338  -3.8322  -3.6401  -3.4484
    -3.4394  -3.3226  -3.3002  -3.1875  -3.1532  -3.0676  -2.9292  -2.8685
    -2.7273  -2.7190  -2.6865  -2.6228  -2.5990  -2.5519  -2.5023  -2.3759
    -2.3749  -2.3143  -2.2627  -2.2532  -2.2261  -2.2196  -2.1588  -2.0691
    -2.0637  -2.0271  -1.9318  -1.7608  -1.6031  -1.5853  -1.4700  -1.4203
    -1.3310  -1.3123  -1.1103  -1.0896  -0.9308  -0.8966  -0.7631  -0.7485
    -0.5129  -0.4206  -0.1650  -0.1407  -0.0049   0.0661   0.1821   0.4058
     1.0513   1.3084   1.8723   2.1154   2.7066   3.1361   3.5590   4.2121

          k = 0.0156-0.1166 0.0000 ( 28309 PWs)   bands (ev):

    -6.8857  -6.4054  -5.2951  -5.1474  -4.9793  -4.7189  -4.6442  -4.4704
    -4.3500  -4.2057  -4.0738  -3.9316  -3.7937  -3.7649  -3.5836  -3.4782
    -3.3793  -3.3146  -3.2990  -3.2782  -3.1960  -3.1696  -2.9111  -2.8837
    -2.7796  -2.7062  -2.6603  -2.6149  -2.5992  -2.5797  -2.5643  -2.5223
    -2.5054  -2.4513  -2.3779  -2.3588  -2.3385  -2.3328  -2.2411  -2.2368
    -2.0787  -2.0582  -1.9075  -1.6747  -1.6217  -1.5076  -1.4472  -1.4375
    -1.3898  -1.2971  -1.1864  -1.1508  -1.1120  -0.9768  -0.9765  -0.8886
    -0.8081  -0.6184  -0.4258  -0.2123  -0.0836   0.0280   0.0819   0.1994
     1.1091   1.6087   1.7827   1.8951   2.6792   3.6710   3.7604   4.3098

          k = 0.0156-0.0986 0.0000 ( 28319 PWs)   bands (ev):

    -6.8841  -6.3991  -5.2856  -5.1438  -4.9320  -4.8140  -4.6180  -4.5106
    -4.2648  -4.1375  -3.9731  -3.9353  -3.8199  -3.7661  -3.6186  -3.4765
    -3.3487  -3.3428  -3.2894  -3.2732  -3.2166  -3.1287  -2.9380  -2.8857
    -2.7522  -2.6996  -2.6467  -2.6163  -2.5816  -2.5790  -2.5172  -2.5116
    -2.4914  -2.4856  -2.4142  -2.3607  -2.3228  -2.3121  -2.2433  -2.2244
    -2.1424  -1.9536  -1.7496  -1.6959  -1.5071  -1.4981  -1.4845  -1.4316
    -1.3961  -1.3263  -1.2554  -1.2492  -1.1844  -1.0709  -0.9900  -0.9373
    -0.7801  -0.6925  -0.3644  -0.3557  -0.0788  -0.0079   0.0510   0.1345
     1.0850   1.4325   1.8162   2.0461   2.6936   3.6696   3.7990   4.1212

          k = 0.0156-0.0807 0.0000 ( 28272 PWs)   bands (ev):

    -7.3538  -5.9690  -5.5969  -5.2147  -5.0105  -4.9948  -4.6079  -4.5893
    -4.3193  -4.3026  -4.1888  -4.0441  -3.8943  -3.8088  -3.6686  -3.4332
    -3.4304  -3.3116  -3.3058  -3.1914  -3.1460  -3.0627  -2.9393  -2.9290
    -2.7338  -2.6957  -2.6343  -2.5618  -2.5599  -2.5332  -2.5264  -2.4389
    -2.4054  -2.3236  -2.2845  -2.2666  -2.1688  -2.1256  -2.1070  -2.0394
    -2.0044  -1.8679  -1.7874  -1.7743  -1.5716  -1.5579  -1.5141  -1.3629
    -1.3410  -1.2856  -1.1981  -1.1936  -0.9154  -0.8779  -0.8161  -0.7286
    -0.7208  -0.6720  -0.4285  -0.1849  -0.0897  -0.0517   0.1197   0.1412
     1.0277   1.1089   1.7622   2.4751   2.6939   3.0675   3.6968   4.1576

          k = 0.0156-0.0628 0.0000 ( 28287 PWs)   bands (ev):

    -7.7715  -5.9527  -5.6808  -5.3362  -5.2466  -5.1441  -4.7365  -4.6184
    -4.5752  -4.4388  -4.3945  -4.1918  -4.0985  -3.9802  -3.8187  -3.5091
    -3.4310  -3.2834  -3.1684  -3.0558  -3.0358  -2.9423  -2.9182  -2.8652
    -2.8069  -2.6595  -2.6371  -2.5585  -2.5445  -2.4700  -2.4437  -2.4285
    -2.3379  -2.3222  -2.1613  -2.1527  -2.0962  -2.0352  -2.0212  -1.9021
    -1.8634  -1.8023  -1.7014  -1.5294  -1.5224  -1.4257  -1.3119  -1.2127
    -1.2112  -1.1565  -1.0339  -0.9188  -0.8344  -0.6872  -0.6460  -0.6096
    -0.3859  -0.3135  -0.2339  -0.1268  -0.0269   0.0586   0.1855   0.3060
     0.8332   0.9557   1.6873   2.4112   2.6769   2.9605   3.5306   4.1238

          k = 0.0156-0.0448 0.0000 ( 28267 PWs)   bands (ev):

    -8.1081  -6.2709  -5.6610  -5.4697  -5.3794  -5.2124  -4.9426  -4.8360
    -4.6717  -4.6258  -4.4600  -4.3335  -4.2440  -4.2429  -3.9349  -3.6088
    -3.3813  -3.2453  -3.0418  -3.0265  -2.9650  -2.9119  -2.9069  -2.8723
    -2.7077  -2.6205  -2.6110  -2.5593  -2.5204  -2.5084  -2.4341  -2.3534
    -2.3493  -2.2490  -2.2464  -2.1126  -1.9328  -1.9247  -1.8184  -1.7971
    -1.7878  -1.7317  -1.6781  -1.4814  -1.3754  -1.1927  -1.1608  -1.0848
    -0.9627  -0.8490  -0.8095  -0.6831  -0.6653  -0.5471  -0.4052  -0.4009
    -0.1543  -0.1486   0.1237   0.1491   0.1742   0.3345   0.4271   0.6252
     0.6999   0.9593   1.6526   1.8320   2.5081   3.2251   3.4490   3.9234

          k = 0.0156-0.0269 0.0000 ( 28206 PWs)   bands (ev):

    -8.3442  -6.5071  -5.7559  -5.6434  -5.4615  -5.1642  -5.1282  -4.9798
    -4.8130  -4.7171  -4.5052  -4.4510  -4.4418  -4.3135  -4.0014  -3.7039
    -3.3673  -3.2151  -3.0485  -2.9990  -2.9423  -2.9363  -2.8922  -2.8218
    -2.6750  -2.6038  -2.5670  -2.5551  -2.5250  -2.4967  -2.4820  -2.3561
    -2.3003  -2.2626  -2.1122  -2.0431  -1.8925  -1.8422  -1.7374  -1.7322
    -1.6848  -1.6269  -1.5913  -1.4626  -1.1131  -1.0821  -1.0614  -1.0514
    -0.9130  -0.8715  -0.6842  -0.5461  -0.3739  -0.2938  -0.1083  -0.0966
     0.0030   0.2347   0.2358   0.3111   0.4382   0.4653   0.5729   0.8271
     1.1031   1.3206   1.5554   1.8250   2.0800   2.8663   3.2836   3.7290

          k = 0.0311-0.0179 0.0000 ( 28224 PWs)   bands (ev):

    -8.2889  -6.4587  -5.7319  -5.5939  -5.4449  -5.1786  -5.1032  -4.9679
    -4.8051  -4.6816  -4.4819  -4.4262  -4.4191  -4.3018  -3.9555  -3.7085
    -3.3658  -3.2241  -3.0267  -2.9966  -2.9643  -2.9304  -2.8846  -2.8326
    -2.6793  -2.6209  -2.5965  -2.5559  -2.5190  -2.5060  -2.4677  -2.3505
    -2.3162  -2.2974  -2.1351  -2.0488  -1.8980  -1.8763  -1.7629  -1.7616
    -1.6806  -1.6619  -1.5987  -1.4773  -1.3022  -1.1980  -1.0562  -1.0444
    -0.8991  -0.7548  -0.7544  -0.6284  -0.4452  -0.4283  -0.1767  -0.0783
    -0.0710   0.0225   0.1707   0.2396   0.3365   0.4496   0.5873   1.0740
     1.2798   1.4527   1.4860   1.6962   2.3518   2.4086   3.5615   3.7304

          k = 0.0311 0.0001 0.0000 ( 28197 PWs)   bands (ev):

    -8.3571  -6.5422  -5.7608  -5.6410  -5.4432  -5.3398  -5.0596  -5.0159
    -4.8572  -4.7134  -4.5205  -4.4758  -4.4554  -4.3179  -3.9323  -3.7826
    -3.3631  -3.2103  -3.0152  -3.0150  -2.9588  -2.9426  -2.8691  -2.7825
    -2.7129  -2.6368  -2.5719  -2.5607  -2.5244  -2.5067  -2.4661  -2.4005
    -2.3204  -2.2983  -2.0431  -1.9973  -1.8966  -1.8722  -1.7792  -1.7657
    -1.6883  -1.5464  -1.4922  -1.4697  -1.4079  -1.3204  -1.0460  -0.9887
    -0.8681  -0.8249  -0.6701  -0.5473  -0.4646  -0.2676  -0.1331   0.0261
     0.0574   0.0935   0.3163   0.3405   0.4180   0.6360   0.7158   0.9128
     1.2434   1.3798   1.6543   1.8249   2.0936   3.1492   3.5769   3.7014

          k = 0.0311 0.0180 0.0000 ( 28201 PWs)   bands (ev):

    -8.3077  -6.5121  -5.7355  -5.5989  -5.4161  -5.3879  -5.0768  -4.9654
    -4.8579  -4.6807  -4.5194  -4.4537  -4.4253  -4.3029  -3.8705  -3.8174
    -3.3585  -3.2068  -3.0376  -2.9956  -2.9707  -2.9283  -2.8703  -2.7624
    -2.7202  -2.6616  -2.6444  -2.5570  -2.5275  -2.4657  -2.4539  -2.4058
    -2.3851  -2.3068  -2.0575  -1.9810  -1.9271  -1.8581  -1.8262  -1.8051
    -1.7096  -1.5359  -1.5204  -1.5176  -1.4712  -1.4219  -1.1171  -1.0221
    -0.9820  -0.8479  -0.6985  -0.6423  -0.5661  -0.1947  -0.1096   0.0356
     0.0571   0.1748   0.3240   0.3279   0.3753   0.4621   0.7005   0.8089
     0.8812   1.4663   1.5261   2.1297   2.3833   3.5064   3.6198   3.8367

          k = 0.0311 0.0360 0.0000 ( 28247 PWs)   bands (ev):

    -8.1408  -6.3671  -5.6568  -5.4628  -5.4131  -5.3228  -5.0134  -4.9599
    -4.8137  -4.5604  -4.4258  -4.3952  -4.3541  -4.2590  -3.8109  -3.7696
    -3.3541  -3.2243  -3.0958  -2.9845  -2.9741  -2.8875  -2.8820  -2.8270
    -2.7382  -2.6873  -2.6602  -2.5560  -2.5318  -2.5197  -2.4402  -2.4093
    -2.3434  -2.3376  -2.1727  -2.0169  -1.9730  -1.9038  -1.8968  -1.8610
    -1.7411  -1.7099  -1.5981  -1.5795  -1.5202  -1.4761  -1.2313  -1.0823
    -1.0735  -1.0526  -0.9394  -0.8859  -0.6909  -0.2492  -0.2201  -0.1634
    -0.0316   0.0196   0.2490   0.2679   0.3961   0.4329   0.4659   0.7171
     0.9016   1.5103   1.7676   1.8063   2.7849   3.5291   3.6979   3.8867

          k = 0.0311 0.0539 0.0000 ( 28285 PWs)   bands (ev):

    -7.8618  -6.1164  -5.5635  -5.3664  -5.3469  -5.2189  -4.8904  -4.8835
    -4.7186  -4.4161  -4.3052  -4.2559  -4.2470  -4.1696  -3.7619  -3.6385
    -3.3683  -3.2698  -3.1793  -3.0312  -3.0184  -2.9225  -2.8783  -2.8394
    -2.7750  -2.7295  -2.6866  -2.6078  -2.5733  -2.4926  -2.4269  -2.4018
    -2.3748  -2.3032  -2.2595  -2.0959  -2.0525  -2.0117  -2.0018  -1.9348
    -1.9013  -1.7794  -1.7558  -1.6632  -1.6464  -1.4989  -1.4821  -1.3196
    -1.2259  -1.2202  -1.1010  -1.0015  -0.8605  -0.6310  -0.3402  -0.3072
    -0.1169  -0.0870   0.0314   0.1826   0.1865   0.4161   0.5930   0.7687
     1.0364   1.1230   1.2992   2.3048   3.0841   3.2728   3.6074   4.0556

          k = 0.0311 0.0719 0.0000 ( 28289 PWs)   bands (ev):

    -7.4837  -5.7885  -5.7093  -5.2873  -5.2827  -4.9085  -4.7354  -4.7327
    -4.5406  -4.3417  -4.2276  -4.1233  -4.0082  -3.9952  -3.6936  -3.4830
    -3.4392  -3.3217  -3.2553  -3.1439  -3.1378  -2.9942  -2.9548  -2.8459
    -2.7746  -2.7138  -2.7008  -2.6769  -2.6206  -2.5479  -2.4801  -2.3993
    -2.3733  -2.3368  -2.2578  -2.1932  -2.1901  -2.1677  -2.1132  -2.0594
    -2.0560  -1.9961  -1.9501  -1.7927  -1.6698  -1.6062  -1.5000  -1.4883
    -1.3610  -1.3070  -1.1116  -1.0272  -1.0078  -0.8821  -0.5219  -0.3942
    -0.3401  -0.2215  -0.1551   0.0684   0.0916   0.2935   0.4695   0.6449
     0.8810   0.9872   1.2052   2.5519   2.8360   3.4453   3.7311   4.3772

          k = 0.0311-0.1255 0.0000 ( 28289 PWs)   bands (ev):

    -7.0304  -6.0841  -5.4660  -5.1758  -5.1492  -4.6601  -4.6085  -4.5383
    -4.3384  -4.2732  -4.1904  -3.9761  -3.8507  -3.7343  -3.6116  -3.5409
    -3.4284  -3.3349  -3.2972  -3.2809  -3.1814  -3.1061  -2.9734  -2.8861
    -2.8213  -2.7426  -2.7423  -2.6695  -2.6489  -2.6110  -2.5604  -2.5552
    -2.5050  -2.4469  -2.3278  -2.3230  -2.2902  -2.2756  -2.2441  -2.2299
    -2.0727  -2.0686  -1.9812  -1.6993  -1.6670  -1.5789  -1.5219  -1.4777
    -1.4215  -1.3010  -1.1117  -1.1038  -0.9970  -0.9563  -0.7235  -0.6944
    -0.5067  -0.4319  -0.1948  -0.1285  -0.0603   0.0531   0.1382   0.4526
     0.6517   1.1042   1.5047   2.0669   3.2576   3.5291   3.9933   4.6455

          k = 0.0311-0.1076 0.0000 ( 28299 PWs)   bands (ev):

    -6.5413  -6.5411  -5.3294  -5.1377  -4.9878  -4.6439  -4.6234  -4.3770
    -4.2953  -4.1421  -3.9848  -3.8753  -3.8036  -3.7900  -3.5319  -3.5170
    -3.4499  -3.3920  -3.2947  -3.2763  -3.1561  -3.0530  -2.9833  -2.8863
    -2.8808  -2.8494  -2.8109  -2.7275  -2.7243  -2.6649  -2.5774  -2.5503
    -2.4890  -2.4878  -2.4056  -2.3916  -2.3680  -2.3525  -2.2476  -2.2269
    -2.1359  -1.9991  -1.8173  -1.7137  -1.6098  -1.5274  -1.5175  -1.4083
    -1.2990  -1.2559  -1.2011  -1.0984  -1.0547  -0.9704  -0.8985  -0.8692
    -0.8083  -0.6088  -0.3957  -0.2609  -0.1611   0.0185   0.0205   0.2109
     0.6287   1.1278   1.6622   1.8967   3.4462   3.5731   4.1773   4.7647

          k = 0.0311-0.0896 0.0000 ( 28302 PWs)   bands (ev):

    -7.0131  -6.0731  -5.3494  -5.3446  -4.9033  -4.8191  -4.6356  -4.4725
    -4.2707  -4.0541  -3.9928  -3.9384  -3.8776  -3.7452  -3.6364  -3.4497
    -3.4375  -3.3513  -3.3246  -3.2654  -3.1631  -3.0747  -2.9866  -2.9768
    -2.7839  -2.7194  -2.7144  -2.6171  -2.5936  -2.5758  -2.5583  -2.5376
    -2.5140  -2.5032  -2.4482  -2.3000  -2.2537  -2.2153  -2.1832  -2.1815
    -2.1504  -1.8476  -1.7397  -1.6144  -1.5367  -1.5209  -1.5144  -1.4575
    -1.4186  -1.3593  -1.3292  -1.2398  -1.0096  -0.9446  -0.8548  -0.8002
    -0.6869  -0.6392  -0.3778  -0.3427  -0.2032  -0.0235  -0.0166   0.1293
     0.5901   1.1235   1.3146   2.3363   3.4735   3.5170   3.6370   4.7240

          k = 0.0311-0.0717 0.0000 ( 28285 PWs)   bands (ev):

    -7.4516  -5.6974  -5.6681  -5.4209  -5.0534  -5.0503  -4.6025  -4.5903
    -4.3399  -4.3016  -4.1817  -4.0737  -3.9331  -3.8425  -3.7351  -3.4482
    -3.4468  -3.3178  -3.2732  -3.1463  -3.0978  -3.0009  -2.9704  -2.9700
    -2.7735  -2.6738  -2.6129  -2.5845  -2.5660  -2.5319  -2.5200  -2.4710
    -2.4452  -2.2968  -2.2847  -2.2399  -2.0988  -2.0744  -2.0152  -1.9441
    -1.9144  -1.8492  -1.8030  -1.6852  -1.5641  -1.5148  -1.5091  -1.4256
    -1.3563  -1.3235  -1.1731  -1.1472  -0.8593  -0.8435  -0.7167  -0.6185
    -0.5981  -0.4511  -0.3984  -0.1554  -0.1331  -0.0594   0.0200   0.1205
     0.5624   1.0218   1.1403   2.8102   2.8727   3.5713   3.5864   4.4031

          k = 0.0311-0.0537 0.0000 ( 28280 PWs)   bands (ev):

    -7.8240  -5.9968  -5.5787  -5.3755  -5.2826  -5.2325  -4.7374  -4.6187
    -4.5832  -4.4424  -4.4105  -4.2137  -4.1221  -4.0018  -3.8634  -3.5059
    -3.4341  -3.2777  -3.1455  -3.0321  -3.0287  -2.9459  -2.9240  -2.8503
    -2.8189  -2.6150  -2.6088  -2.5836  -2.5785  -2.4587  -2.4548  -2.4160
    -2.3588  -2.3141  -2.1337  -2.1313  -2.0924  -2.0143  -1.9939  -1.8612
    -1.8251  -1.7989  -1.6559  -1.5503  -1.4932  -1.3307  -1.2713  -1.2615
    -1.2282  -1.1111  -0.9987  -0.8525  -0.8273  -0.6029  -0.5959  -0.5564
    -0.3430  -0.2434  -0.1572  -0.1272   0.1001   0.1407   0.1410   0.1502
     0.6618   0.7910   1.2605   2.3126   3.2418   3.2661   3.7104   3.8481

          k = 0.0311-0.0358 0.0000 ( 28267 PWs)   bands (ev):

    -8.1081  -6.2709  -5.6610  -5.4697  -5.3794  -5.2124  -4.9426  -4.8360
    -4.6717  -4.6258  -4.4600  -4.3335  -4.2440  -4.2429  -3.9349  -3.6088
    -3.3813  -3.2453  -3.0418  -3.0265  -2.9650  -2.9119  -2.9069  -2.8723
    -2.7077  -2.6205  -2.6110  -2.5593  -2.5204  -2.5084  -2.4341  -2.3534
    -2.3493  -2.2490  -2.2464  -2.1126  -1.9328  -1.9247  -1.8184  -1.7971
    -1.7878  -1.7317  -1.6781  -1.4814  -1.3754  -1.1927  -1.1608  -1.0848
    -0.9627  -0.8490  -0.8095  -0.6831  -0.6653  -0.5471  -0.4052  -0.4009
    -0.1543  -0.1486   0.1237   0.1491   0.1742   0.3345   0.4271   0.6252
     0.6999   0.9593   1.6526   1.8320   2.5081   3.2251   3.4490   3.9233

          k = 0.0467-0.0268 0.0000 ( 28233 PWs)   bands (ev):

    -7.9998  -6.1774  -5.6656  -5.4010  -5.3818  -5.0907  -4.9694  -4.8158
    -4.6557  -4.5771  -4.4197  -4.2898  -4.2057  -4.1967  -3.8488  -3.6160
    -3.3797  -3.2616  -3.0958  -3.0046  -2.9782  -2.9305  -2.8991  -2.8518
    -2.7396  -2.6943  -2.6183  -2.5510  -2.5315  -2.4951  -2.4171  -2.3763
    -2.3738  -2.2726  -2.2458  -2.1258  -1.9886  -1.9593  -1.8921  -1.8517
    -1.8475  -1.7576  -1.6839  -1.5196  -1.4454  -1.3085  -1.2747  -1.1222
    -1.0125  -0.9855  -0.8399  -0.8210  -0.7317  -0.6549  -0.5272  -0.5173
    -0.2895  -0.1388  -0.1162   0.1568   0.1575   0.3507   0.4273   0.6963
     0.7557   1.5159   1.7968   2.0750   2.4058   2.6101   3.1358   4.3181

          k = 0.0467-0.0088 0.0000 ( 28258 PWs)   bands (ev):

    -8.1254  -6.3200  -5.6637  -5.4503  -5.4018  -5.2349  -5.0250  -4.9336
    -4.7761  -4.5778  -4.4136  -4.3553  -4.3535  -4.2571  -3.8344  -3.7204
    -3.3611  -3.2424  -3.0713  -2.9902  -2.9697  -2.8969  -2.8827  -2.8624
    -2.7167  -2.6782  -2.5927  -2.5860  -2.5602  -2.5174  -2.4305  -2.3748
    -2.3461  -2.3145  -2.2008  -2.0664  -1.9543  -1.9147  -1.8592  -1.8482
    -1.7649  -1.6896  -1.6463  -1.5156  -1.4914  -1.3791  -1.1369  -1.1337
    -1.0579  -0.9506  -0.9392  -0.7144  -0.6731  -0.4872  -0.3688  -0.3213
    -0.0778  -0.0481   0.0806   0.2309   0.2731   0.4548   0.6484   1.0482
     1.1304   1.2200   1.6039   1.9598   2.2652   3.0998   3.4520   3.8743

          k = 0.0467 0.0091 0.0000 ( 28247 PWs)   bands (ev):

    -8.1408  -6.3671  -5.6568  -5.4628  -5.4131  -5.3228  -5.0134  -4.9599
    -4.8137  -4.5604  -4.4258  -4.3952  -4.3541  -4.2590  -3.8109  -3.7696
    -3.3541  -3.2243  -3.0958  -2.9845  -2.9741  -2.8875  -2.8820  -2.8270
    -2.7382  -2.6873  -2.6602  -2.5560  -2.5318  -2.5197  -2.4402  -2.4093
    -2.3434  -2.3376  -2.1727  -2.0169  -1.9730  -1.9038  -1.8968  -1.8610
    -1.7411  -1.7099  -1.5981  -1.5795  -1.5202  -1.4761  -1.2313  -1.0823
    -1.0735  -1.0526  -0.9394  -0.8859  -0.6909  -0.2492  -0.2201  -0.1634
    -0.0316   0.0196   0.2490   0.2679   0.3961   0.4329   0.4659   0.7171
     0.9016   1.5103   1.7676   1.8063   2.7849   3.5291   3.6979   3.8866

          k = 0.0467 0.0270 0.0000 ( 28225 PWs)   bands (ev):

    -8.0425  -6.3131  -5.6125  -5.5471  -5.3585  -5.2120  -5.0200  -4.9198
    -4.7991  -4.4910  -4.4046  -4.3679  -4.2910  -4.2205  -3.8414  -3.6886
    -3.3542  -3.2208  -3.1421  -3.0021  -2.9869  -2.8966  -2.8620  -2.8245
    -2.7692  -2.7639  -2.6173  -2.5712  -2.5246  -2.5040  -2.4643  -2.4070
    -2.3704  -2.3115  -2.2238  -2.0231  -1.9976  -1.9694  -1.9665  -1.8515
    -1.8263  -1.7821  -1.6672  -1.6374  -1.5853  -1.5057  -1.2662  -1.2496
    -1.2140  -1.1612  -1.0338  -0.9441  -0.8254  -0.2280  -0.1714  -0.0689
    -0.0458   0.0072   0.1182   0.2311   0.2885   0.3822   0.4533   0.4651
     0.8003   1.6394   1.8742   2.0675   2.9961   3.3657   3.8293   4.2867

          k = 0.0467 0.0450 0.0000 ( 28285 PWs)   bands (ev):

    -7.8315  -6.1631  -5.5721  -5.5243  -5.2018  -5.1784  -4.9488  -4.8664
    -4.7393  -4.3563  -4.2979  -4.2978  -4.2091  -4.1537  -3.8236  -3.5772
    -3.3810  -3.2510  -3.1848  -3.0746  -3.0380  -2.9172  -2.8656  -2.8494
    -2.7971  -2.7672  -2.6240  -2.6019  -2.5507  -2.4894  -2.4500  -2.4246
    -2.3630  -2.3263  -2.2508  -2.1139  -2.0784  -2.0266  -2.0261  -1.9532
    -1.8835  -1.8459  -1.8417  -1.7237  -1.6807  -1.5484  -1.5285  -1.4143
    -1.3261  -1.1944  -1.1822  -1.0893  -0.9017  -0.5689  -0.2427  -0.1615
    -0.1240  -0.0077   0.1371   0.1737   0.2388   0.2807   0.3629   0.6276
     0.7793   1.5779   1.7636   2.1377   3.3783   3.4132   3.8659   4.1258

          k = 0.0467 0.0629 0.0000 ( 28291 PWs)   bands (ev):

    -7.5149  -5.9497  -5.5146  -5.4556  -5.2907  -4.9705  -4.8137  -4.7099
    -4.6298  -4.2276  -4.1811  -4.1407  -4.1163  -4.0484  -3.7511  -3.4759
    -3.4601  -3.2992  -3.2129  -3.1757  -3.1270  -2.9881  -2.9274  -2.8942
    -2.7704  -2.7300  -2.6744  -2.6521  -2.6174  -2.5041  -2.5030  -2.4171
    -2.3805  -2.3595  -2.2510  -2.2253  -2.1825  -2.1576  -2.1246  -2.0630
    -2.0366  -1.9649  -1.9542  -1.8608  -1.7843  -1.6352  -1.5786  -1.5724
    -1.4128  -1.2809  -1.1660  -1.0927  -1.0183  -0.8749  -0.3164  -0.2916
    -0.1812  -0.0815   0.0077   0.0873   0.1087   0.2118   0.4101   0.6053
     1.0125   1.1500   1.3557   2.4670   3.1295   3.5548   3.9751   4.5502

          k = 0.0467-0.1344 0.0000 ( 28294 PWs)   bands (ev):

    -7.1086  -5.7685  -5.7288  -5.3360  -5.1937  -4.7254  -4.6238  -4.5349
    -4.4465  -4.1840  -4.1288  -4.0385  -3.9068  -3.8736  -3.6383  -3.5896
    -3.4861  -3.3070  -3.2843  -3.2300  -3.1887  -3.0433  -3.0066  -2.9266
    -2.7914  -2.7800  -2.7257  -2.7029  -2.6862  -2.6049  -2.5768  -2.5267
    -2.5218  -2.4549  -2.3274  -2.3044  -2.2841  -2.2585  -2.2408  -2.2360
    -2.0935  -2.0599  -1.9501  -1.7876  -1.6816  -1.6771  -1.6115  -1.5763
    -1.4499  -1.2853  -1.1516  -1.1031  -1.0536  -0.9752  -0.4733  -0.3804
    -0.3300  -0.2577  -0.2009  -0.0316   0.0512   0.1762   0.4052   0.5014
     0.5655   0.9376   1.3670   2.4813   2.7240   3.9151   4.4265   4.8726

          k = 0.0467-0.1165 0.0000 ( 28316 PWs)   bands (ev):

    -6.6429  -6.1507  -5.6864  -5.0815  -5.0549  -4.6210  -4.4682  -4.3544
    -4.2234  -4.1890  -4.1561  -3.8976  -3.8168  -3.7347  -3.5909  -3.5607
    -3.4997  -3.3991  -3.3286  -3.3249  -3.0678  -3.0667  -3.0239  -2.9632
    -2.9100  -2.8973  -2.8668  -2.8100  -2.7989  -2.7643  -2.6096  -2.5494
    -2.4785  -2.4783  -2.4334  -2.4012  -2.3363  -2.3119  -2.2923  -2.2712
    -2.1108  -2.0594  -1.8426  -1.7091  -1.6949  -1.6104  -1.5826  -1.4434
    -1.3933  -1.3153  -1.1281  -1.0657  -1.0096  -0.8776  -0.7022  -0.6430
    -0.5311  -0.4187  -0.2971  -0.1604  -0.0976   0.0279   0.1002   0.3129
     0.4835   0.6209   1.7592   1.9783   2.8821   4.4333   4.5325   4.7155

          k = 0.0467-0.0986 0.0000 ( 28318 PWs)   bands (ev):

    -6.6110  -6.1705  -5.6576  -5.1295  -4.8162  -4.6620  -4.5965  -4.3213
    -4.2149  -4.1239  -3.9133  -3.8527  -3.8170  -3.7793  -3.6008  -3.4992
    -3.4723  -3.3938  -3.3716  -3.2479  -3.1198  -3.0534  -3.0258  -2.9759
    -2.9621  -2.8959  -2.8504  -2.8038  -2.7806  -2.7486  -2.5895  -2.5407
    -2.5187  -2.4603  -2.4231  -2.4146  -2.3583  -2.3091  -2.2655  -2.2445
    -2.1531  -1.9643  -1.7174  -1.6973  -1.6066  -1.5873  -1.5312  -1.4090
    -1.3857  -1.2010  -1.1267  -1.0720  -0.9721  -0.9059  -0.8761  -0.8266
    -0.6118  -0.5949  -0.3761  -0.3693  -0.2737  -0.0034   0.0045   0.2109
     0.2615   0.6984   1.5870   2.1750   3.0013   4.0219   4.5953   5.0390

          k = 0.0467-0.0806 0.0000 ( 28310 PWs)   bands (ev):

    -7.0567  -5.7908  -5.6177  -5.3651  -4.8560  -4.8222  -4.6502  -4.4609
    -4.2669  -4.0261  -3.9698  -3.9386  -3.9306  -3.7419  -3.5972  -3.5480
    -3.4358  -3.3757  -3.3096  -3.2308  -3.1287  -3.0649  -3.0332  -3.0155
    -2.7865  -2.7380  -2.6968  -2.6568  -2.6015  -2.5759  -2.5561  -2.5557
    -2.5129  -2.5015  -2.4837  -2.2881  -2.2283  -2.1932  -2.1599  -2.1584
    -2.1231  -1.7975  -1.7218  -1.5624  -1.5594  -1.5228  -1.5092  -1.4765
    -1.4226  -1.4124  -1.3701  -1.2309  -0.9312  -0.9224  -0.8048  -0.6917
    -0.6413  -0.4781  -0.4100  -0.3286  -0.2388  -0.0810  -0.0224   0.1213
     0.3088   0.8398   1.2715   2.5632   3.1818   3.4133   4.4477   4.8039

          k = 0.0467-0.0627 0.0000 ( 28285 PWs)   bands (ev):

    -7.4516  -5.6974  -5.6681  -5.4210  -5.0534  -5.0503  -4.6025  -4.5903
    -4.3399  -4.3016  -4.1817  -4.0737  -3.9331  -3.8425  -3.7351  -3.4482
    -3.4468  -3.3178  -3.2732  -3.1463  -3.0978  -3.0009  -2.9704  -2.9700
    -2.7735  -2.6738  -2.6129  -2.5845  -2.5660  -2.5319  -2.5200  -2.4710
    -2.4452  -2.2968  -2.2847  -2.2399  -2.0988  -2.0744  -2.0152  -1.9441
    -1.9144  -1.8492  -1.8030  -1.6852  -1.5641  -1.5148  -1.5091  -1.4256
    -1.3563  -1.3235  -1.1731  -1.1472  -0.8593  -0.8435  -0.7167  -0.6185
    -0.5981  -0.4511  -0.3984  -0.1554  -0.1331  -0.0594   0.0200   0.1205
     0.5624   1.0218   1.1403   2.8102   2.8727   3.5713   3.5864   4.4031

          k = 0.0467-0.0447 0.0000 ( 28287 PWs)   bands (ev):

    -7.7715  -5.9527  -5.6808  -5.3362  -5.2466  -5.1441  -4.7365  -4.6184
    -4.5752  -4.4388  -4.3945  -4.1918  -4.0985  -3.9802  -3.8187  -3.5091
    -3.4310  -3.2834  -3.1684  -3.0558  -3.0358  -2.9423  -2.9182  -2.8652
    -2.8069  -2.6595  -2.6371  -2.5585  -2.5445  -2.4700  -2.4437  -2.4285
    -2.3379  -2.3222  -2.1613  -2.1527  -2.0962  -2.0352  -2.0212  -1.9021
    -1.8634  -1.8023  -1.7014  -1.5294  -1.5224  -1.4257  -1.3119  -1.2127
    -1.2112  -1.1565  -1.0339  -0.9188  -0.8344  -0.6872  -0.6460  -0.6096
    -0.3859  -0.3135  -0.2339  -0.1268  -0.0269   0.0586   0.1855   0.3060
     0.8332   0.9557   1.6873   2.4112   2.6769   2.9605   3.5306   4.1238

          k = 0.0623-0.0357 0.0000 ( 28263 PWs)   bands (ev):

    -7.6160  -5.8378  -5.8252  -5.2879  -5.1505  -4.9620  -4.7500  -4.6189
    -4.5398  -4.4138  -4.3471  -4.1333  -4.0312  -3.9198  -3.7101  -3.5088
    -3.4259  -3.2978  -3.2333  -3.1116  -3.0749  -2.9764  -2.9046  -2.8931
    -2.7599  -2.7001  -2.6660  -2.5670  -2.5515  -2.4924  -2.4568  -2.4025
    -2.3287  -2.2970  -2.2229  -2.2073  -2.1513  -2.1003  -2.0427  -2.0325
    -1.9193  -1.8886  -1.7712  -1.6308  -1.5499  -1.4843  -1.4833  -1.3156
    -1.2653  -1.1769  -1.0611  -1.0467  -0.8624  -0.8195  -0.7345  -0.7264
    -0.5414  -0.3812  -0.2051  -0.1273   0.0249   0.0380   0.2077   0.3568
     0.9541   1.5906   1.8775   2.5243   2.6150   2.6750   2.8288   4.7318

          k = 0.0623-0.0178 0.0000 ( 28280 PWs)   bands (ev):

    -7.7881  -6.0026  -5.6844  -5.3676  -5.2369  -5.0301  -4.9238  -4.7789
    -4.6119  -4.4804  -4.3404  -4.2122  -4.1234  -4.1107  -3.7229  -3.6093
    -3.3824  -3.2875  -3.1885  -3.0413  -3.0319  -2.9535  -2.8678  -2.8647
    -2.7544  -2.7478  -2.6400  -2.6347  -2.5574  -2.4856  -2.4095  -2.4080
    -2.3614  -2.3143  -2.2416  -2.1418  -2.0835  -2.0160  -2.0073  -1.9520
    -1.9296  -1.8690  -1.7290  -1.6171  -1.5680  -1.4579  -1.3978  -1.3958
    -1.2155  -1.1398  -1.0789  -0.9149  -0.8708  -0.7262  -0.6122  -0.4630
    -0.3436  -0.1632  -0.1363   0.1274   0.1337   0.3358   0.4417   0.8065
     0.8342   1.1630   1.7876   2.2929   2.5107   2.9066   3.4005   4.0869

          k = 0.0623 0.0002 0.0000 ( 28285 PWs)   bands (ev):

    -7.8618  -6.1164  -5.5635  -5.3664  -5.3469  -5.2189  -4.8904  -4.8835
    -4.7186  -4.4161  -4.3052  -4.2559  -4.2470  -4.1696  -3.7619  -3.6385
    -3.3683  -3.2698  -3.1793  -3.0312  -3.0184  -2.9225  -2.8783  -2.8394
    -2.7750  -2.7295  -2.6866  -2.6078  -2.5733  -2.4926  -2.4269  -2.4018
    -2.3748  -2.3032  -2.2595  -2.0959  -2.0525  -2.0117  -2.0018  -1.9348
    -1.9013  -1.7794  -1.7558  -1.6632  -1.6464  -1.4989  -1.4821  -1.3196
    -1.2259  -1.2202  -1.1010  -1.0015  -0.8605  -0.6310  -0.3402  -0.3072
    -0.1169  -0.0870   0.0314   0.1826   0.1865   0.4161   0.5930   0.7687
     1.0364   1.1230   1.2992   2.3048   3.0841   3.2728   3.6074   4.0556

          k = 0.0623 0.0181 0.0000 ( 28285 PWs)   bands (ev):

    -7.8315  -6.1631  -5.5721  -5.5243  -5.2018  -5.1784  -4.9488  -4.8664
    -4.7393  -4.3563  -4.2979  -4.2978  -4.2091  -4.1537  -3.8236  -3.5772
    -3.3810  -3.2510  -3.1848  -3.0746  -3.0380  -2.9172  -2.8656  -2.8494
    -2.7971  -2.7672  -2.6240  -2.6019  -2.5507  -2.4894  -2.4500  -2.4246
    -2.3630  -2.3263  -2.2508  -2.1139  -2.0784  -2.0266  -2.0261  -1.9532
    -1.8835  -1.8459  -1.8417  -1.7237  -1.6807  -1.5484  -1.5285  -1.4143
    -1.3261  -1.1944  -1.1822  -1.0893  -0.9017  -0.5689  -0.2427  -0.1615
    -0.1240  -0.0077   0.1371   0.1737   0.2388   0.2807   0.3629   0.6276
     0.7793   1.5779   1.7636   2.1377   3.3783   3.4132   3.8659   4.1258

          k = 0.0623 0.0361 0.0000 ( 28239 PWs)   bands (ev):

    -7.6952  -6.1554  -5.6768  -5.4772  -5.1312  -4.9881  -4.9332  -4.8704
    -4.7023  -4.3230  -4.2633  -4.2392  -4.1250  -4.0832  -3.8348  -3.4892
    -3.4267  -3.2533  -3.1805  -3.1521  -3.0858  -2.9477  -2.9320  -2.8558
    -2.7564  -2.7527  -2.6427  -2.5737  -2.5100  -2.4836  -2.4709  -2.4469
    -2.3899  -2.3303  -2.2038  -2.1930  -2.1666  -2.0827  -2.0401  -2.0165
    -1.9883  -1.9738  -1.8487  -1.8429  -1.7326  -1.6772  -1.5842  -1.5808
    -1.3973  -1.2431  -1.2345  -1.1311  -0.9683  -0.6955  -0.2436  -0.1840
    -0.1331  -0.0797   0.0146   0.1501   0.2204   0.3099   0.3438   0.6378
     0.7933   1.6876   2.0511   2.0720   3.3885   3.4925   3.9970   4.5251

          k = 0.0623 0.0540 0.0000 ( 28289 PWs)   bands (ev):

    -7.4554  -6.1302  -5.6359  -5.3944  -5.0657  -5.0211  -4.8353  -4.7156
    -4.6114  -4.2738  -4.1578  -4.1180  -4.0506  -3.9972  -3.7712  -3.5058
    -3.4476  -3.3060  -3.1917  -3.1826  -3.1492  -3.0010  -2.9894  -2.8794
    -2.7371  -2.7123  -2.6925  -2.5861  -2.5518  -2.5361  -2.4614  -2.4564
    -2.3963  -2.3408  -2.2902  -2.2579  -2.2519  -2.1672  -2.1427  -2.0779
    -2.0614  -2.0267  -2.0019  -1.9571  -1.8450  -1.7124  -1.7077  -1.6392
    -1.4341  -1.2817  -1.2270  -1.1442  -1.0514  -0.9289  -0.2829  -0.2435
    -0.1619  -0.1410   0.0711   0.1031   0.1690   0.2037   0.2546   0.6824
     0.9188   1.6147   1.7742   2.1477   3.5876   3.7388   3.9885   4.3232

          k = 0.0623-0.1434 0.0000 ( 28293 PWs)   bands (ev):

    -7.1228  -6.1086  -5.4512  -5.3758  -5.2395  -4.8756  -4.6766  -4.5140
    -4.4589  -4.2040  -4.0223  -4.0105  -3.9824  -3.9143  -3.6483  -3.6150
    -3.5274  -3.3801  -3.2358  -3.2046  -3.1275  -3.0477  -3.0025  -2.9269
    -2.7854  -2.7667  -2.6999  -2.6824  -2.6171  -2.6002  -2.5815  -2.5465
    -2.4718  -2.4700  -2.3495  -2.3379  -2.2824  -2.2796  -2.2459  -2.2041
    -2.1166  -2.0701  -1.9564  -1.8939  -1.8011  -1.7319  -1.7057  -1.6731
    -1.4569  -1.2697  -1.2100  -1.1341  -1.1152  -1.0360  -0.3546  -0.3325
    -0.1877  -0.1810  -0.0138   0.0259   0.0626   0.1111   0.2000   0.5460
     1.1810   1.2337   1.3840   2.2939   3.1046   3.9403   4.2497   5.0039

          k = 0.0623-0.1254 0.0000 ( 28322 PWs)   bands (ev):

    -6.7267  -6.0709  -5.7389  -5.1869  -5.1284  -4.7234  -4.4783  -4.3606
    -4.2461  -4.1831  -4.0505  -3.8995  -3.8991  -3.8424  -3.6810  -3.6371
    -3.5046  -3.3791  -3.3548  -3.2286  -3.0717  -3.0684  -2.9836  -2.9674
    -2.9106  -2.9071  -2.8450  -2.8220  -2.8034  -2.7467  -2.6237  -2.5332
    -2.4754  -2.4512  -2.4442  -2.4036  -2.3445  -2.3338  -2.2759  -2.2688
    -2.0948  -2.0946  -1.8682  -1.7965  -1.7287  -1.6778  -1.6722  -1.5723
    -1.4628  -1.2934  -1.1797  -1.1399  -1.0617  -0.9507  -0.4766  -0.4087
    -0.3207  -0.2581  -0.2386  -0.1670   0.0273   0.0436   0.3106   0.3738
     0.5227   0.9662   1.5834   2.4377   2.4551   4.4031   4.7798   5.2090

          k = 0.0623-0.1075 0.0000 ( 28360 PWs)   bands (ev):

    -6.3568  -6.1733  -5.9547  -5.0531  -4.9414  -4.6360  -4.3958  -4.2552
    -4.1970  -4.1537  -4.1030  -3.8557  -3.8421  -3.7792  -3.6643  -3.5127
    -3.4834  -3.4534  -3.2786  -3.2636  -3.1814  -3.0971  -3.0151  -3.0090
    -2.9789  -2.9288  -2.9249  -2.9117  -2.8127  -2.7731  -2.5917  -2.5539
    -2.5158  -2.4733  -2.4350  -2.4046  -2.3694  -2.3381  -2.3217  -2.2814
    -2.1255  -2.0450  -1.7820  -1.7191  -1.6776  -1.6452  -1.5938  -1.4454
    -1.3705  -1.3419  -1.1355  -1.0087  -1.0021  -0.7959  -0.6976  -0.6075
    -0.5439  -0.4122  -0.3367  -0.2650  -0.0836   0.0149   0.0413   0.1995
     0.4613   0.4940   1.9212   1.9462   2.6600   4.6283   4.8577   5.4518

          k = 0.0623-0.0895 0.0000 ( 28318 PWs)   bands (ev):

    -6.6110  -6.1705  -5.6576  -5.1295  -4.8162  -4.6620  -4.5965  -4.3212
    -4.2149  -4.1239  -3.9133  -3.8527  -3.8170  -3.7793  -3.6008  -3.4992
    -3.4723  -3.3938  -3.3716  -3.2479  -3.1198  -3.0534  -3.0258  -2.9759
    -2.9621  -2.8959  -2.8504  -2.8038  -2.7806  -2.7486  -2.5895  -2.5407
    -2.5187  -2.4603  -2.4231  -2.4146  -2.3583  -2.3091  -2.2655  -2.2445
    -2.1531  -1.9643  -1.7174  -1.6973  -1.6066  -1.5873  -1.5312  -1.4090
    -1.3857  -1.2010  -1.1267  -1.0720  -0.9721  -0.9059  -0.8761  -0.8266
    -0.6118  -0.5949  -0.3761  -0.3693  -0.2737  -0.0034   0.0045   0.2109
     0.2615   0.6984   1.5870   2.1750   3.0013   4.0219   4.5953   5.0389

          k = 0.0623-0.0716 0.0000 ( 28302 PWs)   bands (ev):

    -7.0131  -6.0731  -5.3494  -5.3446  -4.9033  -4.8191  -4.6356  -4.4725
    -4.2707  -4.0541  -3.9928  -3.9384  -3.8776  -3.7452  -3.6364  -3.4497
    -3.4375  -3.3513  -3.3246  -3.2654  -3.1631  -3.0747  -2.9866  -2.9768
    -2.7839  -2.7194  -2.7144  -2.6171  -2.5936  -2.5758  -2.5583  -2.5376
    -2.5140  -2.5032  -2.4482  -2.3000  -2.2537  -2.2153  -2.1832  -2.1815
    -2.1504  -1.8476  -1.7397  -1.6144  -1.5367  -1.5209  -1.5144  -1.4575
    -1.4186  -1.3593  -1.3292  -1.2398  -1.0096  -0.9446  -0.8548  -0.8002
    -0.6869  -0.6392  -0.3778  -0.3427  -0.2032  -0.0235  -0.0166   0.1293
     0.5901   1.1235   1.3146   2.3363   3.4735   3.5170   3.6370   4.7240

          k = 0.0623-0.0537 0.0000 ( 28272 PWs)   bands (ev):

    -7.3538  -5.9690  -5.5969  -5.2147  -5.0105  -4.9948  -4.6079  -4.5893
    -4.3193  -4.3026  -4.1888  -4.0441  -3.8943  -3.8088  -3.6686  -3.4332
    -3.4304  -3.3116  -3.3058  -3.1914  -3.1460  -3.0627  -2.9393  -2.9290
    -2.7338  -2.6957  -2.6343  -2.5618  -2.5599  -2.5332  -2.5264  -2.4389
    -2.4054  -2.3236  -2.2845  -2.2666  -2.1688  -2.1256  -2.1070  -2.0394
    -2.0044  -1.8679  -1.7874  -1.7743  -1.5716  -1.5579  -1.5141  -1.3629
    -1.3410  -1.2856  -1.1981  -1.1936  -0.9154  -0.8779  -0.8161  -0.7286
    -0.7208  -0.6720  -0.4285  -0.1849  -0.0897  -0.0517   0.1197   0.1412
     1.0277   1.1089   1.7622   2.4751   2.6940   3.0675   3.6968   4.1576

          k = 0.0778-0.0446 0.0000 ( 28269 PWs)   bands (ev):

    -7.1621  -6.2108  -5.4627  -5.1581  -4.9516  -4.8399  -4.6304  -4.5574
    -4.3357  -4.2736  -4.1508  -3.9920  -3.8341  -3.7712  -3.6142  -3.4283
    -3.3693  -3.3361  -3.3101  -3.2304  -3.2076  -3.1542  -2.9054  -2.8978
    -2.7316  -2.6579  -2.6429  -2.5959  -2.5778  -2.5371  -2.5175  -2.3962
    -2.3898  -2.3730  -2.3477  -2.3086  -2.2783  -2.2287  -2.2100  -2.1552
    -2.1279  -1.9461  -1.9045  -1.7003  -1.6166  -1.5450  -1.4911  -1.3691
    -1.3413  -1.3401  -1.1888  -1.1831  -1.0260  -0.9678  -0.9540  -0.8710
    -0.7671  -0.6526  -0.4342  -0.2029  -0.0534   0.0012   0.1337   0.1695
     1.2537   1.6228   1.9180   2.2479   2.6581   2.7431   3.4152   4.7814

          k = 0.0778-0.0267 0.0000 ( 28284 PWs)   bands (ev):

    -7.3645  -5.9774  -5.6323  -5.2247  -5.0780  -4.7747  -4.7688  -4.6011
    -4.4593  -4.3540  -4.2726  -4.0552  -3.9338  -3.8322  -3.6401  -3.4484
    -3.4394  -3.3226  -3.3002  -3.1875  -3.1532  -3.0676  -2.9292  -2.8685
    -2.7273  -2.7190  -2.6865  -2.6228  -2.5990  -2.5519  -2.5023  -2.3759
    -2.3749  -2.3143  -2.2627  -2.2532  -2.2261  -2.2196  -2.1588  -2.0691
    -2.0637  -2.0271  -1.9318  -1.7608  -1.6031  -1.5853  -1.4700  -1.4203
    -1.3310  -1.3123  -1.1103  -1.0896  -0.9308  -0.8966  -0.7631  -0.7485
    -0.5129  -0.4206  -0.1650  -0.1407  -0.0049   0.0661   0.1821   0.4058
     1.0513   1.3084   1.8723   2.1154   2.7066   3.1361   3.5591   4.2121

          k = 0.0778-0.0088 0.0000 ( 28289 PWs)   bands (ev):

    -7.4837  -5.7885  -5.7093  -5.2873  -5.2827  -4.9085  -4.7354  -4.7327
    -4.5406  -4.3417  -4.2276  -4.1233  -4.0082  -3.9952  -3.6936  -3.4831
    -3.4392  -3.3217  -3.2553  -3.1439  -3.1378  -2.9942  -2.9548  -2.8459
    -2.7746  -2.7138  -2.7008  -2.6769  -2.6206  -2.5479  -2.4801  -2.3993
    -2.3733  -2.3368  -2.2578  -2.1932  -2.1901  -2.1677  -2.1132  -2.0594
    -2.0560  -1.9961  -1.9501  -1.7927  -1.6698  -1.6062  -1.5000  -1.4883
    -1.3610  -1.3070  -1.1116  -1.0272  -1.0078  -0.8821  -0.5219  -0.3942
    -0.3401  -0.2215  -0.1551   0.0684   0.0916   0.2935   0.4695   0.6449
     0.8810   0.9872   1.2052   2.5519   2.8360   3.4453   3.7311   4.3772

          k = 0.0778 0.0092 0.0000 ( 28291 PWs)   bands (ev):

    -7.5149  -5.9497  -5.5146  -5.4556  -5.2907  -4.9705  -4.8137  -4.7099
    -4.6298  -4.2276  -4.1811  -4.1407  -4.1163  -4.0484  -3.7511  -3.4759
    -3.4601  -3.2992  -3.2129  -3.1757  -3.1270  -2.9881  -2.9274  -2.8942
    -2.7704  -2.7300  -2.6744  -2.6521  -2.6174  -2.5041  -2.5030  -2.4171
    -2.3805  -2.3595  -2.2510  -2.2253  -2.1825  -2.1576  -2.1246  -2.0630
    -2.0366  -1.9649  -1.9542  -1.8608  -1.7843  -1.6352  -1.5786  -1.5724
    -1.4128  -1.2809  -1.1660  -1.0927  -1.0183  -0.8749  -0.3164  -0.2916
    -0.1812  -0.0815   0.0077   0.0873   0.1087   0.2118   0.4101   0.6053
     1.0125   1.1500   1.3557   2.4670   3.1295   3.5548   3.9751   4.5502

          k = 0.0778 0.0271 0.0000 ( 28289 PWs)   bands (ev):

    -7.4554  -6.1302  -5.6359  -5.3944  -5.0657  -5.0211  -4.8353  -4.7156
    -4.6114  -4.2738  -4.1578  -4.1180  -4.0506  -3.9972  -3.7712  -3.5058
    -3.4476  -3.3060  -3.1917  -3.1826  -3.1492  -3.0010  -2.9894  -2.8794
    -2.7371  -2.7123  -2.6925  -2.5861  -2.5518  -2.5361  -2.4614  -2.4564
    -2.3963  -2.3408  -2.2902  -2.2579  -2.2519  -2.1672  -2.1427  -2.0779
    -2.0614  -2.0267  -2.0019  -1.9571  -1.8450  -1.7124  -1.7077  -1.6392
    -1.4341  -1.2817  -1.2270  -1.1442  -1.0514  -0.9289  -0.2829  -0.2435
    -0.1619  -0.1410   0.0711   0.1031   0.1690   0.2037   0.2546   0.6824
     0.9188   1.6147   1.7742   2.1477   3.5876   3.7388   3.9885   4.3231

          k = 0.0778 0.0451 0.0000 ( 28290 PWs)   bands (ev):

    -7.3076  -6.2904  -5.6335  -5.3672  -5.0330  -4.8310  -4.8080  -4.7519
    -4.5268  -4.3369  -4.1294  -4.0539  -3.9583  -3.8998  -3.7298  -3.5662
    -3.4517  -3.3904  -3.2436  -3.1277  -3.1095  -3.0772  -3.0023  -2.8599
    -2.7137  -2.7034  -2.6983  -2.5575  -2.5484  -2.5022  -2.4959  -2.4559
    -2.4150  -2.3657  -2.3170  -2.3115  -2.2668  -2.2537  -2.2402  -2.1391
    -2.1105  -2.0971  -2.0824  -2.0327  -1.8364  -1.8348  -1.7846  -1.6778
    -1.4425  -1.2962  -1.2437  -1.1738  -1.0912  -1.0593  -0.3117  -0.2980
    -0.1371  -0.1054  -0.0906   0.0810   0.1707   0.2453   0.3410   0.7884
     0.8861   1.7074   1.9857   2.0504   3.7555   3.7776   4.1160   4.6069

          k = 0.0778-0.1523 0.0000 ( 28294 PWs)   bands (ev):

    -7.0883  -6.3790  -5.5334  -5.3099  -5.0135  -4.9828  -4.7393  -4.5380
    -4.4064  -4.3380  -4.0697  -3.9813  -3.8907  -3.8309  -3.6404  -3.6368
    -3.5350  -3.4671  -3.2977  -3.1517  -3.1027  -3.0104  -2.9834  -2.8755
    -2.7669  -2.7515  -2.6730  -2.6174  -2.6149  -2.5555  -2.5345  -2.5067
    -2.5013  -2.4194  -2.3657  -2.3599  -2.3309  -2.2942  -2.2895  -2.1973
    -2.1578  -2.0914  -2.0384  -2.0086  -1.8506  -1.8193  -1.8110  -1.6960
    -1.4523  -1.2804  -1.2405  -1.1637  -1.1502  -1.1310  -0.3373  -0.3263
    -0.2374  -0.1091  -0.0053   0.0476   0.1300   0.1768   0.2537   0.6939
     1.0931   1.6322   1.7818   2.0076   3.8202   4.0234   4.0666   4.4487

          k = 0.0778-0.1343 0.0000 ( 28318 PWs)   bands (ev):

    -6.8608  -6.3320  -5.3665  -5.3486  -5.2155  -4.8724  -4.6281  -4.3796
    -4.2787  -4.2767  -4.0248  -3.9565  -3.8540  -3.8216  -3.6876  -3.6550
    -3.5457  -3.4659  -3.2931  -3.2277  -3.0660  -2.9802  -2.9645  -2.9025
    -2.8891  -2.8466  -2.7842  -2.7642  -2.7145  -2.6372  -2.6309  -2.5183
    -2.4866  -2.4228  -2.4205  -2.3817  -2.3784  -2.3542  -2.2596  -2.2125
    -2.1469  -2.0910  -1.9302  -1.8992  -1.7929  -1.7833  -1.7332  -1.6974
    -1.4623  -1.2551  -1.2237  -1.1897  -1.1195  -1.0827  -0.3831  -0.3585
    -0.2637  -0.1688  -0.0292   0.0174   0.0512   0.0869   0.1292   0.5402
     1.1941   1.3503   1.3919   2.1697   3.0969   4.2866   4.2997   5.1129

          k = 0.0778-0.1164 0.0000 ( 28322 PWs)   bands (ev):

    -6.7267  -6.0709  -5.7389  -5.1869  -5.1284  -4.7234  -4.4783  -4.3606
    -4.2461  -4.1831  -4.0505  -3.8995  -3.8991  -3.8424  -3.6810  -3.6371
    -3.5046  -3.3791  -3.3548  -3.2286  -3.0717  -3.0684  -2.9836  -2.9674
    -2.9106  -2.9071  -2.8450  -2.8220  -2.8034  -2.7467  -2.6237  -2.5332
    -2.4754  -2.4512  -2.4442  -2.4036  -2.3445  -2.3338  -2.2759  -2.2688
    -2.0948  -2.0946  -1.8682  -1.7965  -1.7287  -1.6778  -1.6722  -1.5723
    -1.4628  -1.2934  -1.1797  -1.1399  -1.0617  -0.9507  -0.4766  -0.4087
    -0.3207  -0.2581  -0.2386  -0.1670   0.0273   0.0436   0.3106   0.3738
     0.5227   0.9662   1.5834   2.4377   2.4551   4.4031   4.7798   5.2088

          k = 0.0778-0.0985 0.0000 ( 28316 PWs)   bands (ev):

    -6.6429  -6.1507  -5.6864  -5.0815  -5.0549  -4.6210  -4.4682  -4.3544
    -4.2234  -4.1890  -4.1561  -3.8976  -3.8168  -3.7347  -3.5909  -3.5607
    -3.4997  -3.3991  -3.3286  -3.3249  -3.0678  -3.0667  -3.0239  -2.9632
    -2.9100  -2.8973  -2.8668  -2.8100  -2.7989  -2.7643  -2.6096  -2.5494
    -2.4785  -2.4783  -2.4334  -2.4012  -2.3363  -2.3119  -2.2923  -2.2712
    -2.1108  -2.0594  -1.8426  -1.7091  -1.6949  -1.6104  -1.5826  -1.4434
    -1.3933  -1.3153  -1.1281  -1.0657  -1.0096  -0.8776  -0.7022  -0.6430
    -0.5311  -0.4187  -0.2971  -0.1604  -0.0976   0.0279   0.1002   0.3129
     0.4835   0.6209   1.7592   1.9783   2.8821   4.4333   4.5325   4.7156

          k = 0.0778-0.0805 0.0000 ( 28299 PWs)   bands (ev):

    -6.5413  -6.5411  -5.3294  -5.1377  -4.9878  -4.6439  -4.6234  -4.3770
    -4.2953  -4.1421  -3.9848  -3.8753  -3.8036  -3.7900  -3.5319  -3.5170
    -3.4499  -3.3920  -3.2947  -3.2763  -3.1561  -3.0530  -2.9833  -2.8863
    -2.8808  -2.8494  -2.8109  -2.7275  -2.7243  -2.6649  -2.5774  -2.5503
    -2.4890  -2.4878  -2.4056  -2.3916  -2.3680  -2.3525  -2.2476  -2.2269
    -2.1359  -1.9991  -1.8173  -1.7137  -1.6098  -1.5274  -1.5175  -1.4083
    -1.2990  -1.2559  -1.2011  -1.0984  -1.0547  -0.9704  -0.8985  -0.8692
    -0.8083  -0.6088  -0.3957  -0.2609  -0.1611   0.0185   0.0205   0.2109
     0.6287   1.1278   1.6622   1.8967   3.4460   3.5730   4.1773   4.5039

          k = 0.0778-0.0626 0.0000 ( 28319 PWs)   bands (ev):

    -6.8841  -6.3991  -5.2856  -5.1438  -4.9320  -4.8140  -4.6180  -4.5106
    -4.2648  -4.1375  -3.9731  -3.9353  -3.8199  -3.7661  -3.6186  -3.4765
    -3.3487  -3.3428  -3.2894  -3.2732  -3.2166  -3.1287  -2.9380  -2.8857
    -2.7522  -2.6996  -2.6467  -2.6163  -2.5816  -2.5790  -2.5172  -2.5116
    -2.4914  -2.4856  -2.4142  -2.3607  -2.3228  -2.3121  -2.2433  -2.2244
    -2.1424  -1.9536  -1.7496  -1.6959  -1.5071  -1.4981  -1.4845  -1.4316
    -1.3961  -1.3263  -1.2554  -1.2492  -1.1844  -1.0709  -0.9900  -0.9373
    -0.7801  -0.6925  -0.3644  -0.3557  -0.0788  -0.0079   0.0510   0.1345
     1.0850   1.4325   1.8162   2.0461   2.6936   3.6696   3.7990   4.1212

          k =-0.0934 0.0536 0.0000 ( 28304 PWs)   bands (ev):

    -6.6758  -6.6757  -5.1986  -5.1985  -4.8362  -4.8360  -4.5753  -4.5750
    -4.2203  -4.2201  -3.9455  -3.9454  -3.7894  -3.7890  -3.5522  -3.5521
    -3.3256  -3.3253  -3.2816  -3.2816  -3.1796  -3.1793  -2.8948  -2.8946
    -2.6518  -2.6516  -2.6191  -2.6189  -2.5962  -2.5960  -2.5079  -2.5078
    -2.4530  -2.4529  -2.4138  -2.4136  -2.3881  -2.3879  -2.2580  -2.2578
    -2.0683  -2.0681  -1.7348  -1.7347  -1.4889  -1.4887  -1.4465  -1.4464
    -1.3184  -1.3182  -1.2946  -1.2944  -1.1990  -1.1985  -1.0232  -1.0230
    -0.7301  -0.7299  -0.3657  -0.3656  -0.0173  -0.0171   0.1083   0.1085
     1.5223   1.5224   1.9943   1.9944   2.7290   2.7292   4.1010   4.1012

          k =-0.0934 0.0715 0.0000 ( 28309 PWs)   bands (ev):

    -6.8857  -6.4054  -5.2951  -5.1474  -4.9793  -4.7189  -4.6442  -4.4704
    -4.3500  -4.2057  -4.0738  -3.9316  -3.7937  -3.7649  -3.5836  -3.4782
    -3.3793  -3.3146  -3.2990  -3.2782  -3.1960  -3.1696  -2.9111  -2.8837
    -2.7796  -2.7062  -2.6603  -2.6149  -2.5992  -2.5797  -2.5643  -2.5223
    -2.5054  -2.4513  -2.3779  -2.3588  -2.3385  -2.3328  -2.2411  -2.2368
    -2.0787  -2.0582  -1.9075  -1.6747  -1.6217  -1.5076  -1.4472  -1.4375
    -1.3898  -1.2971  -1.1864  -1.1508  -1.1120  -0.9768  -0.9765  -0.8886
    -0.8081  -0.6184  -0.4258  -0.2123  -0.0836   0.0280   0.0819   0.1994
     1.1091   1.6087   1.7827   1.8951   2.6793   3.6712   3.7604   4.3098

          k =-0.0934 0.0895 0.0000 ( 28289 PWs)   bands (ev):

    -7.0304  -6.0841  -5.4660  -5.1758  -5.1492  -4.6601  -4.6085  -4.5383
    -4.3384  -4.2732  -4.1904  -3.9761  -3.8507  -3.7343  -3.6116  -3.5409
    -3.4284  -3.3349  -3.2972  -3.2809  -3.1814  -3.1061  -2.9734  -2.8861
    -2.8213  -2.7426  -2.7423  -2.6695  -2.6489  -2.6110  -2.5604  -2.5552
    -2.5050  -2.4469  -2.3278  -2.3230  -2.2902  -2.2756  -2.2441  -2.2299
    -2.0727  -2.0686  -1.9812  -1.6993  -1.6670  -1.5789  -1.5219  -1.4777
    -1.4215  -1.3010  -1.1117  -1.1038  -0.9970  -0.9563  -0.7235  -0.6944
    -0.5067  -0.4319  -0.1948  -0.1285  -0.0603   0.0531   0.1382   0.4526
     0.6517   1.1042   1.5047   2.0669   3.2576   3.5291   3.9934   4.6455

          k =-0.0934 0.1074 0.0000 ( 28294 PWs)   bands (ev):

    -7.1086  -5.7685  -5.7288  -5.3360  -5.1937  -4.7254  -4.6238  -4.5349
    -4.4465  -4.1840  -4.1288  -4.0385  -3.9068  -3.8736  -3.6383  -3.5896
    -3.4861  -3.3070  -3.2843  -3.2300  -3.1887  -3.0433  -3.0066  -2.9266
    -2.7914  -2.7800  -2.7257  -2.7029  -2.6862  -2.6049  -2.5768  -2.5267
    -2.5218  -2.4549  -2.3274  -2.3044  -2.2841  -2.2585  -2.2408  -2.2360
    -2.0935  -2.0599  -1.9501  -1.7876  -1.6816  -1.6771  -1.6115  -1.5763
    -1.4499  -1.2853  -1.1516  -1.1031  -1.0536  -0.9752  -0.4733  -0.3804
    -0.3300  -0.2577  -0.2009  -0.0316   0.0512   0.1762   0.4052   0.5014
     0.5655   0.9376   1.3670   2.4813   2.7240   3.9152   4.4266   4.8725

          k =-0.0934 0.1253 0.0000 ( 28293 PWs)   bands (ev):

    -7.1228  -6.1086  -5.4512  -5.3758  -5.2395  -4.8756  -4.6766  -4.5140
    -4.4589  -4.2040  -4.0223  -4.0105  -3.9824  -3.9143  -3.6483  -3.6150
    -3.5274  -3.3801  -3.2358  -3.2046  -3.1275  -3.0477  -3.0025  -2.9269
    -2.7854  -2.7667  -2.6999  -2.6824  -2.6171  -2.6002  -2.5815  -2.5465
    -2.4718  -2.4700  -2.3495  -2.3379  -2.2824  -2.2796  -2.2459  -2.2041
    -2.1166  -2.0701  -1.9564  -1.8939  -1.8011  -1.7319  -1.7057  -1.6731
    -1.4569  -1.2697  -1.2100  -1.1341  -1.1152  -1.0360  -0.3546  -0.3325
    -0.1877  -0.1810  -0.0138   0.0259   0.0626   0.1111   0.2000   0.5460
     1.1810   1.2337   1.3840   2.2939   3.1046   3.9404   4.2497   5.0039

          k =-0.0934 0.1433 0.0000 ( 28294 PWs)   bands (ev):

    -7.0883  -6.3790  -5.5334  -5.3099  -5.0135  -4.9828  -4.7393  -4.5380
    -4.4064  -4.3380  -4.0697  -3.9813  -3.8907  -3.8309  -3.6404  -3.6368
    -3.5350  -3.4671  -3.2977  -3.1517  -3.1027  -3.0104  -2.9834  -2.8755
    -2.7669  -2.7515  -2.6730  -2.6174  -2.6149  -2.5555  -2.5345  -2.5067
    -2.5013  -2.4194  -2.3657  -2.3599  -2.3309  -2.2942  -2.2895  -2.1973
    -2.1578  -2.0914  -2.0384  -2.0086  -1.8506  -1.8193  -1.8110  -1.6960
    -1.4523  -1.2804  -1.2405  -1.1637  -1.1502  -1.1310  -0.3373  -0.3263
    -0.2374  -0.1091  -0.0053   0.0476   0.1300   0.1768   0.2537   0.6939
     1.0931   1.6322   1.7818   2.0076   3.8202   4.0236   4.0666   4.4488

          k =-0.0934-0.0541 0.0000 ( 28284 PWs)   bands (ev):

    -7.0582  -6.4908  -5.5644  -5.3239  -5.0198  -4.8158  -4.7618  -4.6055
    -4.4082  -4.3855  -4.0788  -3.9794  -3.8528  -3.7836  -3.6445  -3.6343
    -3.5324  -3.4993  -3.3323  -3.1449  -3.1296  -2.9616  -2.9461  -2.8817
    -2.7132  -2.6957  -2.6943  -2.6261  -2.6132  -2.5258  -2.5255  -2.5140
    -2.4419  -2.3868  -2.3721  -2.3418  -2.3410  -2.3337  -2.3244  -2.2435
    -2.2135  -2.1008  -2.0664  -2.0439  -1.9007  -1.8451  -1.8311  -1.7032
    -1.4495  -1.2964  -1.2442  -1.1858  -1.1826  -1.1424  -0.3434  -0.3425
    -0.1552  -0.1335  -0.0786   0.0458   0.1522   0.2275   0.3430   0.7866
     1.0017   1.7129   1.9033   2.0516   3.8621   4.0835   4.1623   4.6234

     the Fermi energy is     0.0720 ev

!    total energy              =   -1122.31521685 Ry
     estimated scf accuracy    <       0.00000793 Ry
     smearing contrib. (-TS)   =      -0.07517334 Ry
     internal energy E=F+TS    =   -1122.24004351 Ry

     The total energy is F=E-TS. E is the sum of the following terms:
     one-electron contribution =   -8652.15118124 Ry
     hartree contribution      =    4431.55402577 Ry
     xc contribution           =    -470.53460044 Ry
     ewald contribution        =    3568.89171017 Ry
     electric field correction =       0.00000222 Ry

     convergence has been achieved in  13 iterations

     negative rho (up, down):  3.617E-04 0.000E+00

     Forces acting on atoms (cartesian axes, Ry/au):

     atom    1 type  1   force =     0.00865710    0.00489481   -0.00431359
     atom    2 type  1   force =     0.00855264    0.00506935   -0.00432960
     atom    3 type  2   force =     0.00660201    0.00381187    0.00956553
     atom    4 type  2   force =     0.00665163    0.00383615    0.00960594
     atom    5 type  1   force =    -0.00199425   -0.00116308   -0.00068835
     atom    6 type  1   force =    -0.00199234   -0.00114151   -0.00070072
     atom    7 type  2   force =    -0.01231768   -0.00712672   -0.00483886
     atom    8 type  2   force =    -0.01234016   -0.00713841   -0.00486696
     atom    9 type  1   force =    -0.00232628   -0.00129168   -0.00290842
     atom   10 type  1   force =    -0.00226974   -0.00137759   -0.00288870
     atom   11 type  2   force =     0.00145303    0.00084435    0.00321734
     atom   12 type  2   force =     0.00132402    0.00078248    0.00314638

     Total force =     0.032508     Total SCF correction =     0.012702
     SCF correction compared to forces is large: reduce conv_thr to get better values

     Writing output data file ./Cu2Ir2/Cu2Ir2_beef.save/

     init_run     :     43.56s CPU     94.07s WALL (       1 calls)
     electrons    :    830.50s CPU   2039.58s WALL (       1 calls)
     forces       :     15.22s CPU     53.97s WALL (       1 calls)

     Called by init_run:
     wfcinit      :     33.36s CPU     81.31s WALL (       1 calls)
     potinit      :      7.37s CPU      8.84s WALL (       1 calls)
     hinit0       :      1.88s CPU      2.48s WALL (       1 calls)

     Called by electrons:
     c_bands      :    717.02s CPU   1727.73s WALL (      13 calls)
     sum_band     :    100.08s CPU    277.94s WALL (      13 calls)
     v_of_rho     :     13.70s CPU     26.97s WALL (      14 calls)
     newd         :      6.27s CPU     14.42s WALL (      14 calls)
     mix_rho      :      0.25s CPU      0.73s WALL (      13 calls)
     vdW_kernel   :      5.82s CPU      6.27s WALL (       1 calls)

     Called by c_bands:
     init_us_2    :      2.86s CPU      3.04s WALL (    2072 calls)
     cegterg      :    703.92s CPU   1702.82s WALL (     962 calls)

     Called by *egterg:
     cdiaghg      :     57.99s CPU     73.86s WALL (    3909 calls)
     h_psi        :    399.08s CPU    943.18s WALL (    3983 calls)
     s_psi        :     78.80s CPU     79.01s WALL (    3983 calls)
     g_psi        :      0.41s CPU      0.50s WALL (    2947 calls)

     Called by h_psi:
     h_psi:calbec :     98.33s CPU    338.04s WALL (    3983 calls)
     vloc_psi     :    220.72s CPU    524.37s WALL (    3983 calls)
     add_vuspsi   :     79.54s CPU     80.03s WALL (    3983 calls)

     General routines
     calbec       :    151.90s CPU    526.67s WALL (    5241 calls)
     fft          :      5.67s CPU     28.44s WALL (     941 calls)
     ffts         :      0.04s CPU      0.15s WALL (      27 calls)
     fftw         :    258.87s CPU    624.96s WALL (  387332 calls)
     interpolate  :      0.10s CPU      0.30s WALL (      14 calls)

     Parallel routines
     fft_scatt_xy :     10.77s CPU     18.87s WALL (  388300 calls)
     fft_scatt_yz :    131.49s CPU    453.73s WALL (  388300 calls)

     PWSCF        :  14m58.28s CPU  37m44.03s WALL


   This run was terminated on:  21:16:19  23Jun2022            

=------------------------------------------------------------------------------=
   JOB DONE.
=------------------------------------------------------------------------------=
