
     Program PWSCF v.6.6 starts on 10Jul2022 at 23:36:43 

     This program is part of the open-source Quantum ESPRESSO suite
     for quantum simulation of materials; please cite
         "P. Giannozzi et al., J. Phys.:Condens. Matter 21 395502 (2009);
         "P. Giannozzi et al., J. Phys.:Condens. Matter 29 465901 (2017);
          URL http://www.quantum-espresso.org", 
     in publications or presentations arising from this work. More details at
     http://www.quantum-espresso.org/quote

     Parallel version (MPI), running on    37 processors

     MPI processes distributed on     1 nodes
     R & G space division:  proc/nbgrp/npool/nimage =      37
     Fft bands division:     nmany     =       1
     Reading input from Cu2Mo2.in
Warning: card &CELL ignored
Warning: card / ignored

     Current dimensions of program PWSCF are:
     Max number of different atomic species (ntypx) = 10
     Max number of k-points (npk) =  40000
     Max angular momentum in pseudopotentials (lmaxx) =  3
     Presently stress not available with electric field and gates

     Message from routine cell_base_init:
     DEPRECATED: use true lattice parameter, not A to a.u. conversion factor
     file Cu.pbe-dn-rrkjus_psl.1.0.0.UPF: wavefunction(s)  3D renormalized
     file Mo.pbe-spn-rrkjus_psl.1.0.0.UPF: wavefunction(s)  4S renormalized

     **************************************************************************
     Initializing libbeef V0.1.2 with the BEEF-vdW functional.
     Citation: Wellendorff et al., PRB 85, 235149 (2012).
     **************************************************************************


     IMPORTANT: XC functional enforced from input :
     Exchange-correlation= BEEF-VDW
                           (   1   4  43  14   2   0   0)
     Any further DFT definition will be discarded
     Please, verify this is what you really want


     Subspace diagonalization in iterative solution of the eigenvalue problem:
     a serial algorithm will be used


     Parallelization info
     --------------------
     sticks:   dense  smooth     PW     G-vecs:    dense   smooth      PW
     Min         107      42     12                24741     6240     982
     Max         108      43     13                24768     6267    1001
     Sum        3989    1589    475               916013   231557   36711



     bravais-lattice index     =            0
     lattice parameter (alat)  =       1.8897  a.u.
     unit-cell volume          =    4190.7365 (a.u.)^3
     number of atoms/cell      =           12
     number of atomic types    =            2
     number of electrons       =       150.00
     number of Kohn-Sham states=           90
     kinetic-energy cutoff     =      55.1240  Ry
     charge density cutoff     =     551.2396  Ry
     convergence threshold     =      1.0E-05
     mixing beta               =       0.1000
     number of iterations used =           10  plain     mixing
     Exchange-correlation= BEEF-VDW
                           (   1   4  43  14   2   0   0)

     celldm(1)=   1.889726  celldm(2)=   0.000000  celldm(3)=   0.000000
     celldm(4)=   0.000000  celldm(5)=   0.000000  celldm(6)=   0.000000

     crystal axes: (cart. coord. in units of alat)
               a(1) = (   5.181980   0.000000   0.000000 )  
               a(2) = (  -2.590990   4.911012   0.000000 )  
               a(3) = (   0.000000   0.000000  24.402095 )  

     reciprocal axes: (cart. coord. in units 2 pi/alat)
               b(1) = (  0.192976  0.101812 -0.000000 )  
               b(2) = (  0.000000  0.203624  0.000000 )  
               b(3) = (  0.000000 -0.000000  0.040980 )  


     PseudoPot. # 1 for Cu read from file:
     ../pseudo/Cu.pbe-dn-rrkjus_psl.1.0.0.UPF
     MD5 check sum: 8469560995d0c2df1ffe68c099c04a63
     Pseudo is Ultrasoft + core correction, Zval = 11.0
     Generated using "atomic" code by A. Dal Corso v.6.3
     Using radial grid of 1199 points,  6 beta functions with: 
                l(1) =   0
                l(2) =   0
                l(3) =   1
                l(4) =   1
                l(5) =   2
                l(6) =   2
     Q(r) pseudized with 0 coefficients 


     PseudoPot. # 2 for Mo read from file:
     ../pseudo/Mo.pbe-spn-rrkjus_psl.1.0.0.UPF
     MD5 check sum: 03f09b12e49601d1a456a78ce8b2d514
     Pseudo is Ultrasoft + core correction, Zval = 14.0
     Generated using "atomic" code by A. Dal Corso v.6.3
     Using radial grid of 1229 points,  6 beta functions with: 
                l(1) =   0
                l(2) =   0
                l(3) =   1
                l(4) =   1
                l(5) =   2
                l(6) =   2
     Q(r) pseudized with 0 coefficients 


     atomic species   valence    mass     pseudopotential
        Cu            11.00    63.54600     Cu( 1.00)
        Mo            14.00    95.95000     Mo( 1.00)

     No symmetry found



   Cartesian axes

     site n.     atom                  positions (alat units)
         1           Cu  tau(   1) = (   0.0000000   0.0000000  10.0000000  )
         2           Cu  tau(   2) = (   2.5909902   0.0000000  10.0000000  )
         3           Mo  tau(   3) = (   1.2954951   2.4555058  10.0000000  )
         4           Mo  tau(   4) = (  -1.2954951   2.4555058  10.0000000  )
         5           Cu  tau(   5) = (   2.5909902   1.3669750  12.2010473  )
         6           Cu  tau(   6) = (   0.0000000   1.3669750  12.2010473  )
         7           Mo  tau(   7) = (  -1.2954951   3.8224808  12.2010473  )
         8           Mo  tau(   8) = (   1.2954951   3.8224808  12.2010473  )
         9           Cu  tau(   9) = (  -0.0002326   2.7901238  14.4276759  )
        10           Cu  tau(  10) = (   2.5906798   2.7901052  14.4276860  )
        11           Mo  tau(  11) = (   3.8859595   0.3493817  14.3545520  )
        12           Mo  tau(  12) = (   1.2949552   0.3493888  14.3545788  )

     number of k points=    74  Fermi-Dirac smearing, width (Ry)=  0.0100
                       cart. coord. in units 2pi/alat
        k(    1) = (   0.0000000   0.0000000   0.0000000), wk =   0.0138889
        k(    2) = (   0.0000000   0.0169687   0.0000000), wk =   0.0277778
        k(    3) = (   0.0000000   0.0339373   0.0000000), wk =   0.0277778
        k(    4) = (   0.0000000   0.0509060   0.0000000), wk =   0.0277778
        k(    5) = (   0.0000000   0.0678747   0.0000000), wk =   0.0277778
        k(    6) = (   0.0000000   0.0848433   0.0000000), wk =   0.0277778
        k(    7) = (   0.0000000  -0.1018120   0.0000000), wk =   0.0138889
        k(    8) = (   0.0160814   0.0084843   0.0000000), wk =   0.0277778
        k(    9) = (   0.0160814   0.0254530   0.0000000), wk =   0.0277778
        k(   10) = (   0.0160814   0.0424217   0.0000000), wk =   0.0277778
        k(   11) = (   0.0160814   0.0593903   0.0000000), wk =   0.0277778
        k(   12) = (   0.0160814   0.0763590   0.0000000), wk =   0.0277778
        k(   13) = (   0.0160814   0.0933277   0.0000000), wk =   0.0277778
        k(   14) = (   0.0160814  -0.0933277   0.0000000), wk =   0.0277778
        k(   15) = (   0.0160814  -0.0763590   0.0000000), wk =   0.0277778
        k(   16) = (   0.0160814  -0.0593903   0.0000000), wk =   0.0277778
        k(   17) = (   0.0160814  -0.0424217   0.0000000), wk =   0.0277778
        k(   18) = (   0.0160814  -0.0254530   0.0000000), wk =   0.0277778
        k(   19) = (   0.0160814  -0.0084843   0.0000000), wk =   0.0277778
        k(   20) = (   0.0321627   0.0169687   0.0000000), wk =   0.0277778
        k(   21) = (   0.0321627   0.0339373   0.0000000), wk =   0.0277778
        k(   22) = (   0.0321627   0.0509060   0.0000000), wk =   0.0277778
        k(   23) = (   0.0321627   0.0678747   0.0000000), wk =   0.0277778
        k(   24) = (   0.0321627   0.0848433   0.0000000), wk =   0.0277778
        k(   25) = (   0.0321627   0.1018120   0.0000000), wk =   0.0277778
        k(   26) = (   0.0321627  -0.0848433   0.0000000), wk =   0.0277778
        k(   27) = (   0.0321627  -0.0678747   0.0000000), wk =   0.0277778
        k(   28) = (   0.0321627  -0.0509060   0.0000000), wk =   0.0277778
        k(   29) = (   0.0321627  -0.0339373   0.0000000), wk =   0.0277778
        k(   30) = (   0.0321627  -0.0169687   0.0000000), wk =   0.0277778
        k(   31) = (   0.0321627  -0.0000000   0.0000000), wk =   0.0277778
        k(   32) = (   0.0482441   0.0254530   0.0000000), wk =   0.0277778
        k(   33) = (   0.0482441   0.0424217   0.0000000), wk =   0.0277778
        k(   34) = (   0.0482441   0.0593903   0.0000000), wk =   0.0277778
        k(   35) = (   0.0482441   0.0763590   0.0000000), wk =   0.0277778
        k(   36) = (   0.0482441   0.0933277   0.0000000), wk =   0.0277778
        k(   37) = (   0.0482441   0.1102963   0.0000000), wk =   0.0277778
        k(   38) = (   0.0482441  -0.0763590   0.0000000), wk =   0.0277778
        k(   39) = (   0.0482441  -0.0593903   0.0000000), wk =   0.0277778
        k(   40) = (   0.0482441  -0.0424217   0.0000000), wk =   0.0277778
        k(   41) = (   0.0482441  -0.0254530   0.0000000), wk =   0.0277778
        k(   42) = (   0.0482441  -0.0084843   0.0000000), wk =   0.0277778
        k(   43) = (   0.0482441   0.0084843   0.0000000), wk =   0.0277778
        k(   44) = (   0.0643255   0.0339373   0.0000000), wk =   0.0277778
        k(   45) = (   0.0643255   0.0509060   0.0000000), wk =   0.0277778
        k(   46) = (   0.0643255   0.0678747   0.0000000), wk =   0.0277778
        k(   47) = (   0.0643255   0.0848433   0.0000000), wk =   0.0277778
        k(   48) = (   0.0643255   0.1018120   0.0000000), wk =   0.0277778
        k(   49) = (   0.0643255   0.1187807   0.0000000), wk =   0.0277778
        k(   50) = (   0.0643255  -0.0678747   0.0000000), wk =   0.0277778
        k(   51) = (   0.0643255  -0.0509060   0.0000000), wk =   0.0277778
        k(   52) = (   0.0643255  -0.0339373   0.0000000), wk =   0.0277778
        k(   53) = (   0.0643255  -0.0169687   0.0000000), wk =   0.0277778
        k(   54) = (   0.0643255   0.0000000   0.0000000), wk =   0.0277778
        k(   55) = (   0.0643255   0.0169687   0.0000000), wk =   0.0277778
        k(   56) = (   0.0804068   0.0424217   0.0000000), wk =   0.0277778
        k(   57) = (   0.0804068   0.0593903   0.0000000), wk =   0.0277778
        k(   58) = (   0.0804068   0.0763590   0.0000000), wk =   0.0277778
        k(   59) = (   0.0804068   0.0933277   0.0000000), wk =   0.0277778
        k(   60) = (   0.0804068   0.1102963   0.0000000), wk =   0.0277778
        k(   61) = (   0.0804068   0.1272650   0.0000000), wk =   0.0277778
        k(   62) = (   0.0804068  -0.0593903   0.0000000), wk =   0.0277778
        k(   63) = (   0.0804068  -0.0424217   0.0000000), wk =   0.0277778
        k(   64) = (   0.0804068  -0.0254530   0.0000000), wk =   0.0277778
        k(   65) = (   0.0804068  -0.0084843   0.0000000), wk =   0.0277778
        k(   66) = (   0.0804068   0.0084843   0.0000000), wk =   0.0277778
        k(   67) = (   0.0804068   0.0254530   0.0000000), wk =   0.0277778
        k(   68) = (  -0.0964882  -0.0509060   0.0000000), wk =   0.0138889
        k(   69) = (  -0.0964882  -0.0339373   0.0000000), wk =   0.0277778
        k(   70) = (  -0.0964882  -0.0169687   0.0000000), wk =   0.0277778
        k(   71) = (  -0.0964882   0.0000000   0.0000000), wk =   0.0277778
        k(   72) = (  -0.0964882   0.0169687   0.0000000), wk =   0.0277778
        k(   73) = (  -0.0964882   0.0339373   0.0000000), wk =   0.0277778
        k(   74) = (  -0.0964882  -0.1527180   0.0000000), wk =   0.0138889

     Dense  grid:   916013 G-vectors     FFT dimensions: (  75,  80, 360)

     Smooth grid:   231557 G-vectors     FFT dimensions: (  48,  50, 225)

     Estimated max dynamical RAM per process >     179.90 MB

     Estimated total dynamical RAM >       6.50 GB

     Initial potential from superposition of free atoms

     starting charge  149.99333, renormalised to  150.00000

     negative rho (up, down):  4.461E-04 0.000E+00


     %%%%%%%%%%%%%%%%%%%%%%%%%%%%%%%%%%%%%%%%%%%%%%%%%%%%%%%%%%%%%%%%%%%%%%%%
     %                                                                      %
     % You are using vdW-DF, which was implemented by the Thonhauser group. %
     % Please cite the following two papers that made this development      %
     % possible and the two reviews that describe the various versions:     %
     %                                                                      %
     %   T. Thonhauser et al., PRL 115, 136402 (2015).                      %
     %   T. Thonhauser et al., PRB 76, 125112 (2007).                       %
     %   K. Berland et al., Rep. Prog. Phys. 78, 066501 (2015).             %
     %   D.C. Langreth et al., J. Phys.: Condens. Matter 21, 084203 (2009). %
     %                                                                      %
     %                                                                      %
     % If you are calculating the stress with vdW-DF, please also cite:     %
     %                                                                      %
     %   R. Sabatini et al., J. Phys.: Condens. Matter 24, 424209 (2012).   %
     %                                                                      %
     %%%%%%%%%%%%%%%%%%%%%%%%%%%%%%%%%%%%%%%%%%%%%%%%%%%%%%%%%%%%%%%%%%%%%%%%



     Adding external electric field

     Computed dipole along edir(3) : 
        Dipole               -0.0001 Ry au,         -0.0002 Debye
        Dipole field         -0.0000 Ry au, 

        Potential amp.        0.0000 Ry
        Total length         44.9604 bohr

     Starting wfcs are  114 randomized atomic wfcs

     total cpu time spent up to now is       83.0 secs

     Self-consistent Calculation

     iteration #  1     ecut=    55.12 Ry     beta= 0.10
     Davidson diagonalization with overlap
     ethr =  1.00E-02,  avg # of iterations =  2.1

     negative rho (up, down):  3.502E-04 0.000E+00

     Adding external electric field

     Computed dipole along edir(3) : 
        Dipole               -0.0098 Ry au,         -0.0250 Debye
        Dipole field         -0.0000 Ry au, 

        Potential amp.        0.0026 Ry
        Total length         44.9604 bohr


     total cpu time spent up to now is      252.9 secs

     total energy              =   -1584.37277161 Ry
     estimated scf accuracy    <       3.94951224 Ry

     iteration #  2     ecut=    55.12 Ry     beta= 0.10
     Davidson diagonalization with overlap
     ethr =  2.63E-03,  avg # of iterations =  2.1

     negative rho (up, down):  3.407E-04 0.000E+00

     Adding external electric field

     Computed dipole along edir(3) : 
        Dipole                0.0850 Ry au,          0.2160 Debye
        Dipole field          0.0003 Ry au, 

        Potential amp.       -0.0229 Ry
        Total length         44.9604 bohr


     total cpu time spent up to now is      412.3 secs

     total energy              =   -1584.66579790 Ry
     estimated scf accuracy    <       0.58666759 Ry

     iteration #  3     ecut=    55.12 Ry     beta= 0.10
     Davidson diagonalization with overlap
     ethr =  3.91E-04,  avg # of iterations =  4.2

     negative rho (up, down):  3.543E-04 0.000E+00

     Adding external electric field

     Computed dipole along edir(3) : 
        Dipole               -0.1738 Ry au,         -0.4418 Debye
        Dipole field         -0.0005 Ry au, 

        Potential amp.        0.0469 Ry
        Total length         44.9604 bohr


     total cpu time spent up to now is      585.4 secs

     total energy              =   -1584.67802212 Ry
     estimated scf accuracy    <       0.64643800 Ry

     iteration #  4     ecut=    55.12 Ry     beta= 0.10
     Davidson diagonalization with overlap
     ethr =  3.91E-04,  avg # of iterations =  2.3

     negative rho (up, down):  3.684E-04 0.000E+00

     Adding external electric field

     Computed dipole along edir(3) : 
        Dipole                0.0172 Ry au,          0.0438 Debye
        Dipole field          0.0001 Ry au, 

        Potential amp.       -0.0046 Ry
        Total length         44.9604 bohr


     total cpu time spent up to now is      755.1 secs

     total energy              =   -1584.66780527 Ry
     estimated scf accuracy    <       1.95155356 Ry

     iteration #  5     ecut=    55.12 Ry     beta= 0.10
     Davidson diagonalization with overlap
     ethr =  3.91E-04,  avg # of iterations =  1.6

     negative rho (up, down):  3.879E-04 0.000E+00

     Adding external electric field

     Computed dipole along edir(3) : 
        Dipole               -0.0004 Ry au,         -0.0011 Debye
        Dipole field         -0.0000 Ry au, 

        Potential amp.        0.0001 Ry
        Total length         44.9604 bohr


     total cpu time spent up to now is      910.6 secs

     total energy              =   -1584.68516761 Ry
     estimated scf accuracy    <       0.11680860 Ry

     iteration #  6     ecut=    55.12 Ry     beta= 0.10
     Davidson diagonalization with overlap
     ethr =  7.79E-05,  avg # of iterations =  4.4

     negative rho (up, down):  5.018E-04 0.000E+00

     Adding external electric field

     Computed dipole along edir(3) : 
        Dipole               -0.0119 Ry au,         -0.0303 Debye
        Dipole field         -0.0000 Ry au, 

        Potential amp.        0.0032 Ry
        Total length         44.9604 bohr


     total cpu time spent up to now is     1089.4 secs

     total energy              =   -1584.67913018 Ry
     estimated scf accuracy    <       0.04336023 Ry

     iteration #  7     ecut=    55.12 Ry     beta= 0.10
     Davidson diagonalization with overlap
     ethr =  2.89E-05,  avg # of iterations =  5.2

     negative rho (up, down):  5.260E-04 0.000E+00

     Adding external electric field

     Computed dipole along edir(3) : 
        Dipole               -0.0060 Ry au,         -0.0154 Debye
        Dipole field         -0.0000 Ry au, 

        Potential amp.        0.0016 Ry
        Total length         44.9604 bohr


     total cpu time spent up to now is     1279.4 secs

     total energy              =   -1584.68378276 Ry
     estimated scf accuracy    <       0.00959652 Ry

     iteration #  8     ecut=    55.12 Ry     beta= 0.10
     Davidson diagonalization with overlap
     ethr =  6.40E-06,  avg # of iterations =  5.5

     negative rho (up, down):  6.076E-04 0.000E+00

     Adding external electric field

     Computed dipole along edir(3) : 
        Dipole               -0.0036 Ry au,         -0.0092 Debye
        Dipole field         -0.0000 Ry au, 

        Potential amp.        0.0010 Ry
        Total length         44.9604 bohr


     total cpu time spent up to now is     1458.7 secs

     total energy              =   -1584.68465399 Ry
     estimated scf accuracy    <       0.00345158 Ry

     iteration #  9     ecut=    55.12 Ry     beta= 0.10
     Davidson diagonalization with overlap
     ethr =  2.30E-06,  avg # of iterations =  5.8

     negative rho (up, down):  6.026E-04 0.000E+00

     Adding external electric field

     Computed dipole along edir(3) : 
        Dipole               -0.0043 Ry au,         -0.0110 Debye
        Dipole field         -0.0000 Ry au, 

        Potential amp.        0.0012 Ry
        Total length         44.9604 bohr


     total cpu time spent up to now is     1671.3 secs

     total energy              =   -1584.68461840 Ry
     estimated scf accuracy    <       0.00310727 Ry

     iteration # 10     ecut=    55.12 Ry     beta= 0.10
     Davidson diagonalization with overlap
     ethr =  2.07E-06,  avg # of iterations =  2.7

     negative rho (up, down):  6.037E-04 0.000E+00

     Adding external electric field

     Computed dipole along edir(3) : 
        Dipole               -0.0026 Ry au,         -0.0066 Debye
        Dipole field         -0.0000 Ry au, 

        Potential amp.        0.0007 Ry
        Total length         44.9604 bohr


     total cpu time spent up to now is     1850.4 secs

     total energy              =   -1584.68491669 Ry
     estimated scf accuracy    <       0.00102085 Ry

     iteration # 11     ecut=    55.12 Ry     beta= 0.10
     Davidson diagonalization with overlap
     ethr =  6.81E-07,  avg # of iterations =  4.1

     negative rho (up, down):  5.962E-04 0.000E+00

     Adding external electric field

     Computed dipole along edir(3) : 
        Dipole               -0.0035 Ry au,         -0.0089 Debye
        Dipole field         -0.0000 Ry au, 

        Potential amp.        0.0009 Ry
        Total length         44.9604 bohr


     total cpu time spent up to now is     2036.9 secs

     total energy              =   -1584.68514637 Ry
     estimated scf accuracy    <       0.00074494 Ry

     iteration # 12     ecut=    55.12 Ry     beta= 0.10
     Davidson diagonalization with overlap
     ethr =  4.97E-07,  avg # of iterations =  2.1

     negative rho (up, down):  5.905E-04 0.000E+00

     Adding external electric field

     Computed dipole along edir(3) : 
        Dipole               -0.0054 Ry au,         -0.0137 Debye
        Dipole field         -0.0000 Ry au, 

        Potential amp.        0.0014 Ry
        Total length         44.9604 bohr


     total cpu time spent up to now is     2199.1 secs

     total energy              =   -1584.68510120 Ry
     estimated scf accuracy    <       0.00045198 Ry

     iteration # 13     ecut=    55.12 Ry     beta= 0.10
     Davidson diagonalization with overlap
     ethr =  3.01E-07,  avg # of iterations =  2.6

     negative rho (up, down):  5.705E-04 0.000E+00

     Adding external electric field

     Computed dipole along edir(3) : 
        Dipole               -0.0048 Ry au,         -0.0122 Debye
        Dipole field         -0.0000 Ry au, 

        Potential amp.        0.0013 Ry
        Total length         44.9604 bohr


     total cpu time spent up to now is     2378.1 secs

     total energy              =   -1584.68517544 Ry
     estimated scf accuracy    <       0.00014865 Ry

     iteration # 14     ecut=    55.12 Ry     beta= 0.10
     Davidson diagonalization with overlap
     ethr =  9.91E-08,  avg # of iterations =  1.5

     negative rho (up, down):  5.534E-04 0.000E+00

     Adding external electric field

     Computed dipole along edir(3) : 
        Dipole               -0.0036 Ry au,         -0.0091 Debye
        Dipole field         -0.0000 Ry au, 

        Potential amp.        0.0010 Ry
        Total length         44.9604 bohr


     total cpu time spent up to now is     2531.3 secs

     total energy              =   -1584.68515840 Ry
     estimated scf accuracy    <       0.00006130 Ry

     iteration # 15     ecut=    55.12 Ry     beta= 0.10
     Davidson diagonalization with overlap
     ethr =  4.09E-08,  avg # of iterations =  3.4

     negative rho (up, down):  5.003E-04 0.000E+00

     Adding external electric field

     Computed dipole along edir(3) : 
        Dipole               -0.0063 Ry au,         -0.0160 Debye
        Dipole field         -0.0000 Ry au, 

        Potential amp.        0.0017 Ry
        Total length         44.9604 bohr


     total cpu time spent up to now is     2713.1 secs

     End of self-consistent calculation

          k = 0.0000 0.0000 0.0000 ( 29015 PWs)   bands (ev):

   -60.3364 -60.1784 -60.1473 -60.1406 -59.9863 -59.9565 -35.0311 -34.8223
   -34.7955 -34.7714 -34.6257 -34.3914 -34.2883 -34.2182 -34.2148 -34.2026
   -34.1176 -34.0421 -34.0299 -33.7897 -33.6444 -33.6020 -33.3897 -33.3786
    -6.3382  -4.6548  -4.3103  -4.2969  -4.0858  -3.6859  -3.4441  -3.3408
    -3.2782  -3.2696  -3.2469  -3.1378  -3.0466  -2.9755  -2.8196  -2.4132
    -2.3335  -2.2848  -2.2650  -2.2310  -1.9445  -1.8942  -1.8862  -1.8517
    -1.8290  -1.7555  -1.7050  -1.5590  -1.5090  -1.4651  -1.4496  -1.4349
    -1.2283  -1.1703  -0.9911  -0.9605  -0.9022  -0.7152  -0.7017  -0.6232
    -0.4581  -0.4421  -0.0666   0.1284   0.4213   0.5183   0.6052   0.6290
     0.6602   1.4937   1.5104   1.5691   1.6564   2.2187   2.2739   2.3651
     2.4333   2.5676   2.8918   3.1130   3.1870   3.3189   3.3611   3.3793
     3.6037   3.6793

          k = 0.0000 0.0170 0.0000 ( 29034 PWs)   bands (ev):

   -60.3364 -60.1785 -60.1473 -60.1406 -59.9863 -59.9566 -35.0312 -34.8225
   -34.7955 -34.7714 -34.6257 -34.3921 -34.2882 -34.2179 -34.2149 -34.2025
   -34.1176 -34.0422 -34.0301 -33.7896 -33.6444 -33.6020 -33.3897 -33.3786
    -6.2864  -4.6090  -4.2699  -4.2611  -4.0519  -3.6762  -3.4203  -3.3319
    -3.2652  -3.2430  -3.2092  -3.1303  -3.0273  -2.9576  -2.7938  -2.4126
    -2.3351  -2.2981  -2.2530  -2.2141  -1.9547  -1.9419  -1.8886  -1.8456
    -1.7920  -1.7528  -1.7249  -1.5637  -1.5372  -1.4694  -1.4445  -1.4278
    -1.2304  -1.1691  -1.0400  -0.9924  -0.9191  -0.8297  -0.6797  -0.6434
    -0.4563  -0.3857  -0.1311   0.0146   0.1649   0.4556   0.5007   0.6475
     0.9004   1.2070   1.4934   1.5635   1.5652   2.0730   2.1259   2.4199
     2.5311   2.6105   2.8556   2.9694   3.0030   3.2852   3.3790   3.4335
     3.5935   3.6695

          k = 0.0000 0.0339 0.0000 ( 29046 PWs)   bands (ev):

   -60.3363 -60.1785 -60.1473 -60.1406 -59.9863 -59.9567 -35.0316 -34.8229
   -34.7956 -34.7716 -34.6257 -34.3938 -34.2879 -34.2171 -34.2152 -34.2021
   -34.1176 -34.0424 -34.0309 -33.7896 -33.6445 -33.6020 -33.3897 -33.3786
    -6.1336  -4.4813  -4.1588  -4.1548  -3.9517  -3.6498  -3.3511  -3.3085
    -3.2277  -3.1821  -3.1035  -3.0815  -2.9711  -2.9069  -2.7206  -2.4122
    -2.3410  -2.3289  -2.2220  -2.1803  -2.0520  -1.9338  -1.8986  -1.8291
    -1.7744  -1.7584  -1.7448  -1.6132  -1.5845  -1.4900  -1.4302  -1.4086
    -1.2357  -1.1869  -1.1660  -1.0641  -1.0089  -0.9655  -0.7153  -0.6440
    -0.5095  -0.3668  -0.2962  -0.2380  -0.0738   0.2219   0.2413   0.6400
     0.7608   1.1593   1.2127   1.2372   1.5048   1.9596   2.0156   2.3835
     2.4167   2.5894   2.6174   2.8131   2.9709   3.2193   3.4004   3.5645
     3.6450   3.9637

          k = 0.0000 0.0509 0.0000 ( 29006 PWs)   bands (ev):

   -60.3364 -60.1785 -60.1472 -60.1405 -59.9862 -59.9565 -35.0320 -34.8235
   -34.7957 -34.7717 -34.6257 -34.3962 -34.2875 -34.2160 -34.2156 -34.2014
   -34.1176 -34.0428 -34.0318 -33.7896 -33.6446 -33.6020 -33.3898 -33.3787
    -5.8890  -4.3158  -4.0063  -3.9836  -3.7897  -3.6062  -3.2752  -3.2439
    -3.1698  -3.0933  -3.0489  -2.8863  -2.8745  -2.8310  -2.6134  -2.4171
    -2.3768  -2.3520  -2.2099  -2.1535  -2.1211  -1.9258  -1.9207  -1.8310
    -1.8078  -1.7591  -1.7324  -1.7193  -1.6284  -1.5315  -1.4097  -1.3824
    -1.3313  -1.3062  -1.2426  -1.1622  -1.0453  -1.0449  -0.8807  -0.6694
    -0.6295  -0.5379  -0.4907  -0.4760  -0.1583  -0.1122  -0.0653   0.2933
     0.6288   0.6917   0.7682   1.2795   1.4909   1.9373   2.0652   2.1077
     2.2543   2.3342   2.5504   3.0125   3.0716   3.1413   3.4108   3.5265
     3.6156   3.9834

          k = 0.0000 0.0679 0.0000 ( 28984 PWs)   bands (ev):

   -60.3363 -60.1785 -60.1473 -60.1406 -59.9861 -59.9564 -35.0324 -34.8242
   -34.7957 -34.7719 -34.6257 -34.3986 -34.2872 -34.2160 -34.2149 -34.2008
   -34.1175 -34.0431 -34.0327 -33.7896 -33.6446 -33.6020 -33.3897 -33.3788
    -5.5708  -4.2435  -3.8341  -3.7736  -3.5781  -3.5149  -3.2265  -3.1326
    -3.0810  -2.9944  -2.9626  -2.7959  -2.7425  -2.6397  -2.5029  -2.4325
    -2.4050  -2.3558  -2.2779  -2.1874  -2.0926  -1.9797  -1.9072  -1.9048
    -1.8542  -1.7885  -1.7185  -1.7172  -1.6705  -1.6154  -1.5013  -1.4378
    -1.3887  -1.3559  -1.2491  -1.1589  -1.1494  -1.1402  -1.1277  -0.8775
    -0.7958  -0.7035  -0.6512  -0.5869  -0.3921  -0.3803  -0.3330  -0.0821
     0.3643   0.4059   0.6109   0.9953   1.4794   2.0022   2.0192   2.1036
     2.1500   2.2852   2.5080   3.0011   3.0681   3.2686   3.3964   3.5046
     3.5896   4.4657

          k = 0.0000 0.0848 0.0000 ( 28958 PWs)   bands (ev):

   -60.3362 -60.1784 -60.1472 -60.1405 -59.9862 -59.9562 -35.0327 -34.8246
   -34.7958 -34.7720 -34.6257 -34.4003 -34.2870 -34.2163 -34.2140 -34.2004
   -34.1176 -34.0433 -34.0334 -33.7896 -33.6447 -33.6020 -33.3898 -33.3788
    -5.2187  -4.3786  -3.6870  -3.5619  -3.3873  -3.3571  -3.1579  -3.0716
    -2.9500  -2.9246  -2.8420  -2.7431  -2.6680  -2.5892  -2.4721  -2.4490
    -2.3599  -2.3149  -2.3145  -2.1445  -2.1427  -2.0192  -1.9798  -1.8917
    -1.7935  -1.7911  -1.7762  -1.7038  -1.6950  -1.6771  -1.6274  -1.5142
    -1.3731  -1.3626  -1.3372  -1.3362  -1.2536  -1.2341  -1.1932  -1.1566
    -0.9106  -0.8200  -0.8180  -0.6404  -0.6083  -0.5066  -0.4783  -0.3836
     0.0822   0.3772   0.5963   0.7134   1.4713   1.8654   2.0091   2.2201
     2.2389   2.2495   2.4703   2.9791   3.0161   3.3681   3.4054   3.5031
     3.5718   3.9680

          k = 0.0000-0.1018 0.0000 ( 28886 PWs)   bands (ev):

   -60.3362 -60.1784 -60.1472 -60.1404 -59.9860 -59.9561 -35.0328 -34.8248
   -34.7958 -34.7720 -34.6257 -34.4009 -34.2869 -34.2164 -34.2137 -34.2002
   -34.1175 -34.0434 -34.0337 -33.7896 -33.6447 -33.6020 -33.3897 -33.3789
    -4.9908  -4.5443  -3.6253  -3.4685  -3.3324  -3.2437  -3.1151  -3.0499
    -2.9077  -2.8745  -2.7443  -2.7224  -2.6673  -2.5990  -2.5184  -2.4438
    -2.4394  -2.3021  -2.2806  -2.2280  -2.0133  -1.9522  -1.8961  -1.8868
    -1.8411  -1.7721  -1.7671  -1.7620  -1.7097  -1.6984  -1.6394  -1.5822
    -1.5312  -1.4180  -1.3733  -1.3675  -1.3290  -1.2607  -1.2551  -1.1558
    -0.9352  -0.8971  -0.8967  -0.6512  -0.6147  -0.5458  -0.5385  -0.5223
    -0.0204   0.4250   0.5723   0.5910   1.4685   1.8233   2.0093   2.2364
     2.2490   2.2856   2.4531   2.9692   2.9973   3.3552   3.4608   3.5046
     3.5654   3.9724

          k = 0.0161 0.0085 0.0000 ( 29017 PWs)   bands (ev):

   -60.3331 -60.1752 -60.1441 -60.1440 -59.9897 -59.9599 -35.0084 -34.8191
   -34.7732 -34.7492 -34.6291 -34.3886 -34.2854 -34.2213 -34.2119 -34.1997
   -34.1206 -34.0451 -34.0329 -33.7872 -33.6469 -33.6281 -33.4154 -33.4041
    -6.2800  -4.6012  -4.2665  -4.2625  -4.0538  -3.6417  -3.4337  -3.3061
    -3.2810  -3.2367  -3.2149  -3.1170  -3.0255  -2.9254  -2.8021  -2.3982
    -2.3346  -2.2744  -2.2628  -2.2195  -1.9336  -1.9164  -1.8771  -1.8753
    -1.7881  -1.7628  -1.7094  -1.5685  -1.4785  -1.4605  -1.4483  -1.4076
    -1.2535  -1.1859  -1.0218  -0.9751  -0.9013  -0.7342  -0.7271  -0.6327
    -0.5481  -0.4153  -0.1986   0.1191   0.3421   0.5251   0.5842   0.7214
     0.7447   1.3294   1.4921   1.5570   1.5836   1.7666   2.1725   2.3657
     2.5223   2.6903   2.7749   2.9123   3.0402   3.1931   3.3013   3.3699
     3.6908   3.8545

          k = 0.0161 0.0255 0.0000 ( 29025 PWs)   bands (ev):

   -60.3331 -60.1753 -60.1441 -60.1440 -59.9896 -59.9599 -35.0086 -34.8194
   -34.7732 -34.7493 -34.6291 -34.3898 -34.2852 -34.2207 -34.2121 -34.1994
   -34.1205 -34.0453 -34.0334 -33.7872 -33.6469 -33.6281 -33.4154 -33.4041
    -6.1776  -4.5130  -4.1926  -4.1878  -3.9895  -3.6224  -3.3872  -3.2880
    -3.2472  -3.1961  -3.1425  -3.1008  -2.9834  -2.8924  -2.7515  -2.3984
    -2.3410  -2.2966  -2.2406  -2.1889  -1.9970  -1.9286  -1.8806  -1.8701
    -1.7728  -1.7475  -1.7382  -1.5786  -1.5354  -1.4550  -1.4407  -1.4109
    -1.2582  -1.1850  -1.1061  -1.0282  -0.9346  -0.9152  -0.7517  -0.6340
    -0.5673  -0.3386  -0.3021  -0.0511   0.0542   0.3382   0.3752   0.7203
     0.9665   1.0751   1.3451   1.3589   1.5062   1.6970   1.9550   2.4148
     2.5494   2.5498   2.8046   2.8101   2.8700   3.3227   3.3597   3.5443
     3.6327   3.7277

          k = 0.0161 0.0424 0.0000 ( 29015 PWs)   bands (ev):

   -60.3331 -60.1753 -60.1441 -60.1439 -59.9896 -59.9599 -35.0090 -34.8199
   -34.7733 -34.7495 -34.6291 -34.3920 -34.2849 -34.2197 -34.2125 -34.1989
   -34.1205 -34.0456 -34.0343 -33.7872 -33.6470 -33.6282 -33.4154 -33.4042
    -5.9785  -4.3596  -4.0619  -4.0415  -3.8647  -3.5877  -3.2987  -3.2573
    -3.1937  -3.1226  -3.0615  -2.9967  -2.8946  -2.8313  -2.6594  -2.4020
    -2.3603  -2.3265  -2.2097  -2.1527  -2.0904  -1.9185  -1.8968  -1.8670
    -1.8045  -1.7645  -1.7152  -1.6343  -1.6099  -1.4605  -1.4376  -1.4108
    -1.2676  -1.2619  -1.1864  -1.1466  -1.0588  -0.9833  -0.8641  -0.6518
    -0.6204  -0.4868  -0.4110  -0.2727  -0.0958   0.0043   0.1028   0.5331
     0.6445   0.8881   0.9708   1.2711   1.4859   1.7784   1.9501   2.0841
     2.4273   2.4514   2.5512   2.9693   2.9887   3.2283   3.3658   3.4842
     3.6831   3.9266

          k = 0.0161 0.0594 0.0000 ( 28976 PWs)   bands (ev):

   -60.3330 -60.1753 -60.1441 -60.1439 -59.9895 -59.9597 -35.0094 -34.8206
   -34.7733 -34.7496 -34.6291 -34.3944 -34.2845 -34.2185 -34.2129 -34.1983
   -34.1205 -34.0459 -34.0352 -33.7872 -33.6471 -33.6282 -33.4155 -33.4043
    -5.6958  -4.2216  -3.8921  -3.8448  -3.6877  -3.5275  -3.2159  -3.1837
    -3.1201  -3.0268  -2.9917  -2.8530  -2.7517  -2.7202  -2.5508  -2.4146
    -2.3952  -2.3498  -2.2383  -2.1452  -2.1129  -1.9384  -1.9045  -1.9033
    -1.8511  -1.7571  -1.7376  -1.7043  -1.6590  -1.5113  -1.4331  -1.4118
    -1.3954  -1.3601  -1.2675  -1.1820  -1.1451  -1.0500  -1.0444  -0.7784
    -0.7103  -0.6817  -0.5882  -0.4380  -0.3195  -0.2243  -0.2084   0.1140
     0.4131   0.5181   0.7435   1.1243   1.4734   1.9045   1.9572   2.0260
     2.1936   2.3501   2.5056   2.9869   3.1001   3.1179   3.3871   3.4626
     3.6834   3.9173

          k = 0.0161 0.0764 0.0000 ( 28944 PWs)   bands (ev):

   -60.3330 -60.1752 -60.1440 -60.1439 -59.9895 -59.9596 -35.0098 -34.8211
   -34.7734 -34.7497 -34.6291 -34.3965 -34.2843 -34.2175 -34.2132 -34.1977
   -34.1205 -34.0462 -34.0361 -33.7872 -33.6472 -33.6282 -33.4154 -33.4043
    -5.3557  -4.2520  -3.7211  -3.6146  -3.4799  -3.4138  -3.1571  -3.0935
    -3.0061  -2.9332  -2.8886  -2.7672  -2.6730  -2.5833  -2.4742  -2.4412
    -2.3406  -2.3266  -2.3007  -2.2093  -2.1110  -2.0246  -1.9658  -1.8894
    -1.8317  -1.7798  -1.7329  -1.7236  -1.6863  -1.6141  -1.5425  -1.4898
    -1.4297  -1.3884  -1.3307  -1.2805  -1.2313  -1.1825  -1.1054  -1.0242
    -0.9344  -0.7520  -0.7230  -0.5785  -0.5161  -0.4876  -0.3953  -0.2033
     0.1180   0.3932   0.6832   0.8492   1.4648   1.8834   1.9825   2.0331
     2.1432   2.4105   2.4681   2.9725   3.0161   3.1394   3.3498   3.4664
     3.7389   3.9240

          k = 0.0161 0.0933 0.0000 ( 28941 PWs)   bands (ev):

   -60.3330 -60.1752 -60.1440 -60.1439 -59.9895 -59.9595 -35.0100 -34.8214
   -34.7735 -34.7498 -34.6291 -34.3977 -34.2841 -34.2169 -34.2135 -34.1974
   -34.1205 -34.0464 -34.0366 -33.7872 -33.6472 -33.6282 -33.4155 -33.4043
    -5.0293  -4.4447  -3.6049  -3.4403  -3.3127  -3.3089  -3.0946  -3.0496
    -2.8960  -2.8708  -2.7552  -2.7473  -2.6359  -2.6014  -2.5075  -2.4678
    -2.3761  -2.3019  -2.2792  -2.2231  -2.0083  -1.9768  -1.9733  -1.8787
    -1.8529  -1.7822  -1.7463  -1.7172  -1.7039  -1.7021  -1.6217  -1.5634
    -1.4846  -1.4619  -1.4308  -1.3834  -1.3083  -1.2902  -1.1826  -1.1329
    -1.0347  -0.8247  -0.8161  -0.6602  -0.5905  -0.5846  -0.4475  -0.4405
    -0.0584   0.4234   0.6428   0.6619   1.4604   1.9049   1.9052   2.0067
     2.1907   2.4399   2.5138   2.9582   2.9725   3.1262   3.3133   3.4665
     3.7992   3.9356

          k = 0.0161-0.0933 0.0000 ( 28941 PWs)   bands (ev):

   -60.3330 -60.1752 -60.1440 -60.1439 -59.9895 -59.9595 -35.0100 -34.8214
   -34.7735 -34.7498 -34.6291 -34.3977 -34.2841 -34.2169 -34.2135 -34.1974
   -34.1205 -34.0464 -34.0366 -33.7872 -33.6472 -33.6282 -33.4155 -33.4043
    -5.0293  -4.4447  -3.6049  -3.4403  -3.3127  -3.3089  -3.0946  -3.0496
    -2.8960  -2.8709  -2.7552  -2.7473  -2.6359  -2.6014  -2.5075  -2.4678
    -2.3761  -2.3018  -2.2792  -2.2231  -2.0083  -1.9768  -1.9733  -1.8787
    -1.8530  -1.7822  -1.7463  -1.7173  -1.7039  -1.7020  -1.6216  -1.5634
    -1.4845  -1.4619  -1.4308  -1.3835  -1.3083  -1.2902  -1.1826  -1.1329
    -1.0347  -0.8247  -0.8161  -0.6604  -0.5903  -0.5846  -0.4476  -0.4405
    -0.0584   0.4234   0.6428   0.6619   1.4604   1.9050   1.9053   2.0065
     2.1907   2.4399   2.5138   2.9582   2.9725   3.1262   3.3133   3.4665
     3.7992   3.9356

          k = 0.0161-0.0764 0.0000 ( 28944 PWs)   bands (ev):

   -60.3330 -60.1752 -60.1440 -60.1439 -59.9895 -59.9596 -35.0098 -34.8211
   -34.7734 -34.7497 -34.6291 -34.3965 -34.2843 -34.2175 -34.2132 -34.1977
   -34.1205 -34.0462 -34.0361 -33.7872 -33.6472 -33.6282 -33.4154 -33.4043
    -5.3557  -4.2520  -3.7211  -3.6146  -3.4799  -3.4138  -3.1571  -3.0935
    -3.0061  -2.9332  -2.8886  -2.7671  -2.6730  -2.5834  -2.4742  -2.4412
    -2.3405  -2.3267  -2.3007  -2.2094  -2.1110  -2.0245  -1.9659  -1.8894
    -1.8317  -1.7801  -1.7328  -1.7237  -1.6863  -1.6141  -1.5423  -1.4897
    -1.4296  -1.3885  -1.3307  -1.2805  -1.2313  -1.1825  -1.1054  -1.0242
    -0.9345  -0.7520  -0.7230  -0.5788  -0.5159  -0.4876  -0.3953  -0.2033
     0.1181   0.3932   0.6831   0.8493   1.4648   1.8835   1.9827   2.0329
     2.1430   2.4106   2.4680   2.9725   3.0161   3.1394   3.3498   3.4664
     3.7389   3.9240

          k = 0.0161-0.0594 0.0000 ( 28976 PWs)   bands (ev):

   -60.3330 -60.1753 -60.1441 -60.1439 -59.9895 -59.9597 -35.0094 -34.8206
   -34.7733 -34.7496 -34.6291 -34.3944 -34.2845 -34.2185 -34.2129 -34.1983
   -34.1205 -34.0459 -34.0352 -33.7872 -33.6471 -33.6282 -33.4155 -33.4043
    -5.6958  -4.2216  -3.8921  -3.8448  -3.6877  -3.5275  -3.2159  -3.1838
    -3.1201  -3.0267  -2.9917  -2.8529  -2.7517  -2.7203  -2.5507  -2.4146
    -2.3952  -2.3497  -2.2384  -2.1452  -2.1129  -1.9382  -1.9045  -1.9034
    -1.8511  -1.7571  -1.7377  -1.7043  -1.6591  -1.5113  -1.4330  -1.4118
    -1.3954  -1.3601  -1.2675  -1.1820  -1.1453  -1.0500  -1.0442  -0.7784
    -0.7104  -0.6817  -0.5882  -0.4381  -0.3194  -0.2243  -0.2084   0.1140
     0.4133   0.5182   0.7433   1.1243   1.4734   1.9046   1.9573   2.0263
     2.1932   2.3499   2.5055   2.9869   3.1001   3.1179   3.3871   3.4626
     3.6831   3.9172

          k = 0.0161-0.0424 0.0000 ( 29015 PWs)   bands (ev):

   -60.3331 -60.1753 -60.1441 -60.1439 -59.9896 -59.9599 -35.0090 -34.8199
   -34.7733 -34.7495 -34.6291 -34.3920 -34.2849 -34.2197 -34.2125 -34.1989
   -34.1205 -34.0456 -34.0343 -33.7872 -33.6470 -33.6282 -33.4154 -33.4042
    -5.9785  -4.3596  -4.0619  -4.0415  -3.8647  -3.5877  -3.2987  -3.2573
    -3.1937  -3.1226  -3.0615  -2.9965  -2.8947  -2.8313  -2.6594  -2.4020
    -2.3604  -2.3264  -2.2097  -2.1527  -2.0904  -1.9185  -1.8967  -1.8671
    -1.8045  -1.7644  -1.7152  -1.6344  -1.6099  -1.4607  -1.4375  -1.4108
    -1.2676  -1.2619  -1.1865  -1.1465  -1.0589  -0.9833  -0.8640  -0.6517
    -0.6205  -0.4868  -0.4110  -0.2728  -0.0958   0.0044   0.1027   0.5330
     0.6446   0.8881   0.9707   1.2711   1.4859   1.7786   1.9503   2.0841
     2.4269   2.4512   2.5510   2.9693   2.9889   3.2282   3.3648   3.4837
     3.6822   3.9265

          k = 0.0161-0.0255 0.0000 ( 29025 PWs)   bands (ev):

   -60.3331 -60.1753 -60.1441 -60.1440 -59.9896 -59.9599 -35.0086 -34.8194
   -34.7732 -34.7493 -34.6291 -34.3898 -34.2852 -34.2207 -34.2121 -34.1994
   -34.1205 -34.0453 -34.0334 -33.7872 -33.6469 -33.6281 -33.4154 -33.4041
    -6.1776  -4.5130  -4.1926  -4.1878  -3.9895  -3.6224  -3.3872  -3.2880
    -3.2472  -3.1960  -3.1424  -3.1007  -2.9835  -2.8924  -2.7515  -2.3984
    -2.3410  -2.2966  -2.2407  -2.1889  -1.9970  -1.9286  -1.8804  -1.8703
    -1.7727  -1.7475  -1.7382  -1.5786  -1.5355  -1.4551  -1.4406  -1.4108
    -1.2582  -1.1850  -1.1061  -1.0282  -0.9346  -0.9151  -0.7517  -0.6339
    -0.5674  -0.3386  -0.3021  -0.0512   0.0542   0.3383   0.3752   0.7202
     0.9666   1.0751   1.3450   1.3589   1.5062   1.6971   1.9551   2.4147
     2.5494   2.5497   2.8049   2.8097   2.8703   3.3228   3.3597   3.5443
     3.6327   3.7277

          k = 0.0161-0.0085 0.0000 ( 29017 PWs)   bands (ev):

   -60.3331 -60.1752 -60.1441 -60.1440 -59.9897 -59.9599 -35.0084 -34.8191
   -34.7732 -34.7492 -34.6291 -34.3886 -34.2854 -34.2213 -34.2119 -34.1997
   -34.1206 -34.0451 -34.0329 -33.7872 -33.6469 -33.6281 -33.4154 -33.4041
    -6.2800  -4.6012  -4.2665  -4.2625  -4.0538  -3.6417  -3.4337  -3.3061
    -3.2810  -3.2366  -3.2149  -3.1170  -3.0255  -2.9254  -2.8021  -2.3982
    -2.3347  -2.2743  -2.2628  -2.2195  -1.9336  -1.9165  -1.8769  -1.8754
    -1.7881  -1.7628  -1.7094  -1.5685  -1.4785  -1.4605  -1.4483  -1.4076
    -1.2535  -1.1859  -1.0218  -0.9751  -0.9013  -0.7342  -0.7271  -0.6327
    -0.5481  -0.4153  -0.1986   0.1191   0.3421   0.5249   0.5845   0.7213
     0.7447   1.3295   1.4921   1.5569   1.5835   1.7665   2.1725   2.3657
     2.5223   2.6903   2.7750   2.9123   3.0399   3.1933   3.3014   3.3699
     3.6908   3.8546

          k = 0.0322 0.0170 0.0000 ( 29034 PWs)   bands (ev):

   -60.3235 -60.1658 -60.1540 -60.1347 -59.9994 -59.9697 -34.9415 -34.8095
   -34.7076 -34.6840 -34.6389 -34.3803 -34.2770 -34.2303 -34.2036 -34.1913
   -34.1291 -34.0540 -34.0417 -33.7801 -33.7045 -33.6542 -33.4904 -33.4785
    -6.1087  -4.4464  -4.1724  -4.1382  -3.9591  -3.5195  -3.4058  -3.2532
    -3.2116  -3.1702  -3.1412  -3.0551  -2.9531  -2.7895  -2.7498  -2.3560
    -2.3391  -2.2597  -2.2509  -2.1830  -1.9704  -1.9413  -1.9016  -1.8508
    -1.7977  -1.7246  -1.6718  -1.5948  -1.5185  -1.4980  -1.3522  -1.3261
    -1.2336  -1.2118  -1.1517  -1.0177  -0.8983  -0.8731  -0.7591  -0.7201
    -0.6121  -0.5006  -0.3370   0.0845   0.2617   0.4671   0.5196   0.8592
     0.8880   1.0173   1.2473   1.3428   1.4375   1.4923   1.8457   2.1320
     2.3813   2.3967   2.6302   2.7770   3.0324   3.1676   3.2661   3.3385
     3.8548   4.0248

          k = 0.0322 0.0339 0.0000 ( 28998 PWs)   bands (ev):

   -60.3235 -60.1658 -60.1540 -60.1347 -59.9994 -59.9695 -34.9418 -34.8100
   -34.7077 -34.6840 -34.6388 -34.3820 -34.2767 -34.2294 -34.2038 -34.1909
   -34.1291 -34.0542 -34.0424 -33.7801 -33.7044 -33.6543 -33.4904 -33.4785
    -5.9598  -4.3262  -4.0761  -4.0262  -3.8770  -3.4897  -3.3399  -3.2022
    -3.1830  -3.1152  -3.0559  -3.0304  -2.8768  -2.7483  -2.6770  -2.3625
    -2.3544  -2.2776  -2.2336  -2.1425  -2.0414  -1.9560  -1.8951  -1.8515
    -1.8012  -1.7774  -1.6624  -1.6101  -1.5401  -1.4828  -1.4242  -1.3309
    -1.2510  -1.2223  -1.1917  -1.1741  -0.9608  -0.9454  -0.9144  -0.7515
    -0.6314  -0.5635  -0.3072  -0.1268   0.0367   0.1673   0.2799   0.7424
     0.7500   0.8812   1.0585   1.2075   1.4374   1.4677   1.7462   1.9276
     2.4026   2.4133   2.5984   2.8344   3.0868   3.0986   3.4001   3.5871
     3.6867   3.8865

          k = 0.0322 0.0509 0.0000 ( 29015 PWs)   bands (ev):

   -60.3235 -60.1658 -60.1540 -60.1347 -59.9994 -59.9694 -34.9422 -34.8106
   -34.7077 -34.6842 -34.6388 -34.3844 -34.2764 -34.2283 -34.2042 -34.1903
   -34.1291 -34.0545 -34.0434 -33.7801 -33.7044 -33.6544 -33.4904 -33.4786
    -5.7216  -4.1745  -3.9262  -3.8507  -3.7514  -3.4442  -3.2399  -3.1431
    -3.1290  -3.0320  -2.9802  -2.9286  -2.7428  -2.6872  -2.5802  -2.3772
    -2.3752  -2.3110  -2.2202  -2.1098  -2.1087  -1.9979  -1.8857  -1.8695
    -1.8324  -1.7950  -1.6777  -1.6505  -1.6058  -1.4958  -1.4640  -1.3473
    -1.3404  -1.3057  -1.2836  -1.2292  -1.1442  -1.0462  -0.9417  -0.8090
    -0.7664  -0.6148  -0.4173  -0.3684  -0.1768  -0.0863  -0.0257   0.3515
     0.4292   0.6317   0.9057   1.1189   1.4491   1.6721   1.7316   1.8314
     2.3359   2.3723   2.4576   2.9129   3.0377   3.0858   3.3366   3.4187
     3.7206   3.8936

          k = 0.0322 0.0679 0.0000 ( 28961 PWs)   bands (ev):

   -60.3234 -60.1658 -60.1539 -60.1347 -59.9993 -59.9693 -34.9426 -34.8111
   -34.7078 -34.6843 -34.6387 -34.3866 -34.2761 -34.2270 -34.2045 -34.1896
   -34.1291 -34.0548 -34.0443 -33.7801 -33.7044 -33.6545 -33.4904 -33.4786
    -5.4127  -4.1101  -3.7427  -3.6189  -3.6030  -3.3675  -3.1320  -3.0922
    -3.0286  -2.9315  -2.8981  -2.8108  -2.6236  -2.5830  -2.5211  -2.4017
    -2.3503  -2.3240  -2.2711  -2.1396  -2.1286  -2.0702  -1.9053  -1.8760
    -1.8437  -1.7923  -1.7129  -1.6986  -1.6723  -1.5358  -1.4959  -1.4937
    -1.4206  -1.3963  -1.3588  -1.2898  -1.2319  -1.1608  -0.9656  -0.9474
    -0.9152  -0.7144  -0.5882  -0.5667  -0.4921  -0.2598  -0.2478   0.0302
     0.1317   0.4757   0.8415   0.9540   1.4404   1.5884   1.8824   1.9342
     2.1819   2.3886   2.4230   2.9267   2.9352   3.0221   3.2435   3.3560
     3.7323   3.9691

          k = 0.0322 0.0848 0.0000 ( 28919 PWs)   bands (ev):

   -60.3234 -60.1658 -60.1539 -60.1347 -59.9992 -59.9691 -34.9428 -34.8116
   -34.7078 -34.6844 -34.6387 -34.3883 -34.2759 -34.2262 -34.2048 -34.1892
   -34.1291 -34.0550 -34.0449 -33.7800 -33.7044 -33.6545 -33.4904 -33.4787
    -5.0740  -4.2310  -3.5671  -3.4724  -3.3786  -3.2610  -3.0537  -3.0316
    -2.9075  -2.8345  -2.7790  -2.7618  -2.6035  -2.5936  -2.4640  -2.4494
    -2.3338  -2.2975  -2.2800  -2.2020  -2.1087  -2.0425  -1.9427  -1.8613
    -1.8165  -1.7887  -1.7655  -1.7222  -1.7032  -1.6442  -1.6111  -1.5587
    -1.5277  -1.4941  -1.3678  -1.3333  -1.3311  -1.2328  -1.1524  -1.1477
    -0.9409  -0.8407  -0.7038  -0.6896  -0.6462  -0.3864  -0.3261  -0.2124
    -0.0719   0.4615   0.7843   0.8071   1.4375   1.5448   1.9356   2.0034
     2.0853   2.3971   2.5055   2.8221   2.9209   2.9851   3.2075   3.2704
     3.7530   4.0537

          k = 0.0322 0.1018 0.0000 ( 28914 PWs)   bands (ev):

   -60.3234 -60.1658 -60.1539 -60.1346 -59.9992 -59.9691 -34.9429 -34.8117
   -34.7078 -34.6844 -34.6387 -34.3889 -34.2758 -34.2258 -34.2049 -34.1890
   -34.1291 -34.0551 -34.0452 -33.7801 -33.7044 -33.6545 -33.4904 -33.4787
    -4.8629  -4.3781  -3.4829  -3.4207  -3.2669  -3.2114  -3.0235  -2.9975
    -2.8355  -2.7961  -2.7649  -2.6345  -2.6268  -2.6062  -2.5588  -2.4889
    -2.3742  -2.3397  -2.2351  -2.1659  -2.0373  -1.9496  -1.8901  -1.8695
    -1.8522  -1.8351  -1.7954  -1.7665  -1.7037  -1.6724  -1.6293  -1.5993
    -1.5700  -1.5259  -1.4832  -1.3674  -1.3368  -1.3056  -1.2328  -1.2133
    -0.9363  -0.8676  -0.7611  -0.7383  -0.6678  -0.3855  -0.3422  -0.3395
    -0.1483   0.4839   0.7025   0.7960   1.4368   1.5360   1.9382   2.0092
     2.0740   2.3847   2.5819   2.7729   2.9169   2.9730   3.1791   3.2406
     3.7634   4.1017

          k = 0.0322-0.0848 0.0000 ( 28919 PWs)   bands (ev):

   -60.3234 -60.1658 -60.1539 -60.1347 -59.9992 -59.9691 -34.9428 -34.8116
   -34.7078 -34.6844 -34.6387 -34.3883 -34.2759 -34.2262 -34.2048 -34.1892
   -34.1291 -34.0550 -34.0449 -33.7800 -33.7044 -33.6545 -33.4904 -33.4787
    -5.0740  -4.2310  -3.5672  -3.4724  -3.3786  -3.2610  -3.0537  -3.0316
    -2.9074  -2.8345  -2.7790  -2.7617  -2.6035  -2.5935  -2.4640  -2.4495
    -2.3337  -2.2976  -2.2800  -2.2021  -2.1087  -2.0425  -1.9426  -1.8613
    -1.8166  -1.7888  -1.7655  -1.7223  -1.7033  -1.6443  -1.6110  -1.5587
    -1.5277  -1.4939  -1.3679  -1.3333  -1.3311  -1.2328  -1.1525  -1.1477
    -0.9409  -0.8407  -0.7039  -0.6896  -0.6461  -0.3864  -0.3261  -0.2124
    -0.0718   0.4616   0.7844   0.8070   1.4375   1.5448   1.9355   2.0038
     2.0849   2.3971   2.5056   2.8220   2.9209   2.9850   3.2075   3.2703
     3.7529   4.0538

          k = 0.0322-0.0679 0.0000 ( 28961 PWs)   bands (ev):

   -60.3234 -60.1658 -60.1539 -60.1347 -59.9993 -59.9693 -34.9426 -34.8111
   -34.7078 -34.6843 -34.6387 -34.3866 -34.2761 -34.2270 -34.2045 -34.1896
   -34.1291 -34.0548 -34.0443 -33.7801 -33.7044 -33.6545 -33.4904 -33.4786
    -5.4127  -4.1101  -3.7428  -3.6189  -3.6030  -3.3675  -3.1321  -3.0922
    -3.0286  -2.9315  -2.8980  -2.8107  -2.6236  -2.5831  -2.5211  -2.4017
    -2.3501  -2.3240  -2.2711  -2.1397  -2.1286  -2.0702  -1.9053  -1.8760
    -1.8437  -1.7922  -1.7130  -1.6986  -1.6724  -1.5359  -1.4958  -1.4936
    -1.4207  -1.3962  -1.3588  -1.2897  -1.2319  -1.1608  -0.9656  -0.9474
    -0.9154  -0.7145  -0.5881  -0.5667  -0.4924  -0.2598  -0.2477   0.0301
     0.1319   0.4757   0.8414   0.9541   1.4404   1.5884   1.8824   1.9344
     2.1816   2.3885   2.4230   2.9268   2.9351   3.0221   3.2435   3.3559
     3.7319   3.9690

          k = 0.0322-0.0509 0.0000 ( 29015 PWs)   bands (ev):

   -60.3235 -60.1658 -60.1540 -60.1347 -59.9994 -59.9694 -34.9422 -34.8106
   -34.7077 -34.6842 -34.6388 -34.3844 -34.2764 -34.2283 -34.2042 -34.1903
   -34.1291 -34.0545 -34.0434 -33.7801 -33.7044 -33.6544 -33.4904 -33.4786
    -5.7216  -4.1745  -3.9262  -3.8507  -3.7513  -3.4442  -3.2399  -3.1431
    -3.1290  -3.0319  -2.9802  -2.9284  -2.7430  -2.6872  -2.5802  -2.3772
    -2.3753  -2.3109  -2.2203  -2.1099  -2.1087  -1.9979  -1.8857  -1.8696
    -1.8325  -1.7949  -1.6777  -1.6505  -1.6059  -1.4958  -1.4641  -1.3473
    -1.3404  -1.3057  -1.2837  -1.2292  -1.1441  -1.0461  -0.9417  -0.8091
    -0.7663  -0.6148  -0.4173  -0.3684  -0.1771  -0.0863  -0.0257   0.3515
     0.4295   0.6318   0.9055   1.1189   1.4491   1.6722   1.7316   1.8315
     2.3357   2.3721   2.4574   2.9129   3.0378   3.0859   3.3366   3.4187
     3.7205   3.8937

          k = 0.0322-0.0339 0.0000 ( 28998 PWs)   bands (ev):

   -60.3235 -60.1658 -60.1540 -60.1347 -59.9994 -59.9695 -34.9418 -34.8100
   -34.7077 -34.6840 -34.6388 -34.3820 -34.2767 -34.2294 -34.2038 -34.1909
   -34.1291 -34.0542 -34.0424 -33.7801 -33.7044 -33.6543 -33.4904 -33.4785
    -5.9598  -4.3262  -4.0761  -4.0262  -3.8770  -3.4897  -3.3400  -3.2022
    -3.1830  -3.1151  -3.0558  -3.0304  -2.8769  -2.7483  -2.6770  -2.3625
    -2.3544  -2.2775  -2.2337  -2.1425  -2.0415  -1.9560  -1.8951  -1.8516
    -1.8011  -1.7774  -1.6624  -1.6101  -1.5402  -1.4829  -1.4243  -1.3309
    -1.2509  -1.2224  -1.1917  -1.1741  -0.9607  -0.9454  -0.9143  -0.7516
    -0.6314  -0.5635  -0.3072  -0.1268   0.0368   0.1674   0.2798   0.7424
     0.7502   0.8812   1.0583   1.2075   1.4375   1.4677   1.7463   1.9276
     2.4025   2.4131   2.5980   2.8345   3.0869   3.0988   3.4002   3.5870
     3.6867   3.8865

          k = 0.0322-0.0170 0.0000 ( 29034 PWs)   bands (ev):

   -60.3235 -60.1658 -60.1540 -60.1347 -59.9994 -59.9697 -34.9415 -34.8095
   -34.7076 -34.6840 -34.6389 -34.3803 -34.2770 -34.2303 -34.2036 -34.1913
   -34.1291 -34.0540 -34.0417 -33.7801 -33.7045 -33.6542 -33.4904 -33.4785
    -6.1087  -4.4464  -4.1724  -4.1382  -3.9591  -3.5195  -3.4058  -3.2532
    -3.2116  -3.1702  -3.1412  -3.0551  -2.9531  -2.7895  -2.7498  -2.3560
    -2.3392  -2.2597  -2.2508  -2.1830  -1.9705  -1.9413  -1.9016  -1.8507
    -1.7977  -1.7246  -1.6718  -1.5947  -1.5185  -1.4981  -1.3523  -1.3261
    -1.2336  -1.2118  -1.1518  -1.0177  -0.8983  -0.8731  -0.7591  -0.7201
    -0.6121  -0.5006  -0.3370   0.0844   0.2616   0.4675   0.5192   0.8592
     0.8881   1.0175   1.2471   1.3428   1.4375   1.4922   1.8457   2.1319
     2.3813   2.3967   2.6303   2.7767   3.0325   3.1676   3.2661   3.3385
     3.8547   4.0240

          k = 0.0322-0.0000 0.0000 ( 29011 PWs)   bands (ev):

   -60.3235 -60.1658 -60.1540 -60.1347 -59.9994 -59.9696 -34.9414 -34.8094
   -34.7076 -34.6839 -34.6388 -34.3797 -34.2771 -34.2306 -34.2035 -34.1915
   -34.1291 -34.0539 -34.0415 -33.7801 -33.7044 -33.6542 -33.4904 -33.4785
    -6.1592  -4.4899  -4.2055  -4.1770  -3.9875  -3.5304  -3.4285  -3.2732
    -3.2223  -3.1899  -3.1683  -3.0624  -2.9780  -2.8039  -2.7759  -2.3539
    -2.3344  -2.2706  -2.2326  -2.2080  -1.9513  -1.9258  -1.9038  -1.8548
    -1.7924  -1.7018  -1.6822  -1.5935  -1.5124  -1.5050  -1.3322  -1.3175
    -1.2306  -1.2080  -1.1410  -0.9476  -0.8870  -0.8476  -0.7036  -0.6502
    -0.6371  -0.4689  -0.3991   0.1701   0.4939   0.5564   0.6720   0.7101
     0.8029   1.0434   1.3981   1.4640   1.4792   1.4921   2.1556   2.2346
     2.2694   2.2994   2.6261   2.6951   3.0053   3.0061   3.2263   3.2894
     3.9430   4.0582

          k = 0.0482 0.0255 0.0000 ( 28986 PWs)   bands (ev):

   -60.3082 -60.1698 -60.1507 -60.1197 -60.0149 -59.9849 -34.8342 -34.7943
   -34.6563 -34.6004 -34.5792 -34.3671 -34.2636 -34.2446 -34.1902 -34.1779
   -34.1427 -34.0681 -34.0557 -33.8245 -33.7689 -33.6659 -33.6083 -33.5956
    -5.8351  -4.2087  -4.0788  -3.9363  -3.8026  -3.3707  -3.3493  -3.1932
    -3.0878  -3.0823  -3.0454  -2.9579  -2.8228  -2.6639  -2.6079  -2.3443
    -2.3055  -2.2582  -2.2306  -2.1295  -2.0685  -2.0115  -1.8501  -1.8341
    -1.8242  -1.7527  -1.6322  -1.6275  -1.5846  -1.4604  -1.4259  -1.4084
    -1.2992  -1.2042  -1.1132  -1.0535  -0.9212  -0.8955  -0.8669  -0.8162
    -0.7046  -0.5702  -0.3005   0.0228   0.2450   0.3443   0.4481   0.5674
     0.8386   0.9030   1.0548   1.1002   1.2000   1.4149   1.5630   1.6634
     2.1752   2.2795   2.3767   2.5938   2.7936   3.1348   3.3452   3.4955
     3.6301   3.8330

          k = 0.0482 0.0424 0.0000 ( 28968 PWs)   bands (ev):

   -60.3081 -60.1698 -60.1507 -60.1197 -60.0149 -59.9848 -34.8345 -34.7948
   -34.6562 -34.6005 -34.5793 -34.3691 -34.2633 -34.2434 -34.1905 -34.1773
   -34.1427 -34.0683 -34.0566 -33.8245 -33.7689 -33.6660 -33.6083 -33.5956
    -5.6476  -4.0774  -3.9955  -3.7991  -3.7124  -3.3097  -3.2889  -3.1220
    -3.0487  -3.0230  -2.9582  -2.9276  -2.7234  -2.5826  -2.5689  -2.3550
    -2.3197  -2.2625  -2.2471  -2.1093  -2.0893  -2.0661  -1.8456  -1.8447
    -1.8100  -1.8065  -1.6643  -1.6540  -1.5918  -1.5043  -1.4575  -1.4134
    -1.3630  -1.2995  -1.2510  -1.1480  -0.9918  -0.9775  -0.8930  -0.8578
    -0.7953  -0.6023  -0.3167  -0.2232   0.0102   0.0732   0.1858   0.5206
     0.5211   0.5768   0.9774   1.0603   1.3604   1.4022   1.5156   1.6223
     2.1974   2.3003   2.3306   2.7675   2.8046   3.0860   3.3694   3.4784
     3.6588   3.8794

          k = 0.0482 0.0594 0.0000 ( 28981 PWs)   bands (ev):

   -60.3081 -60.1698 -60.1508 -60.1198 -60.0148 -59.9848 -34.8349 -34.7954
   -34.6561 -34.6006 -34.5794 -34.3714 -34.2630 -34.2421 -34.1908 -34.1767
   -34.1427 -34.0685 -34.0575 -33.8244 -33.7688 -33.6661 -33.6083 -33.5957
    -5.3823  -3.9669  -3.8866  -3.5977  -3.5896  -3.2541  -3.1836  -3.0212
    -3.0047  -2.9273  -2.8732  -2.8515  -2.5833  -2.5497  -2.5277  -2.3480
    -2.3233  -2.2941  -2.2626  -2.1784  -2.1080  -2.0806  -1.8603  -1.8588
    -1.8212  -1.7996  -1.7174  -1.6997  -1.6189  -1.6133  -1.5467  -1.4625
    -1.4101  -1.4018  -1.3074  -1.2530  -1.0675  -1.0551  -1.0470  -0.9314
    -0.7738  -0.6778  -0.5065  -0.4102  -0.3735  -0.0581  -0.0461   0.2177
     0.2637   0.5427   0.9438   0.9604   1.3689   1.3973   1.5733   1.7276
     2.1391   2.3154   2.3181   2.7690   2.8336   2.9949   3.1774   3.3549
     3.4954   3.8889

          k = 0.0482 0.0764 0.0000 ( 28988 PWs)   bands (ev):

   -60.3082 -60.1699 -60.1508 -60.1198 -60.0149 -59.9846 -34.8352 -34.7959
   -34.6560 -34.6006 -34.5796 -34.3733 -34.2628 -34.2409 -34.1911 -34.1760
   -34.1428 -34.0688 -34.0583 -33.8244 -33.7688 -33.6661 -33.6083 -33.5957
    -5.0662  -3.9940  -3.7769  -3.4553  -3.3483  -3.1690  -3.0791  -2.9488
    -2.8997  -2.8099  -2.7947  -2.7685  -2.6094  -2.5228  -2.4386  -2.3818
    -2.3501  -2.3375  -2.2275  -2.2218  -2.1250  -2.0933  -1.8833  -1.8578
    -1.8172  -1.8059  -1.7589  -1.7469  -1.7091  -1.6791  -1.6563  -1.5318
    -1.4836  -1.4408  -1.3540  -1.3149  -1.2384  -1.1226  -1.0897  -1.0860
    -0.9029  -0.7333  -0.7017  -0.5990  -0.5223  -0.1660  -0.1449   0.0082
     0.0474   0.5503   0.8785   0.9427   1.2551   1.3994   1.6960   1.8304
     2.0571   2.3091   2.3473   2.6534   2.8515   2.9014   3.0371   3.3162
     3.3639   3.9598

          k = 0.0482 0.0933 0.0000 ( 28962 PWs)   bands (ev):

   -60.3081 -60.1698 -60.1508 -60.1198 -60.0148 -59.9846 -34.8354 -34.7961
   -34.6560 -34.6007 -34.5796 -34.3744 -34.2626 -34.2402 -34.1913 -34.1757
   -34.1428 -34.0688 -34.0587 -33.8244 -33.7688 -33.6662 -33.6084 -33.5957
    -4.7739  -4.1535  -3.7041  -3.3556  -3.1448  -3.0861  -2.9956  -2.8961
    -2.8098  -2.7829  -2.6880  -2.6856  -2.6293  -2.5703  -2.4915  -2.4868
    -2.4105  -2.2993  -2.2084  -2.1581  -2.0811  -2.0323  -1.9062  -1.8829
    -1.8482  -1.8252  -1.8250  -1.7942  -1.7688  -1.7003  -1.6996  -1.5895
    -1.4996  -1.4577  -1.4062  -1.3377  -1.3187  -1.2914  -1.1767  -1.1423
    -1.0877  -0.7243  -0.6921  -0.6880  -0.6061  -0.2061  -0.1625  -0.1149
    -0.0927   0.5624   0.8558   0.9299   1.1868   1.4031   1.7463   1.9090
     1.9915   2.2975   2.3881   2.5249   2.8539   2.8582   3.0343   3.1911
     3.3764   4.0362

          k = 0.0482 0.1103 0.0000 ( 28962 PWs)   bands (ev):

   -60.3081 -60.1698 -60.1508 -60.1198 -60.0148 -59.9846 -34.8354 -34.7961
   -34.6560 -34.6007 -34.5796 -34.3744 -34.2626 -34.2402 -34.1913 -34.1757
   -34.1428 -34.0688 -34.0587 -33.8244 -33.7688 -33.6662 -33.6084 -33.5957
    -4.7739  -4.1535  -3.7041  -3.3556  -3.1447  -3.0862  -2.9956  -2.8961
    -2.8097  -2.7828  -2.6880  -2.6856  -2.6292  -2.5703  -2.4915  -2.4868
    -2.4104  -2.2993  -2.2084  -2.1581  -2.0810  -2.0323  -1.9062  -1.8829
    -1.8482  -1.8252  -1.8251  -1.7942  -1.7688  -1.7002  -1.6996  -1.5896
    -1.4997  -1.4577  -1.4063  -1.3377  -1.3187  -1.2914  -1.1767  -1.1423
    -1.0878  -0.7244  -0.6921  -0.6880  -0.6061  -0.2061  -0.1624  -0.1148
    -0.0927   0.5624   0.8559   0.9299   1.1867   1.4031   1.7463   1.9091
     1.9913   2.2975   2.3881   2.5249   2.8539   2.8582   3.0343   3.1910
     3.3764   4.0363

          k = 0.0482-0.0764 0.0000 ( 28988 PWs)   bands (ev):

   -60.3082 -60.1699 -60.1508 -60.1198 -60.0149 -59.9846 -34.8352 -34.7959
   -34.6560 -34.6006 -34.5796 -34.3733 -34.2628 -34.2409 -34.1911 -34.1760
   -34.1428 -34.0688 -34.0583 -33.8244 -33.7688 -33.6661 -33.6083 -33.5957
    -5.0662  -3.9940  -3.7769  -3.4553  -3.3483  -3.1690  -3.0791  -2.9488
    -2.8996  -2.8099  -2.7946  -2.7684  -2.6094  -2.5228  -2.4386  -2.3818
    -2.3501  -2.3374  -2.2276  -2.2218  -2.1250  -2.0933  -1.8833  -1.8579
    -1.8171  -1.8060  -1.7589  -1.7469  -1.7089  -1.6791  -1.6563  -1.5318
    -1.4837  -1.4408  -1.3540  -1.3149  -1.2383  -1.1227  -1.0896  -1.0861
    -0.9031  -0.7333  -0.7017  -0.5990  -0.5223  -0.1660  -0.1448   0.0084
     0.0474   0.5504   0.8787   0.9427   1.2551   1.3994   1.6961   1.8305
     2.0568   2.3091   2.3472   2.6534   2.8515   2.9014   3.0371   3.3160
     3.3638   3.9600

          k = 0.0482-0.0594 0.0000 ( 28981 PWs)   bands (ev):

   -60.3081 -60.1698 -60.1508 -60.1198 -60.0148 -59.9848 -34.8349 -34.7954
   -34.6561 -34.6006 -34.5794 -34.3714 -34.2630 -34.2421 -34.1908 -34.1767
   -34.1427 -34.0685 -34.0575 -33.8244 -33.7688 -33.6661 -33.6083 -33.5957
    -5.3822  -3.9669  -3.8867  -3.5977  -3.5896  -3.2541  -3.1837  -3.0211
    -3.0047  -2.9272  -2.8732  -2.8515  -2.5835  -2.5496  -2.5277  -2.3479
    -2.3232  -2.2941  -2.2626  -2.1785  -2.1080  -2.0807  -1.8603  -1.8588
    -1.8213  -1.7996  -1.7174  -1.6998  -1.6189  -1.6133  -1.5468  -1.4626
    -1.4101  -1.4018  -1.3074  -1.2530  -1.0675  -1.0551  -1.0470  -0.9314
    -0.7737  -0.6780  -0.5064  -0.4103  -0.3737  -0.0581  -0.0460   0.2180
     0.2637   0.5428   0.9438   0.9603   1.3689   1.3973   1.5734   1.7277
     2.1388   2.3152   2.3180   2.7691   2.8336   2.9949   3.1773   3.3548
     3.4954   3.8890

          k = 0.0482-0.0424 0.0000 ( 28968 PWs)   bands (ev):

   -60.3081 -60.1698 -60.1507 -60.1197 -60.0149 -59.9848 -34.8345 -34.7948
   -34.6562 -34.6005 -34.5793 -34.3691 -34.2633 -34.2434 -34.1905 -34.1773
   -34.1427 -34.0683 -34.0566 -33.8245 -33.7689 -33.6660 -33.6083 -33.5956
    -5.6476  -4.0774  -3.9955  -3.7991  -3.7124  -3.3097  -3.2890  -3.1220
    -3.0487  -3.0228  -2.9582  -2.9275  -2.7234  -2.5825  -2.5689  -2.3551
    -2.3197  -2.2623  -2.2472  -2.1094  -2.0894  -2.0661  -1.8455  -1.8446
    -1.8099  -1.8066  -1.6643  -1.6540  -1.5918  -1.5043  -1.4575  -1.4135
    -1.3629  -1.2995  -1.2510  -1.1480  -0.9919  -0.9775  -0.8929  -0.8578
    -0.7952  -0.6023  -0.3168  -0.2232   0.0100   0.0732   0.1859   0.5207
     0.5214   0.5768   0.9773   1.0602   1.3605   1.4022   1.5156   1.6223
     2.1972   2.3001   2.3305   2.7675   2.8046   3.0859   3.3693   3.4782
     3.6590   3.8795

          k = 0.0482-0.0255 0.0000 ( 28986 PWs)   bands (ev):

   -60.3082 -60.1698 -60.1507 -60.1197 -60.0149 -59.9849 -34.8342 -34.7943
   -34.6563 -34.6004 -34.5792 -34.3671 -34.2636 -34.2446 -34.1902 -34.1779
   -34.1427 -34.0681 -34.0557 -33.8245 -33.7689 -33.6659 -33.6083 -33.5956
    -5.8351  -4.2087  -4.0789  -3.9363  -3.8026  -3.3707  -3.3493  -3.1932
    -3.0877  -3.0823  -3.0454  -2.9579  -2.8229  -2.6638  -2.6079  -2.3443
    -2.3054  -2.2583  -2.2305  -2.1296  -2.0685  -2.0116  -1.8501  -1.8340
    -1.8242  -1.7528  -1.6322  -1.6275  -1.5846  -1.4605  -1.4259  -1.4084
    -1.2992  -1.2042  -1.1131  -1.0535  -0.9212  -0.8955  -0.8668  -0.8162
    -0.7046  -0.5702  -0.3005   0.0228   0.2449   0.3445   0.4477   0.5676
     0.8385   0.9033   1.0547   1.1003   1.1999   1.4149   1.5630   1.6634
     2.1752   2.2794   2.3764   2.5939   2.7937   3.1347   3.3452   3.4954
     3.6304   3.8329

          k = 0.0482-0.0085 0.0000 ( 28981 PWs)   bands (ev):

   -60.3082 -60.1697 -60.1508 -60.1197 -60.0149 -59.9849 -34.8340 -34.7941
   -34.6564 -34.6004 -34.5791 -34.3659 -34.2638 -34.2452 -34.1901 -34.1782
   -34.1427 -34.0680 -34.0553 -33.8246 -33.7689 -33.6659 -33.6084 -33.5956
    -5.9316  -4.2864  -4.1234  -4.0072  -3.8499  -3.4142  -3.3715  -3.2310
    -3.1166  -3.1015  -3.0955  -2.9708  -2.8739  -2.7159  -2.6299  -2.3334
    -2.3015  -2.2672  -2.2055  -2.1670  -2.0520  -1.9760  -1.8536  -1.8367
    -1.8255  -1.7073  -1.6332  -1.6118  -1.5826  -1.4664  -1.4151  -1.3923
    -1.2951  -1.0997  -1.0584  -0.9867  -0.8898  -0.8759  -0.8417  -0.7588
    -0.5856  -0.5848  -0.3570   0.1738   0.4674   0.5135   0.5803   0.6871
     0.7806   0.9555   1.1153   1.2493   1.2847   1.4471   1.7687   1.7932
     2.1412   2.2351   2.3011   2.4008   2.7679   2.8692   3.1498   3.5547
     3.5586   3.7142

          k = 0.0482 0.0085 0.0000 ( 28981 PWs)   bands (ev):

   -60.3082 -60.1697 -60.1508 -60.1197 -60.0149 -59.9849 -34.8340 -34.7941
   -34.6564 -34.6004 -34.5791 -34.3659 -34.2638 -34.2452 -34.1901 -34.1782
   -34.1427 -34.0680 -34.0553 -33.8246 -33.7689 -33.6659 -33.6084 -33.5956
    -5.9316  -4.2864  -4.1234  -4.0072  -3.8499  -3.4142  -3.3715  -3.2310
    -3.1166  -3.1015  -3.0955  -2.9708  -2.8739  -2.7159  -2.6299  -2.3334
    -2.3016  -2.2672  -2.2056  -2.1669  -2.0519  -1.9759  -1.8536  -1.8367
    -1.8255  -1.7072  -1.6333  -1.6118  -1.5826  -1.4664  -1.4150  -1.3923
    -1.2951  -1.0996  -1.0585  -0.9867  -0.8898  -0.8759  -0.8416  -0.7588
    -0.5856  -0.5848  -0.3570   0.1738   0.4675   0.5133   0.5802   0.6874
     0.7805   0.9553   1.1153   1.2494   1.2846   1.4473   1.7687   1.7933
     2.1410   2.2351   2.3010   2.4012   2.7679   2.8692   3.1498   3.5549
     3.5585   3.7141

          k = 0.0643 0.0339 0.0000 ( 28956 PWs)   bands (ev):

   -60.2881 -60.1903 -60.1311 -60.1001 -60.0350 -60.0048 -34.7744 -34.6927
   -34.6764 -34.4617 -34.4411 -34.3497 -34.2630 -34.2463 -34.1728 -34.1603
   -34.1603 -34.0863 -34.0739 -33.9786 -33.7649 -33.7492 -33.7460 -33.6811
    -5.4772  -4.0867  -3.9213  -3.6849  -3.5981  -3.3347  -3.1722  -3.0985
    -3.0039  -2.9551  -2.9322  -2.8387  -2.6744  -2.5542  -2.4514  -2.3221
    -2.3212  -2.2508  -2.2240  -2.1686  -2.0835  -2.0776  -1.8603  -1.8119
    -1.7978  -1.7760  -1.7198  -1.6971  -1.6690  -1.6603  -1.5267  -1.3849
    -1.3526  -1.2602  -1.2552  -1.1507  -1.1210  -0.9052  -0.8995  -0.5693
    -0.5118  -0.4303  -0.2930  -0.0312   0.1788   0.2608   0.3645   0.3981
     0.5746   0.6637   0.9156   0.9481   1.1171   1.2429   1.3262   1.5221
     1.8109   2.0601   2.2105   2.5266   2.6062   2.8926   3.0965   3.1302
     3.4613   3.5789

          k = 0.0643 0.0509 0.0000 ( 28939 PWs)   bands (ev):

   -60.2881 -60.1903 -60.1310 -60.1001 -60.0350 -60.0047 -34.7749 -34.6930
   -34.6763 -34.4617 -34.4412 -34.3517 -34.2616 -34.2460 -34.1730 -34.1604
   -34.1596 -34.0865 -34.0748 -33.9785 -33.7649 -33.7492 -33.7460 -33.6811
    -5.2647  -4.0863  -3.8114  -3.5416  -3.5098  -3.2376  -3.1295  -3.0021
    -2.9320  -2.9287  -2.8535  -2.8104  -2.5889  -2.5197  -2.4462  -2.3256
    -2.3106  -2.2673  -2.2543  -2.2056  -2.1148  -2.0639  -1.8568  -1.8383
    -1.8126  -1.7781  -1.7528  -1.7335  -1.6932  -1.6930  -1.5320  -1.4318
    -1.4071  -1.3588  -1.3316  -1.2933  -1.1829  -0.9478  -0.8973  -0.6668
    -0.6604  -0.4322  -0.3112  -0.2905  -0.2002   0.1623   0.1748   0.3617
     0.4136   0.5095   0.8809   0.9717   1.2061   1.2445   1.2811   1.5601
     1.8107   2.1193   2.2156   2.5634   2.6685   2.8918   3.0249   3.2565
     3.3596   3.6516

          k = 0.0643 0.0679 0.0000 ( 28971 PWs)   bands (ev):

   -60.2881 -60.1904 -60.1311 -60.1002 -60.0350 -60.0048 -34.7754 -34.6933
   -34.6761 -34.4618 -34.4414 -34.3538 -34.2602 -34.2458 -34.1732 -34.1605
   -34.1589 -34.0866 -34.0756 -33.9784 -33.7648 -33.7492 -33.7460 -33.6812
    -4.9916  -4.0801  -3.7741  -3.3983  -3.3463  -3.1276  -3.0713  -2.8928
    -2.8852  -2.8152  -2.7761  -2.7738  -2.5988  -2.4991  -2.4346  -2.3733
    -2.3305  -2.3145  -2.2432  -2.1670  -2.1247  -2.0800  -1.8794  -1.8755
    -1.8542  -1.7865  -1.7691  -1.7584  -1.7443  -1.7236  -1.5434  -1.5391
    -1.5018  -1.4636  -1.4149  -1.3691  -1.2024  -0.9721  -0.8979  -0.8210
    -0.8124  -0.5860  -0.4469  -0.3957  -0.3498   0.0319   0.0940   0.1506
     0.2824   0.6180   0.8556   1.0053   1.1153   1.3110   1.3382   1.6139
     1.8010   2.1428   2.1944   2.4938   2.7314   2.8668   2.8866   3.0955
     3.3894   3.4251

          k = 0.0643 0.0848 0.0000 ( 28962 PWs)   bands (ev):

   -60.2881 -60.1904 -60.1310 -60.1002 -60.0350 -60.0047 -34.7757 -34.6936
   -34.6760 -34.4618 -34.4414 -34.3553 -34.2592 -34.2456 -34.1734 -34.1605
   -34.1584 -34.0867 -34.0763 -33.9784 -33.7647 -33.7493 -33.7460 -33.6813
    -4.6999  -4.0723  -3.8752  -3.2934  -3.1461  -3.0085  -2.9885  -2.8347
    -2.7771  -2.7524  -2.7404  -2.6898  -2.6625  -2.6019  -2.4406  -2.3685
    -2.3249  -2.2718  -2.2398  -2.2384  -2.1215  -2.0482  -1.9358  -1.8914
    -1.8868  -1.8792  -1.8695  -1.7398  -1.7351  -1.7219  -1.6092  -1.5948
    -1.5488  -1.5474  -1.4375  -1.4241  -1.2162  -1.0406  -1.0032  -0.9998
    -0.7722  -0.7417  -0.5636  -0.4227  -0.3446  -0.0431   0.0097   0.0466
     0.2126   0.6850   0.8659   1.0131   1.0523   1.3355   1.4112   1.6624
     1.7946   2.1420   2.1522   2.3901   2.6539   2.7639   2.8782   3.0023
     3.2109   3.4905

          k = 0.0643 0.1018 0.0000 ( 28952 PWs)   bands (ev):

   -60.2881 -60.1903 -60.1311 -60.1002 -60.0349 -60.0046 -34.7758 -34.6936
   -34.6759 -34.4618 -34.4415 -34.3558 -34.2587 -34.2455 -34.1735 -34.1605
   -34.1582 -34.0868 -34.0765 -33.9784 -33.7647 -33.7492 -33.7460 -33.6813
    -4.5322  -4.0687  -3.9854  -3.2482  -3.0555  -2.9376  -2.8898  -2.8548
    -2.7793  -2.7217  -2.7209  -2.6838  -2.6832  -2.6030  -2.4267  -2.3953
    -2.3546  -2.3355  -2.1883  -2.1447  -2.1332  -2.0631  -1.9707  -1.9631
    -1.9553  -1.8864  -1.8855  -1.7327  -1.7291  -1.7026  -1.6271  -1.6248
    -1.5763  -1.5531  -1.4466  -1.4418  -1.2217  -1.1064  -1.0642  -1.0432
    -0.7722  -0.7341  -0.5991  -0.4611  -0.3268  -0.0663  -0.0408   0.0280
     0.1944   0.6984   0.8826   1.0121   1.0345   1.3451   1.4419   1.6805
     1.7944   2.1340   2.1383   2.3137   2.5793   2.7756   2.8735   2.9877
     3.1462   3.5273

          k = 0.0643 0.1188 0.0000 ( 28962 PWs)   bands (ev):

   -60.2881 -60.1904 -60.1310 -60.1002 -60.0350 -60.0047 -34.7757 -34.6936
   -34.6760 -34.4618 -34.4414 -34.3553 -34.2592 -34.2456 -34.1734 -34.1605
   -34.1584 -34.0867 -34.0763 -33.9784 -33.7647 -33.7492 -33.7460 -33.6813
    -4.6999  -4.0723  -3.8752  -3.2935  -3.1461  -3.0085  -2.9885  -2.8346
    -2.7769  -2.7523  -2.7404  -2.6898  -2.6624  -2.6020  -2.4406  -2.3685
    -2.3249  -2.2718  -2.2398  -2.2385  -2.1215  -2.0483  -1.9358  -1.8915
    -1.8868  -1.8792  -1.8695  -1.7398  -1.7351  -1.7220  -1.6092  -1.5949
    -1.5488  -1.5475  -1.4375  -1.4241  -1.2161  -1.0405  -1.0032  -1.0001
    -0.7723  -0.7417  -0.5636  -0.4227  -0.3445  -0.0432   0.0099   0.0467
     0.2125   0.6851   0.8659   1.0131   1.0523   1.3355   1.4112   1.6625
     1.7944   2.1420   2.1520   2.3902   2.6539   2.7639   2.8781   3.0024
     3.2106   3.4904

          k = 0.0643-0.0679 0.0000 ( 28971 PWs)   bands (ev):

   -60.2881 -60.1904 -60.1311 -60.1002 -60.0350 -60.0048 -34.7754 -34.6933
   -34.6761 -34.4618 -34.4414 -34.3538 -34.2602 -34.2458 -34.1732 -34.1605
   -34.1589 -34.0866 -34.0756 -33.9784 -33.7648 -33.7492 -33.7460 -33.6812
    -4.9915  -4.0801  -3.7740  -3.3983  -3.3462  -3.1276  -3.0713  -2.8927
    -2.8851  -2.8151  -2.7762  -2.7737  -2.5987  -2.4991  -2.4347  -2.3732
    -2.3305  -2.3145  -2.2432  -2.1671  -2.1247  -2.0801  -1.8795  -1.8755
    -1.8542  -1.7864  -1.7692  -1.7584  -1.7443  -1.7236  -1.5434  -1.5391
    -1.5018  -1.4636  -1.4149  -1.3691  -1.2024  -0.9721  -0.8979  -0.8212
    -0.8126  -0.5860  -0.4469  -0.3957  -0.3498   0.0318   0.0940   0.1508
     0.2823   0.6181   0.8556   1.0053   1.1153   1.3111   1.3383   1.6140
     1.8007   2.1428   2.1942   2.4939   2.7314   2.8667   2.8865   3.0955
     3.3893   3.4248

          k = 0.0643-0.0509 0.0000 ( 28939 PWs)   bands (ev):

   -60.2881 -60.1903 -60.1310 -60.1001 -60.0350 -60.0047 -34.7749 -34.6930
   -34.6763 -34.4617 -34.4412 -34.3517 -34.2616 -34.2460 -34.1730 -34.1604
   -34.1596 -34.0865 -34.0748 -33.9785 -33.7649 -33.7492 -33.7460 -33.6811
    -5.2647  -4.0863  -3.8113  -3.5416  -3.5098  -3.2376  -3.1295  -3.0020
    -2.9320  -2.9286  -2.8536  -2.8104  -2.5889  -2.5196  -2.4462  -2.3256
    -2.3105  -2.2673  -2.2543  -2.2056  -2.1149  -2.0640  -1.8568  -1.8384
    -1.8126  -1.7781  -1.7528  -1.7335  -1.6932  -1.6931  -1.5320  -1.4318
    -1.4072  -1.3588  -1.3316  -1.2933  -1.1829  -0.9478  -0.8974  -0.6669
    -0.6605  -0.4320  -0.3112  -0.2906  -0.2003   0.1623   0.1749   0.3619
     0.4135   0.5097   0.8808   0.9717   1.2061   1.2447   1.2812   1.5601
     1.8104   2.1193   2.2154   2.5635   2.6685   2.8916   3.0247   3.2565
     3.3595   3.6520

          k = 0.0643-0.0339 0.0000 ( 28956 PWs)   bands (ev):

   -60.2881 -60.1903 -60.1311 -60.1001 -60.0350 -60.0048 -34.7744 -34.6927
   -34.6764 -34.4617 -34.4411 -34.3497 -34.2630 -34.2463 -34.1728 -34.1603
   -34.1603 -34.0863 -34.0739 -33.9786 -33.7649 -33.7492 -33.7460 -33.6811
    -5.4772  -4.0867  -3.9213  -3.6848  -3.5981  -3.3347  -3.1723  -3.0984
    -3.0038  -2.9550  -2.9322  -2.8386  -2.6744  -2.5541  -2.4513  -2.3222
    -2.3212  -2.2507  -2.2240  -2.1687  -2.0836  -2.0777  -1.8602  -1.8119
    -1.7979  -1.7760  -1.7198  -1.6971  -1.6690  -1.6604  -1.5267  -1.3849
    -1.3526  -1.2602  -1.2553  -1.1507  -1.1209  -0.9052  -0.8995  -0.5693
    -0.5118  -0.4302  -0.2930  -0.0313   0.1787   0.2608   0.3645   0.3983
     0.5746   0.6637   0.9155   0.9482   1.1173   1.2431   1.3263   1.5220
     1.8105   2.0601   2.2103   2.5267   2.6063   2.8924   3.0963   3.1303
     3.4615   3.5788

          k = 0.0643-0.0170 0.0000 ( 28947 PWs)   bands (ev):

   -60.2882 -60.1902 -60.1311 -60.1001 -60.0350 -60.0049 -34.7741 -34.6924
   -34.6766 -34.4616 -34.4410 -34.3481 -34.2641 -34.2465 -34.1726 -34.1608
   -34.1603 -34.0862 -34.0733 -33.9787 -33.7650 -33.7492 -33.7460 -33.6810
    -5.6107  -4.0828  -4.0142  -3.7723  -3.6525  -3.4049  -3.2020  -3.1565
    -3.0427  -2.9936  -2.9691  -2.8544  -2.7278  -2.6213  -2.4673  -2.3261
    -2.3258  -2.2200  -2.1917  -2.1511  -2.1155  -2.0410  -1.8627  -1.8270
    -1.7882  -1.7375  -1.6952  -1.6787  -1.6668  -1.6452  -1.5257  -1.3755
    -1.3067  -1.2304  -1.2243  -1.0769  -0.9955  -0.8850  -0.8040  -0.5189
    -0.5107  -0.3271  -0.2882   0.1511   0.2813   0.4264   0.4316   0.5634
     0.6673   0.9151   1.0128   1.0356   1.0659   1.2541   1.4264   1.4684
     1.7620   2.0435   2.1986   2.2596   2.6274   2.8739   2.9333   3.0631
     3.1355   3.4132

          k = 0.0643 0.0000 0.0000 ( 28951 PWs)   bands (ev):

   -60.2883 -60.1902 -60.1311 -60.1001 -60.0350 -60.0048 -34.7740 -34.6923
   -34.6766 -34.4616 -34.4410 -34.3476 -34.2644 -34.2466 -34.1726 -34.1610
   -34.1603 -34.0862 -34.0730 -33.9787 -33.7650 -33.7492 -33.7460 -33.6810
    -5.6561  -4.0804  -4.0486  -3.8021  -3.6707  -3.4309  -3.2127  -3.1752
    -3.0519  -3.0192  -2.9743  -2.8591  -2.7438  -2.6529  -2.4742  -2.3288
    -2.3233  -2.2066  -2.1767  -2.1505  -2.1324  -2.0256  -1.8630  -1.8348
    -1.7885  -1.7004  -1.6891  -1.6875  -1.6688  -1.6422  -1.5258  -1.3727
    -1.2922  -1.2276  -1.2127  -1.0616  -0.9335  -0.8773  -0.7471  -0.5346
    -0.4892  -0.2916  -0.2782   0.1993   0.2489   0.4918   0.5585   0.6110
     0.6773   0.9272   1.0074   1.0841   1.2584   1.3153   1.4710   1.4713
     1.7132   2.0392   2.1586   2.1930   2.5196   2.6335   2.9088   3.0103
     3.1502   3.3938

          k = 0.0643 0.0170 0.0000 ( 28947 PWs)   bands (ev):

   -60.2882 -60.1902 -60.1311 -60.1001 -60.0350 -60.0049 -34.7741 -34.6924
   -34.6766 -34.4616 -34.4410 -34.3481 -34.2641 -34.2465 -34.1726 -34.1608
   -34.1603 -34.0862 -34.0733 -33.9787 -33.7650 -33.7492 -33.7460 -33.6810
    -5.6107  -4.0828  -4.0142  -3.7724  -3.6525  -3.4049  -3.2020  -3.1566
    -3.0428  -2.9936  -2.9691  -2.8544  -2.7278  -2.6213  -2.4673  -2.3261
    -2.3258  -2.2201  -2.1917  -2.1510  -2.1154  -2.0409  -1.8628  -1.8270
    -1.7882  -1.7374  -1.6952  -1.6788  -1.6668  -1.6452  -1.5257  -1.3755
    -1.3067  -1.2303  -1.2244  -1.0769  -0.9955  -0.8850  -0.8041  -0.5190
    -0.5107  -0.3271  -0.2882   0.1511   0.2812   0.4263   0.4317   0.5637
     0.6672   0.9152   1.0129   1.0355   1.0655   1.2540   1.4264   1.4686
     1.7623   2.0435   2.1987   2.2595   2.6274   2.8739   2.9335   3.0631
     3.1357   3.4131

          k = 0.0804 0.0424 0.0000 ( 28943 PWs)   bands (ev):

   -60.2647 -60.2140 -60.1081 -60.0773 -60.0584 -60.0279 -34.7511 -34.7003
   -34.5255 -34.3292 -34.2971 -34.2843 -34.2779 -34.2273 -34.1808 -34.1579
   -34.1487 -34.1392 -34.1073 -34.0949 -33.9344 -33.9182 -33.7360 -33.6987
    -5.0638  -4.2839  -3.6391  -3.4393  -3.4299  -3.2965  -3.0198  -2.9680
    -2.9216  -2.8737  -2.8346  -2.7262  -2.5661  -2.4744  -2.4519  -2.4149
    -2.3533  -2.2205  -2.2009  -2.1351  -2.1004  -2.0553  -1.8679  -1.8529
    -1.8283  -1.8009  -1.7821  -1.7586  -1.7167  -1.6900  -1.6284  -1.6143
    -1.5524  -1.4721  -1.2619  -1.2330  -0.9860  -0.9606  -0.8519  -0.6383
    -0.4878  -0.1261  -0.1000   0.0031   0.1408   0.3706   0.3925   0.4559
     0.5043   0.5565   0.7163   0.8665   1.0272   1.1011   1.1475   1.2351
     1.4127   1.8067   2.1623   2.3035   2.4600   2.5131   2.7447   2.9417
     3.4035   3.6925

          k = 0.0804 0.0594 0.0000 ( 28931 PWs)   bands (ev):

   -60.2646 -60.2141 -60.1080 -60.0773 -60.0584 -60.0279 -34.7515 -34.7001
   -34.5258 -34.3311 -34.2971 -34.2828 -34.2779 -34.2271 -34.1809 -34.1581
   -34.1484 -34.1385 -34.1074 -34.0958 -33.9343 -33.9182 -33.7360 -33.6987
    -4.8485  -4.3788  -3.5849  -3.3886  -3.3378  -3.2076  -2.9879  -2.8833
    -2.8739  -2.8455  -2.7615  -2.7276  -2.5550  -2.5390  -2.4519  -2.4090
    -2.3845  -2.2482  -2.1422  -2.1142  -2.1051  -2.0509  -1.9131  -1.8648
    -1.8552  -1.8199  -1.8154  -1.7597  -1.7304  -1.7038  -1.6774  -1.6171
    -1.5703  -1.4898  -1.3702  -1.3468  -0.9821  -0.9444  -0.7768  -0.7673
    -0.5778  -0.3868  -0.2236  -0.0842   0.1199   0.2600   0.3121   0.3835
     0.4738   0.6180   0.8204   0.9549   0.9932   1.0997   1.1082   1.2387
     1.4395   1.8260   2.0837   2.4162   2.4300   2.6142   2.7604   2.8658
     3.3338   3.5142

          k = 0.0804 0.0764 0.0000 ( 28945 PWs)   bands (ev):

   -60.2646 -60.2141 -60.1081 -60.0773 -60.0583 -60.0279 -34.7518 -34.6999
   -34.5260 -34.3328 -34.2971 -34.2813 -34.2781 -34.2269 -34.1810 -34.1584
   -34.1482 -34.1379 -34.1075 -34.0965 -33.9343 -33.9182 -33.7360 -33.6988
    -4.5980  -4.4484  -3.6273  -3.3418  -3.2133  -3.1165  -2.9517  -2.8601
    -2.8159  -2.7896  -2.7388  -2.6498  -2.6202  -2.6144  -2.4759  -2.4039
    -2.3035  -2.2515  -2.1507  -2.1243  -2.1239  -1.9966  -1.9797  -1.9239
    -1.8852  -1.8587  -1.8426  -1.7668  -1.7514  -1.7399  -1.6911  -1.6254
    -1.5868  -1.5115  -1.4989  -1.4147  -0.9412  -0.9039  -0.8897  -0.7481
    -0.5891  -0.5418  -0.3628  -0.0822   0.1334   0.1532   0.1848   0.2929
     0.5088   0.7626   0.7982   1.0267   1.0764   1.1002   1.1330   1.2306
     1.4871   1.8228   1.9614   2.2852   2.5166   2.6944   2.6970   2.7805
     3.0570   3.2124

          k = 0.0804 0.0933 0.0000 ( 28926 PWs)   bands (ev):

   -60.2646 -60.2141 -60.1081 -60.0773 -60.0583 -60.0278 -34.7520 -34.6997
   -34.5261 -34.3338 -34.2972 -34.2804 -34.2781 -34.2267 -34.1811 -34.1585
   -34.1480 -34.1375 -34.1075 -34.0969 -33.9343 -33.9182 -33.7359 -33.6988
    -4.4850  -4.3811  -3.7475  -3.3091  -3.1153  -3.0387  -2.9250  -2.8387
    -2.7888  -2.7590  -2.7396  -2.6937  -2.6616  -2.5777  -2.4699  -2.3636
    -2.2718  -2.2221  -2.1571  -2.1503  -2.1485  -2.0460  -2.0056  -1.9725
    -1.9403  -1.8642  -1.8604  -1.8049  -1.7466  -1.7433  -1.6776  -1.6330
    -1.6292  -1.5360  -1.5261  -1.4462  -0.9783  -0.8603  -0.8534  -0.7976
    -0.7323  -0.4267  -0.4021  -0.1454   0.0708   0.1452   0.1877   0.2292
     0.5462   0.6959   0.8935   1.0375   1.0652   1.1799   1.2176   1.2646
     1.5201   1.8159   1.8603   2.1880   2.4148   2.5753   2.6854   2.8205
     2.9636   3.0631

          k = 0.0804 0.1103 0.0000 ( 28926 PWs)   bands (ev):

   -60.2646 -60.2141 -60.1081 -60.0773 -60.0583 -60.0278 -34.7520 -34.6997
   -34.5261 -34.3338 -34.2972 -34.2804 -34.2781 -34.2267 -34.1811 -34.1585
   -34.1480 -34.1375 -34.1075 -34.0969 -33.9343 -33.9182 -33.7359 -33.6988
    -4.4850  -4.3811  -3.7475  -3.3091  -3.1153  -3.0386  -2.9249  -2.8387
    -2.7888  -2.7590  -2.7395  -2.6937  -2.6616  -2.5777  -2.4699  -2.3636
    -2.2718  -2.2221  -2.1571  -2.1503  -2.1485  -2.0461  -2.0056  -1.9725
    -1.9403  -1.8642  -1.8604  -1.8049  -1.7466  -1.7433  -1.6776  -1.6330
    -1.6292  -1.5360  -1.5261  -1.4462  -0.9784  -0.8603  -0.8535  -0.7976
    -0.7322  -0.4266  -0.4022  -0.1453   0.0709   0.1452   0.1878   0.2292
     0.5462   0.6958   0.8935   1.0375   1.0653   1.1798   1.2177   1.2646
     1.5201   1.8159   1.8601   2.1881   2.4148   2.5751   2.6854   2.8205
     2.9636   3.0630

          k = 0.0804 0.1273 0.0000 ( 28945 PWs)   bands (ev):

   -60.2646 -60.2141 -60.1081 -60.0773 -60.0583 -60.0279 -34.7518 -34.6999
   -34.5260 -34.3328 -34.2971 -34.2813 -34.2781 -34.2269 -34.1810 -34.1584
   -34.1482 -34.1379 -34.1075 -34.0965 -33.9343 -33.9182 -33.7360 -33.6988
    -4.5980  -4.4484  -3.6273  -3.3418  -3.2132  -3.1164  -2.9517  -2.8601
    -2.8159  -2.7896  -2.7388  -2.6498  -2.6203  -2.6144  -2.4759  -2.4039
    -2.3035  -2.2515  -2.1507  -2.1244  -2.1240  -1.9967  -1.9797  -1.9239
    -1.8852  -1.8587  -1.8426  -1.7668  -1.7514  -1.7399  -1.6911  -1.6254
    -1.5868  -1.5115  -1.4989  -1.4147  -0.9415  -0.9039  -0.8897  -0.7481
    -0.5890  -0.5420  -0.3628  -0.0821   0.1335   0.1532   0.1850   0.2930
     0.5087   0.7626   0.7981   1.0267   1.0764   1.1004   1.1330   1.2306
     1.4870   1.8229   1.9613   2.2853   2.5162   2.6944   2.6968   2.7805
     3.0570   3.2122

          k = 0.0804-0.0594 0.0000 ( 28931 PWs)   bands (ev):

   -60.2646 -60.2141 -60.1080 -60.0773 -60.0584 -60.0279 -34.7515 -34.7001
   -34.5258 -34.3311 -34.2971 -34.2828 -34.2779 -34.2271 -34.1809 -34.1581
   -34.1484 -34.1385 -34.1074 -34.0958 -33.9343 -33.9182 -33.7360 -33.6987
    -4.8485  -4.3788  -3.5849  -3.3887  -3.3378  -3.2075  -2.9879  -2.8832
    -2.8739  -2.8454  -2.7615  -2.7275  -2.5550  -2.5391  -2.4520  -2.4090
    -2.3845  -2.2482  -2.1422  -2.1142  -2.1051  -2.0510  -1.9131  -1.8648
    -1.8553  -1.8198  -1.8153  -1.7598  -1.7304  -1.7038  -1.6774  -1.6172
    -1.5703  -1.4898  -1.3701  -1.3469  -0.9822  -0.9443  -0.7768  -0.7673
    -0.5778  -0.3868  -0.2235  -0.0841   0.1200   0.2600   0.3123   0.3835
     0.4737   0.6181   0.8203   0.9548   0.9932   1.0999   1.1083   1.2386
     1.4395   1.8261   2.0836   2.4163   2.4296   2.6142   2.7604   2.8654
     3.3339   3.5144

          k = 0.0804-0.0424 0.0000 ( 28943 PWs)   bands (ev):

   -60.2647 -60.2140 -60.1081 -60.0773 -60.0584 -60.0279 -34.7511 -34.7003
   -34.5255 -34.3292 -34.2971 -34.2843 -34.2779 -34.2273 -34.1808 -34.1579
   -34.1487 -34.1392 -34.1073 -34.0949 -33.9344 -33.9182 -33.7360 -33.6987
    -5.0638  -4.2839  -3.6390  -3.4392  -3.4299  -3.2964  -3.0198  -2.9679
    -2.9215  -2.8736  -2.8347  -2.7262  -2.5660  -2.4744  -2.4519  -2.4149
    -2.3533  -2.2204  -2.2009  -2.1352  -2.1005  -2.0553  -1.8680  -1.8528
    -1.8284  -1.8008  -1.7821  -1.7586  -1.7167  -1.6900  -1.6284  -1.6144
    -1.5524  -1.4722  -1.2619  -1.2331  -0.9861  -0.9606  -0.8519  -0.6383
    -0.4878  -0.1261  -0.0999   0.0031   0.1409   0.3707   0.3923   0.4562
     0.5042   0.5564   0.7162   0.8666   1.0273   1.1013   1.1476   1.2349
     1.4126   1.8068   2.1621   2.3032   2.4600   2.5132   2.7447   2.9414
     3.4038   3.6930

          k = 0.0804-0.0255 0.0000 ( 28915 PWs)   bands (ev):

   -60.2648 -60.2140 -60.1080 -60.0772 -60.0583 -60.0280 -34.7507 -34.7005
   -34.5252 -34.3274 -34.2970 -34.2857 -34.2778 -34.2276 -34.1807 -34.1577
   -34.1490 -34.1397 -34.1073 -34.0942 -33.9344 -33.9183 -33.7361 -33.6986
    -5.2177  -4.1805  -3.7159  -3.5074  -3.4573  -3.3870  -3.0491  -3.0465
    -2.9654  -2.8885  -2.8659  -2.7282  -2.5985  -2.5055  -2.4445  -2.3847
    -2.3269  -2.2604  -2.1714  -2.1337  -2.0743  -2.0726  -1.8822  -1.8558
    -1.7978  -1.7837  -1.7620  -1.7519  -1.7021  -1.6936  -1.6153  -1.5914
    -1.5429  -1.4617  -1.1968  -1.1866  -1.0150  -0.8795  -0.8411  -0.5228
    -0.3866  -0.0860   0.1151   0.1624   0.2865   0.3205   0.3906   0.4082
     0.6269   0.6619   0.7091   0.9189   1.0381   1.0833   1.2039   1.2291
     1.4569   1.7288   2.1544   2.2085   2.2465   2.5703   2.7084   2.9973
     3.0656   3.2957

          k = 0.0804-0.0085 0.0000 ( 28927 PWs)   bands (ev):

   -60.2648 -60.2139 -60.1081 -60.0772 -60.0583 -60.0280 -34.7505 -34.7007
   -34.5250 -34.3264 -34.2970 -34.2864 -34.2778 -34.2277 -34.1806 -34.1575
   -34.1492 -34.1400 -34.1073 -34.0937 -33.9344 -33.9183 -33.7361 -33.6986
    -5.2974  -4.1036  -3.7634  -3.5427  -3.4813  -3.4471  -3.0889  -3.0617
    -2.9826  -2.9238  -2.8597  -2.7296  -2.5978  -2.5576  -2.4610  -2.3601
    -2.3407  -2.2496  -2.1575  -2.0981  -2.0950  -2.0582  -1.9021  -1.8727
    -1.7735  -1.7706  -1.7605  -1.7439  -1.7024  -1.6923  -1.6146  -1.5728
    -1.5463  -1.4581  -1.1800  -1.1645  -1.0220  -0.8864  -0.7505  -0.4159
    -0.3094  -0.0748   0.1740   0.1849   0.2414   0.3688   0.4288   0.5061
     0.6402   0.6816   0.8663   1.0379   1.0380   1.1660   1.2336   1.2430
     1.4074   1.7115   2.0620   2.1140   2.2334   2.4721   2.6003   2.6841
     3.0293   3.2352

          k = 0.0804 0.0085 0.0000 ( 28927 PWs)   bands (ev):

   -60.2648 -60.2139 -60.1081 -60.0772 -60.0583 -60.0280 -34.7505 -34.7007
   -34.5250 -34.3264 -34.2970 -34.2864 -34.2778 -34.2277 -34.1806 -34.1575
   -34.1492 -34.1400 -34.1073 -34.0937 -33.9344 -33.9183 -33.7361 -33.6986
    -5.2974  -4.1036  -3.7635  -3.5428  -3.4812  -3.4472  -3.0889  -3.0617
    -2.9826  -2.9237  -2.8597  -2.7296  -2.5978  -2.5576  -2.4610  -2.3601
    -2.3406  -2.2497  -2.1575  -2.0981  -2.0950  -2.0581  -1.9022  -1.8727
    -1.7735  -1.7705  -1.7605  -1.7439  -1.7023  -1.6923  -1.6146  -1.5728
    -1.5463  -1.4581  -1.1800  -1.1645  -1.0220  -0.8864  -0.7505  -0.4159
    -0.3095  -0.0748   0.1740   0.1849   0.2413   0.3689   0.4288   0.5061
     0.6402   0.6816   0.8662   1.0379   1.0379   1.1657   1.2336   1.2432
     1.4077   1.7115   2.0617   2.1142   2.2335   2.4722   2.6003   2.6842
     3.0294   3.2350

          k = 0.0804 0.0255 0.0000 ( 28915 PWs)   bands (ev):

   -60.2648 -60.2140 -60.1080 -60.0772 -60.0583 -60.0280 -34.7507 -34.7005
   -34.5252 -34.3274 -34.2970 -34.2857 -34.2778 -34.2276 -34.1807 -34.1577
   -34.1490 -34.1397 -34.1073 -34.0942 -33.9344 -33.9183 -33.7361 -33.6986
    -5.2177  -4.1805  -3.7159  -3.5075  -3.4572  -3.3870  -3.0491  -3.0465
    -2.9654  -2.8884  -2.8660  -2.7283  -2.5985  -2.5056  -2.4445  -2.3846
    -2.3269  -2.2604  -2.1714  -2.1336  -2.0743  -2.0725  -1.8822  -1.8558
    -1.7977  -1.7837  -1.7620  -1.7520  -1.7020  -1.6936  -1.6152  -1.5914
    -1.5429  -1.4617  -1.1968  -1.1866  -1.0150  -0.8794  -0.8411  -0.5229
    -0.3867  -0.0860   0.1151   0.1624   0.2864   0.3204   0.3906   0.4082
     0.6270   0.6619   0.7092   0.9186   1.0379   1.0830   1.2039   1.2294
     1.4571   1.7288   2.1544   2.2088   2.2466   2.5703   2.7085   2.9976
     3.0656   3.2954

          k =-0.0965-0.0509 0.0000 ( 28930 PWs)   bands (ev):

   -60.2395 -60.2394 -60.0835 -60.0831 -60.0528 -60.0525 -34.7258 -34.7257
   -34.3434 -34.3434 -34.3069 -34.3068 -34.2024 -34.2021 -34.1302 -34.1298
   -34.1181 -34.1181 -34.1166 -34.1165 -34.0996 -34.0993 -33.7175 -33.7173
    -4.6410  -4.6410  -3.4457  -3.4456  -3.2963  -3.2963  -2.9179  -2.9179
    -2.8660  -2.8660  -2.7253  -2.7253  -2.5256  -2.5256  -2.4895  -2.4895
    -2.3092  -2.3092  -2.0789  -2.0788  -2.0400  -2.0399  -1.8775  -1.8774
    -1.8570  -1.8569  -1.8109  -1.8109  -1.7714  -1.7714  -1.6680  -1.6679
    -1.5612  -1.5612  -1.2772  -1.2771  -0.9773  -0.9772  -0.7478  -0.7478
    -0.3316  -0.3316  -0.0303  -0.0302   0.3801   0.3801   0.4912   0.4913
     0.7326   0.7326   0.8105   0.8107   0.8940   0.8940   1.0986   1.0987
     1.2520   1.2520   2.1275   2.1275   2.4821   2.4822   2.7346   2.7347
     3.5947   3.5947

          k =-0.0965-0.0339 0.0000 ( 28933 PWs)   bands (ev):

   -60.2395 -60.2393 -60.0835 -60.0831 -60.0528 -60.0525 -34.7261 -34.7255
   -34.3437 -34.3432 -34.3086 -34.3051 -34.2024 -34.2020 -34.1302 -34.1298
   -34.1186 -34.1178 -34.1169 -34.1160 -34.0996 -34.0993 -33.7176 -33.7173
    -4.7872  -4.4583  -3.4705  -3.4562  -3.2918  -3.2876  -2.9331  -2.9188
    -2.9097  -2.8250  -2.7934  -2.6505  -2.5442  -2.5101  -2.4954  -2.4923
    -2.3167  -2.2641  -2.1403  -2.0594  -2.0533  -2.0192  -1.8814  -1.8791
    -1.8633  -1.8550  -1.8309  -1.7968  -1.7763  -1.7714  -1.6743  -1.6633
    -1.5865  -1.5439  -1.3410  -1.2830  -0.9865  -0.8739  -0.8376  -0.6366
    -0.3868  -0.2296  -0.1584   0.1286   0.3116   0.3903   0.4117   0.5777
     0.6822   0.7504   0.7940   0.8263   0.9709   0.9816   1.0538   1.1573
     1.2510   1.2520   1.9469   2.2631   2.3106   2.5789   2.7089   2.7431
     3.2366   3.5072

          k =-0.0965-0.0170 0.0000 ( 28928 PWs)   bands (ev):

   -60.2396 -60.2393 -60.0834 -60.0831 -60.0528 -60.0525 -34.7263 -34.7252
   -34.3438 -34.3430 -34.3098 -34.3038 -34.2025 -34.2020 -34.1302 -34.1298
   -34.1190 -34.1177 -34.1170 -34.1155 -34.0997 -34.0993 -33.7176 -33.7173
    -4.8804  -4.2751  -3.5378  -3.4923  -3.2779  -3.2650  -2.9800  -2.9224
    -2.9148  -2.8299  -2.7930  -2.6074  -2.5597  -2.5457  -2.4720  -2.4652
    -2.3422  -2.1927  -2.1899  -2.0723  -2.0640  -1.9972  -1.9086  -1.8835
    -1.8810  -1.8546  -1.8428  -1.7872  -1.7868  -1.7686  -1.6710  -1.6672
    -1.6067  -1.5443  -1.4142  -1.3034  -0.9466  -0.8841  -0.7776  -0.5307
    -0.4090  -0.2365  -0.0901   0.1880   0.2350   0.3720   0.4017   0.6441
     0.6705   0.7521   0.7798   0.8629   0.9684   1.0557   1.1885   1.2409
     1.2445   1.3241   1.7261   2.1192   2.3590   2.5756   2.6253   2.7341
     2.8037   3.2508

          k =-0.0965 0.0000 0.0000 ( 28926 PWs)   bands (ev):

   -60.2396 -60.2393 -60.0834 -60.0831 -60.0528 -60.0525 -34.7264 -34.7251
   -34.3439 -34.3429 -34.3103 -34.3033 -34.2026 -34.2019 -34.1302 -34.1298
   -34.1192 -34.1176 -34.1171 -34.1154 -34.0997 -34.0993 -33.7176 -33.7173
    -4.9122  -4.1828  -3.6012  -3.5002  -3.2733  -3.2485  -2.9986  -2.9241
    -2.9135  -2.8430  -2.7790  -2.5940  -2.5657  -2.5639  -2.4538  -2.4251
    -2.3994  -2.1985  -2.1548  -2.0831  -2.0575  -1.9904  -1.9431  -1.8909
    -1.8840  -1.8545  -1.8440  -1.7928  -1.7814  -1.7671  -1.6788  -1.6559
    -1.6136  -1.5547  -1.4375  -1.3107  -0.9353  -0.8883  -0.7452  -0.4801
    -0.4133  -0.2633   0.0400   0.0845   0.2034   0.3618   0.4595   0.6705
     0.7143   0.7226   0.7750   0.8012   1.0868   1.0933   1.2071   1.2203
     1.2318   1.4869   1.5960   2.1470   2.2266   2.3972   2.6413   2.7213
     2.7389   3.1789

          k =-0.0965 0.0170 0.0000 ( 28928 PWs)   bands (ev):

   -60.2396 -60.2393 -60.0834 -60.0831 -60.0528 -60.0525 -34.7263 -34.7252
   -34.3438 -34.3430 -34.3098 -34.3038 -34.2025 -34.2020 -34.1302 -34.1298
   -34.1190 -34.1177 -34.1170 -34.1155 -34.0997 -34.0993 -33.7176 -33.7173
    -4.8804  -4.2751  -3.5379  -3.4923  -3.2778  -3.2650  -2.9799  -2.9224
    -2.9148  -2.8299  -2.7929  -2.6074  -2.5597  -2.5457  -2.4720  -2.4652
    -2.3422  -2.1927  -2.1900  -2.0723  -2.0641  -1.9972  -1.9086  -1.8836
    -1.8810  -1.8546  -1.8428  -1.7872  -1.7868  -1.7686  -1.6710  -1.6672
    -1.6067  -1.5443  -1.4142  -1.3034  -0.9467  -0.8841  -0.7776  -0.5307
    -0.4089  -0.2365  -0.0902   0.1881   0.2350   0.3720   0.4017   0.6440
     0.6705   0.7520   0.7798   0.8628   0.9685   1.0557   1.1885   1.2410
     1.2447   1.3242   1.7260   2.1193   2.3588   2.5756   2.6253   2.7340
     2.8036   3.2508

          k =-0.0965 0.0339 0.0000 ( 28933 PWs)   bands (ev):

   -60.2395 -60.2393 -60.0835 -60.0831 -60.0528 -60.0525 -34.7261 -34.7255
   -34.3437 -34.3432 -34.3086 -34.3051 -34.2024 -34.2020 -34.1302 -34.1298
   -34.1186 -34.1178 -34.1169 -34.1160 -34.0996 -34.0993 -33.7176 -33.7173
    -4.7872  -4.4583  -3.4704  -3.4562  -3.2917  -3.2875  -2.9331  -2.9189
    -2.9097  -2.8249  -2.7935  -2.6504  -2.5442  -2.5102  -2.4954  -2.4923
    -2.3168  -2.2641  -2.1404  -2.0595  -2.0533  -2.0193  -1.8815  -1.8792
    -1.8633  -1.8550  -1.8308  -1.7967  -1.7763  -1.7715  -1.6744  -1.6633
    -1.5865  -1.5439  -1.3410  -1.2831  -0.9867  -0.8738  -0.8376  -0.6366
    -0.3867  -0.2296  -0.1584   0.1287   0.3117   0.3903   0.4116   0.5776
     0.6821   0.7504   0.7940   0.8263   0.9709   0.9815   1.0539   1.1573
     1.2511   1.2521   1.9467   2.2627   2.3106   2.5789   2.7087   2.7429
     3.2367   3.4841

          k =-0.0965-0.1527 0.0000 ( 28930 PWs)   bands (ev):

   -60.2395 -60.2394 -60.0835 -60.0831 -60.0528 -60.0525 -34.7258 -34.7257
   -34.3434 -34.3434 -34.3069 -34.3068 -34.2024 -34.2021 -34.1302 -34.1298
   -34.1181 -34.1181 -34.1166 -34.1165 -34.0996 -34.0993 -33.7175 -33.7173
    -4.6410  -4.6410  -3.4457  -3.4456  -3.2962  -3.2962  -2.9180  -2.9179
    -2.8659  -2.8659  -2.7253  -2.7253  -2.5257  -2.5257  -2.4895  -2.4895
    -2.3093  -2.3092  -2.0789  -2.0789  -2.0400  -2.0400  -1.8775  -1.8774
    -1.8570  -1.8569  -1.8108  -1.8108  -1.7714  -1.7714  -1.6680  -1.6680
    -1.5612  -1.5612  -1.2772  -1.2772  -0.9774  -0.9773  -0.7478  -0.7478
    -0.3316  -0.3315  -0.0302  -0.0301   0.3802   0.3803   0.4911   0.4912
     0.7326   0.7326   0.8105   0.8108   0.8939   0.8940   1.0986   1.0987
     1.2521   1.2521   2.1273   2.1273   2.4821   2.4822   2.7344   2.7345
     3.5949   3.5950

     the Fermi energy is     0.9613 ev

!    total energy              =   -1584.68516933 Ry
     estimated scf accuracy    <       0.00000613 Ry
     smearing contrib. (-TS)   =      -0.05713508 Ry
     internal energy E=F+TS    =   -1584.62803425 Ry

     The total energy is F=E-TS. E is the sum of the following terms:
     one-electron contribution =  -13397.36636428 Ry
     hartree contribution      =    6765.18285646 Ry
     xc contribution           =    -396.15107991 Ry
     ewald contribution        =    5443.70655335 Ry
     electric field correction =       0.00000012 Ry

     convergence has been achieved in  15 iterations

     negative rho (up, down):  5.003E-04 0.000E+00

     Forces acting on atoms (cartesian axes, Ry/au):

     atom    1 type  1   force =     0.00001044   -0.00002316   -0.00439552
     atom    2 type  1   force =    -0.00001099   -0.00003630   -0.00438646
     atom    3 type  2   force =    -0.00001601   -0.00370229    0.00947086
     atom    4 type  2   force =    -0.00001943   -0.00371714    0.00944130
     atom    5 type  1   force =     0.00000335    0.00493875   -0.00482924
     atom    6 type  1   force =    -0.00004646    0.00493486   -0.00483538
     atom    7 type  2   force =     0.00003828   -0.00221379   -0.00080977
     atom    8 type  2   force =     0.00003310   -0.00222979   -0.00083425
     atom    9 type  1   force =    -0.00003376    0.00087379    0.00038932
     atom   10 type  1   force =     0.00002296    0.00087170    0.00038637
     atom   11 type  2   force =     0.00001310    0.00015273    0.00020701
     atom   12 type  2   force =     0.00000542    0.00015064    0.00019577

     Total force =     0.018803     Total SCF correction =     0.007389
     SCF correction compared to forces is large: reduce conv_thr to get better values

     Writing output data file ./Cu2Mo2/Cu2Mo2_beef.save/

     init_run     :     80.00s CPU     80.62s WALL (       1 calls)
     electrons    :   2608.79s CPU   2630.30s WALL (       1 calls)
     forces       :     56.19s CPU     56.44s WALL (       1 calls)

     Called by init_run:
     wfcinit      :     68.98s CPU     69.37s WALL (       1 calls)
     potinit      :      7.60s CPU      7.73s WALL (       1 calls)
     hinit0       :      1.91s CPU      1.93s WALL (       1 calls)

     Called by electrons:
     c_bands      :   2282.43s CPU   2297.29s WALL (      15 calls)
     sum_band     :    296.23s CPU    300.09s WALL (      15 calls)
     v_of_rho     :     22.32s CPU     23.51s WALL (      16 calls)
     newd         :     14.22s CPU     15.80s WALL (      16 calls)
     mix_rho      :      0.54s CPU      0.56s WALL (      15 calls)
     vdW_kernel   :      5.76s CPU      5.78s WALL (       1 calls)

     Called by c_bands:
     init_us_2    :      9.08s CPU      9.19s WALL (    2368 calls)
     cegterg      :   2251.90s CPU   2264.70s WALL (    1110 calls)

     Called by *egterg:
     cdiaghg      :    104.82s CPU    104.97s WALL (    4787 calls)
     h_psi        :   1167.95s CPU   1178.28s WALL (    4861 calls)
     s_psi        :    333.17s CPU    333.76s WALL (    4861 calls)
     g_psi        :      0.86s CPU      0.88s WALL (    3677 calls)

     Called by h_psi:
     h_psi:calbec :    432.02s CPU    433.71s WALL (    4861 calls)
     vloc_psi     :    390.48s CPU    398.44s WALL (    4861 calls)
     add_vuspsi   :    341.52s CPU    342.13s WALL (    4861 calls)

     General routines
     calbec       :    668.42s CPU    670.97s WALL (    6267 calls)
     fft          :     12.32s CPU     12.86s WALL (    1067 calls)
     ffts         :      0.07s CPU      0.07s WALL (      31 calls)
     fftw         :    442.63s CPU    451.31s WALL (  563758 calls)
     interpolate  :      0.20s CPU      0.21s WALL (      16 calls)

     Parallel routines
     fft_scatt_xy :     31.03s CPU     31.34s WALL (  564856 calls)
     fft_scatt_yz :    141.88s CPU    146.98s WALL (  564856 calls)

     PWSCF        :  46m 3.82s CPU  46m50.80s WALL


   This run was terminated on:   0:23:34  11Jul2022            

=------------------------------------------------------------------------------=
   JOB DONE.
=------------------------------------------------------------------------------=
