
     Program PWSCF v.6.6 starts on 11Jul2022 at  0:23:37 

     This program is part of the open-source Quantum ESPRESSO suite
     for quantum simulation of materials; please cite
         "P. Giannozzi et al., J. Phys.:Condens. Matter 21 395502 (2009);
         "P. Giannozzi et al., J. Phys.:Condens. Matter 29 465901 (2017);
          URL http://www.quantum-espresso.org", 
     in publications or presentations arising from this work. More details at
     http://www.quantum-espresso.org/quote

     Parallel version (MPI), running on    37 processors

     MPI processes distributed on     1 nodes
     R & G space division:  proc/nbgrp/npool/nimage =      37
     Fft bands division:     nmany     =       1
     Reading input from Cu2Nb2.in
Warning: card &CELL ignored
Warning: card / ignored

     Current dimensions of program PWSCF are:
     Max number of different atomic species (ntypx) = 10
     Max number of k-points (npk) =  40000
     Max angular momentum in pseudopotentials (lmaxx) =  3
     Presently stress not available with electric field and gates

     Message from routine cell_base_init:
     DEPRECATED: use true lattice parameter, not A to a.u. conversion factor
     file Cu.pbe-dn-rrkjus_psl.1.0.0.UPF: wavefunction(s)  3D renormalized
     file Nb.pbe-spn-rrkjus_psl.1.0.0.UPF: wavefunction(s)  4S 4P renormalized

     **************************************************************************
     Initializing libbeef V0.1.2 with the BEEF-vdW functional.
     Citation: Wellendorff et al., PRB 85, 235149 (2012).
     **************************************************************************


     IMPORTANT: XC functional enforced from input :
     Exchange-correlation= BEEF-VDW
                           (   1   4  43  14   2   0   0)
     Any further DFT definition will be discarded
     Please, verify this is what you really want


     Subspace diagonalization in iterative solution of the eigenvalue problem:
     a serial algorithm will be used

     Found symmetry operation: I + ( -0.5000  0.0000  0.0000)
     This is a supercell, fractional translations are disabled

     Parallelization info
     --------------------
     sticks:   dense  smooth     PW     G-vecs:    dense   smooth      PW
     Min         113      45     13                26205     6623    1043
     Max         114      46     14                26226     6637    1056
     Sum        4195    1667    499               969921   245325   38789



     bravais-lattice index     =            0
     lattice parameter (alat)  =       1.8897  a.u.
     unit-cell volume          =    4438.7560 (a.u.)^3
     number of atoms/cell      =           12
     number of atomic types    =            2
     number of electrons       =       144.00
     number of Kohn-Sham states=           86
     kinetic-energy cutoff     =      55.1240  Ry
     charge density cutoff     =     551.2396  Ry
     convergence threshold     =      1.0E-05
     mixing beta               =       0.1000
     number of iterations used =           10  plain     mixing
     Exchange-correlation= BEEF-VDW
                           (   1   4  43  14   2   0   0)

     celldm(1)=   1.889726  celldm(2)=   0.000000  celldm(3)=   0.000000
     celldm(4)=   0.000000  celldm(5)=   0.000000  celldm(6)=   0.000000

     crystal axes: (cart. coord. in units of alat)
               a(1) = (   5.551549   0.000000   0.000000 )  
               a(2) = (  -2.775775   4.827678   0.000000 )  
               a(3) = (   0.000000   0.000000  24.542132 )  

     reciprocal axes: (cart. coord. in units 2 pi/alat)
               b(1) = (  0.180130  0.103569 -0.000000 )  
               b(2) = (  0.000000  0.207139  0.000000 )  
               b(3) = (  0.000000 -0.000000  0.040746 )  


     PseudoPot. # 1 for Cu read from file:
     ../pseudo/Cu.pbe-dn-rrkjus_psl.1.0.0.UPF
     MD5 check sum: 8469560995d0c2df1ffe68c099c04a63
     Pseudo is Ultrasoft + core correction, Zval = 11.0
     Generated using "atomic" code by A. Dal Corso v.6.3
     Using radial grid of 1199 points,  6 beta functions with: 
                l(1) =   0
                l(2) =   0
                l(3) =   1
                l(4) =   1
                l(5) =   2
                l(6) =   2
     Q(r) pseudized with 0 coefficients 


     PseudoPot. # 2 for Nb read from file:
     ../pseudo/Nb.pbe-spn-rrkjus_psl.1.0.0.UPF
     MD5 check sum: 6ee677a9f002bd3e3657f443f129faad
     Pseudo is Ultrasoft + core correction, Zval = 13.0
     Generated using "atomic" code by A. Dal Corso v.6.2.2
     Using radial grid of 1227 points,  6 beta functions with: 
                l(1) =   0
                l(2) =   0
                l(3) =   1
                l(4) =   1
                l(5) =   2
                l(6) =   2
     Q(r) pseudized with 0 coefficients 


     atomic species   valence    mass     pseudopotential
        Cu            11.00    63.54600     Cu( 1.00)
        Nb            13.00    92.90637     Nb( 1.00)

     No symmetry found



   Cartesian axes

     site n.     atom                  positions (alat units)
         1           Cu  tau(   1) = (   0.0000000   0.0000000  10.0000000  )
         2           Cu  tau(   2) = (   2.7757745   0.0000000  10.0000000  )
         3           Nb  tau(   3) = (   1.3878873   2.4138388  10.0000000  )
         4           Nb  tau(   4) = (  -1.3878873   2.4138388  10.0000000  )
         5           Cu  tau(   5) = (   2.7757745   1.5959898  12.2710660  )
         6           Cu  tau(   6) = (   0.0000000   1.5959898  12.2710660  )
         7           Nb  tau(   7) = (  -1.3878873   4.0098286  12.2710660  )
         8           Nb  tau(   8) = (   1.3878873   4.0098286  12.2710660  )
         9           Cu  tau(   9) = (  -0.0000102   3.1777768  14.5354038  )
        10           Cu  tau(  10) = (   2.7757904   3.1777647  14.5353980  )
        11           Nb  tau(  11) = (   4.1636597   0.7803715  14.4498051  )
        12           Nb  tau(  12) = (   1.3878871   0.7803816  14.4498034  )

     number of k points=    74  Fermi-Dirac smearing, width (Ry)=  0.0100
                       cart. coord. in units 2pi/alat
        k(    1) = (   0.0000000   0.0000000   0.0000000), wk =   0.0138889
        k(    2) = (   0.0000000   0.0172616   0.0000000), wk =   0.0277778
        k(    3) = (   0.0000000   0.0345232   0.0000000), wk =   0.0277778
        k(    4) = (   0.0000000   0.0517847   0.0000000), wk =   0.0277778
        k(    5) = (   0.0000000   0.0690463   0.0000000), wk =   0.0277778
        k(    6) = (   0.0000000   0.0863079   0.0000000), wk =   0.0277778
        k(    7) = (   0.0000000  -0.1035695   0.0000000), wk =   0.0138889
        k(    8) = (   0.0150108   0.0086308   0.0000000), wk =   0.0277778
        k(    9) = (   0.0150108   0.0258924   0.0000000), wk =   0.0277778
        k(   10) = (   0.0150108   0.0431539   0.0000000), wk =   0.0277778
        k(   11) = (   0.0150108   0.0604155   0.0000000), wk =   0.0277778
        k(   12) = (   0.0150108   0.0776771   0.0000000), wk =   0.0277778
        k(   13) = (   0.0150108   0.0949387   0.0000000), wk =   0.0277778
        k(   14) = (   0.0150108  -0.0949387   0.0000000), wk =   0.0277778
        k(   15) = (   0.0150108  -0.0776771   0.0000000), wk =   0.0277778
        k(   16) = (   0.0150108  -0.0604155   0.0000000), wk =   0.0277778
        k(   17) = (   0.0150108  -0.0431539   0.0000000), wk =   0.0277778
        k(   18) = (   0.0150108  -0.0258924   0.0000000), wk =   0.0277778
        k(   19) = (   0.0150108  -0.0086308   0.0000000), wk =   0.0277778
        k(   20) = (   0.0300217   0.0172616   0.0000000), wk =   0.0277778
        k(   21) = (   0.0300217   0.0345232   0.0000000), wk =   0.0277778
        k(   22) = (   0.0300217   0.0517847   0.0000000), wk =   0.0277778
        k(   23) = (   0.0300217   0.0690463   0.0000000), wk =   0.0277778
        k(   24) = (   0.0300217   0.0863079   0.0000000), wk =   0.0277778
        k(   25) = (   0.0300217   0.1035695   0.0000000), wk =   0.0277778
        k(   26) = (   0.0300217  -0.0863079   0.0000000), wk =   0.0277778
        k(   27) = (   0.0300217  -0.0690463   0.0000000), wk =   0.0277778
        k(   28) = (   0.0300217  -0.0517847   0.0000000), wk =   0.0277778
        k(   29) = (   0.0300217  -0.0345231   0.0000000), wk =   0.0277778
        k(   30) = (   0.0300217  -0.0172616   0.0000000), wk =   0.0277778
        k(   31) = (   0.0300217   0.0000000   0.0000000), wk =   0.0277778
        k(   32) = (   0.0450325   0.0258924   0.0000000), wk =   0.0277778
        k(   33) = (   0.0450325   0.0431539   0.0000000), wk =   0.0277778
        k(   34) = (   0.0450325   0.0604155   0.0000000), wk =   0.0277778
        k(   35) = (   0.0450325   0.0776771   0.0000000), wk =   0.0277778
        k(   36) = (   0.0450325   0.0949387   0.0000000), wk =   0.0277778
        k(   37) = (   0.0450325   0.1122003   0.0000000), wk =   0.0277778
        k(   38) = (   0.0450325  -0.0776771   0.0000000), wk =   0.0277778
        k(   39) = (   0.0450325  -0.0604155   0.0000000), wk =   0.0277778
        k(   40) = (   0.0450325  -0.0431539   0.0000000), wk =   0.0277778
        k(   41) = (   0.0450325  -0.0258924   0.0000000), wk =   0.0277778
        k(   42) = (   0.0450325  -0.0086308   0.0000000), wk =   0.0277778
        k(   43) = (   0.0450325   0.0086308   0.0000000), wk =   0.0277778
        k(   44) = (   0.0600433   0.0345232   0.0000000), wk =   0.0277778
        k(   45) = (   0.0600433   0.0517847   0.0000000), wk =   0.0277778
        k(   46) = (   0.0600433   0.0690463   0.0000000), wk =   0.0277778
        k(   47) = (   0.0600433   0.0863079   0.0000000), wk =   0.0277778
        k(   48) = (   0.0600433   0.1035695   0.0000000), wk =   0.0277778
        k(   49) = (   0.0600433   0.1208310   0.0000000), wk =   0.0277778
        k(   50) = (   0.0600433  -0.0690463   0.0000000), wk =   0.0277778
        k(   51) = (   0.0600433  -0.0517847   0.0000000), wk =   0.0277778
        k(   52) = (   0.0600433  -0.0345231   0.0000000), wk =   0.0277778
        k(   53) = (   0.0600433  -0.0172616   0.0000000), wk =   0.0277778
        k(   54) = (   0.0600433   0.0000000   0.0000000), wk =   0.0277778
        k(   55) = (   0.0600433   0.0172616   0.0000000), wk =   0.0277778
        k(   56) = (   0.0750541   0.0431539   0.0000000), wk =   0.0277778
        k(   57) = (   0.0750541   0.0604155   0.0000000), wk =   0.0277778
        k(   58) = (   0.0750541   0.0776771   0.0000000), wk =   0.0277778
        k(   59) = (   0.0750541   0.0949387   0.0000000), wk =   0.0277778
        k(   60) = (   0.0750541   0.1122003   0.0000000), wk =   0.0277778
        k(   61) = (   0.0750541   0.1294618   0.0000000), wk =   0.0277778
        k(   62) = (   0.0750541  -0.0604155   0.0000000), wk =   0.0277778
        k(   63) = (   0.0750541  -0.0431539   0.0000000), wk =   0.0277778
        k(   64) = (   0.0750541  -0.0258924   0.0000000), wk =   0.0277778
        k(   65) = (   0.0750541  -0.0086308   0.0000000), wk =   0.0277778
        k(   66) = (   0.0750541   0.0086308   0.0000000), wk =   0.0277778
        k(   67) = (   0.0750541   0.0258924   0.0000000), wk =   0.0277778
        k(   68) = (  -0.0900650  -0.0517847   0.0000000), wk =   0.0138889
        k(   69) = (  -0.0900650  -0.0345232   0.0000000), wk =   0.0277778
        k(   70) = (  -0.0900650  -0.0172616   0.0000000), wk =   0.0277778
        k(   71) = (  -0.0900650  -0.0000000   0.0000000), wk =   0.0277778
        k(   72) = (  -0.0900650   0.0172616   0.0000000), wk =   0.0277778
        k(   73) = (  -0.0900650   0.0345231   0.0000000), wk =   0.0277778
        k(   74) = (  -0.0900650  -0.1553542   0.0000000), wk =   0.0138889

     Dense  grid:   969921 G-vectors     FFT dimensions: (  80,  80, 360)

     Smooth grid:   245325 G-vectors     FFT dimensions: (  50,  50, 225)

     Estimated max dynamical RAM per process >     186.68 MB

     Estimated total dynamical RAM >       6.75 GB

     Initial potential from superposition of free atoms

     starting charge  143.99076, renormalised to  144.00000

     negative rho (up, down):  8.473E-04 0.000E+00


     %%%%%%%%%%%%%%%%%%%%%%%%%%%%%%%%%%%%%%%%%%%%%%%%%%%%%%%%%%%%%%%%%%%%%%%%
     %                                                                      %
     % You are using vdW-DF, which was implemented by the Thonhauser group. %
     % Please cite the following two papers that made this development      %
     % possible and the two reviews that describe the various versions:     %
     %                                                                      %
     %   T. Thonhauser et al., PRL 115, 136402 (2015).                      %
     %   T. Thonhauser et al., PRB 76, 125112 (2007).                       %
     %   K. Berland et al., Rep. Prog. Phys. 78, 066501 (2015).             %
     %   D.C. Langreth et al., J. Phys.: Condens. Matter 21, 084203 (2009). %
     %                                                                      %
     %                                                                      %
     % If you are calculating the stress with vdW-DF, please also cite:     %
     %                                                                      %
     %   R. Sabatini et al., J. Phys.: Condens. Matter 24, 424209 (2012).   %
     %                                                                      %
     %%%%%%%%%%%%%%%%%%%%%%%%%%%%%%%%%%%%%%%%%%%%%%%%%%%%%%%%%%%%%%%%%%%%%%%%



     Adding external electric field

     Computed dipole along edir(3) : 
        Dipole               -0.0002 Ry au,         -0.0004 Debye
        Dipole field         -0.0000 Ry au, 

        Potential amp.        0.0000 Ry
        Total length         45.2185 bohr

     Starting wfcs are  132 randomized atomic wfcs

     total cpu time spent up to now is      112.1 secs

     Self-consistent Calculation

     iteration #  1     ecut=    55.12 Ry     beta= 0.10
     Davidson diagonalization with overlap
     ethr =  1.00E-02,  avg # of iterations =  2.0

     negative rho (up, down):  7.516E-04 0.000E+00

     Adding external electric field

     Computed dipole along edir(3) : 
        Dipole               -0.1780 Ry au,         -0.4524 Debye
        Dipole field         -0.0005 Ry au, 

        Potential amp.        0.0456 Ry
        Total length         45.2185 bohr


     total cpu time spent up to now is      279.6 secs

     total energy              =   -1455.58721645 Ry
     estimated scf accuracy    <       3.31412570 Ry

     iteration #  2     ecut=    55.12 Ry     beta= 0.10
     Davidson diagonalization with overlap
     ethr =  2.30E-03,  avg # of iterations =  2.1

     negative rho (up, down):  7.525E-04 0.000E+00

     Adding external electric field

     Computed dipole along edir(3) : 
        Dipole                0.4836 Ry au,          1.2293 Debye
        Dipole field          0.0014 Ry au, 

        Potential amp.       -0.1238 Ry
        Total length         45.2185 bohr


     total cpu time spent up to now is      451.6 secs

     total energy              =   -1455.66277434 Ry
     estimated scf accuracy    <       2.08826649 Ry

     iteration #  3     ecut=    55.12 Ry     beta= 0.10
     Davidson diagonalization with overlap
     ethr =  1.45E-03,  avg # of iterations =  2.3

     negative rho (up, down):  7.575E-04 0.000E+00

     Adding external electric field

     Computed dipole along edir(3) : 
        Dipole               -0.0465 Ry au,         -0.1183 Debye
        Dipole field         -0.0001 Ry au, 

        Potential amp.        0.0119 Ry
        Total length         45.2185 bohr


     total cpu time spent up to now is      627.8 secs

     total energy              =   -1455.60663169 Ry
     estimated scf accuracy    <      11.72776049 Ry

     iteration #  4     ecut=    55.12 Ry     beta= 0.10
     Davidson diagonalization with overlap
     ethr =  1.45E-03,  avg # of iterations =  1.2

     negative rho (up, down):  7.671E-04 0.000E+00

     Adding external electric field

     Computed dipole along edir(3) : 
        Dipole               -0.0225 Ry au,         -0.0573 Debye
        Dipole field         -0.0001 Ry au, 

        Potential amp.        0.0058 Ry
        Total length         45.2185 bohr


     total cpu time spent up to now is      779.1 secs

     total energy              =   -1455.78297020 Ry
     estimated scf accuracy    <       0.25405955 Ry

     iteration #  5     ecut=    55.12 Ry     beta= 0.10
     Davidson diagonalization with overlap
     ethr =  1.76E-04,  avg # of iterations =  6.2

     negative rho (up, down):  7.835E-04 0.000E+00

     Adding external electric field

     Computed dipole along edir(3) : 
        Dipole               -0.0041 Ry au,         -0.0104 Debye
        Dipole field         -0.0000 Ry au, 

        Potential amp.        0.0011 Ry
        Total length         45.2185 bohr


     total cpu time spent up to now is      962.4 secs

     total energy              =   -1455.78396865 Ry
     estimated scf accuracy    <       0.09503741 Ry

     iteration #  6     ecut=    55.12 Ry     beta= 0.10
     Davidson diagonalization with overlap
     ethr =  6.60E-05,  avg # of iterations =  4.3

     negative rho (up, down):  8.404E-04 0.000E+00

     Adding external electric field

     Computed dipole along edir(3) : 
        Dipole               -0.0172 Ry au,         -0.0437 Debye
        Dipole field         -0.0000 Ry au, 

        Potential amp.        0.0044 Ry
        Total length         45.2185 bohr


     total cpu time spent up to now is     1135.0 secs

     total energy              =   -1455.77851329 Ry
     estimated scf accuracy    <       0.03923643 Ry

     iteration #  7     ecut=    55.12 Ry     beta= 0.10
     Davidson diagonalization with overlap
     ethr =  2.72E-05,  avg # of iterations =  7.9

     negative rho (up, down):  8.353E-04 0.000E+00

     Adding external electric field

     Computed dipole along edir(3) : 
        Dipole               -0.0141 Ry au,         -0.0357 Debye
        Dipole field         -0.0000 Ry au, 

        Potential amp.        0.0036 Ry
        Total length         45.2185 bohr


     total cpu time spent up to now is     1348.6 secs

     total energy              =   -1455.78479329 Ry
     estimated scf accuracy    <       0.01372904 Ry

     iteration #  8     ecut=    55.12 Ry     beta= 0.10
     Davidson diagonalization with overlap
     c_bands:  1 eigenvalues not converged
     ethr =  9.53E-06,  avg # of iterations =  5.1

     negative rho (up, down):  8.412E-04 0.000E+00

     Adding external electric field

     Computed dipole along edir(3) : 
        Dipole               -0.0075 Ry au,         -0.0189 Debye
        Dipole field         -0.0000 Ry au, 

        Potential amp.        0.0019 Ry
        Total length         45.2185 bohr


     total cpu time spent up to now is     1520.7 secs

     total energy              =   -1455.78478075 Ry
     estimated scf accuracy    <       0.00397051 Ry

     iteration #  9     ecut=    55.12 Ry     beta= 0.10
     Davidson diagonalization with overlap
     c_bands:  1 eigenvalues not converged
     c_bands:  1 eigenvalues not converged
     ethr =  2.76E-06,  avg # of iterations =  8.1

     negative rho (up, down):  8.600E-04 0.000E+00

     Adding external electric field

     Computed dipole along edir(3) : 
        Dipole               -0.0101 Ry au,         -0.0257 Debye
        Dipole field         -0.0000 Ry au, 

        Potential amp.        0.0026 Ry
        Total length         45.2185 bohr


     total cpu time spent up to now is     1750.4 secs

     total energy              =   -1455.78558721 Ry
     estimated scf accuracy    <       0.00503017 Ry

     iteration # 10     ecut=    55.12 Ry     beta= 0.10
     Davidson diagonalization with overlap
     ethr =  2.76E-06,  avg # of iterations =  2.0

     negative rho (up, down):  8.629E-04 0.000E+00

     Adding external electric field

     Computed dipole along edir(3) : 
        Dipole               -0.0116 Ry au,         -0.0294 Debye
        Dipole field         -0.0000 Ry au, 

        Potential amp.        0.0030 Ry
        Total length         45.2185 bohr


     total cpu time spent up to now is     1921.0 secs

     total energy              =   -1455.78586308 Ry
     estimated scf accuracy    <       0.00053680 Ry

     iteration # 11     ecut=    55.12 Ry     beta= 0.10
     Davidson diagonalization with overlap
     c_bands:  1 eigenvalues not converged
     ethr =  3.73E-07,  avg # of iterations =  6.3

     negative rho (up, down):  8.623E-04 0.000E+00

     Adding external electric field

     Computed dipole along edir(3) : 
        Dipole               -0.0102 Ry au,         -0.0259 Debye
        Dipole field         -0.0000 Ry au, 

        Potential amp.        0.0026 Ry
        Total length         45.2185 bohr


     total cpu time spent up to now is     2115.9 secs

     total energy              =   -1455.78591504 Ry
     estimated scf accuracy    <       0.00020138 Ry

     iteration # 12     ecut=    55.12 Ry     beta= 0.10
     Davidson diagonalization with overlap
     c_bands:  1 eigenvalues not converged
     ethr =  1.40E-07,  avg # of iterations =  5.3

     negative rho (up, down):  8.598E-04 0.000E+00

     Adding external electric field

     Computed dipole along edir(3) : 
        Dipole               -0.0106 Ry au,         -0.0270 Debye
        Dipole field         -0.0000 Ry au, 

        Potential amp.        0.0027 Ry
        Total length         45.2185 bohr


     total cpu time spent up to now is     2331.5 secs

     total energy              =   -1455.78591914 Ry
     estimated scf accuracy    <       0.00053218 Ry

     iteration # 13     ecut=    55.12 Ry     beta= 0.10
     Davidson diagonalization with overlap
     ethr =  1.40E-07,  avg # of iterations =  2.4

     negative rho (up, down):  8.567E-04 0.000E+00

     Adding external electric field

     Computed dipole along edir(3) : 
        Dipole               -0.0116 Ry au,         -0.0294 Debye
        Dipole field         -0.0000 Ry au, 

        Potential amp.        0.0030 Ry
        Total length         45.2185 bohr


     total cpu time spent up to now is     2509.5 secs

     total energy              =   -1455.78594705 Ry
     estimated scf accuracy    <       0.00004661 Ry

     iteration # 14     ecut=    55.12 Ry     beta= 0.10
     Davidson diagonalization with overlap
     ethr =  3.24E-08,  avg # of iterations =  5.5

     negative rho (up, down):  8.613E-04 0.000E+00

     Adding external electric field

     Computed dipole along edir(3) : 
        Dipole               -0.0003 Ry au,         -0.0007 Debye
        Dipole field         -0.0000 Ry au, 

        Potential amp.        0.0001 Ry
        Total length         45.2185 bohr


     total cpu time spent up to now is     2639.7 secs

     End of self-consistent calculation

          k = 0.0000 0.0000 0.0000 ( 30733 PWs)   bands (ev):

   -54.2581 -54.1972 -54.1188 -54.0568 -53.9847 -53.8444 -30.6930 -30.6517
   -30.5997 -30.5365 -30.4463 -30.3430 -30.2963 -30.2562 -30.2107 -30.1671
   -30.1225 -30.0896 -29.9369 -29.6403 -29.5635 -29.5242 -29.5221 -29.4211
    -5.9118  -4.4066  -3.9381  -3.7992  -3.6810  -3.3272  -3.2070  -3.0890
    -3.0706  -3.0357  -3.0109  -2.9260  -2.9046  -2.7748  -2.7692  -2.2770
    -2.2770  -2.1864  -2.1793  -2.1596  -2.0433  -2.0112  -1.9718  -1.9465
    -1.9129  -1.8824  -1.7715  -1.7621  -1.7220  -1.4980  -1.4537  -1.2559
    -1.0647  -0.7010  -0.6695  -0.6225  -0.4990  -0.4609  -0.3622  -0.2069
     0.1645   0.2420   0.3820   0.4145   0.8096   0.8593   1.1681   1.2570
     1.3484   1.6861   2.1313   2.1912   2.3176   2.3790   2.5033   2.9485
     2.9930   3.0681   3.2557   3.2807   3.8383   3.9383

          k = 0.0000 0.0173 0.0000 ( 30727 PWs)   bands (ev):

   -54.2580 -54.1971 -54.1187 -54.0568 -53.9847 -53.8444 -30.6933 -30.6518
   -30.6002 -30.5364 -30.4463 -30.3435 -30.2970 -30.2569 -30.2105 -30.1666
   -30.1225 -30.0887 -29.9377 -29.6402 -29.5635 -29.5242 -29.5222 -29.4212
    -5.8563  -4.3549  -3.8973  -3.7592  -3.6442  -3.3120  -3.1858  -3.0812
    -3.0273  -3.0212  -2.9926  -2.9147  -2.8893  -2.7591  -2.7439  -2.2771
    -2.2706  -2.1955  -2.1851  -2.1261  -2.0397  -2.0038  -1.9844  -1.9416
    -1.9068  -1.8951  -1.7649  -1.7538  -1.7291  -1.5009  -1.4519  -1.2573
    -1.0816  -0.7790  -0.6564  -0.6401  -0.5955  -0.4817  -0.3228  -0.2322
     0.0291   0.0865   0.4295   0.4721   0.6201   0.7395   1.1785   1.3101
     1.3299   1.5640   1.8852   2.1819   2.1882   2.3120   2.4985   2.9255
     3.0463   3.0943   3.2294   3.4078   3.8312   3.9316

          k = 0.0000 0.0345 0.0000 ( 30763 PWs)   bands (ev):

   -54.2579 -54.1970 -54.1189 -54.0569 -53.9849 -53.8443 -30.6944 -30.6521
   -30.6014 -30.5362 -30.4460 -30.3448 -30.2990 -30.2585 -30.2099 -30.1652
   -30.1223 -30.0862 -29.9399 -29.6401 -29.5635 -29.5242 -29.5225 -29.4214
    -5.6927  -4.2064  -3.7847  -3.6433  -3.5370  -3.2687  -3.1245  -3.0585
    -2.9795  -2.9446  -2.8938  -2.8809  -2.8426  -2.7144  -2.6736  -2.2790
    -2.2542  -2.2110  -2.1820  -2.0639  -2.0285  -2.0162  -1.9846  -1.9298
    -1.9273  -1.8941  -1.7506  -1.7467  -1.7303  -1.5084  -1.4476  -1.2618
    -1.1495  -0.9183  -0.8247  -0.7155  -0.6346  -0.5170  -0.3174  -0.3035
    -0.2326  -0.1880   0.3234   0.3389   0.5259   0.5596   0.9299   1.1234
     1.2264   1.3523   1.6264   1.9602   2.1634   2.1870   2.5417   2.5727
     3.1605   3.1773   3.2248   3.5076   3.6264   3.7304

          k = 0.0000 0.0518 0.0000 ( 30692 PWs)   bands (ev):

   -54.2577 -54.1968 -54.1188 -54.0569 -53.9848 -53.8442 -30.6958 -30.6524
   -30.6030 -30.5358 -30.4457 -30.3466 -30.3018 -30.2606 -30.2090 -30.1634
   -30.1220 -30.0831 -29.9430 -29.6399 -29.5635 -29.5241 -29.5228 -29.4217
    -5.4309  -3.9917  -3.6321  -3.4658  -3.3707  -3.2004  -3.0319  -3.0198
    -2.9145  -2.8588  -2.8250  -2.7676  -2.6901  -2.6477  -2.5724  -2.2854
    -2.2381  -2.2361  -2.1788  -2.0575  -2.0099  -1.9839  -1.9703  -1.9619
    -1.9039  -1.8812  -1.7878  -1.7209  -1.6969  -1.5182  -1.4426  -1.3326
    -1.2701  -1.0739  -1.0302  -0.8480  -0.6536  -0.6000  -0.5741  -0.4488
    -0.3856  -0.3497   0.0163   0.1095   0.4072   0.4237   0.5446   0.8297
     0.8326   1.1372   1.3517   1.9938   2.0803   2.1521   2.2089   2.6508
     2.8806   3.0718   3.2747   3.4957   3.6697   3.7441

          k = 0.0000 0.0690 0.0000 ( 30668 PWs)   bands (ev):

   -54.2575 -54.1966 -54.1188 -54.0569 -53.9849 -53.8440 -30.6972 -30.6528
   -30.6046 -30.5354 -30.4454 -30.3487 -30.3044 -30.2624 -30.2082 -30.1616
   -30.1215 -30.0801 -29.9461 -29.6397 -29.5635 -29.5241 -29.5232 -29.4220
    -5.0898  -3.8338  -3.4542  -3.2574  -3.1683  -3.1053  -2.9588  -2.9302
    -2.8270  -2.7456  -2.7387  -2.6826  -2.5723  -2.4635  -2.4487  -2.2925
    -2.2787  -2.2471  -2.1745  -2.0821  -2.0227  -1.9868  -1.9438  -1.8790
    -1.8772  -1.8754  -1.8352  -1.6939  -1.6622  -1.5837  -1.5285  -1.4381
    -1.3418  -1.2664  -1.0937  -1.0262  -0.9398  -0.7385  -0.6800  -0.6295
    -0.4721  -0.4253  -0.2977  -0.0844   0.0603   0.1116   0.3194   0.4236
     0.6124   1.0752   1.1062   1.6809   1.9772   2.1439   2.3385   2.5141
     2.7224   2.9869   3.3371   3.5548   3.6677   3.7809

          k = 0.0000 0.0863 0.0000 ( 30624 PWs)   bands (ev):

   -54.2575 -54.1966 -54.1187 -54.0568 -53.9850 -53.8438 -30.6982 -30.6530
   -30.6058 -30.5351 -30.4452 -30.3503 -30.3063 -30.2636 -30.2075 -30.1603
   -30.1210 -30.0780 -29.9485 -29.6395 -29.5635 -29.5241 -29.5234 -29.4222
    -4.7075  -3.9256  -3.2136  -3.0788  -3.0143  -2.9726  -2.8933  -2.8551
    -2.7227  -2.6374  -2.6259  -2.5743  -2.5136  -2.4262  -2.3887  -2.3057
    -2.2814  -2.1747  -2.1367  -2.0743  -2.0612  -1.9667  -1.9327  -1.9084
    -1.8738  -1.8516  -1.7857  -1.7753  -1.6735  -1.6355  -1.5371  -1.5368
    -1.4350  -1.2817  -1.2650  -1.1880  -1.1246  -0.8629  -0.8604  -0.6687
    -0.5628  -0.5245  -0.4938  -0.2755  -0.2543  -0.1031   0.0652   0.3252
     0.3707   1.0214   1.0571   1.4081   1.8979   2.1390   2.3475   2.4290
     2.7723   2.9264   3.3688   3.4723   3.7862   3.8059

          k = 0.0000-0.1036 0.0000 ( 30622 PWs)   bands (ev):

   -54.2574 -54.1965 -54.1188 -54.0569 -53.9850 -53.8437 -30.6986 -30.6531
   -30.6062 -30.5350 -30.4451 -30.3509 -30.3069 -30.2640 -30.2073 -30.1599
   -30.1208 -30.0773 -29.9494 -29.6395 -29.5635 -29.5241 -29.5236 -29.4223
    -4.4375  -4.1111  -3.0828  -3.0088  -2.9804  -2.8730  -2.8699  -2.8278
    -2.6522  -2.6280  -2.5661  -2.4974  -2.4801  -2.3785  -2.3703  -2.3652
    -2.3145  -2.2630  -2.0548  -2.0289  -1.9755  -1.9587  -1.9290  -1.9189
    -1.9185  -1.8932  -1.8424  -1.7347  -1.6659  -1.6254  -1.6150  -1.5402
    -1.4339  -1.3741  -1.2883  -1.2817  -1.1485  -0.9735  -0.8750  -0.6744
    -0.6601  -0.6080  -0.5046  -0.4192  -0.3208  -0.1384  -0.0435   0.2673
     0.3051   1.0009   1.0647   1.3029   1.8453   2.1374   2.3507   2.4246
     2.7902   2.9045   3.3779   3.4426   3.7783   3.7852

          k = 0.0150 0.0086 0.0000 ( 30740 PWs)   bands (ev):

   -54.2558 -54.1948 -54.1211 -54.0592 -53.9824 -53.8468 -30.6749 -30.6338
   -30.5973 -30.5187 -30.4491 -30.3409 -30.2942 -30.2541 -30.2130 -30.1694
   -30.1249 -30.0870 -29.9396 -29.6384 -29.5841 -29.5448 -29.5242 -29.4415
    -5.8572  -4.3559  -3.8970  -3.7774  -3.6483  -3.2982  -3.1988  -3.0633
    -3.0448  -3.0223  -2.9927  -2.9104  -2.8867  -2.7516  -2.7441  -2.2758
    -2.2753  -2.1822  -2.1810  -2.1447  -2.0340  -2.0262  -1.9754  -1.9559
    -1.9115  -1.8851  -1.7796  -1.7688  -1.7305  -1.5154  -1.4628  -1.2772
    -1.0665  -0.7524  -0.6848  -0.6171  -0.5450  -0.4122  -0.3915  -0.2976
     0.1316   0.2689   0.4226   0.4304   0.7685   0.9005   1.2311   1.2428
     1.3487   1.5913   2.0587   2.1211   2.2042   2.2493   2.4121   2.8482
     2.9801   3.0135   3.2636   3.4438   3.6316   3.7958

          k = 0.0150 0.0259 0.0000 ( 30753 PWs)   bands (ev):

   -54.2557 -54.1948 -54.1212 -54.0592 -53.9824 -53.8468 -30.6757 -30.6339
   -30.5981 -30.5185 -30.4489 -30.3418 -30.2956 -30.2553 -30.2126 -30.1684
   -30.1248 -30.0852 -29.9411 -29.6383 -29.5840 -29.5448 -29.5244 -29.4416
    -5.7476  -4.2551  -3.8188  -3.7026  -3.5775  -3.2683  -3.1567  -3.0477
    -2.9935  -2.9731  -2.9511  -2.8881  -2.8502  -2.7144  -2.7015  -2.2779
    -2.2641  -2.1983  -2.1802  -2.0949  -2.0264  -2.0257  -1.9860  -1.9448
    -1.9101  -1.9025  -1.7671  -1.7540  -1.7444  -1.5203  -1.4608  -1.2808
    -1.1007  -0.8065  -0.7839  -0.7005  -0.6354  -0.4464  -0.4281  -0.3102
    -0.0570   0.0558   0.4140   0.4906   0.5544   0.6524   1.0822   1.2731
     1.3118   1.5548   1.5748   1.9880   2.1140   2.1588   2.4407   2.7706
     3.0542   3.1120   3.3386   3.4224   3.4803   3.8415

          k = 0.0150 0.0432 0.0000 ( 30730 PWs)   bands (ev):

   -54.2555 -54.1945 -54.1213 -54.0593 -53.9825 -53.8467 -30.6769 -30.6343
   -30.5996 -30.5182 -30.4486 -30.3433 -30.2981 -30.2572 -30.2118 -30.1667
   -30.1246 -30.0823 -29.9438 -29.6381 -29.5840 -29.5447 -29.5247 -29.4419
    -5.5346  -4.0692  -3.6822  -3.5620  -3.4426  -3.2120  -3.0778  -3.0175
    -2.9388  -2.8952  -2.8438  -2.8299  -2.7581  -2.6597  -2.6106  -2.2845
    -2.2474  -2.2139  -2.1799  -2.0503  -2.0272  -2.0063  -1.9789  -1.9525
    -1.9268  -1.8894  -1.7728  -1.7455  -1.7279  -1.5288  -1.4579  -1.2888
    -1.2107  -0.9574  -0.9411  -0.8436  -0.7322  -0.5424  -0.4901  -0.3893
    -0.2625  -0.1645   0.2159   0.2560   0.4412   0.5281   0.7405   0.9623
     1.0159   1.2877   1.4764   1.9392   2.0855   2.1350   2.2873   2.6042
     2.9734   3.1115   3.1967   3.4424   3.6581   3.7414

          k = 0.0150 0.0604 0.0000 ( 30689 PWs)   bands (ev):

   -54.2553 -54.1944 -54.1213 -54.0594 -53.9825 -53.8465 -30.6784 -30.6346
   -30.6012 -30.5178 -30.4483 -30.3453 -30.3008 -30.2592 -30.2109 -30.1648
   -30.1241 -30.0792 -29.9470 -29.6379 -29.5840 -29.5447 -29.5250 -29.4422
    -5.2320  -3.8601  -3.5213  -3.3770  -3.2589  -3.1296  -2.9764  -2.9685
    -2.8620  -2.7924  -2.7778  -2.7218  -2.5893  -2.5712  -2.4910  -2.2970
    -2.2442  -2.2411  -2.1808  -2.0831  -2.0012  -1.9933  -1.9683  -1.9250
    -1.9024  -1.8784  -1.8155  -1.7208  -1.6986  -1.5394  -1.4580  -1.4389
    -1.3055  -1.1925  -1.0401  -1.0061  -0.8871  -0.6785  -0.6138  -0.5510
    -0.3923  -0.2938  -0.1220   0.0528   0.2362   0.2490   0.3861   0.6194
     0.7405   1.1970   1.2066   1.9084   1.9301   2.1362   2.2434   2.6030
     2.6516   3.0382   3.2859   3.5281   3.6506   3.7230

          k = 0.0150 0.0777 0.0000 ( 30633 PWs)   bands (ev):

   -54.2552 -54.1942 -54.1212 -54.0593 -53.9826 -53.8463 -30.6796 -30.6349
   -30.6026 -30.5175 -30.4480 -30.3472 -30.3032 -30.2607 -30.2101 -30.1632
   -30.1236 -30.0766 -29.9499 -29.6377 -29.5840 -29.5446 -29.5253 -29.4425
    -4.8661  -3.8190  -3.3056  -3.1900  -3.0550  -3.0277  -2.9007  -2.8828
    -2.7650  -2.6849  -2.6505  -2.6397  -2.5233  -2.4246  -2.4004  -2.2791
    -2.2760  -2.2291  -2.1683  -2.0853  -2.0624  -1.9697  -1.9662  -1.8860
    -1.8777  -1.8661  -1.8194  -1.7057  -1.6797  -1.6701  -1.5497  -1.4533
    -1.4418  -1.3195  -1.2113  -1.1164  -1.0686  -0.7768  -0.7737  -0.7259
    -0.4600  -0.4336  -0.3742  -0.1598  -0.1522   0.0042   0.2436   0.3548
     0.5075   1.0688   1.1451   1.6041   1.9164   2.1316   2.2850   2.4072
     2.7101   3.0042   3.3358   3.4995   3.6000   3.8297

          k = 0.0150 0.0949 0.0000 ( 30618 PWs)   bands (ev):

   -54.2551 -54.1941 -54.1212 -54.0593 -53.9826 -53.8462 -30.6803 -30.6351
   -30.6035 -30.5173 -30.4478 -30.3484 -30.3044 -30.2615 -30.2097 -30.1624
   -30.1232 -30.0751 -29.9516 -29.6376 -29.5839 -29.5446 -29.5255 -29.4426
    -4.5008  -4.0058  -3.0941  -3.0691  -2.9544  -2.8890  -2.8537  -2.8249
    -2.6705  -2.6180  -2.5765  -2.4975  -2.4832  -2.4479  -2.3619  -2.3519
    -2.2616  -2.2294  -2.0950  -2.0547  -2.0013  -1.9763  -1.9524  -1.9187
    -1.8929  -1.8678  -1.8507  -1.7496  -1.6975  -1.6637  -1.5851  -1.5609
    -1.4517  -1.4027  -1.3105  -1.2922  -1.0894  -0.9116  -0.8200  -0.7792
    -0.6232  -0.5963  -0.5288  -0.2978  -0.2543  -0.0738   0.0498   0.3042
     0.3338   1.0230   1.1330   1.4293   1.8771   2.1305   2.2304   2.4008
     2.7444   2.9980   3.3566   3.4222   3.6392   3.7705

          k = 0.0150-0.0949 0.0000 ( 30618 PWs)   bands (ev):

   -54.2551 -54.1941 -54.1212 -54.0593 -53.9826 -53.8462 -30.6803 -30.6351
   -30.6035 -30.5173 -30.4478 -30.3484 -30.3044 -30.2615 -30.2097 -30.1624
   -30.1232 -30.0751 -29.9516 -29.6376 -29.5839 -29.5446 -29.5255 -29.4426
    -4.5008  -4.0058  -3.0941  -3.0691  -2.9544  -2.8890  -2.8537  -2.8249
    -2.6705  -2.6180  -2.5765  -2.4975  -2.4832  -2.4479  -2.3619  -2.3519
    -2.2616  -2.2294  -2.0950  -2.0547  -2.0013  -1.9763  -1.9524  -1.9187
    -1.8929  -1.8678  -1.8507  -1.7496  -1.6975  -1.6637  -1.5851  -1.5609
    -1.4517  -1.4027  -1.3105  -1.2922  -1.0894  -0.9116  -0.8200  -0.7792
    -0.6232  -0.5963  -0.5288  -0.2978  -0.2543  -0.0738   0.0498   0.3042
     0.3338   1.0230   1.1330   1.4293   1.8771   2.1305   2.2304   2.4008
     2.7444   2.9980   3.3566   3.4221   3.6392   3.7703

          k = 0.0150-0.0777 0.0000 ( 30633 PWs)   bands (ev):

   -54.2552 -54.1942 -54.1212 -54.0593 -53.9826 -53.8463 -30.6796 -30.6349
   -30.6026 -30.5175 -30.4480 -30.3472 -30.3032 -30.2607 -30.2101 -30.1632
   -30.1236 -30.0766 -29.9499 -29.6377 -29.5840 -29.5446 -29.5253 -29.4425
    -4.8661  -3.8190  -3.3056  -3.1900  -3.0550  -3.0277  -2.9007  -2.8828
    -2.7650  -2.6849  -2.6505  -2.6397  -2.5233  -2.4246  -2.4004  -2.2791
    -2.2760  -2.2291  -2.1683  -2.0853  -2.0624  -1.9697  -1.9662  -1.8860
    -1.8777  -1.8661  -1.8194  -1.7057  -1.6797  -1.6701  -1.5497  -1.4533
    -1.4418  -1.3195  -1.2113  -1.1164  -1.0686  -0.7768  -0.7737  -0.7259
    -0.4600  -0.4336  -0.3742  -0.1598  -0.1522   0.0042   0.2436   0.3548
     0.5075   1.0688   1.1451   1.6041   1.9164   2.1316   2.2850   2.4072
     2.7101   3.0042   3.3357   3.4995   3.5999   3.7626

          k = 0.0150-0.0604 0.0000 ( 30689 PWs)   bands (ev):

   -54.2553 -54.1944 -54.1213 -54.0594 -53.9825 -53.8465 -30.6784 -30.6346
   -30.6012 -30.5178 -30.4483 -30.3453 -30.3008 -30.2592 -30.2109 -30.1648
   -30.1241 -30.0792 -29.9470 -29.6379 -29.5840 -29.5447 -29.5250 -29.4422
    -5.2320  -3.8601  -3.5213  -3.3770  -3.2589  -3.1296  -2.9764  -2.9685
    -2.8620  -2.7924  -2.7778  -2.7218  -2.5893  -2.5712  -2.4910  -2.2970
    -2.2442  -2.2411  -2.1808  -2.0831  -2.0012  -1.9933  -1.9683  -1.9250
    -1.9024  -1.8784  -1.8155  -1.7208  -1.6986  -1.5394  -1.4580  -1.4389
    -1.3055  -1.1925  -1.0401  -1.0061  -0.8871  -0.6785  -0.6138  -0.5510
    -0.3923  -0.2938  -0.1220   0.0528   0.2362   0.2490   0.3861   0.6194
     0.7405   1.1970   1.2066   1.9084   1.9301   2.1362   2.2434   2.6030
     2.6516   3.0380   3.2859   3.5282   3.6506   3.7239

          k = 0.0150-0.0432 0.0000 ( 30730 PWs)   bands (ev):

   -54.2555 -54.1945 -54.1213 -54.0593 -53.9825 -53.8467 -30.6769 -30.6343
   -30.5996 -30.5182 -30.4486 -30.3433 -30.2981 -30.2572 -30.2118 -30.1667
   -30.1246 -30.0823 -29.9438 -29.6381 -29.5840 -29.5447 -29.5247 -29.4419
    -5.5346  -4.0692  -3.6822  -3.5620  -3.4426  -3.2120  -3.0778  -3.0175
    -2.9388  -2.8952  -2.8438  -2.8299  -2.7581  -2.6597  -2.6106  -2.2845
    -2.2474  -2.2139  -2.1799  -2.0503  -2.0272  -2.0063  -1.9789  -1.9525
    -1.9268  -1.8894  -1.7728  -1.7455  -1.7279  -1.5288  -1.4579  -1.2888
    -1.2107  -0.9574  -0.9411  -0.8436  -0.7322  -0.5424  -0.4901  -0.3893
    -0.2625  -0.1645   0.2159   0.2560   0.4412   0.5281   0.7405   0.9623
     1.0159   1.2877   1.4764   1.9392   2.0855   2.1350   2.2873   2.6042
     2.9734   3.1115   3.1967   3.4424   3.6581   3.7413

          k = 0.0150-0.0259 0.0000 ( 30753 PWs)   bands (ev):

   -54.2557 -54.1948 -54.1212 -54.0592 -53.9824 -53.8468 -30.6757 -30.6339
   -30.5981 -30.5185 -30.4489 -30.3418 -30.2956 -30.2553 -30.2126 -30.1684
   -30.1248 -30.0852 -29.9411 -29.6383 -29.5840 -29.5448 -29.5244 -29.4416
    -5.7476  -4.2551  -3.8188  -3.7026  -3.5775  -3.2683  -3.1567  -3.0477
    -2.9935  -2.9731  -2.9511  -2.8881  -2.8502  -2.7144  -2.7015  -2.2779
    -2.2641  -2.1983  -2.1802  -2.0949  -2.0264  -2.0257  -1.9860  -1.9448
    -1.9101  -1.9025  -1.7671  -1.7540  -1.7444  -1.5203  -1.4608  -1.2808
    -1.1007  -0.8065  -0.7839  -0.7005  -0.6354  -0.4464  -0.4281  -0.3102
    -0.0570   0.0558   0.4140   0.4906   0.5544   0.6524   1.0822   1.2731
     1.3118   1.5548   1.5748   1.9880   2.1140   2.1588   2.4407   2.7706
     3.0542   3.1120   3.3385   3.4223   3.4804   3.8416

          k = 0.0150-0.0086 0.0000 ( 30740 PWs)   bands (ev):

   -54.2558 -54.1948 -54.1211 -54.0592 -53.9824 -53.8468 -30.6749 -30.6338
   -30.5973 -30.5187 -30.4491 -30.3409 -30.2942 -30.2541 -30.2130 -30.1694
   -30.1249 -30.0870 -29.9396 -29.6384 -29.5841 -29.5448 -29.5242 -29.4415
    -5.8572  -4.3559  -3.8970  -3.7774  -3.6483  -3.2982  -3.1988  -3.0633
    -3.0448  -3.0223  -2.9927  -2.9104  -2.8867  -2.7516  -2.7441  -2.2758
    -2.2753  -2.1822  -2.1810  -2.1447  -2.0340  -2.0262  -1.9754  -1.9559
    -1.9115  -1.8851  -1.7796  -1.7688  -1.7305  -1.5154  -1.4628  -1.2772
    -1.0665  -0.7524  -0.6848  -0.6171  -0.5450  -0.4122  -0.3915  -0.2976
     0.1316   0.2689   0.4226   0.4304   0.7685   0.9005   1.2311   1.2429
     1.3487   1.5913   2.0587   2.1211   2.2042   2.2493   2.4121   2.8482
     2.9801   3.0135   3.2636   3.4439   3.6317   3.7962

          k = 0.0300 0.0173 0.0000 ( 30735 PWs)   bands (ev):

   -54.2489 -54.1879 -54.1282 -54.0663 -53.9755 -53.8539 -30.6218 -30.5900
   -30.5810 -30.4663 -30.4570 -30.3345 -30.2880 -30.2479 -30.2199 -30.1761
   -30.1320 -30.0794 -29.9473 -29.6447 -29.6325 -29.6045 -29.5301 -29.5008
    -5.6966  -4.2084  -3.7773  -3.7249  -3.5543  -3.2167  -3.1738  -2.9919
    -2.9864  -2.9807  -2.9386  -2.8644  -2.8263  -2.6975  -2.6593  -2.2753
    -2.2736  -2.1781  -2.1683  -2.1135  -2.0712  -2.0063  -1.9956  -1.9620
    -1.9167  -1.8939  -1.8037  -1.7877  -1.7551  -1.5631  -1.4904  -1.3556
    -1.0700  -1.0356  -0.7034  -0.6281  -0.6138  -0.5032  -0.3121  -0.2656
     0.0962   0.2840   0.4346   0.5180   0.7148   0.8985   1.1845   1.2627
     1.4138   1.4318   1.7038   1.7784   2.0230   2.1541   2.2651   2.7355
     2.8028   2.9648   3.0817   3.2374   3.6341   3.7466

          k = 0.0300 0.0345 0.0000 ( 30711 PWs)   bands (ev):

   -54.2487 -54.1877 -54.1282 -54.0664 -53.9755 -53.8538 -30.6228 -30.5911
   -30.5812 -30.4660 -30.4567 -30.3358 -30.2900 -30.2495 -30.2192 -30.1747
   -30.1318 -30.0770 -29.9495 -29.6446 -29.6323 -29.6044 -29.5304 -29.5010
    -5.5375  -4.0671  -3.6704  -3.6386  -3.4588  -3.1728  -3.1111  -2.9697
    -2.9384  -2.9160  -2.8718  -2.8330  -2.7567  -2.6209  -2.6193  -2.2842
    -2.2615  -2.1889  -2.1760  -2.0814  -2.0562  -1.9928  -1.9922  -1.9576
    -1.9304  -1.9035  -1.7889  -1.7743  -1.7713  -1.5683  -1.4914  -1.3695
    -1.1186  -1.0964  -0.8205  -0.7896  -0.7555  -0.5596  -0.3821  -0.3151
    -0.0763   0.1113   0.3579   0.4701   0.5394   0.5674   0.9372   1.1026
     1.1542   1.3988   1.4564   1.8315   1.9081   2.1104   2.2300   2.6305
     2.7914   3.0341   3.0617   3.4985   3.5764   3.8120

          k = 0.0300 0.0518 0.0000 ( 30673 PWs)   bands (ev):

   -54.2485 -54.1876 -54.1282 -54.0663 -53.9756 -53.8536 -30.6242 -30.5927
   -30.5816 -30.4657 -30.4563 -30.3375 -30.2927 -30.2515 -30.2183 -30.1727
   -30.1314 -30.0738 -29.9525 -29.6445 -29.6321 -29.6043 -29.5308 -29.5013
    -5.2827  -3.8652  -3.5219  -3.5107  -3.3088  -3.1032  -3.0168  -2.9326
    -2.8700  -2.8232  -2.7812  -2.7636  -2.6365  -2.5644  -2.5033  -2.2976
    -2.2508  -2.2048  -2.1875  -2.1035  -2.0004  -1.9975  -1.9819  -1.9493
    -1.9419  -1.8885  -1.8063  -1.7712  -1.7518  -1.5768  -1.4937  -1.4046
    -1.2699  -1.2030  -1.0437  -0.9440  -0.8711  -0.6710  -0.4975  -0.4308
    -0.2100  -0.0793   0.1058   0.2592   0.2760   0.4326   0.5042   0.8220
     0.8626   1.2801   1.4083   1.7844   2.0598   2.0673   2.1175   2.5476
     2.5650   3.0464   3.1731   3.4991   3.6418   3.7350

          k = 0.0300 0.0690 0.0000 ( 30648 PWs)   bands (ev):

   -54.2484 -54.1874 -54.1282 -54.0664 -53.9757 -53.8535 -30.6255 -30.5942
   -30.5819 -30.4653 -30.4559 -30.3395 -30.2953 -30.2532 -30.2174 -30.1709
   -30.1308 -30.0709 -29.9556 -29.6444 -29.6319 -29.6042 -29.5311 -29.5016
    -4.9514  -3.7213  -3.3676  -3.3407  -3.1208  -3.0069  -2.9136  -2.8748
    -2.7843  -2.7077  -2.6935  -2.6572  -2.5041  -2.4858  -2.4136  -2.2712
    -2.2636  -2.2330  -2.1964  -2.1193  -2.0383  -2.0151  -1.9672  -1.9246
    -1.8799  -1.8756  -1.8408  -1.7637  -1.7399  -1.5895  -1.5145  -1.4935
    -1.4904  -1.3138  -1.2842  -0.9893  -0.9726  -0.8680  -0.6375  -0.6022
    -0.3550  -0.2737  -0.1744  -0.0144   0.0481   0.2217   0.3422   0.5180
     0.6690   1.1598   1.3457   1.7850   1.8675   2.0996   2.1658   2.3663
     2.5935   3.0474   3.2518   3.4227   3.5971   3.7001

          k = 0.0300 0.0863 0.0000 ( 30670 PWs)   bands (ev):

   -54.2483 -54.1873 -54.1284 -54.0665 -53.9758 -53.8535 -30.6265 -30.5953
   -30.5822 -30.4651 -30.4556 -30.3410 -30.2971 -30.2543 -30.2167 -30.1696
   -30.1302 -30.0688 -29.9580 -29.6443 -29.6318 -29.6041 -29.5314 -29.5018
    -4.5821  -3.8075  -3.2491  -3.1104  -2.9309  -2.9037  -2.8277  -2.8126
    -2.6909  -2.6027  -2.6000  -2.5366  -2.4723  -2.4618  -2.3623  -2.3252
    -2.2528  -2.1618  -2.1533  -2.1164  -2.0910  -2.0248  -1.9448  -1.9177
    -1.8953  -1.8903  -1.7885  -1.7827  -1.7522  -1.6911  -1.6076  -1.6031
    -1.4962  -1.4856  -1.3714  -1.1448  -1.0247  -0.9563  -0.7763  -0.6964
    -0.6782  -0.4076  -0.3877  -0.1049  -0.0828   0.1159   0.2285   0.3233
     0.4950   1.0929   1.3015   1.6928   1.8529   2.0645   2.1073   2.3487
     2.6325   3.0717   3.2906   3.3545   3.4324   3.7138

          k = 0.0300 0.1036 0.0000 ( 30642 PWs)   bands (ev):

   -54.2483 -54.1873 -54.1283 -54.0664 -53.9758 -53.8533 -30.6268 -30.5957
   -30.5823 -30.4649 -30.4555 -30.3416 -30.2978 -30.2547 -30.2165 -30.1691
   -30.1300 -30.0680 -29.9589 -29.6443 -29.6317 -29.6041 -29.5314 -29.5019
    -4.3296  -3.9761  -3.2017  -3.0002  -2.8456  -2.8432  -2.7915  -2.7638
    -2.6392  -2.6109  -2.5233  -2.5213  -2.4483  -2.4237  -2.4104  -2.3051
    -2.2530  -2.2342  -2.1290  -2.0751  -2.0089  -1.9767  -1.9675  -1.9266
    -1.9139  -1.9075  -1.8640  -1.7785  -1.7648  -1.7240  -1.6485  -1.6136
    -1.5657  -1.4942  -1.3932  -1.2522  -0.9985  -0.9425  -0.9172  -0.8153
    -0.6595  -0.5380  -0.4654  -0.1011  -0.0996   0.0844   0.1206   0.2976
     0.4233   1.0723   1.2877   1.6272   1.9294   1.9638   2.1107   2.3511
     2.6484   3.0779   3.3015   3.3297   3.3929   3.6609

          k = 0.0300-0.0863 0.0000 ( 30670 PWs)   bands (ev):

   -54.2483 -54.1873 -54.1284 -54.0665 -53.9758 -53.8535 -30.6265 -30.5953
   -30.5822 -30.4651 -30.4556 -30.3410 -30.2971 -30.2543 -30.2167 -30.1696
   -30.1302 -30.0688 -29.9580 -29.6443 -29.6318 -29.6041 -29.5314 -29.5018
    -4.5821  -3.8075  -3.2491  -3.1104  -2.9309  -2.9037  -2.8277  -2.8126
    -2.6909  -2.6027  -2.6000  -2.5366  -2.4723  -2.4618  -2.3623  -2.3252
    -2.2528  -2.1618  -2.1533  -2.1164  -2.0910  -2.0248  -1.9448  -1.9177
    -1.8953  -1.8903  -1.7885  -1.7827  -1.7522  -1.6911  -1.6076  -1.6031
    -1.4962  -1.4856  -1.3714  -1.1448  -1.0247  -0.9563  -0.7763  -0.6964
    -0.6782  -0.4076  -0.3877  -0.1049  -0.0828   0.1159   0.2285   0.3233
     0.4950   1.0929   1.3015   1.6928   1.8528   2.0645   2.1073   2.3487
     2.6325   3.0717   3.2907   3.3547   3.4326   3.7239

          k = 0.0300-0.0690 0.0000 ( 30648 PWs)   bands (ev):

   -54.2484 -54.1874 -54.1282 -54.0664 -53.9757 -53.8535 -30.6255 -30.5942
   -30.5819 -30.4653 -30.4559 -30.3395 -30.2953 -30.2532 -30.2174 -30.1709
   -30.1308 -30.0709 -29.9556 -29.6444 -29.6319 -29.6042 -29.5311 -29.5016
    -4.9514  -3.7213  -3.3676  -3.3407  -3.1208  -3.0069  -2.9136  -2.8748
    -2.7843  -2.7077  -2.6935  -2.6572  -2.5041  -2.4858  -2.4136  -2.2712
    -2.2636  -2.2330  -2.1964  -2.1193  -2.0383  -2.0151  -1.9672  -1.9246
    -1.8799  -1.8756  -1.8408  -1.7637  -1.7399  -1.5895  -1.5145  -1.4935
    -1.4904  -1.3138  -1.2842  -0.9893  -0.9726  -0.8680  -0.6375  -0.6022
    -0.3550  -0.2737  -0.1744  -0.0144   0.0481   0.2217   0.3422   0.5180
     0.6690   1.1598   1.3457   1.7850   1.8675   2.0996   2.1658   2.3663
     2.5935   3.0474   3.2518   3.4227   3.5972   3.7001

          k = 0.0300-0.0518 0.0000 ( 30673 PWs)   bands (ev):

   -54.2485 -54.1876 -54.1282 -54.0663 -53.9756 -53.8536 -30.6242 -30.5927
   -30.5816 -30.4657 -30.4563 -30.3375 -30.2927 -30.2515 -30.2183 -30.1727
   -30.1314 -30.0738 -29.9525 -29.6445 -29.6321 -29.6043 -29.5308 -29.5013
    -5.2827  -3.8652  -3.5219  -3.5107  -3.3088  -3.1032  -3.0168  -2.9326
    -2.8700  -2.8232  -2.7812  -2.7636  -2.6365  -2.5644  -2.5033  -2.2976
    -2.2508  -2.2048  -2.1875  -2.1035  -2.0004  -1.9975  -1.9819  -1.9493
    -1.9419  -1.8885  -1.8063  -1.7712  -1.7518  -1.5768  -1.4937  -1.4046
    -1.2699  -1.2030  -1.0437  -0.9440  -0.8711  -0.6710  -0.4975  -0.4308
    -0.2100  -0.0793   0.1058   0.2592   0.2760   0.4326   0.5042   0.8220
     0.8626   1.2801   1.4083   1.7844   2.0597   2.0673   2.1175   2.5476
     2.5650   3.0464   3.1731   3.4992   3.6419   3.7347

          k = 0.0300-0.0345 0.0000 ( 30711 PWs)   bands (ev):

   -54.2487 -54.1877 -54.1282 -54.0664 -53.9755 -53.8538 -30.6228 -30.5911
   -30.5812 -30.4660 -30.4567 -30.3358 -30.2900 -30.2495 -30.2192 -30.1747
   -30.1318 -30.0770 -29.9495 -29.6446 -29.6323 -29.6044 -29.5304 -29.5010
    -5.5375  -4.0671  -3.6704  -3.6386  -3.4588  -3.1728  -3.1111  -2.9697
    -2.9384  -2.9160  -2.8718  -2.8330  -2.7567  -2.6209  -2.6193  -2.2842
    -2.2615  -2.1889  -2.1760  -2.0814  -2.0562  -1.9928  -1.9922  -1.9576
    -1.9304  -1.9036  -1.7889  -1.7743  -1.7713  -1.5683  -1.4914  -1.3695
    -1.1186  -1.0964  -0.8205  -0.7896  -0.7555  -0.5596  -0.3821  -0.3151
    -0.0763   0.1113   0.3579   0.4701   0.5394   0.5674   0.9372   1.1026
     1.1542   1.3988   1.4564   1.8315   1.9081   2.1104   2.2300   2.6305
     2.7914   3.0341   3.0618   3.4984   3.5764   3.7654

          k = 0.0300-0.0173 0.0000 ( 30735 PWs)   bands (ev):

   -54.2489 -54.1879 -54.1282 -54.0663 -53.9755 -53.8539 -30.6218 -30.5900
   -30.5810 -30.4663 -30.4570 -30.3345 -30.2880 -30.2479 -30.2199 -30.1761
   -30.1320 -30.0794 -29.9473 -29.6447 -29.6325 -29.6045 -29.5301 -29.5008
    -5.6966  -4.2084  -3.7773  -3.7249  -3.5543  -3.2167  -3.1738  -2.9919
    -2.9864  -2.9807  -2.9386  -2.8644  -2.8263  -2.6975  -2.6593  -2.2753
    -2.2736  -2.1781  -2.1683  -2.1135  -2.0712  -2.0063  -1.9956  -1.9620
    -1.9167  -1.8939  -1.8037  -1.7877  -1.7551  -1.5631  -1.4904  -1.3556
    -1.0700  -1.0356  -0.7034  -0.6281  -0.6138  -0.5032  -0.3121  -0.2656
     0.0962   0.2840   0.4346   0.5180   0.7148   0.8985   1.1845   1.2627
     1.4138   1.4318   1.7038   1.7784   2.0230   2.1541   2.2651   2.7356
     2.8028   2.9648   3.0817   3.2374   3.6341   3.7468

          k = 0.0300 0.0000 0.0000 ( 30729 PWs)   bands (ev):

   -54.2489 -54.1879 -54.1282 -54.0663 -53.9754 -53.8540 -30.6215 -30.5896
   -30.5809 -30.4664 -30.4571 -30.3341 -30.2873 -30.2473 -30.2202 -30.1766
   -30.1321 -30.0803 -29.9465 -29.6447 -29.6325 -29.6045 -29.5301 -29.5007
    -5.7507  -4.2577  -3.8158  -3.7552  -3.5870  -3.2319  -3.1954  -3.0131
    -2.9997  -2.9969  -2.9584  -2.8749  -2.8486  -2.7251  -2.6729  -2.2783
    -2.2721  -2.1657  -2.1655  -2.1443  -2.0706  -2.0101  -1.9958  -1.9629
    -1.9219  -1.8806  -1.8092  -1.7939  -1.7489  -1.5613  -1.4902  -1.3517
    -1.0578  -1.0165  -0.6738  -0.5689  -0.5394  -0.4959  -0.2900  -0.2449
     0.1992   0.3578   0.4484   0.4606   0.8988   1.1026   1.1531   1.2198
     1.4128   1.4165   1.8919   2.0416   2.1289   2.1490   2.3601   2.4617
     2.7742   2.9658   3.0916   3.1498   3.6202   3.7607

          k = 0.0450 0.0259 0.0000 ( 30694 PWs)   bands (ev):

   -54.2378 -54.1768 -54.1393 -54.0776 -53.9644 -53.8652 -30.5783 -30.5367
   -30.4972 -30.4687 -30.3823 -30.3244 -30.2781 -30.2380 -30.2308 -30.1867
   -30.1431 -30.0674 -29.9595 -29.7388 -29.7002 -29.6229 -29.5941 -29.5397
    -5.4396  -3.9786  -3.6865  -3.5897  -3.4154  -3.1314  -3.0981  -2.9225
    -2.9108  -2.8928  -2.8515  -2.7919  -2.7261  -2.5993  -2.5413  -2.2810
    -2.2792  -2.1648  -2.1634  -2.1367  -2.0772  -2.0181  -1.9734  -1.9616
    -1.9259  -1.9099  -1.8416  -1.8172  -1.7928  -1.6298  -1.5456  -1.5353
    -1.3080  -1.0797  -1.0701  -0.7330  -0.5344  -0.3638  -0.3591  -0.0357
     0.1470   0.2252   0.4521   0.5458   0.7042   0.7824   1.0875   1.1003
     1.2266   1.2886   1.5243   1.6315   1.8006   2.0148   2.1023   2.4803
     2.4916   2.7978   3.0028   3.2311   3.4813   3.6427

          k = 0.0450 0.0432 0.0000 ( 30699 PWs)   bands (ev):

   -54.2377 -54.1767 -54.1394 -54.0776 -53.9645 -53.8651 -30.5796 -30.5379
   -30.4974 -30.4683 -30.3820 -30.3258 -30.2805 -30.2397 -30.2299 -30.1849
   -30.1427 -30.0645 -29.9622 -29.7386 -29.7001 -29.6227 -29.5944 -29.5400
    -5.2392  -3.8145  -3.6372  -3.4681  -3.3123  -3.0462  -3.0430  -2.8691
    -2.8621  -2.8405  -2.7720  -2.7555  -2.6457  -2.5029  -2.4934  -2.2930
    -2.2690  -2.1928  -2.1722  -2.1528  -2.0240  -2.0115  -1.9760  -1.9585
    -1.9361  -1.9059  -1.8331  -1.8135  -1.8039  -1.6337  -1.5985  -1.5416
    -1.3649  -1.1495  -1.1283  -0.8991  -0.7680  -0.4824  -0.4151  -0.1734
     0.0514   0.0559   0.2837   0.4056   0.4381   0.5841   0.7004   0.9656
     1.0099   1.2146   1.5186   1.6286   1.8609   1.9997   2.0660   2.3417
     2.4841   3.0009   3.0099   3.4833   3.4910   3.5800

          k = 0.0450 0.0604 0.0000 ( 30643 PWs)   bands (ev):

   -54.2375 -54.1765 -54.1394 -54.0776 -53.9646 -53.8649 -30.5811 -30.5391
   -30.4977 -30.4679 -30.3816 -30.3276 -30.2832 -30.2415 -30.2288 -30.1828
   -30.1421 -30.0613 -29.9654 -29.7384 -29.6999 -29.6224 -29.5947 -29.5403
    -4.9550  -3.6360  -3.5751  -3.3164  -3.1652  -2.9629  -2.9420  -2.8285
    -2.7844  -2.7250  -2.7029  -2.6705  -2.5356  -2.4573  -2.4139  -2.2669
    -2.2664  -2.2223  -2.1944  -2.1736  -2.0391  -2.0215  -1.9732  -1.9620
    -1.8913  -1.8890  -1.8402  -1.8366  -1.7988  -1.6870  -1.6425  -1.5495
    -1.4394  -1.2999  -1.2310  -1.1163  -0.8851  -0.6202  -0.5451  -0.3873
    -0.2266   0.0064   0.0415   0.1451   0.2480   0.4544   0.4849   0.7307
     0.8041   1.2263   1.5140   1.6027   1.9556   1.9625   2.0342   2.2434
     2.4888   3.0111   3.1178   3.4384   3.5823   3.6053

          k = 0.0450 0.0777 0.0000 ( 30660 PWs)   bands (ev):

   -54.2375 -54.1764 -54.1395 -54.0777 -53.9647 -53.8648 -30.5824 -30.5402
   -30.4980 -30.4675 -30.3813 -30.3293 -30.2854 -30.2428 -30.2279 -30.1811
   -30.1414 -30.0587 -29.9683 -29.7382 -29.6998 -29.6223 -29.5950 -29.5406
    -4.6134  -3.6054  -3.5146  -3.1185  -2.9930  -2.8588  -2.8403  -2.7657
    -2.6999  -2.6297  -2.5951  -2.5633  -2.4610  -2.4292  -2.3931  -2.2990
    -2.2357  -2.2304  -2.1957  -2.1581  -2.0852  -2.0630  -1.9567  -1.9504
    -1.8899  -1.8846  -1.8594  -1.8335  -1.8181  -1.7672  -1.6597  -1.5548
    -1.5195  -1.4913  -1.3374  -1.2892  -0.9562  -0.8013  -0.7376  -0.4992
    -0.4720  -0.1907  -0.1101   0.0481   0.1332   0.3651   0.4038   0.4666
     0.6743   1.2009   1.4762   1.6358   1.8761   1.9917   2.0515   2.2249
     2.5111   2.9995   3.1761   3.2765   3.5040   3.5892

          k = 0.0450 0.0949 0.0000 ( 30658 PWs)   bands (ev):

   -54.2374 -54.1763 -54.1396 -54.0778 -53.9647 -53.8648 -30.5831 -30.5408
   -30.4981 -30.4673 -30.3811 -30.3304 -30.2867 -30.2436 -30.2274 -30.1801
   -30.1409 -30.0572 -29.9700 -29.7381 -29.6997 -29.6221 -29.5951 -29.5408
    -4.2817  -3.7676  -3.4757  -2.9509  -2.8615  -2.7529  -2.7316  -2.7170
    -2.6268  -2.5727  -2.5388  -2.5208  -2.4495  -2.4464  -2.3877  -2.3062
    -2.2308  -2.2235  -2.1732  -2.1468  -2.0611  -2.0552  -1.9734  -1.9654
    -1.9452  -1.8934  -1.8787  -1.8636  -1.8545  -1.7582  -1.6752  -1.6164
    -1.5698  -1.5431  -1.4610  -1.3470  -1.1133  -0.9686  -0.7263  -0.6219
    -0.4606  -0.3163  -0.3091   0.0526   0.1267   0.2590   0.3434   0.3633
     0.5937   1.1780   1.4450   1.6669   1.8112   2.0190   2.0718   2.2309
     2.5309   2.9730   3.0882   3.1972   3.4455   3.5604

          k = 0.0450 0.1122 0.0000 ( 30658 PWs)   bands (ev):

   -54.2374 -54.1763 -54.1396 -54.0778 -53.9647 -53.8648 -30.5831 -30.5408
   -30.4981 -30.4673 -30.3811 -30.3304 -30.2867 -30.2436 -30.2274 -30.1801
   -30.1409 -30.0572 -29.9700 -29.7381 -29.6997 -29.6221 -29.5951 -29.5408
    -4.2817  -3.7676  -3.4757  -2.9509  -2.8615  -2.7530  -2.7316  -2.7170
    -2.6268  -2.5727  -2.5388  -2.5208  -2.4495  -2.4464  -2.3877  -2.3062
    -2.2308  -2.2235  -2.1732  -2.1468  -2.0611  -2.0552  -1.9734  -1.9654
    -1.9452  -1.8934  -1.8787  -1.8636  -1.8545  -1.7582  -1.6752  -1.6164
    -1.5698  -1.5431  -1.4610  -1.3470  -1.1133  -0.9686  -0.7263  -0.6219
    -0.4606  -0.3163  -0.3091   0.0526   0.1267   0.2590   0.3434   0.3633
     0.5937   1.1780   1.4450   1.6669   1.8112   2.0190   2.0718   2.2309
     2.5309   2.9730   3.0882   3.1971   3.4457   3.5624

          k = 0.0450-0.0777 0.0000 ( 30660 PWs)   bands (ev):

   -54.2375 -54.1764 -54.1395 -54.0777 -53.9647 -53.8648 -30.5824 -30.5402
   -30.4980 -30.4675 -30.3813 -30.3293 -30.2854 -30.2428 -30.2279 -30.1811
   -30.1414 -30.0587 -29.9683 -29.7382 -29.6998 -29.6223 -29.5950 -29.5406
    -4.6134  -3.6054  -3.5146  -3.1185  -2.9930  -2.8588  -2.8403  -2.7657
    -2.6999  -2.6297  -2.5951  -2.5633  -2.4610  -2.4292  -2.3931  -2.2990
    -2.2357  -2.2304  -2.1957  -2.1581  -2.0852  -2.0630  -1.9567  -1.9504
    -1.8899  -1.8846  -1.8594  -1.8335  -1.8181  -1.7672  -1.6597  -1.5548
    -1.5195  -1.4913  -1.3374  -1.2892  -0.9562  -0.8013  -0.7376  -0.4992
    -0.4720  -0.1907  -0.1101   0.0481   0.1332   0.3651   0.4038   0.4666
     0.6743   1.2009   1.4762   1.6358   1.8761   1.9916   2.0515   2.2249
     2.5111   2.9994   3.1761   3.2765   3.5039   3.5887

          k = 0.0450-0.0604 0.0000 ( 30643 PWs)   bands (ev):

   -54.2375 -54.1765 -54.1394 -54.0776 -53.9646 -53.8649 -30.5811 -30.5391
   -30.4977 -30.4679 -30.3816 -30.3276 -30.2832 -30.2415 -30.2288 -30.1828
   -30.1421 -30.0613 -29.9654 -29.7384 -29.6999 -29.6224 -29.5947 -29.5403
    -4.9550  -3.6360  -3.5751  -3.3164  -3.1652  -2.9629  -2.9420  -2.8285
    -2.7844  -2.7250  -2.7029  -2.6705  -2.5356  -2.4573  -2.4139  -2.2669
    -2.2664  -2.2223  -2.1944  -2.1736  -2.0391  -2.0215  -1.9732  -1.9620
    -1.8913  -1.8890  -1.8402  -1.8366  -1.7988  -1.6870  -1.6425  -1.5495
    -1.4394  -1.2999  -1.2310  -1.1163  -0.8851  -0.6202  -0.5451  -0.3873
    -0.2266   0.0064   0.0415   0.1451   0.2480   0.4544   0.4849   0.7307
     0.8041   1.2263   1.5140   1.6027   1.9556   1.9625   2.0342   2.2434
     2.4888   3.0112   3.1178   3.4386   3.5821   3.6051

          k = 0.0450-0.0432 0.0000 ( 30699 PWs)   bands (ev):

   -54.2377 -54.1767 -54.1394 -54.0776 -53.9645 -53.8651 -30.5796 -30.5379
   -30.4974 -30.4683 -30.3820 -30.3258 -30.2805 -30.2397 -30.2299 -30.1849
   -30.1427 -30.0645 -29.9622 -29.7386 -29.7001 -29.6227 -29.5944 -29.5400
    -5.2392  -3.8145  -3.6372  -3.4681  -3.3123  -3.0462  -3.0430  -2.8691
    -2.8621  -2.8405  -2.7720  -2.7555  -2.6457  -2.5029  -2.4934  -2.2930
    -2.2690  -2.1928  -2.1722  -2.1528  -2.0240  -2.0115  -1.9760  -1.9585
    -1.9361  -1.9059  -1.8331  -1.8135  -1.8039  -1.6337  -1.5985  -1.5416
    -1.3649  -1.1495  -1.1283  -0.8991  -0.7680  -0.4824  -0.4151  -0.1734
     0.0514   0.0559   0.2837   0.4056   0.4381   0.5841   0.7004   0.9656
     1.0099   1.2146   1.5186   1.6286   1.8609   1.9997   2.0660   2.3417
     2.4841   3.0009   3.0099   3.4833   3.4909   3.5800

          k = 0.0450-0.0259 0.0000 ( 30694 PWs)   bands (ev):

   -54.2378 -54.1768 -54.1393 -54.0776 -53.9644 -53.8652 -30.5783 -30.5367
   -30.4972 -30.4687 -30.3823 -30.3244 -30.2781 -30.2380 -30.2308 -30.1867
   -30.1431 -30.0674 -29.9595 -29.7388 -29.7002 -29.6229 -29.5941 -29.5397
    -5.4396  -3.9786  -3.6865  -3.5897  -3.4154  -3.1314  -3.0981  -2.9224
    -2.9108  -2.8928  -2.8515  -2.7919  -2.7261  -2.5993  -2.5413  -2.2810
    -2.2792  -2.1648  -2.1634  -2.1367  -2.0772  -2.0181  -1.9734  -1.9616
    -1.9259  -1.9099  -1.8416  -1.8172  -1.7928  -1.6298  -1.5456  -1.5353
    -1.3080  -1.0797  -1.0701  -0.7330  -0.5344  -0.3638  -0.3591  -0.0357
     0.1470   0.2252   0.4521   0.5458   0.7042   0.7824   1.0875   1.1003
     1.2266   1.2886   1.5243   1.6315   1.8006   2.0148   2.1023   2.4803
     2.4915   2.7978   3.0029   3.2311   3.4813   3.6428

          k = 0.0450-0.0086 0.0000 ( 30729 PWs)   bands (ev):

   -54.2379 -54.1769 -54.1394 -54.0776 -53.9644 -53.8653 -30.5776 -30.5361
   -30.4970 -30.4689 -30.3825 -30.3236 -30.2768 -30.2368 -30.2313 -30.1877
   -30.1433 -30.0691 -29.9580 -29.7389 -29.7003 -29.6230 -29.5940 -29.5395
    -5.5428  -4.0686  -3.7137  -3.6581  -3.4680  -3.1780  -3.1270  -2.9541
    -2.9436  -2.9052  -2.8942  -2.8102  -2.7687  -2.6622  -2.5627  -2.2861
    -2.2706  -2.1564  -2.1459  -2.1294  -2.1187  -2.0339  -1.9694  -1.9639
    -1.9426  -1.8830  -1.8485  -1.8264  -1.7826  -1.6282  -1.5322  -1.5238
    -1.2780  -1.0538  -1.0400  -0.6507  -0.3759  -0.3166  -0.2861  -0.0008
     0.2490   0.3209   0.5217   0.5509   0.8900   1.0513   1.0575   1.2333
     1.2550   1.5484   1.6489   1.7715   1.8096   2.0620   2.1266   2.4040
     2.5137   2.6125   2.9621   2.9901   3.4537   3.6615

          k = 0.0450 0.0086 0.0000 ( 30729 PWs)   bands (ev):

   -54.2379 -54.1769 -54.1394 -54.0776 -53.9644 -53.8653 -30.5776 -30.5361
   -30.4970 -30.4689 -30.3825 -30.3236 -30.2768 -30.2368 -30.2313 -30.1877
   -30.1433 -30.0691 -29.9580 -29.7389 -29.7003 -29.6230 -29.5940 -29.5395
    -5.5428  -4.0686  -3.7137  -3.6581  -3.4680  -3.1780  -3.1270  -2.9542
    -2.9436  -2.9052  -2.8942  -2.8102  -2.7687  -2.6622  -2.5627  -2.2861
    -2.2706  -2.1564  -2.1459  -2.1294  -2.1187  -2.0339  -1.9694  -1.9639
    -1.9426  -1.8830  -1.8485  -1.8264  -1.7826  -1.6282  -1.5322  -1.5238
    -1.2780  -1.0538  -1.0400  -0.6507  -0.3759  -0.3166  -0.2861  -0.0008
     0.2490   0.3209   0.5217   0.5509   0.8900   1.0513   1.0575   1.2333
     1.2550   1.5484   1.6489   1.7715   1.8096   2.0620   2.1266   2.4040
     2.5137   2.6125   2.9621   2.9901   3.4536   3.6610

          k = 0.0600 0.0345 0.0000 ( 30703 PWs)   bands (ev):

   -54.2235 -54.1624 -54.1540 -54.0923 -53.9499 -53.8799 -30.5629 -30.4867
   -30.4245 -30.3840 -30.3110 -30.2721 -30.2652 -30.2447 -30.2248 -30.2002
   -30.1573 -30.0516 -29.9754 -29.8604 -29.8217 -29.7145 -29.6108 -29.5520
    -5.1028  -3.7442  -3.6957  -3.3566  -3.2728  -3.0643  -2.9664  -2.8510
    -2.8140  -2.7945  -2.7462  -2.7014  -2.6219  -2.4631  -2.4261  -2.2959
    -2.2824  -2.2076  -2.1916  -2.1567  -2.0555  -2.0228  -1.9971  -1.9367
    -1.9341  -1.9071  -1.8818  -1.8565  -1.8387  -1.7814  -1.7015  -1.5946
    -1.5352  -1.4383  -1.0574  -0.8275  -0.5471  -0.4523  -0.1703   0.0475
     0.1377   0.2555   0.4765   0.5206   0.6160   0.7723   0.8845   1.0666
     1.1204   1.1661   1.4300   1.4789   1.7314   1.7863   1.9872   2.1129
     2.2741   2.7794   2.9812   3.2139   3.2970   3.3501

          k = 0.0600 0.0518 0.0000 ( 30656 PWs)   bands (ev):

   -54.2234 -54.1622 -54.1539 -54.0923 -53.9501 -53.8797 -30.5643 -30.4860
   -30.4256 -30.3843 -30.3126 -30.2718 -30.2677 -30.2435 -30.2265 -30.1980
   -30.1566 -30.0485 -29.9784 -29.8601 -29.8215 -29.7148 -29.6105 -29.5523
    -4.8747  -3.7806  -3.5401  -3.2421  -3.1882  -2.9646  -2.9079  -2.7883
    -2.7773  -2.7294  -2.6698  -2.6625  -2.5501  -2.4021  -2.4007  -2.2904
    -2.2458  -2.2422  -2.2169  -2.1801  -2.0446  -2.0347  -1.9826  -1.9716
    -1.9190  -1.8928  -1.8871  -1.8547  -1.8511  -1.8133  -1.7041  -1.6065
    -1.6001  -1.4923  -1.1159  -0.9666  -0.7379  -0.5883  -0.2049  -0.1669
    -0.1556   0.2415   0.2819   0.3232   0.4211   0.6538   0.7554   0.9283
     0.9489   1.2027   1.4748   1.5372   1.7285   1.7831   1.9707   2.0559
     2.3250   2.9346   2.9863   3.3151   3.3278   3.4427

          k = 0.0600 0.0690 0.0000 ( 30647 PWs)   bands (ev):

   -54.2233 -54.1621 -54.1540 -54.0923 -53.9502 -53.8795 -30.5656 -30.4854
   -30.4267 -30.3846 -30.3143 -30.2714 -30.2702 -30.2424 -30.2279 -30.1960
   -30.1557 -30.0455 -29.9816 -29.8598 -29.8213 -29.7151 -29.6103 -29.5526
    -4.5801  -3.8074  -3.4344  -3.1063  -3.0706  -2.8627  -2.8281  -2.7324
    -2.7070  -2.6335  -2.6331  -2.5637  -2.4723  -2.3969  -2.3894  -2.3005
    -2.2631  -2.2485  -2.2483  -2.1455  -2.0766  -2.0617  -1.9867  -1.9797
    -1.9336  -1.9077  -1.8887  -1.8784  -1.8390  -1.8269  -1.7175  -1.6803
    -1.6175  -1.5627  -1.2458  -1.1243  -0.8218  -0.7901  -0.4027  -0.3089
    -0.2340   0.0197   0.1654   0.2581   0.3286   0.5292   0.6712   0.7311
     0.8495   1.2750   1.4951   1.5736   1.7722   1.7920   1.9591   2.0535
     2.3730   2.9274   3.0075   3.2804   3.3478   3.4296

          k = 0.0600 0.0863 0.0000 ( 30670 PWs)   bands (ev):

   -54.2232 -54.1620 -54.1540 -54.0924 -53.9503 -53.8795 -30.5665 -30.4849
   -30.4274 -30.3849 -30.3156 -30.2719 -30.2712 -30.2415 -30.2289 -30.1945
   -30.1550 -30.0434 -29.9840 -29.8595 -29.8212 -29.7153 -29.6101 -29.5529
    -4.2577  -3.8224  -3.5102  -2.9533  -2.9480  -2.7592  -2.7312  -2.6624
    -2.6318  -2.5898  -2.5636  -2.5067  -2.4700  -2.4204  -2.3253  -2.3175
    -2.2994  -2.2736  -2.2503  -2.1183  -2.0936  -2.0816  -2.0089  -1.9926
    -1.9839  -1.9578  -1.9252  -1.8822  -1.8429  -1.7974  -1.7399  -1.7367
    -1.6346  -1.6274  -1.3365  -1.2579  -0.9635  -0.9480  -0.4439  -0.3685
    -0.2309  -0.1173   0.0612   0.1187   0.3763   0.4435   0.4851   0.7223
     0.7837   1.3244   1.4452   1.5483   1.7985   1.9019   1.9823   2.1105
     2.4054   2.8152   3.0290   3.0823   3.2572   3.3817

          k = 0.0600 0.1036 0.0000 ( 30664 PWs)   bands (ev):

   -54.2232 -54.1620 -54.1541 -54.0924 -53.9503 -53.8795 -30.5669 -30.4847
   -30.4277 -30.3850 -30.3161 -30.2726 -30.2711 -30.2412 -30.2292 -30.1940
   -30.1547 -30.0427 -29.9848 -29.8594 -29.8211 -29.7154 -29.6101 -29.5529
    -4.0546  -3.8272  -3.6400  -2.8908  -2.8871  -2.6687  -2.6582  -2.6454
    -2.6001  -2.5935  -2.5401  -2.5143  -2.4738  -2.4686  -2.3429  -2.3223
    -2.2767  -2.2070  -2.1876  -2.1426  -2.1087  -2.1045  -2.0661  -2.0172
    -2.0135  -1.9776  -1.9433  -1.8798  -1.8406  -1.7861  -1.7527  -1.7450
    -1.6684  -1.6337  -1.3613  -1.3154  -1.0227  -1.0207  -0.4209  -0.3874
    -0.1590  -0.1421  -0.1108   0.1322   0.3433   0.3983   0.4647   0.7290
     0.7539   1.3318   1.4299   1.5325   1.7942   1.9478   2.0002   2.1959
     2.4175   2.7734   2.8727   3.0306   3.2191   3.3970

          k = 0.0600 0.1208 0.0000 ( 30670 PWs)   bands (ev):

   -54.2232 -54.1620 -54.1540 -54.0924 -53.9503 -53.8795 -30.5665 -30.4849
   -30.4274 -30.3849 -30.3156 -30.2719 -30.2712 -30.2415 -30.2289 -30.1945
   -30.1550 -30.0434 -29.9840 -29.8595 -29.8212 -29.7153 -29.6101 -29.5529
    -4.2577  -3.8224  -3.5102  -2.9533  -2.9480  -2.7592  -2.7312  -2.6624
    -2.6318  -2.5898  -2.5636  -2.5067  -2.4700  -2.4204  -2.3253  -2.3175
    -2.2994  -2.2736  -2.2503  -2.1183  -2.0936  -2.0816  -2.0089  -1.9926
    -1.9839  -1.9578  -1.9252  -1.8822  -1.8429  -1.7974  -1.7399  -1.7367
    -1.6346  -1.6274  -1.3365  -1.2579  -0.9635  -0.9480  -0.4439  -0.3685
    -0.2309  -0.1173   0.0612   0.1187   0.3763   0.4435   0.4851   0.7223
     0.7837   1.3244   1.4452   1.5483   1.7985   1.9019   1.9823   2.1105
     2.4054   2.8152   3.0291   3.0823   3.2573   3.3816

          k = 0.0600-0.0690 0.0000 ( 30647 PWs)   bands (ev):

   -54.2233 -54.1621 -54.1540 -54.0923 -53.9502 -53.8795 -30.5656 -30.4854
   -30.4267 -30.3846 -30.3143 -30.2714 -30.2702 -30.2424 -30.2279 -30.1960
   -30.1557 -30.0455 -29.9816 -29.8598 -29.8213 -29.7151 -29.6103 -29.5526
    -4.5801  -3.8074  -3.4344  -3.1063  -3.0706  -2.8627  -2.8281  -2.7324
    -2.7070  -2.6335  -2.6331  -2.5637  -2.4723  -2.3969  -2.3894  -2.3005
    -2.2631  -2.2485  -2.2483  -2.1455  -2.0766  -2.0617  -1.9867  -1.9797
    -1.9336  -1.9077  -1.8887  -1.8784  -1.8390  -1.8269  -1.7175  -1.6803
    -1.6175  -1.5627  -1.2458  -1.1243  -0.8218  -0.7901  -0.4027  -0.3089
    -0.2340   0.0197   0.1654   0.2581   0.3286   0.5292   0.6712   0.7311
     0.8495   1.2750   1.4951   1.5736   1.7722   1.7920   1.9591   2.0535
     2.3730   2.9274   3.0075   3.2804   3.3478   3.4294

          k = 0.0600-0.0518 0.0000 ( 30656 PWs)   bands (ev):

   -54.2234 -54.1622 -54.1539 -54.0923 -53.9501 -53.8797 -30.5643 -30.4860
   -30.4256 -30.3843 -30.3126 -30.2718 -30.2677 -30.2435 -30.2265 -30.1980
   -30.1566 -30.0485 -29.9784 -29.8601 -29.8215 -29.7148 -29.6105 -29.5523
    -4.8747  -3.7806  -3.5401  -3.2421  -3.1882  -2.9646  -2.9079  -2.7883
    -2.7773  -2.7294  -2.6698  -2.6625  -2.5501  -2.4021  -2.4007  -2.2904
    -2.2458  -2.2422  -2.2169  -2.1801  -2.0446  -2.0347  -1.9826  -1.9716
    -1.9190  -1.8928  -1.8871  -1.8547  -1.8511  -1.8133  -1.7041  -1.6065
    -1.6001  -1.4923  -1.1159  -0.9666  -0.7379  -0.5883  -0.2049  -0.1669
    -0.1556   0.2415   0.2819   0.3232   0.4211   0.6538   0.7554   0.9283
     0.9489   1.2027   1.4748   1.5372   1.7285   1.7831   1.9707   2.0559
     2.3250   2.9346   2.9863   3.3151   3.3277   3.4427

          k = 0.0600-0.0345 0.0000 ( 30703 PWs)   bands (ev):

   -54.2235 -54.1624 -54.1540 -54.0923 -53.9499 -53.8799 -30.5629 -30.4867
   -30.4245 -30.3840 -30.3110 -30.2721 -30.2652 -30.2447 -30.2248 -30.2002
   -30.1573 -30.0516 -29.9754 -29.8604 -29.8217 -29.7145 -29.6108 -29.5520
    -5.1028  -3.7442  -3.6957  -3.3566  -3.2728  -3.0643  -2.9664  -2.8510
    -2.8140  -2.7945  -2.7462  -2.7014  -2.6219  -2.4631  -2.4261  -2.2959
    -2.2824  -2.2076  -2.1916  -2.1567  -2.0555  -2.0228  -1.9971  -1.9367
    -1.9341  -1.9071  -1.8818  -1.8565  -1.8387  -1.7814  -1.7015  -1.5946
    -1.5352  -1.4383  -1.0574  -0.8275  -0.5471  -0.4523  -0.1703   0.0475
     0.1377   0.2555   0.4765   0.5206   0.6160   0.7723   0.8845   1.0666
     1.1204   1.1661   1.4300   1.4789   1.7314   1.7863   1.9872   2.1129
     2.2741   2.7794   2.9812   3.2138   3.2971   3.3501

          k = 0.0600-0.0173 0.0000 ( 30681 PWs)   bands (ev):

   -54.2235 -54.1624 -54.1539 -54.0922 -53.9498 -53.8800 -30.5620 -30.4871
   -30.4237 -30.3837 -30.3099 -30.2724 -30.2633 -30.2455 -30.2234 -30.2017
   -30.1577 -30.0540 -29.9733 -29.8606 -29.8218 -29.7142 -29.6109 -29.5518
    -5.2458  -3.8073  -3.7083  -3.4377  -3.3185  -3.1474  -3.0034  -2.8857
    -2.8643  -2.8055  -2.8018  -2.7225  -2.6626  -2.5533  -2.4451  -2.3043
    -2.2762  -2.1968  -2.1482  -2.1459  -2.0948  -2.0461  -1.9904  -1.9598
    -1.9161  -1.8948  -1.8836  -1.8649  -1.8280  -1.7592  -1.7021  -1.5870
    -1.4965  -1.4031  -1.0480  -0.7420  -0.3716  -0.3250  -0.1458   0.2360
     0.2561   0.3664   0.5630   0.6257   0.7564   0.9145   1.0583   1.1430
     1.1545   1.3364   1.4585   1.6231   1.6793   1.7788   1.9719   2.2005
     2.2152   2.5645   2.8848   2.9637   3.2812   3.3561

          k = 0.0600 0.0000 0.0000 ( 30681 PWs)   bands (ev):

   -54.2236 -54.1625 -54.1538 -54.0922 -53.9499 -53.8800 -30.5617 -30.4873
   -30.4234 -30.3836 -30.3096 -30.2725 -30.2627 -30.2458 -30.2228 -30.2023
   -30.1578 -30.0550 -29.9725 -29.8607 -29.8219 -29.7142 -29.6110 -29.5517
    -5.2944  -3.8467  -3.6923  -3.4668  -3.3311  -3.1826  -3.0161  -2.8968
    -2.8783  -2.8283  -2.8042  -2.7298  -2.6710  -2.5958  -2.4522  -2.3076
    -2.2697  -2.1954  -2.1443  -2.1153  -2.1073  -2.0789  -1.9814  -1.9741
    -1.9181  -1.8848  -1.8791  -1.8688  -1.8249  -1.7522  -1.7024  -1.5845
    -1.4840  -1.3906  -1.0468  -0.7147  -0.3437  -0.2305  -0.1288   0.2233
     0.3726   0.4616   0.5637   0.6418   0.7359   0.9600   1.0413   1.1798
     1.3461   1.5020   1.5120   1.6241   1.6341   1.9187   1.9592   2.0601
     2.2418   2.4701   2.7231   2.9573   3.2579   3.3903

          k = 0.0600 0.0173 0.0000 ( 30681 PWs)   bands (ev):

   -54.2235 -54.1624 -54.1539 -54.0922 -53.9498 -53.8800 -30.5620 -30.4871
   -30.4237 -30.3837 -30.3099 -30.2724 -30.2633 -30.2455 -30.2234 -30.2017
   -30.1577 -30.0540 -29.9733 -29.8606 -29.8218 -29.7142 -29.6109 -29.5518
    -5.2458  -3.8073  -3.7083  -3.4377  -3.3185  -3.1474  -3.0034  -2.8857
    -2.8643  -2.8055  -2.8018  -2.7225  -2.6626  -2.5533  -2.4451  -2.3043
    -2.2762  -2.1968  -2.1482  -2.1459  -2.0948  -2.0461  -1.9904  -1.9598
    -1.9161  -1.8948  -1.8836  -1.8649  -1.8280  -1.7592  -1.7021  -1.5870
    -1.4965  -1.4031  -1.0480  -0.7420  -0.3716  -0.3250  -0.1458   0.2360
     0.2561   0.3664   0.5630   0.6257   0.7564   0.9145   1.0583   1.1430
     1.1545   1.3364   1.4585   1.6231   1.6793   1.7788   1.9719   2.2005
     2.2152   2.5645   2.8848   2.9636   3.2812   3.3561

          k = 0.0751 0.0432 0.0000 ( 30626 PWs)   bands (ev):

   -54.2067 -54.1707 -54.1454 -54.1092 -53.9331 -53.8968 -30.5448 -30.5053
   -30.2953 -30.2923 -30.2610 -30.2522 -30.2499 -30.2161 -30.2092 -30.1760
   -30.1382 -30.0333 -29.9998 -29.9939 -29.9610 -29.8521 -29.5967 -29.5663
    -4.7125  -3.9616  -3.4148  -3.1915  -3.1239  -2.9850  -2.8474  -2.7863
    -2.7258  -2.7114  -2.6367  -2.6144  -2.5310  -2.3995  -2.3878  -2.3440
    -2.2435  -2.2250  -2.2063  -2.1897  -2.0629  -2.0495  -1.9848  -1.9674
    -1.9574  -1.9160  -1.9100  -1.8981  -1.8644  -1.8113  -1.7656  -1.7622
    -1.7231  -1.6633  -1.0229  -0.9060  -0.6013  -0.5355  -0.1732  -0.1492
     0.1695   0.3356   0.4155   0.4773   0.7668   0.8704   0.8878   1.0438
     1.0753   1.3188   1.3534   1.3960   1.6238   1.6898   1.7414   1.9271
     2.0247   2.6635   2.9204   2.9665   3.1968   3.2739

          k = 0.0751 0.0604 0.0000 ( 30635 PWs)   bands (ev):

   -54.2067 -54.1708 -54.1454 -54.1093 -53.9332 -53.8967 -30.5460 -30.5044
   -30.2969 -30.2933 -30.2600 -30.2524 -30.2523 -30.2139 -30.2107 -30.1748
   -30.1380 -30.0302 -29.9993 -29.9970 -29.9607 -29.8524 -29.5965 -29.5666
    -4.4786  -4.0818  -3.3119  -3.1511  -3.0569  -2.9065  -2.8015  -2.7414
    -2.7152  -2.6609  -2.6033  -2.5529  -2.4794  -2.4060  -2.3966  -2.3763
    -2.2740  -2.2545  -2.1830  -2.1258  -2.0691  -2.0605  -1.9978  -1.9796
    -1.9685  -1.9319  -1.9221  -1.8964  -1.8594  -1.8210  -1.8035  -1.7712
    -1.7510  -1.6797  -1.0523  -0.9838  -0.6996  -0.6834  -0.2513  -0.2149
     0.0737   0.2180   0.3173   0.3903   0.6795   0.7436   0.8399   0.9322
     1.1647   1.2564   1.5043   1.5227   1.5720   1.5960   1.7558   1.9170
     2.0864   2.7040   2.9185   3.0814   3.1575   3.3596

          k = 0.0751 0.0777 0.0000 ( 30651 PWs)   bands (ev):

   -54.2066 -54.1709 -54.1453 -54.1094 -53.9334 -53.8966 -30.5471 -30.5037
   -30.2983 -30.2941 -30.2592 -30.2545 -30.2523 -30.2120 -30.2118 -30.1736
   -30.1378 -30.0275 -29.9999 -29.9989 -29.9605 -29.8527 -29.5962 -29.5669
    -4.2026  -4.1695  -3.2999  -3.0940  -2.9904  -2.8308  -2.7480  -2.6869
    -2.6697  -2.6315  -2.5930  -2.4843  -2.4686  -2.4520  -2.4060  -2.3800
    -2.3005  -2.2438  -2.1804  -2.0948  -2.0840  -2.0599  -2.0472  -2.0019
    -1.9984  -1.9603  -1.9374  -1.8901  -1.8808  -1.8599  -1.8189  -1.7905
    -1.7560  -1.6943  -1.0797  -1.0385  -0.9034  -0.7936  -0.1820  -0.1483
     0.0310   0.0806   0.2183   0.4223   0.6167   0.6331   0.6765   0.9427
     1.1235   1.3904   1.4313   1.5476   1.5772   1.7085   1.8176   1.9779
     2.1436   2.7145   2.7527   3.0099   3.1891   3.3104

          k = 0.0751 0.0949 0.0000 ( 30669 PWs)   bands (ev):

   -54.2066 -54.1709 -54.1453 -54.1094 -53.9335 -53.8966 -30.5477 -30.5033
   -30.2991 -30.2946 -30.2588 -30.2557 -30.2522 -30.2124 -30.2110 -30.1729
   -30.1376 -30.0261 -30.0016 -29.9987 -29.9604 -29.8529 -29.5961 -29.5670
    -4.2154  -3.9504  -3.4194  -3.0465  -2.9282  -2.7712  -2.6972  -2.6448
    -2.6228  -2.6120  -2.5851  -2.5330  -2.5141  -2.4368  -2.4194  -2.3277
    -2.2383  -2.2330  -2.1797  -2.1369  -2.1142  -2.1035  -2.0744  -2.0482
    -2.0157  -1.9790  -1.9370  -1.9154  -1.8850  -1.8772  -1.8087  -1.8030
    -1.7584  -1.7036  -1.0685  -1.0643  -1.0176  -0.9023  -0.0981  -0.0520
     0.0134   0.0955   0.1749   0.2866   0.4910   0.6479   0.6882   0.8951
     1.1470   1.2823   1.5365   1.5719   1.5742   1.7373   1.8786   2.1755
     2.2042   2.5720   2.7078   2.8732   2.9874   3.2647

          k = 0.0751 0.1122 0.0000 ( 30669 PWs)   bands (ev):

   -54.2066 -54.1709 -54.1453 -54.1094 -53.9335 -53.8966 -30.5477 -30.5033
   -30.2991 -30.2946 -30.2588 -30.2557 -30.2522 -30.2124 -30.2110 -30.1729
   -30.1376 -30.0261 -30.0016 -29.9987 -29.9604 -29.8529 -29.5961 -29.5670
    -4.2154  -3.9504  -3.4194  -3.0465  -2.9282  -2.7712  -2.6972  -2.6448
    -2.6228  -2.6120  -2.5851  -2.5330  -2.5141  -2.4368  -2.4194  -2.3277
    -2.2383  -2.2330  -2.1797  -2.1369  -2.1142  -2.1035  -2.0744  -2.0482
    -2.0157  -1.9790  -1.9370  -1.9154  -1.8850  -1.8772  -1.8087  -1.8030
    -1.7584  -1.7036  -1.0685  -1.0643  -1.0176  -0.9023  -0.0981  -0.0520
     0.0134   0.0955   0.1749   0.2866   0.4910   0.6479   0.6882   0.8951
     1.1470   1.2823   1.5365   1.5719   1.5742   1.7373   1.8786   2.1755
     2.2042   2.5720   2.7078   2.8732   2.9874   3.2648

          k = 0.0751 0.1295 0.0000 ( 30651 PWs)   bands (ev):

   -54.2066 -54.1709 -54.1453 -54.1094 -53.9334 -53.8966 -30.5471 -30.5037
   -30.2983 -30.2941 -30.2592 -30.2545 -30.2523 -30.2120 -30.2118 -30.1736
   -30.1378 -30.0275 -29.9999 -29.9989 -29.9605 -29.8527 -29.5962 -29.5669
    -4.2026  -4.1695  -3.2999  -3.0940  -2.9904  -2.8308  -2.7480  -2.6869
    -2.6697  -2.6315  -2.5930  -2.4843  -2.4686  -2.4520  -2.4060  -2.3800
    -2.3005  -2.2438  -2.1804  -2.0948  -2.0840  -2.0599  -2.0472  -2.0019
    -1.9984  -1.9603  -1.9374  -1.8901  -1.8808  -1.8599  -1.8189  -1.7905
    -1.7560  -1.6943  -1.0797  -1.0385  -0.9034  -0.7936  -0.1820  -0.1483
     0.0310   0.0806   0.2183   0.4223   0.6167   0.6331   0.6765   0.9427
     1.1235   1.3904   1.4313   1.5476   1.5772   1.7085   1.8176   1.9779
     2.1436   2.7145   2.7527   3.0099   3.1891   3.3104

          k = 0.0751-0.0604 0.0000 ( 30635 PWs)   bands (ev):

   -54.2067 -54.1708 -54.1454 -54.1093 -53.9332 -53.8967 -30.5460 -30.5044
   -30.2969 -30.2933 -30.2600 -30.2524 -30.2523 -30.2139 -30.2107 -30.1748
   -30.1380 -30.0302 -29.9993 -29.9970 -29.9607 -29.8524 -29.5965 -29.5666
    -4.4786  -4.0818  -3.3119  -3.1511  -3.0569  -2.9065  -2.8015  -2.7414
    -2.7152  -2.6609  -2.6033  -2.5529  -2.4794  -2.4060  -2.3966  -2.3763
    -2.2740  -2.2545  -2.1830  -2.1258  -2.0691  -2.0605  -1.9978  -1.9796
    -1.9685  -1.9319  -1.9221  -1.8964  -1.8594  -1.8210  -1.8035  -1.7712
    -1.7510  -1.6797  -1.0523  -0.9838  -0.6996  -0.6834  -0.2513  -0.2149
     0.0737   0.2180   0.3173   0.3903   0.6795   0.7436   0.8399   0.9322
     1.1647   1.2564   1.5043   1.5227   1.5720   1.5960   1.7558   1.9170
     2.0864   2.7040   2.9185   3.0814   3.1575   3.3595

          k = 0.0751-0.0432 0.0000 ( 30626 PWs)   bands (ev):

   -54.2067 -54.1707 -54.1454 -54.1092 -53.9331 -53.8968 -30.5448 -30.5053
   -30.2953 -30.2923 -30.2610 -30.2522 -30.2499 -30.2161 -30.2092 -30.1760
   -30.1382 -30.0333 -29.9998 -29.9939 -29.9610 -29.8521 -29.5967 -29.5663
    -4.7125  -3.9616  -3.4148  -3.1915  -3.1239  -2.9850  -2.8474  -2.7863
    -2.7258  -2.7114  -2.6367  -2.6144  -2.5310  -2.3995  -2.3878  -2.3440
    -2.2435  -2.2250  -2.2063  -2.1897  -2.0629  -2.0495  -1.9848  -1.9674
    -1.9574  -1.9160  -1.9100  -1.8981  -1.8644  -1.8113  -1.7656  -1.7622
    -1.7231  -1.6633  -1.0229  -0.9060  -0.6013  -0.5355  -0.1732  -0.1492
     0.1695   0.3356   0.4155   0.4773   0.7668   0.8704   0.8878   1.0438
     1.0753   1.3188   1.3534   1.3960   1.6238   1.6898   1.7414   1.9271
     2.0247   2.6635   2.9204   2.9665   3.1970   3.2738

          k = 0.0751-0.0259 0.0000 ( 30638 PWs)   bands (ev):

   -54.2068 -54.1707 -54.1455 -54.1091 -53.9330 -53.8969 -30.5438 -30.5060
   -30.2941 -30.2914 -30.2621 -30.2521 -30.2478 -30.2180 -30.2078 -30.1769
   -30.1384 -30.0362 -30.0003 -29.9912 -29.9612 -29.8518 -29.5970 -29.5660
    -4.8789  -3.8274  -3.5119  -3.2098  -3.1855  -3.0754  -2.8811  -2.8134
    -2.7659  -2.7195  -2.7038  -2.6245  -2.5631  -2.4299  -2.3971  -2.3269
    -2.2764  -2.2052  -2.1949  -2.1851  -2.0888  -2.0356  -2.0063  -1.9839
    -1.9277  -1.9109  -1.8988  -1.8979  -1.8662  -1.8282  -1.7678  -1.7266
    -1.7002  -1.6506  -1.0297  -0.8314  -0.5110  -0.4922  -0.0681   0.0965
     0.2576   0.4012   0.6410   0.6780   0.7261   0.8800   0.9485   0.9996
     1.1621   1.2342   1.4195   1.4542   1.6272   1.7420   1.7486   1.9483
     2.0467   2.5652   2.7323   2.9078   2.9676   3.3300

          k = 0.0751-0.0086 0.0000 ( 30658 PWs)   bands (ev):

   -54.2068 -54.1707 -54.1456 -54.1092 -53.9329 -53.8971 -30.5432 -30.5064
   -30.2934 -30.2909 -30.2627 -30.2521 -30.2465 -30.2191 -30.2068 -30.1773
   -30.1386 -30.0379 -30.0005 -29.9897 -29.9613 -29.8516 -29.5971 -29.5659
    -4.9650  -3.7220  -3.5664  -3.2208  -3.2151  -3.1579  -2.8990  -2.8265
    -2.7896  -2.7462  -2.7127  -2.6304  -2.5579  -2.4911  -2.4072  -2.3237
    -2.2942  -2.2110  -2.1595  -2.1407  -2.1249  -2.0593  -2.0177  -2.0025
    -1.9157  -1.8989  -1.8953  -1.8810  -1.8719  -1.8495  -1.7688  -1.7059
    -1.6931  -1.6447  -1.0410  -0.7880  -0.5146  -0.4190  -0.0196   0.3107
     0.3735   0.5490   0.6257   0.7183   0.7999   0.8196   0.9151   1.0261
     1.1868   1.3263   1.5006   1.5623   1.5686   1.7103   1.8589   1.9690
     2.1381   2.4156   2.5823   2.7068   2.9623   3.2105

          k = 0.0751 0.0086 0.0000 ( 30658 PWs)   bands (ev):

   -54.2068 -54.1707 -54.1456 -54.1092 -53.9329 -53.8971 -30.5432 -30.5064
   -30.2934 -30.2909 -30.2627 -30.2521 -30.2465 -30.2191 -30.2068 -30.1773
   -30.1386 -30.0379 -30.0005 -29.9897 -29.9613 -29.8516 -29.5971 -29.5659
    -4.9650  -3.7220  -3.5664  -3.2208  -3.2151  -3.1579  -2.8990  -2.8265
    -2.7896  -2.7462  -2.7127  -2.6304  -2.5579  -2.4911  -2.4072  -2.3237
    -2.2942  -2.2110  -2.1595  -2.1407  -2.1249  -2.0593  -2.0177  -2.0025
    -1.9157  -1.8989  -1.8953  -1.8810  -1.8719  -1.8495  -1.7688  -1.7059
    -1.6931  -1.6447  -1.0410  -0.7880  -0.5146  -0.4190  -0.0196   0.3107
     0.3735   0.5490   0.6257   0.7183   0.7999   0.8196   0.9151   1.0261
     1.1868   1.3263   1.5006   1.5623   1.5686   1.7103   1.8589   1.9690
     2.1381   2.4156   2.5823   2.7069   2.9624   3.2113

          k = 0.0751 0.0259 0.0000 ( 30638 PWs)   bands (ev):

   -54.2068 -54.1707 -54.1455 -54.1091 -53.9330 -53.8969 -30.5438 -30.5060
   -30.2941 -30.2914 -30.2621 -30.2521 -30.2478 -30.2180 -30.2078 -30.1769
   -30.1384 -30.0362 -30.0003 -29.9912 -29.9612 -29.8518 -29.5970 -29.5660
    -4.8789  -3.8274  -3.5119  -3.2098  -3.1855  -3.0754  -2.8811  -2.8134
    -2.7659  -2.7195  -2.7038  -2.6245  -2.5631  -2.4299  -2.3971  -2.3269
    -2.2764  -2.2052  -2.1949  -2.1851  -2.0888  -2.0356  -2.0063  -1.9839
    -1.9277  -1.9109  -1.8988  -1.8979  -1.8662  -1.8282  -1.7678  -1.7266
    -1.7002  -1.6506  -1.0297  -0.8314  -0.5110  -0.4922  -0.0681   0.0965
     0.2576   0.4012   0.6410   0.6780   0.7261   0.8800   0.9485   0.9996
     1.1621   1.2342   1.4195   1.4542   1.6272   1.7420   1.7486   1.9483
     2.0467   2.5652   2.7323   2.9078   2.9676   3.3300

          k =-0.0901-0.0518 0.0000 ( 30656 PWs)   bands (ev):

   -54.1888 -54.1888 -54.1274 -54.1274 -53.9150 -53.9150 -30.5252 -30.5252
   -30.2784 -30.2784 -30.2335 -30.2335 -30.1924 -30.1924 -30.1468 -30.1468
   -30.1076 -30.1076 -30.0136 -30.0136 -29.9971 -29.9971 -29.5816 -29.5816
    -4.3104  -4.3103  -3.2276  -3.2276  -2.9787  -2.9787  -2.7740  -2.7740
    -2.6905  -2.6905  -2.5619  -2.5619  -2.4475  -2.4475  -2.4196  -2.4196
    -2.2588  -2.2588  -2.1252  -2.1252  -2.0544  -2.0544  -1.9769  -1.9769
    -1.9563  -1.9563  -1.9286  -1.9286  -1.9012  -1.9012  -1.8082  -1.8082
    -1.7352  -1.7352  -0.9702  -0.9702  -0.5976  -0.5976  -0.2539  -0.2539
     0.3173   0.3173   0.3971   0.3971   0.8713   0.8713   0.9502   0.9502
     1.2976   1.2976   1.4218   1.4218   1.5498   1.5498   1.7627   1.7627
     2.1472   2.1472   2.9187   2.9187   3.2447   3.2447

          k =-0.0901-0.0345 0.0000 ( 30660 PWs)   bands (ev):

   -54.1889 -54.1887 -54.1275 -54.1273 -53.9152 -53.9149 -30.5262 -30.5242
   -30.2797 -30.2771 -30.2358 -30.2312 -30.1936 -30.1911 -30.1474 -30.1461
   -30.1079 -30.1074 -30.0167 -30.0106 -29.9974 -29.9968 -29.5818 -29.5813
    -4.4736  -4.1042  -3.2602  -3.2009  -3.0037  -2.9715  -2.7784  -2.7683
    -2.6984  -2.6759  -2.5988  -2.5431  -2.4763  -2.4481  -2.4274  -2.3871
    -2.2605  -2.2408  -2.1692  -2.1052  -2.0741  -2.0558  -1.9877  -1.9723
    -1.9702  -1.9442  -1.9426  -1.9205  -1.9057  -1.8972  -1.8148  -1.8106
    -1.7571  -1.7170  -0.9948  -0.9380  -0.6834  -0.6230  -0.1701  -0.1093
     0.2805   0.3183   0.3511   0.5326   0.7675   0.8764   0.8846   1.0720
     1.2555   1.2676   1.3894   1.4483   1.5983   1.6456   1.7357   1.8454
     2.1153   2.1645   2.7794   3.0011   3.0102   3.3779

          k =-0.0901-0.0173 0.0000 ( 30646 PWs)   bands (ev):

   -54.1889 -54.1887 -54.1275 -54.1272 -53.9153 -53.9148 -30.5269 -30.5235
   -30.2808 -30.2762 -30.2374 -30.2296 -30.1943 -30.1899 -30.1479 -30.1456
   -30.1082 -30.1071 -30.0191 -30.0085 -29.9977 -29.9965 -29.5820 -29.5811
    -4.5772  -3.8908  -3.2809  -3.2394  -3.0268  -2.9673  -2.7839  -2.7602
    -2.6997  -2.6563  -2.6460  -2.5309  -2.4784  -2.4470  -2.4433  -2.3732
    -2.2749  -2.2186  -2.1839  -2.1077  -2.1062  -2.0612  -2.0307  -1.9814
    -1.9712  -1.9556  -1.9333  -1.9111  -1.9106  -1.8880  -1.8397  -1.8072
    -1.7713  -1.7076  -1.0250  -0.8886  -0.7338  -0.7093  -0.0313   0.1729
     0.2613   0.2850   0.3785   0.6376   0.6415   0.8258   0.8469   1.1455
     1.2158   1.2403   1.3619   1.4703   1.6363   1.7682   1.8855   1.9581
     2.1279   2.1550   2.5365   2.7680   3.0466   3.2200

          k =-0.0901-0.0000 0.0000 ( 30690 PWs)   bands (ev):

   -54.1890 -54.1887 -54.1276 -54.1273 -53.9154 -53.9148 -30.5271 -30.5232
   -30.2811 -30.2759 -30.2380 -30.2290 -30.1946 -30.1895 -30.1481 -30.1455
   -30.1082 -30.1071 -30.0200 -30.0078 -29.9978 -29.9965 -29.5821 -29.5810
    -4.6127  -3.7751  -3.3041  -3.2876  -3.0245  -2.9650  -2.7865  -2.7549
    -2.6916  -2.6772  -2.6460  -2.5249  -2.4761  -2.4569  -2.4195  -2.3730
    -2.3260  -2.1772  -2.1652  -2.1327  -2.1122  -2.0933  -2.0349  -1.9936
    -1.9731  -1.9585  -1.9333  -1.9141  -1.8892  -1.8827  -1.8655  -1.8031
    -1.7755  -1.7053  -1.0389  -0.8510  -0.7606  -0.7455   0.0390   0.2560
     0.2808   0.3682   0.4429   0.5112   0.5691   0.8408   0.8715   1.0768
     1.2382   1.3252   1.3536   1.3573   1.8232   1.8314   1.8953   1.9342
     2.1411   2.2848   2.3624   2.7320   2.9060   3.0618

          k =-0.0901 0.0173 0.0000 ( 30646 PWs)   bands (ev):

   -54.1889 -54.1887 -54.1275 -54.1272 -53.9153 -53.9148 -30.5269 -30.5235
   -30.2808 -30.2762 -30.2374 -30.2296 -30.1943 -30.1899 -30.1479 -30.1456
   -30.1082 -30.1071 -30.0191 -30.0085 -29.9977 -29.9965 -29.5820 -29.5811
    -4.5772  -3.8908  -3.2809  -3.2394  -3.0268  -2.9673  -2.7839  -2.7602
    -2.6997  -2.6563  -2.6460  -2.5309  -2.4784  -2.4470  -2.4433  -2.3732
    -2.2749  -2.2186  -2.1839  -2.1077  -2.1062  -2.0612  -2.0307  -1.9814
    -1.9712  -1.9556  -1.9333  -1.9111  -1.9106  -1.8880  -1.8397  -1.8072
    -1.7713  -1.7076  -1.0250  -0.8886  -0.7338  -0.7093  -0.0313   0.1729
     0.2613   0.2850   0.3785   0.6376   0.6415   0.8258   0.8469   1.1455
     1.2158   1.2403   1.3619   1.4703   1.6363   1.7682   1.8855   1.9581
     2.1279   2.1550   2.5365   2.7680   3.0466   3.2199

          k =-0.0901 0.0345 0.0000 ( 30660 PWs)   bands (ev):

   -54.1889 -54.1887 -54.1275 -54.1273 -53.9152 -53.9149 -30.5262 -30.5242
   -30.2797 -30.2771 -30.2358 -30.2312 -30.1936 -30.1911 -30.1474 -30.1461
   -30.1079 -30.1074 -30.0167 -30.0106 -29.9974 -29.9968 -29.5818 -29.5813
    -4.4736  -4.1042  -3.2602  -3.2009  -3.0037  -2.9715  -2.7784  -2.7683
    -2.6984  -2.6759  -2.5988  -2.5431  -2.4763  -2.4481  -2.4274  -2.3871
    -2.2605  -2.2408  -2.1692  -2.1052  -2.0741  -2.0558  -1.9877  -1.9723
    -1.9702  -1.9442  -1.9426  -1.9205  -1.9057  -1.8972  -1.8148  -1.8106
    -1.7571  -1.7170  -0.9948  -0.9380  -0.6834  -0.6230  -0.1701  -0.1093
     0.2805   0.3183   0.3511   0.5326   0.7675   0.8764   0.8846   1.0720
     1.2555   1.2676   1.3894   1.4483   1.5983   1.6456   1.7357   1.8454
     2.1153   2.1645   2.7794   3.0010   3.0102   3.3778

          k =-0.0901-0.1554 0.0000 ( 30656 PWs)   bands (ev):

   -54.1888 -54.1888 -54.1274 -54.1274 -53.9150 -53.9150 -30.5252 -30.5252
   -30.2784 -30.2784 -30.2335 -30.2335 -30.1924 -30.1924 -30.1468 -30.1468
   -30.1076 -30.1076 -30.0136 -30.0136 -29.9971 -29.9971 -29.5816 -29.5816
    -4.3104  -4.3103  -3.2276  -3.2276  -2.9787  -2.9787  -2.7740  -2.7740
    -2.6905  -2.6905  -2.5619  -2.5619  -2.4475  -2.4475  -2.4196  -2.4196
    -2.2588  -2.2588  -2.1252  -2.1252  -2.0544  -2.0544  -1.9769  -1.9769
    -1.9563  -1.9563  -1.9286  -1.9286  -1.9012  -1.9012  -1.8082  -1.8082
    -1.7352  -1.7352  -0.9702  -0.9702  -0.5976  -0.5976  -0.2539  -0.2539
     0.3173   0.3173   0.3971   0.3971   0.8713   0.8713   0.9501   0.9502
     1.2976   1.2976   1.4218   1.4218   1.5498   1.5498   1.7627   1.7627
     2.1472   2.1472   2.9187   2.9187   3.2447   3.2447

     the Fermi energy is     1.0326 ev

!    total energy              =   -1455.78595249 Ry
     estimated scf accuracy    <       0.00000526 Ry
     smearing contrib. (-TS)   =      -0.05156118 Ry
     internal energy E=F+TS    =   -1455.73439130 Ry

     The total energy is F=E-TS. E is the sum of the following terms:
     one-electron contribution =  -11667.87793696 Ry
     hartree contribution      =    5901.14428169 Ry
     xc contribution           =    -390.37792218 Ry
     ewald contribution        =    4701.37718615 Ry
     electric field correction =       0.00000000 Ry

     convergence has been achieved in  14 iterations

     negative rho (up, down):  8.613E-04 0.000E+00

     Forces acting on atoms (cartesian axes, Ry/au):

     atom    1 type  1   force =    -0.00000941    0.00325421   -0.00119297
     atom    2 type  1   force =     0.00000784    0.00325191   -0.00120781
     atom    3 type  2   force =    -0.00000017   -0.00022870    0.01906277
     atom    4 type  2   force =     0.00000268   -0.00022162    0.01906126
     atom    5 type  1   force =    -0.00000361    0.00267476   -0.00909225
     atom    6 type  1   force =    -0.00000141    0.00267502   -0.00908391
     atom    7 type  2   force =     0.00000088   -0.00574638   -0.00938380
     atom    8 type  2   force =    -0.00000108   -0.00574738   -0.00937782
     atom    9 type  1   force =     0.00000487    0.00038999    0.00048160
     atom   10 type  1   force =    -0.00000170    0.00040017    0.00048606
     atom   11 type  2   force =    -0.00000498   -0.00035049    0.00012394
     atom   12 type  2   force =     0.00000610   -0.00035150    0.00012292

     Total force =     0.034256     Total SCF correction =     0.010003
     SCF correction compared to forces is large: reduce conv_thr to get better values

     Writing output data file ./Cu2Nb2/Cu2Nb2_beef.save/

     init_run     :    109.11s CPU    109.65s WALL (       1 calls)
     electrons    :   2509.57s CPU   2527.75s WALL (       1 calls)
     forces       :     34.43s CPU     34.64s WALL (       1 calls)

     Called by init_run:
     wfcinit      :     96.62s CPU     96.98s WALL (       1 calls)
     potinit      :      8.01s CPU      8.08s WALL (       1 calls)
     hinit0       :      2.61s CPU      2.62s WALL (       1 calls)

     Called by electrons:
     c_bands      :   2196.42s CPU   2207.77s WALL (      14 calls)
     sum_band     :    283.71s CPU    287.66s WALL (      14 calls)
     v_of_rho     :     22.44s CPU     23.76s WALL (      15 calls)
     newd         :     14.00s CPU     15.57s WALL (      15 calls)
     mix_rho      :      0.59s CPU      0.61s WALL (      14 calls)
     vdW_kernel   :      6.06s CPU      6.07s WALL (       1 calls)

     Called by c_bands:
     init_us_2    :      9.56s CPU      9.67s WALL (    2220 calls)
     cegterg      :   2171.90s CPU   2181.54s WALL (    1036 calls)

     Called by *egterg:
     cdiaghg      :    109.18s CPU    109.35s WALL (    5537 calls)
     h_psi        :   1180.03s CPU   1187.62s WALL (    5611 calls)
     s_psi        :    351.29s CPU    351.92s WALL (    5611 calls)
     g_psi        :      0.88s CPU      0.90s WALL (    4501 calls)

     Called by h_psi:
     h_psi:calbec :    413.15s CPU    414.55s WALL (    5611 calls)
     vloc_psi     :    396.69s CPU    401.91s WALL (    5611 calls)
     add_vuspsi   :    366.30s CPU    367.22s WALL (    5611 calls)

     General routines
     calbec       :    613.05s CPU    615.09s WALL (    6943 calls)
     fft          :     12.40s CPU     13.02s WALL (    1004 calls)
     ffts         :      0.06s CPU      0.07s WALL (      29 calls)
     fftw         :    451.79s CPU    458.37s WALL (  514786 calls)
     interpolate  :      0.20s CPU      0.21s WALL (      15 calls)

     Parallel routines
     fft_scatt_xy :     35.46s CPU     35.87s WALL (  515819 calls)
     fft_scatt_yz :    133.17s CPU    136.33s WALL (  515819 calls)

     PWSCF        :  44m21.74s CPU  44m57.17s WALL


   This run was terminated on:   1: 8:34  11Jul2022            

=------------------------------------------------------------------------------=
   JOB DONE.
=------------------------------------------------------------------------------=
