
     Program PWSCF v.6.6 starts on 11Jul2022 at  2:36:22 

     This program is part of the open-source Quantum ESPRESSO suite
     for quantum simulation of materials; please cite
         "P. Giannozzi et al., J. Phys.:Condens. Matter 21 395502 (2009);
         "P. Giannozzi et al., J. Phys.:Condens. Matter 29 465901 (2017);
          URL http://www.quantum-espresso.org", 
     in publications or presentations arising from this work. More details at
     http://www.quantum-espresso.org/quote

     Parallel version (MPI), running on    37 processors

     MPI processes distributed on     1 nodes
     R & G space division:  proc/nbgrp/npool/nimage =      37
     Fft bands division:     nmany     =       1
     Reading input from Cu2Ru2.in
Warning: card &CELL ignored
Warning: card / ignored

     Current dimensions of program PWSCF are:
     Max number of different atomic species (ntypx) = 10
     Max number of k-points (npk) =  40000
     Max angular momentum in pseudopotentials (lmaxx) =  3
     Presently stress not available with electric field and gates

     Message from routine cell_base_init:
     DEPRECATED: use true lattice parameter, not A to a.u. conversion factor
     file Cu.pbe-dn-rrkjus_psl.1.0.0.UPF: wavefunction(s)  3D renormalized

     **************************************************************************
     Initializing libbeef V0.1.2 with the BEEF-vdW functional.
     Citation: Wellendorff et al., PRB 85, 235149 (2012).
     **************************************************************************


     IMPORTANT: XC functional enforced from input :
     Exchange-correlation= BEEF-VDW
                           (   1   4  43  14   2   0   0)
     Any further DFT definition will be discarded
     Please, verify this is what you really want


     Subspace diagonalization in iterative solution of the eigenvalue problem:
     a serial algorithm will be used


     Parallelization info
     --------------------
     sticks:   dense  smooth     PW     G-vecs:    dense   smooth      PW
     Min         104      41     12                23824     6017     946
     Max         105      42     14                23838     6040     962
     Sum        3855    1545    455               881781   223053   35339



     bravais-lattice index     =            0
     lattice parameter (alat)  =       1.8897  a.u.
     unit-cell volume          =    4034.2817 (a.u.)^3
     number of atoms/cell      =           12
     number of atomic types    =            2
     number of electrons       =       162.00
     number of Kohn-Sham states=           97
     kinetic-energy cutoff     =      55.1240  Ry
     charge density cutoff     =     551.2396  Ry
     convergence threshold     =      1.0E-05
     mixing beta               =       0.1000
     number of iterations used =           10  plain     mixing
     Exchange-correlation= BEEF-VDW
                           (   1   4  43  14   2   0   0)

     celldm(1)=   1.889726  celldm(2)=   0.000000  celldm(3)=   0.000000
     celldm(4)=   0.000000  celldm(5)=   0.000000  celldm(6)=   0.000000

     crystal axes: (cart. coord. in units of alat)
               a(1) = (   5.140575   0.000000   0.000000 )  
               a(2) = (  -2.570287   4.779117   0.000000 )  
               a(3) = (   0.000000   0.000000  24.333823 )  

     reciprocal axes: (cart. coord. in units 2 pi/alat)
               b(1) = (  0.194531  0.104622 -0.000000 )  
               b(2) = (  0.000000  0.209244  0.000000 )  
               b(3) = (  0.000000 -0.000000  0.041095 )  


     PseudoPot. # 1 for Cu read from file:
     ../pseudo/Cu.pbe-dn-rrkjus_psl.1.0.0.UPF
     MD5 check sum: 8469560995d0c2df1ffe68c099c04a63
     Pseudo is Ultrasoft + core correction, Zval = 11.0
     Generated using "atomic" code by A. Dal Corso v.6.3
     Using radial grid of 1199 points,  6 beta functions with: 
                l(1) =   0
                l(2) =   0
                l(3) =   1
                l(4) =   1
                l(5) =   2
                l(6) =   2
     Q(r) pseudized with 0 coefficients 


     PseudoPot. # 2 for Ru read from file:
     ../pseudo/Ru.pbe-spn-rrkjus_psl.1.0.0.UPF
     MD5 check sum: fbaca725316a1a65f98761fd4ac95971
     Pseudo is Ultrasoft + core correction, Zval = 16.0
     Generated using "atomic" code by A. Dal Corso v.6.2.2
     Using radial grid of 1233 points,  6 beta functions with: 
                l(1) =   0
                l(2) =   0
                l(3) =   1
                l(4) =   1
                l(5) =   2
                l(6) =   2
     Q(r) pseudized with 0 coefficients 


     atomic species   valence    mass     pseudopotential
        Cu            11.00    63.54600     Cu( 1.00)
        Ru            16.00   101.07000     Ru( 1.00)

     No symmetry found



   Cartesian axes

     site n.     atom                  positions (alat units)
         1           Cu  tau(   1) = (   0.0000000   0.0000000  10.0000000  )
         2           Cu  tau(   2) = (   2.5702875   0.0000000  10.0000000  )
         3           Ru  tau(   3) = (   1.2851437   2.3895585  10.0000000  )
         4           Ru  tau(   4) = (  -1.2851437   2.3895585  10.0000000  )
         5           Cu  tau(   5) = (   2.5702875   1.3823428  12.1669117  )
         6           Cu  tau(   6) = (   0.0000000   1.3823428  12.1669117  )
         7           Ru  tau(   7) = (  -1.2851437   3.7719013  12.1669117  )
         8           Ru  tau(   8) = (   1.2851437   3.7719013  12.1669117  )
         9           Cu  tau(   9) = (   0.0000623   2.6254811  14.3630417  )
        10           Cu  tau(  10) = (   2.5700588   2.6254508  14.3630576  )
        11           Ru  tau(  11) = (   3.8553837   0.2296147  14.2617821  )
        12           Ru  tau(  12) = (   1.2850824   0.2294096  14.2618678  )

     number of k points=    74  Fermi-Dirac smearing, width (Ry)=  0.0100
                       cart. coord. in units 2pi/alat
        k(    1) = (   0.0000000   0.0000000   0.0000000), wk =   0.0138889
        k(    2) = (   0.0000000   0.0174370   0.0000000), wk =   0.0277778
        k(    3) = (   0.0000000   0.0348739   0.0000000), wk =   0.0277778
        k(    4) = (   0.0000000   0.0523109   0.0000000), wk =   0.0277778
        k(    5) = (   0.0000000   0.0697479   0.0000000), wk =   0.0277778
        k(    6) = (   0.0000000   0.0871849   0.0000000), wk =   0.0277778
        k(    7) = (   0.0000000  -0.1046218   0.0000000), wk =   0.0138889
        k(    8) = (   0.0162109   0.0087185   0.0000000), wk =   0.0277778
        k(    9) = (   0.0162109   0.0261555   0.0000000), wk =   0.0277778
        k(   10) = (   0.0162109   0.0435924   0.0000000), wk =   0.0277778
        k(   11) = (   0.0162109   0.0610294   0.0000000), wk =   0.0277778
        k(   12) = (   0.0162109   0.0784664   0.0000000), wk =   0.0277778
        k(   13) = (   0.0162109   0.0959033   0.0000000), wk =   0.0277778
        k(   14) = (   0.0162109  -0.0959034   0.0000000), wk =   0.0277778
        k(   15) = (   0.0162109  -0.0784664   0.0000000), wk =   0.0277778
        k(   16) = (   0.0162109  -0.0610294   0.0000000), wk =   0.0277778
        k(   17) = (   0.0162109  -0.0435924   0.0000000), wk =   0.0277778
        k(   18) = (   0.0162109  -0.0261555   0.0000000), wk =   0.0277778
        k(   19) = (   0.0162109  -0.0087185   0.0000000), wk =   0.0277778
        k(   20) = (   0.0324218   0.0174370   0.0000000), wk =   0.0277778
        k(   21) = (   0.0324218   0.0348739   0.0000000), wk =   0.0277778
        k(   22) = (   0.0324218   0.0523109   0.0000000), wk =   0.0277778
        k(   23) = (   0.0324218   0.0697479   0.0000000), wk =   0.0277778
        k(   24) = (   0.0324218   0.0871849   0.0000000), wk =   0.0277778
        k(   25) = (   0.0324218   0.1046218   0.0000000), wk =   0.0277778
        k(   26) = (   0.0324218  -0.0871849   0.0000000), wk =   0.0277778
        k(   27) = (   0.0324218  -0.0697479   0.0000000), wk =   0.0277778
        k(   28) = (   0.0324218  -0.0523109   0.0000000), wk =   0.0277778
        k(   29) = (   0.0324218  -0.0348739   0.0000000), wk =   0.0277778
        k(   30) = (   0.0324218  -0.0174370   0.0000000), wk =   0.0277778
        k(   31) = (   0.0324218  -0.0000000   0.0000000), wk =   0.0277778
        k(   32) = (   0.0486327   0.0261555   0.0000000), wk =   0.0277778
        k(   33) = (   0.0486327   0.0435924   0.0000000), wk =   0.0277778
        k(   34) = (   0.0486327   0.0610294   0.0000000), wk =   0.0277778
        k(   35) = (   0.0486327   0.0784664   0.0000000), wk =   0.0277778
        k(   36) = (   0.0486327   0.0959033   0.0000000), wk =   0.0277778
        k(   37) = (   0.0486327   0.1133403   0.0000000), wk =   0.0277778
        k(   38) = (   0.0486327  -0.0784664   0.0000000), wk =   0.0277778
        k(   39) = (   0.0486327  -0.0610294   0.0000000), wk =   0.0277778
        k(   40) = (   0.0486327  -0.0435924   0.0000000), wk =   0.0277778
        k(   41) = (   0.0486327  -0.0261555   0.0000000), wk =   0.0277778
        k(   42) = (   0.0486327  -0.0087185   0.0000000), wk =   0.0277778
        k(   43) = (   0.0486327   0.0087185   0.0000000), wk =   0.0277778
        k(   44) = (   0.0648436   0.0348739   0.0000000), wk =   0.0277778
        k(   45) = (   0.0648436   0.0523109   0.0000000), wk =   0.0277778
        k(   46) = (   0.0648436   0.0697479   0.0000000), wk =   0.0277778
        k(   47) = (   0.0648436   0.0871849   0.0000000), wk =   0.0277778
        k(   48) = (   0.0648436   0.1046218   0.0000000), wk =   0.0277778
        k(   49) = (   0.0648436   0.1220588   0.0000000), wk =   0.0277778
        k(   50) = (   0.0648436  -0.0697479   0.0000000), wk =   0.0277778
        k(   51) = (   0.0648436  -0.0523109   0.0000000), wk =   0.0277778
        k(   52) = (   0.0648436  -0.0348740   0.0000000), wk =   0.0277778
        k(   53) = (   0.0648436  -0.0174370   0.0000000), wk =   0.0277778
        k(   54) = (   0.0648436  -0.0000000   0.0000000), wk =   0.0277778
        k(   55) = (   0.0648436   0.0174370   0.0000000), wk =   0.0277778
        k(   56) = (   0.0810545   0.0435924   0.0000000), wk =   0.0277778
        k(   57) = (   0.0810545   0.0610294   0.0000000), wk =   0.0277778
        k(   58) = (   0.0810545   0.0784664   0.0000000), wk =   0.0277778
        k(   59) = (   0.0810545   0.0959033   0.0000000), wk =   0.0277778
        k(   60) = (   0.0810545   0.1133403   0.0000000), wk =   0.0277778
        k(   61) = (   0.0810545   0.1307773   0.0000000), wk =   0.0277778
        k(   62) = (   0.0810545  -0.0610294   0.0000000), wk =   0.0277778
        k(   63) = (   0.0810545  -0.0435924   0.0000000), wk =   0.0277778
        k(   64) = (   0.0810545  -0.0261555   0.0000000), wk =   0.0277778
        k(   65) = (   0.0810545  -0.0087185   0.0000000), wk =   0.0277778
        k(   66) = (   0.0810545   0.0087185   0.0000000), wk =   0.0277778
        k(   67) = (   0.0810545   0.0261555   0.0000000), wk =   0.0277778
        k(   68) = (  -0.0972654  -0.0523109   0.0000000), wk =   0.0138889
        k(   69) = (  -0.0972654  -0.0348739   0.0000000), wk =   0.0277778
        k(   70) = (  -0.0972654  -0.0174370   0.0000000), wk =   0.0277778
        k(   71) = (  -0.0972654   0.0000000   0.0000000), wk =   0.0277778
        k(   72) = (  -0.0972654   0.0174370   0.0000000), wk =   0.0277778
        k(   73) = (  -0.0972654   0.0348740   0.0000000), wk =   0.0277778
        k(   74) = (  -0.0972654  -0.1569327   0.0000000), wk =   0.0138889

     Dense  grid:   881781 G-vectors     FFT dimensions: (  75,  80, 360)

     Smooth grid:   223053 G-vectors     FFT dimensions: (  45,  50, 225)

     Estimated max dynamical RAM per process >     179.58 MB

     Estimated total dynamical RAM >       6.49 GB

     Initial potential from superposition of free atoms

     starting charge  161.99479, renormalised to  162.00000

     negative rho (up, down):  1.324E-03 0.000E+00


     %%%%%%%%%%%%%%%%%%%%%%%%%%%%%%%%%%%%%%%%%%%%%%%%%%%%%%%%%%%%%%%%%%%%%%%%
     %                                                                      %
     % You are using vdW-DF, which was implemented by the Thonhauser group. %
     % Please cite the following two papers that made this development      %
     % possible and the two reviews that describe the various versions:     %
     %                                                                      %
     %   T. Thonhauser et al., PRL 115, 136402 (2015).                      %
     %   T. Thonhauser et al., PRB 76, 125112 (2007).                       %
     %   K. Berland et al., Rep. Prog. Phys. 78, 066501 (2015).             %
     %   D.C. Langreth et al., J. Phys.: Condens. Matter 21, 084203 (2009). %
     %                                                                      %
     %                                                                      %
     % If you are calculating the stress with vdW-DF, please also cite:     %
     %                                                                      %
     %   R. Sabatini et al., J. Phys.: Condens. Matter 24, 424209 (2012).   %
     %                                                                      %
     %%%%%%%%%%%%%%%%%%%%%%%%%%%%%%%%%%%%%%%%%%%%%%%%%%%%%%%%%%%%%%%%%%%%%%%%



     Adding external electric field

     Computed dipole along edir(3) : 
        Dipole               -0.0000 Ry au,         -0.0001 Debye
        Dipole field         -0.0000 Ry au, 

        Potential amp.        0.0000 Ry
        Total length         44.8347 bohr

     Starting wfcs are  114 randomized atomic wfcs

     total cpu time spent up to now is       56.1 secs

     Self-consistent Calculation

     iteration #  1     ecut=    55.12 Ry     beta= 0.10
     Davidson diagonalization with overlap
     ethr =  1.00E-02,  avg # of iterations =  4.5

     negative rho (up, down):  1.249E-03 0.000E+00

     Adding external electric field

     Computed dipole along edir(3) : 
        Dipole                0.0815 Ry au,          0.2070 Debye
        Dipole field          0.0003 Ry au, 

        Potential amp.       -0.0228 Ry
        Total length         44.8347 bohr


     total cpu time spent up to now is      182.7 secs

     total energy              =   -1930.77231998 Ry
     estimated scf accuracy    <      11.36939406 Ry

     iteration #  2     ecut=    55.12 Ry     beta= 0.10
     Davidson diagonalization with overlap
     ethr =  7.02E-03,  avg # of iterations =  1.1

     negative rho (up, down):  1.222E-03 0.000E+00

     Adding external electric field

     Computed dipole along edir(3) : 
        Dipole               -0.1735 Ry au,         -0.4410 Debye
        Dipole field         -0.0005 Ry au, 

        Potential amp.        0.0485 Ry
        Total length         44.8347 bohr


     total cpu time spent up to now is      303.6 secs

     total energy              =   -1932.13143121 Ry
     estimated scf accuracy    <       1.46679406 Ry

     iteration #  3     ecut=    55.12 Ry     beta= 0.10
     Davidson diagonalization with overlap
     ethr =  9.05E-04,  avg # of iterations =  1.5

     negative rho (up, down):  1.224E-03 0.000E+00

     Adding external electric field

     Computed dipole along edir(3) : 
        Dipole                0.1365 Ry au,          0.3469 Debye
        Dipole field          0.0004 Ry au, 

        Potential amp.       -0.0381 Ry
        Total length         44.8347 bohr


     total cpu time spent up to now is      428.9 secs

     total energy              =   -1932.12714395 Ry
     estimated scf accuracy    <       3.90599878 Ry

     iteration #  4     ecut=    55.12 Ry     beta= 0.10
     Davidson diagonalization with overlap
     ethr =  9.05E-04,  avg # of iterations =  1.0

     negative rho (up, down):  1.232E-03 0.000E+00

     Adding external electric field

     Computed dipole along edir(3) : 
        Dipole                0.0078 Ry au,          0.0198 Debye
        Dipole field          0.0000 Ry au, 

        Potential amp.       -0.0022 Ry
        Total length         44.8347 bohr


     total cpu time spent up to now is      549.2 secs

     total energy              =   -1932.18070052 Ry
     estimated scf accuracy    <       1.46147071 Ry

     iteration #  5     ecut=    55.12 Ry     beta= 0.10
     Davidson diagonalization with overlap
     ethr =  9.02E-04,  avg # of iterations =  1.1

     negative rho (up, down):  1.240E-03 0.000E+00

     Adding external electric field

     Computed dipole along edir(3) : 
        Dipole                0.0065 Ry au,          0.0165 Debye
        Dipole field          0.0000 Ry au, 

        Potential amp.       -0.0018 Ry
        Total length         44.8347 bohr


     total cpu time spent up to now is      699.8 secs

     total energy              =   -1932.14686853 Ry
     estimated scf accuracy    <       0.21556329 Ry

     iteration #  6     ecut=    55.12 Ry     beta= 0.10
     Davidson diagonalization with overlap
     ethr =  1.33E-04,  avg # of iterations =  3.4

     negative rho (up, down):  1.239E-03 0.000E+00

     Adding external electric field

     Computed dipole along edir(3) : 
        Dipole                0.0185 Ry au,          0.0469 Debye
        Dipole field          0.0001 Ry au, 

        Potential amp.       -0.0052 Ry
        Total length         44.8347 bohr


     total cpu time spent up to now is      892.6 secs

     total energy              =   -1932.16885089 Ry
     estimated scf accuracy    <       0.08507763 Ry

     iteration #  7     ecut=    55.12 Ry     beta= 0.10
     Davidson diagonalization with overlap
     ethr =  5.25E-05,  avg # of iterations =  2.1

     negative rho (up, down):  1.260E-03 0.000E+00

     Adding external electric field

     Computed dipole along edir(3) : 
        Dipole                0.0229 Ry au,          0.0581 Debye
        Dipole field          0.0001 Ry au, 

        Potential amp.       -0.0064 Ry
        Total length         44.8347 bohr


     total cpu time spent up to now is     1059.3 secs

     total energy              =   -1932.17864426 Ry
     estimated scf accuracy    <       0.02200229 Ry

     iteration #  8     ecut=    55.12 Ry     beta= 0.10
     Davidson diagonalization with overlap
     c_bands:  1 eigenvalues not converged
     ethr =  1.36E-05,  avg # of iterations =  5.4

     negative rho (up, down):  1.394E-03 0.000E+00

     Adding external electric field

     Computed dipole along edir(3) : 
        Dipole                0.0136 Ry au,          0.0346 Debye
        Dipole field          0.0000 Ry au, 

        Potential amp.       -0.0038 Ry
        Total length         44.8347 bohr


     total cpu time spent up to now is     1255.4 secs

     total energy              =   -1932.17069009 Ry
     estimated scf accuracy    <       0.05692665 Ry

     iteration #  9     ecut=    55.12 Ry     beta= 0.10
     Davidson diagonalization with overlap
     ethr =  1.36E-05,  avg # of iterations =  2.5

     negative rho (up, down):  1.386E-03 0.000E+00

     Adding external electric field

     Computed dipole along edir(3) : 
        Dipole                0.0096 Ry au,          0.0244 Debye
        Dipole field          0.0000 Ry au, 

        Potential amp.       -0.0027 Ry
        Total length         44.8347 bohr


     total cpu time spent up to now is     1450.7 secs

     total energy              =   -1932.17548160 Ry
     estimated scf accuracy    <       0.00145919 Ry

     iteration # 10     ecut=    55.12 Ry     beta= 0.10
     Davidson diagonalization with overlap
     ethr =  9.01E-07,  avg # of iterations =  8.0

     negative rho (up, down):  1.374E-03 0.000E+00

     Adding external electric field

     Computed dipole along edir(3) : 
        Dipole                0.0119 Ry au,          0.0301 Debye
        Dipole field          0.0000 Ry au, 

        Potential amp.       -0.0033 Ry
        Total length         44.8347 bohr


     total cpu time spent up to now is     1715.2 secs

     total energy              =   -1932.17572134 Ry
     estimated scf accuracy    <       0.00887771 Ry

     iteration # 11     ecut=    55.12 Ry     beta= 0.10
     Davidson diagonalization with overlap
     ethr =  9.01E-07,  avg # of iterations =  2.0

     negative rho (up, down):  1.363E-03 0.000E+00

     Adding external electric field

     Computed dipole along edir(3) : 
        Dipole                0.0141 Ry au,          0.0358 Debye
        Dipole field          0.0000 Ry au, 

        Potential amp.       -0.0039 Ry
        Total length         44.8347 bohr


     total cpu time spent up to now is     1890.1 secs

     total energy              =   -1932.17555106 Ry
     estimated scf accuracy    <       0.00188130 Ry

     iteration # 12     ecut=    55.12 Ry     beta= 0.10
     Davidson diagonalization with overlap
     ethr =  9.01E-07,  avg # of iterations =  2.0

     negative rho (up, down):  1.344E-03 0.000E+00

     Adding external electric field

     Computed dipole along edir(3) : 
        Dipole                0.0137 Ry au,          0.0348 Debye
        Dipole field          0.0000 Ry au, 

        Potential amp.       -0.0038 Ry
        Total length         44.8347 bohr


     total cpu time spent up to now is     2080.6 secs

     total energy              =   -1932.17586501 Ry
     estimated scf accuracy    <       0.00031464 Ry

     iteration # 13     ecut=    55.12 Ry     beta= 0.10
     Davidson diagonalization with overlap
     ethr =  1.94E-07,  avg # of iterations =  1.5

     negative rho (up, down):  1.330E-03 0.000E+00

     Adding external electric field

     Computed dipole along edir(3) : 
        Dipole                0.0134 Ry au,          0.0341 Debye
        Dipole field          0.0000 Ry au, 

        Potential amp.       -0.0037 Ry
        Total length         44.8347 bohr


     total cpu time spent up to now is     2243.9 secs

     total energy              =   -1932.17586490 Ry
     estimated scf accuracy    <       0.00008836 Ry

     iteration # 14     ecut=    55.12 Ry     beta= 0.10
     Davidson diagonalization with overlap
     ethr =  5.45E-08,  avg # of iterations =  2.3

     negative rho (up, down):  1.312E-03 0.000E+00

     Adding external electric field

     Computed dipole along edir(3) : 
        Dipole                0.0135 Ry au,          0.0343 Debye
        Dipole field          0.0000 Ry au, 

        Potential amp.       -0.0038 Ry
        Total length         44.8347 bohr


     total cpu time spent up to now is     2431.4 secs

     total energy              =   -1932.17588069 Ry
     estimated scf accuracy    <       0.00001259 Ry

     iteration # 15     ecut=    55.12 Ry     beta= 0.10
     Davidson diagonalization with overlap
     ethr =  7.77E-09,  avg # of iterations =  4.0

     negative rho (up, down):  1.215E-03 0.000E+00

     Adding external electric field

     Computed dipole along edir(3) : 
        Dipole                0.0124 Ry au,          0.0315 Debye
        Dipole field          0.0000 Ry au, 

        Potential amp.       -0.0035 Ry
        Total length         44.8347 bohr


     total cpu time spent up to now is     2608.1 secs

     End of self-consistent calculation

          k = 0.0000 0.0000 0.0000 ( 27887 PWs)   bands (ev):

   -72.2805 -72.1854 -71.8696 -71.7738 -71.7647 -71.6683 -42.5788 -42.5389
   -42.4814 -42.2876 -42.2381 -42.1475 -42.0581 -41.7837 -41.7367 -41.7197
   -41.6948 -41.6581 -41.6314 -41.5693 -41.5406 -41.4909 -41.4602 -41.4391
    -6.6629  -4.9451  -4.7326  -4.6109  -4.4709  -4.1193  -3.7579  -3.6653
    -3.6395  -3.6074  -3.5309  -3.4716  -3.4366  -3.3596  -2.9884  -2.7091
    -2.4790  -2.4059  -2.3916  -2.3297  -2.2395  -2.1813  -2.0966  -1.9234
    -1.8408  -1.8097  -1.7384  -1.7339  -1.7020  -1.6638  -1.4984  -1.4918
    -1.4478  -1.2544  -1.1545  -1.1484  -1.1149  -1.0552  -0.9028  -0.8631
    -0.7867  -0.6317  -0.4924  -0.2649  -0.2400  -0.2357  -0.1371  -0.0132
     0.0467   0.1885   0.4389   0.5891   0.6950   1.1900   1.2334   1.2932
     1.3923   1.4251   1.4659   1.5797   1.5876   1.6641   2.1110   2.1594
     2.2135   2.6205   2.8264   2.8909   3.2878   4.0115   4.3248   4.3620
     4.7870

          k = 0.0000 0.0174 0.0000 ( 27923 PWs)   bands (ev):

   -72.2805 -72.1854 -71.8696 -71.7738 -71.7647 -71.6683 -42.5789 -42.5390
   -42.4814 -42.2876 -42.2381 -42.1476 -42.0581 -41.7838 -41.7367 -41.7198
   -41.6949 -41.6582 -41.6314 -41.5693 -41.5406 -41.4910 -41.4602 -41.4391
    -6.6102  -4.8982  -4.7052  -4.5715  -4.4364  -4.1124  -3.7481  -3.6263
    -3.6128  -3.6098  -3.5077  -3.4455  -3.4211  -3.3401  -2.9573  -2.7155
    -2.4748  -2.4075  -2.3983  -2.3242  -2.2375  -2.1989  -2.0879  -1.9280
    -1.8703  -1.7966  -1.7558  -1.7246  -1.6971  -1.6919  -1.5030  -1.4821
    -1.4359  -1.3664  -1.1697  -1.1572  -1.0686  -1.0541  -0.9172  -0.8690
    -0.7802  -0.6424  -0.6383  -0.3914  -0.3589  -0.2382  -0.1767  -0.0884
     0.1801   0.2632   0.4224   0.4834   0.5935   0.9771   1.1567   1.2092
     1.2673   1.4030   1.5709   1.5719   1.6498   1.8073   1.9466   2.1584
     2.2746   2.3606   2.4678   3.0317   3.8066   3.8388   4.3926   4.7323
     4.8882

          k = 0.0000 0.0349 0.0000 ( 27887 PWs)   bands (ev):

   -72.2804 -72.1854 -71.8696 -71.7738 -71.7647 -71.6683 -42.5790 -42.5391
   -42.4814 -42.2877 -42.2382 -42.1480 -42.0580 -41.7840 -41.7367 -41.7198
   -41.6949 -41.6582 -41.6314 -41.5693 -41.5407 -41.4910 -41.4602 -41.4391
    -6.4548  -4.7653  -4.6283  -4.4612  -4.3338  -4.0943  -3.7245  -3.6010
    -3.5337  -3.5172  -3.4352  -3.3785  -3.3759  -3.2820  -2.8686  -2.7368
    -2.4685  -2.4333  -2.4132  -2.2952  -2.2430  -2.2359  -2.0684  -1.9559
    -1.9223  -1.8028  -1.7601  -1.7563  -1.7149  -1.6838  -1.5659  -1.5276
    -1.4546  -1.4021  -1.2183  -1.1648  -1.1008  -1.0512  -0.9749  -0.9218
    -0.8712  -0.7941  -0.6686  -0.5881  -0.5534  -0.3937  -0.3054  -0.1723
     0.1526   0.1586   0.3697   0.3766   0.3980   0.7985   0.9260   1.1163
     1.2054   1.3754   1.4191   1.4957   1.5306   1.6116   1.7165   2.1560
     2.1658   2.3139   2.7772   3.3386   3.6808   4.1276   4.6241   5.1434
     5.3297

          k = 0.0000 0.0523 0.0000 ( 27891 PWs)   bands (ev):

   -72.2804 -72.1854 -71.8696 -71.7738 -71.7647 -71.6683 -42.5792 -42.5392
   -42.4815 -42.2878 -42.2382 -42.1484 -42.0579 -41.7842 -41.7367 -41.7198
   -41.6951 -41.6583 -41.6315 -41.5694 -41.5407 -41.4910 -41.4603 -41.4391
    -6.2045  -4.5830  -4.5178  -4.3196  -4.1672  -4.0529  -3.6951  -3.5599
    -3.4071  -3.3866  -3.3030  -3.2881  -3.2849  -3.1915  -2.7715  -2.7376
    -2.5354  -2.4243  -2.4156  -2.3490  -2.2506  -2.2195  -2.0669  -2.0310
    -1.9500  -1.8560  -1.8263  -1.8022  -1.7084  -1.7022  -1.6652  -1.5743
    -1.4145  -1.3533  -1.2744  -1.2415  -1.2359  -1.1756  -1.1135  -1.0473
    -0.9416  -0.8783  -0.7497  -0.6912  -0.6853  -0.6818  -0.5402  -0.2213
    -0.2060  -0.0021   0.0001   0.1447   0.3116   0.6807   0.8707   1.0150
     1.0337   1.1258   1.4130   1.4161   1.4868   1.5363   1.5665   1.9039
     2.1533   2.7783   3.0007   3.5798   3.8203   4.0704   4.9394   5.4931
     5.5544

          k = 0.0000 0.0697 0.0000 ( 27926 PWs)   bands (ev):

   -72.2804 -72.1854 -71.8696 -71.7738 -71.7647 -71.6683 -42.5794 -42.5393
   -42.4815 -42.2878 -42.2383 -42.1489 -42.0578 -41.7844 -41.7367 -41.7199
   -41.6952 -41.6584 -41.6315 -41.5695 -41.5407 -41.4910 -41.4603 -41.4391
    -5.8755  -4.5080  -4.3985  -4.1941  -3.9490  -3.9105  -3.6329  -3.4926
    -3.2945  -3.2529  -3.1989  -3.1772  -3.0862  -3.0847  -2.7755  -2.6368
    -2.6076  -2.4705  -2.4241  -2.3627  -2.3073  -2.2251  -2.1441  -2.1335
    -1.9619  -1.9454  -1.8803  -1.8625  -1.7059  -1.6630  -1.6368  -1.6158
    -1.5183  -1.4172  -1.3721  -1.3507  -1.3040  -1.3006  -1.1874  -1.1432
    -1.0560  -1.0435  -0.9814  -0.8806  -0.8447  -0.7631  -0.6317  -0.5896
    -0.3850  -0.3312  -0.2570   0.1203   0.2232   0.2429   0.8843   0.9858
     0.9995   1.0463   1.3383   1.3630   1.4633   1.5397   1.7097   1.7380
     2.1509   3.0643   3.0693   3.5204   4.0378   4.3671   5.1746   5.8724
     6.0061

          k = 0.0000 0.0872 0.0000 ( 27950 PWs)   bands (ev):

   -72.2804 -72.1854 -71.8696 -71.7738 -71.7647 -71.6683 -42.5795 -42.5394
   -42.4815 -42.2879 -42.2384 -42.1492 -42.0578 -41.7846 -41.7367 -41.7199
   -41.6953 -41.6584 -41.6316 -41.5696 -41.5407 -41.4910 -41.4603 -41.4391
    -5.4995  -4.6952  -4.3031  -4.0360  -3.7628  -3.7081  -3.4858  -3.4003
    -3.3039  -3.1391  -3.0873  -3.0599  -2.9756  -2.9523  -2.7447  -2.6306
    -2.6040  -2.5908  -2.4238  -2.3968  -2.3668  -2.2673  -2.2594  -2.1690
    -1.9993  -1.9043  -1.9012  -1.8310  -1.7153  -1.7019  -1.6453  -1.6423
    -1.5975  -1.5503  -1.5390  -1.4989  -1.3476  -1.3405  -1.2575  -1.2017
    -1.1976  -1.1906  -1.1357  -1.0406  -0.9302  -0.9156  -0.8555  -0.6833
    -0.6460  -0.3639  -0.2682  -0.0886   0.1097   0.1897   0.8365   0.9784
     0.9870   1.0383   1.2650   1.3123   1.4421   1.5362   1.6540   1.9655
     2.1493   3.0071   3.0898   3.4909   4.3436   4.8197   5.2611   5.6456
     6.0158

          k = 0.0000-0.1046 0.0000 ( 27918 PWs)   bands (ev):

   -72.2804 -72.1854 -71.8696 -71.7738 -71.7647 -71.6683 -42.5796 -42.5395
   -42.4815 -42.2879 -42.2384 -42.1493 -42.0578 -41.7847 -41.7367 -41.7199
   -41.6953 -41.6584 -41.6316 -41.5696 -41.5407 -41.4910 -41.4603 -41.4391
    -5.2170  -4.9252  -4.2657  -3.9660  -3.7198  -3.5381  -3.4331  -3.3956
    -3.2271  -3.1083  -3.0893  -3.0219  -2.9081  -2.8622  -2.7908  -2.7034
    -2.6516  -2.5081  -2.4897  -2.4287  -2.3895  -2.2436  -2.2281  -2.1979
    -1.9695  -1.9057  -1.8972  -1.8102  -1.7932  -1.7492  -1.6799  -1.6593
    -1.6402  -1.5875  -1.5807  -1.5510  -1.3765  -1.3355  -1.3292  -1.2849
    -1.2566  -1.2390  -1.2032  -1.0396  -1.0019  -0.9472  -0.8905  -0.8009
    -0.6482  -0.3341  -0.2698  -0.2129   0.1072   0.1695   0.8116   0.9650
     0.9695   1.0795   1.2239   1.2924   1.4329   1.5373   1.6289   2.0973
     2.1487   2.9119   3.0945   3.4822   4.6426   5.0424   5.2298   5.3015
     6.0083

          k = 0.0162 0.0087 0.0000 ( 27895 PWs)   bands (ev):

   -72.2789 -72.1871 -71.8680 -71.7754 -71.7631 -71.6699 -42.5772 -42.5257
   -42.4831 -42.2745 -42.2249 -42.1460 -42.0597 -41.7823 -41.7509 -41.7182
   -41.6964 -41.6566 -41.6329 -41.5708 -41.5393 -41.5051 -41.4616 -41.4532
    -6.6045  -4.8909  -4.6966  -4.5707  -4.4437  -4.0697  -3.7231  -3.6596
    -3.6151  -3.5781  -3.5047  -3.4190  -3.4137  -3.3434  -2.9699  -2.6888
    -2.4618  -2.4075  -2.3822  -2.3180  -2.2348  -2.1561  -2.0944  -1.9206
    -1.8448  -1.8304  -1.7426  -1.7272  -1.7112  -1.6664  -1.5059  -1.5041
    -1.4622  -1.2926  -1.1803  -1.1532  -1.1088  -1.0489  -0.9365  -0.8661
    -0.8158  -0.6840  -0.5736  -0.4071  -0.2434  -0.2155  -0.0922  -0.0511
     0.1265   0.1837   0.2757   0.5365   0.6370   1.0150   1.1402   1.1523
     1.2747   1.3118   1.4462   1.5253   1.5377   1.8581   2.0687   2.1125
     2.4124   2.4529   2.8232   2.8593   3.5870   3.6433   3.9091   4.8886
     4.9593

          k = 0.0162 0.0262 0.0000 ( 27884 PWs)   bands (ev):

   -72.2788 -72.1871 -71.8680 -71.7754 -71.7631 -71.6699 -42.5773 -42.5258
   -42.4831 -42.2746 -42.2250 -42.1462 -42.0596 -41.7824 -41.7509 -41.7182
   -41.6964 -41.6567 -41.6329 -41.5708 -41.5393 -41.5051 -41.4616 -41.4532
    -6.5004  -4.7999  -4.6429  -4.4943  -4.3780  -4.0560  -3.7014  -3.5968
    -3.5800  -3.5532  -3.4617  -3.3856  -3.3666  -3.3022  -2.9094  -2.7018
    -2.4555  -2.4125  -2.4004  -2.3059  -2.2333  -2.1937  -2.0767  -1.9304
    -1.8979  -1.8118  -1.7792  -1.7225  -1.7128  -1.6914  -1.5191  -1.4881
    -1.4593  -1.4287  -1.1959  -1.1863  -1.0830  -1.0574  -0.9827  -0.8621
    -0.8516  -0.7510  -0.6892  -0.4663  -0.4578  -0.3969  -0.1935  -0.0856
     0.1632   0.1835   0.3334   0.4344   0.4678   0.7621   0.9914   1.0469
     1.1267   1.2824   1.4481   1.4876   1.5387   1.9328   2.0126   2.0665
     2.2567   2.3418   2.6006   3.0967   3.4506   4.1471   4.3350   5.0451
     5.1460

          k = 0.0162 0.0436 0.0000 ( 27893 PWs)   bands (ev):

   -72.2788 -72.1871 -71.8680 -71.7754 -71.7631 -71.6699 -42.5774 -42.5260
   -42.4831 -42.2746 -42.2251 -42.1466 -42.0595 -41.7826 -41.7509 -41.7182
   -41.6965 -41.6567 -41.6330 -41.5709 -41.5393 -41.5051 -41.4616 -41.4532
    -6.2972  -4.6368  -4.5460  -4.3582  -4.2487  -4.0320  -3.6687  -3.5614
    -3.4890  -3.4334  -3.3774  -3.3146  -3.2857  -3.2191  -2.8009  -2.7287
    -2.4842  -2.4239  -2.4173  -2.2956  -2.2393  -2.2304  -2.0563  -1.9892
    -1.9399  -1.8328  -1.8056  -1.7864  -1.7113  -1.6846  -1.6297  -1.5566
    -1.4499  -1.3941  -1.2626  -1.2005  -1.1599  -1.1453  -1.0676  -1.0149
    -0.8747  -0.8395  -0.7315  -0.6323  -0.6219  -0.5835  -0.4338  -0.1868
    -0.0400   0.0939   0.1219   0.1983   0.3347   0.7536   0.8380   0.8975
     1.0572   1.1708   1.3851   1.4212   1.5282   1.5863   1.8628   1.8711
     2.1095   2.6913   2.8360   3.2403   3.7113   4.2164   4.7830   5.2384
     5.4767

          k = 0.0162 0.0610 0.0000 ( 27907 PWs)   bands (ev):

   -72.2788 -72.1871 -71.8680 -71.7754 -71.7631 -71.6699 -42.5776 -42.5261
   -42.4832 -42.2747 -42.2252 -42.1471 -42.0594 -41.7828 -41.7509 -41.7183
   -41.6967 -41.6568 -41.6330 -41.5710 -41.5393 -41.5051 -41.4617 -41.4532
    -6.0064  -4.4804  -4.4261  -4.2146  -4.0627  -3.9586  -3.6258  -3.5074
    -3.3548  -3.3140  -3.2574  -3.1874  -3.1829  -3.0929  -2.7684  -2.6595
    -2.5790  -2.4366  -2.4071  -2.3612  -2.2726  -2.2084  -2.0920  -2.0799
    -1.9677  -1.9094  -1.8666  -1.8593  -1.7473  -1.6605  -1.6360  -1.6088
    -1.4380  -1.4325  -1.3712  -1.2910  -1.2834  -1.2133  -1.2080  -1.0672
    -0.9911  -0.9572  -0.9315  -0.8140  -0.7280  -0.7144  -0.6225  -0.3879
    -0.3192  -0.2400  -0.1402   0.1257   0.1927   0.4336   0.8540   0.9816
     0.9833   1.0802   1.3070   1.3523   1.4376   1.5329   1.7061   1.7755
     2.1103   2.9393   3.0891   3.2227   4.0776   4.2738   5.1072   5.3998
     5.7199

          k = 0.0162 0.0785 0.0000 ( 27935 PWs)   bands (ev):

   -72.2788 -72.1871 -71.8680 -71.7754 -71.7630 -71.6699 -42.5778 -42.5262
   -42.4832 -42.2748 -42.2252 -42.1475 -42.0594 -41.7831 -41.7509 -41.7183
   -41.6968 -41.6569 -41.6331 -41.5711 -41.5393 -41.5051 -41.4617 -41.4533
    -5.6504  -4.5397  -4.3125  -4.0604  -3.8385  -3.7894  -3.5262  -3.4341
    -3.2869  -3.1978  -3.1204  -3.0751  -3.0488  -2.9565  -2.7068  -2.6910
    -2.5968  -2.5235  -2.3958  -2.3686  -2.3458  -2.2769  -2.1908  -2.1614
    -1.9964  -1.9322  -1.9041  -1.8489  -1.7593  -1.6885  -1.6471  -1.6040
    -1.6033  -1.5175  -1.4315  -1.3942  -1.3895  -1.2934  -1.2908  -1.2329
    -1.1634  -1.0924  -1.0233  -0.9317  -0.9159  -0.8274  -0.7494  -0.6700
    -0.5733  -0.3498  -0.2262   0.0077   0.1105   0.2090   0.8486   0.9558
     0.9800   1.0110   1.2831   1.3330   1.3940   1.4558   1.6079   1.8933
     2.1582   2.9831   3.1812   3.2049   4.2039   4.7806   5.2598   5.5250
     5.8906

          k = 0.0162 0.0959 0.0000 ( 27946 PWs)   bands (ev):

   -72.2788 -72.1871 -71.8680 -71.7754 -71.7630 -71.6699 -42.5779 -42.5263
   -42.4832 -42.2748 -42.2253 -42.1477 -42.0593 -41.7832 -41.7510 -41.7183
   -41.6968 -41.6569 -41.6331 -41.5711 -41.5394 -41.5051 -41.4617 -41.4533
    -5.2831  -4.7927  -4.2409  -3.9357  -3.6858  -3.6224  -3.4132  -3.3514
    -3.2739  -3.1002  -3.0471  -3.0349  -2.9100  -2.8837  -2.7845  -2.6593
    -2.6499  -2.5174  -2.4899  -2.4429  -2.3346  -2.2412  -2.2345  -2.1802
    -2.0054  -1.9350  -1.9181  -1.8264  -1.7814  -1.7354  -1.7008  -1.6694
    -1.6366  -1.6090  -1.5468  -1.5458  -1.4849  -1.3597  -1.3147  -1.3097
    -1.2629  -1.1322  -1.0878  -1.0180  -0.9790  -0.9339  -0.8946  -0.7735
    -0.6502  -0.3255  -0.2400  -0.1691   0.1054   0.1443   0.8100   0.9268
     0.9668   1.0307   1.2268   1.3167   1.3882   1.4340   1.5652   1.9719
     2.2696   3.0011   3.0378   3.1958   4.5994   5.0763   5.3170   5.4549
     5.5844

          k = 0.0162-0.0959 0.0000 ( 27946 PWs)   bands (ev):

   -72.2788 -72.1871 -71.8680 -71.7754 -71.7630 -71.6699 -42.5779 -42.5263
   -42.4832 -42.2748 -42.2253 -42.1477 -42.0593 -41.7832 -41.7510 -41.7183
   -41.6968 -41.6569 -41.6331 -41.5711 -41.5394 -41.5051 -41.4617 -41.4533
    -5.2831  -4.7927  -4.2409  -3.9357  -3.6858  -3.6224  -3.4132  -3.3514
    -3.2739  -3.1002  -3.0471  -3.0349  -2.9100  -2.8837  -2.7845  -2.6593
    -2.6499  -2.5174  -2.4899  -2.4429  -2.3346  -2.2412  -2.2345  -2.1802
    -2.0054  -1.9350  -1.9182  -1.8264  -1.7814  -1.7354  -1.7008  -1.6694
    -1.6366  -1.6090  -1.5468  -1.5458  -1.4849  -1.3597  -1.3147  -1.3097
    -1.2629  -1.1322  -1.0878  -1.0180  -0.9790  -0.9339  -0.8946  -0.7735
    -0.6502  -0.3255  -0.2400  -0.1691   0.1054   0.1443   0.8100   0.9268
     0.9668   1.0307   1.2268   1.3167   1.3882   1.4340   1.5652   1.9719
     2.2696   3.0011   3.0378   3.1958   4.5994   5.0763   5.3170   5.4548
     5.5845

          k = 0.0162-0.0785 0.0000 ( 27935 PWs)   bands (ev):

   -72.2788 -72.1871 -71.8680 -71.7754 -71.7630 -71.6699 -42.5778 -42.5262
   -42.4832 -42.2748 -42.2252 -42.1475 -42.0594 -41.7831 -41.7509 -41.7183
   -41.6968 -41.6569 -41.6331 -41.5711 -41.5393 -41.5051 -41.4617 -41.4533
    -5.6504  -4.5397  -4.3125  -4.0603  -3.8385  -3.7894  -3.5262  -3.4341
    -3.2869  -3.1978  -3.1204  -3.0751  -3.0488  -2.9565  -2.7068  -2.6910
    -2.5968  -2.5235  -2.3958  -2.3686  -2.3459  -2.2769  -2.1908  -2.1614
    -1.9964  -1.9322  -1.9041  -1.8489  -1.7593  -1.6885  -1.6471  -1.6040
    -1.6033  -1.5175  -1.4315  -1.3942  -1.3895  -1.2934  -1.2908  -1.2329
    -1.1634  -1.0924  -1.0233  -0.9317  -0.9158  -0.8274  -0.7494  -0.6700
    -0.5733  -0.3498  -0.2262   0.0077   0.1105   0.2090   0.8486   0.9557
     0.9800   1.0110   1.2831   1.3330   1.3940   1.4558   1.6079   1.8933
     2.1582   2.9831   3.1812   3.2049   4.2039   4.7806   5.2598   5.5250
     5.8906

          k = 0.0162-0.0610 0.0000 ( 27907 PWs)   bands (ev):

   -72.2788 -72.1871 -71.8680 -71.7754 -71.7631 -71.6699 -42.5776 -42.5261
   -42.4832 -42.2747 -42.2252 -42.1471 -42.0594 -41.7828 -41.7509 -41.7183
   -41.6967 -41.6568 -41.6330 -41.5710 -41.5393 -41.5051 -41.4617 -41.4532
    -6.0064  -4.4804  -4.4261  -4.2146  -4.0627  -3.9586  -3.6258  -3.5074
    -3.3548  -3.3140  -3.2574  -3.1874  -3.1829  -3.0929  -2.7684  -2.6595
    -2.5790  -2.4366  -2.4071  -2.3612  -2.2727  -2.2084  -2.0920  -2.0800
    -1.9678  -1.9095  -1.8666  -1.8593  -1.7473  -1.6605  -1.6360  -1.6088
    -1.4380  -1.4325  -1.3712  -1.2910  -1.2834  -1.2133  -1.2081  -1.0672
    -0.9911  -0.9572  -0.9315  -0.8140  -0.7280  -0.7144  -0.6225  -0.3879
    -0.3193  -0.2400  -0.1402   0.1257   0.1927   0.4336   0.8540   0.9816
     0.9833   1.0802   1.3070   1.3523   1.4376   1.5329   1.7061   1.7755
     2.1103   2.9393   3.0892   3.2227   4.0776   4.2738   5.1072   5.3998
     5.7199

          k = 0.0162-0.0436 0.0000 ( 27893 PWs)   bands (ev):

   -72.2788 -72.1871 -71.8680 -71.7754 -71.7631 -71.6699 -42.5774 -42.5260
   -42.4831 -42.2746 -42.2251 -42.1466 -42.0595 -41.7826 -41.7509 -41.7182
   -41.6965 -41.6567 -41.6330 -41.5709 -41.5393 -41.5051 -41.4616 -41.4532
    -6.2972  -4.6368  -4.5460  -4.3582  -4.2487  -4.0320  -3.6687  -3.5614
    -3.4890  -3.4334  -3.3774  -3.3146  -3.2857  -3.2191  -2.8009  -2.7287
    -2.4842  -2.4239  -2.4173  -2.2956  -2.2393  -2.2304  -2.0563  -1.9892
    -1.9399  -1.8328  -1.8056  -1.7864  -1.7114  -1.6846  -1.6297  -1.5566
    -1.4499  -1.3941  -1.2626  -1.2005  -1.1599  -1.1453  -1.0676  -1.0149
    -0.8747  -0.8395  -0.7315  -0.6323  -0.6219  -0.5835  -0.4338  -0.1868
    -0.0400   0.0938   0.1219   0.1983   0.3347   0.7536   0.8380   0.8975
     1.0572   1.1708   1.3851   1.4212   1.5282   1.5863   1.8628   1.8711
     2.1095   2.6913   2.8359   3.2403   3.7112   4.2163   4.7830   5.2383
     5.5385

          k = 0.0162-0.0262 0.0000 ( 27884 PWs)   bands (ev):

   -72.2788 -72.1871 -71.8680 -71.7754 -71.7631 -71.6699 -42.5773 -42.5258
   -42.4831 -42.2746 -42.2250 -42.1462 -42.0596 -41.7824 -41.7509 -41.7182
   -41.6964 -41.6567 -41.6329 -41.5708 -41.5393 -41.5051 -41.4616 -41.4532
    -6.5004  -4.7999  -4.6429  -4.4943  -4.3780  -4.0560  -3.7014  -3.5968
    -3.5800  -3.5532  -3.4617  -3.3856  -3.3666  -3.3022  -2.9094  -2.7018
    -2.4555  -2.4125  -2.4004  -2.3059  -2.2333  -2.1937  -2.0768  -1.9304
    -1.8979  -1.8118  -1.7792  -1.7225  -1.7128  -1.6914  -1.5191  -1.4880
    -1.4593  -1.4287  -1.1959  -1.1863  -1.0830  -1.0574  -0.9827  -0.8621
    -0.8516  -0.7510  -0.6892  -0.4663  -0.4578  -0.3969  -0.1935  -0.0856
     0.1632   0.1835   0.3334   0.4344   0.4678   0.7621   0.9915   1.0469
     1.1267   1.2824   1.4481   1.4876   1.5387   1.9328   2.0126   2.0665
     2.2567   2.3418   2.6005   3.0967   3.4505   4.1471   4.3351   5.0450
     5.1461

          k = 0.0162-0.0087 0.0000 ( 27895 PWs)   bands (ev):

   -72.2789 -72.1871 -71.8680 -71.7754 -71.7631 -71.6699 -42.5772 -42.5257
   -42.4831 -42.2745 -42.2249 -42.1460 -42.0597 -41.7823 -41.7509 -41.7182
   -41.6964 -41.6566 -41.6329 -41.5708 -41.5393 -41.5051 -41.4616 -41.4532
    -6.6045  -4.8909  -4.6966  -4.5707  -4.4437  -4.0697  -3.7231  -3.6596
    -3.6151  -3.5781  -3.5047  -3.4190  -3.4137  -3.3434  -2.9699  -2.6888
    -2.4618  -2.4075  -2.3822  -2.3180  -2.2348  -2.1561  -2.0944  -1.9206
    -1.8448  -1.8304  -1.7426  -1.7272  -1.7112  -1.6664  -1.5059  -1.5041
    -1.4622  -1.2926  -1.1803  -1.1532  -1.1088  -1.0489  -0.9365  -0.8661
    -0.8158  -0.6840  -0.5735  -0.4071  -0.2434  -0.2155  -0.0922  -0.0511
     0.1265   0.1837   0.2757   0.5365   0.6370   1.0150   1.1402   1.1523
     1.2747   1.3118   1.4463   1.5253   1.5377   1.8582   2.0688   2.1125
     2.4124   2.4529   2.8232   2.8593   3.5869   3.6433   3.9092   4.8885
     4.9594

          k = 0.0324 0.0174 0.0000 ( 27856 PWs)   bands (ev):

   -72.2741 -72.1918 -71.8633 -71.7802 -71.7583 -71.6748 -42.5724 -42.4886
   -42.4865 -42.2361 -42.1864 -42.1416 -42.0642 -41.7927 -41.7778 -41.7138
   -41.7009 -41.6523 -41.6374 -41.5753 -41.5463 -41.5353 -41.4946 -41.4657
    -6.4328  -4.7345  -4.5948  -4.4537  -4.3675  -3.9282  -3.6452  -3.6321
    -3.5561  -3.4817  -3.4323  -3.3714  -3.2798  -3.2498  -2.9155  -2.6331
    -2.4236  -2.4134  -2.3550  -2.2845  -2.2255  -2.0865  -2.0852  -1.9509
    -1.8863  -1.8214  -1.7575  -1.7571  -1.6805  -1.6675  -1.5365  -1.5305
    -1.4970  -1.3731  -1.2463  -1.1769  -1.1255  -1.1173  -1.0626  -0.8623
    -0.8613  -0.8091  -0.7387  -0.5295  -0.3154  -0.2922  -0.1395  -0.0811
     0.0245   0.1607   0.2498   0.3769   0.4868   0.6186   0.7734   1.0103
     1.0434   1.0944   1.3290   1.3542   1.5967   1.6711   1.8995   2.3058
     2.4323   2.6403   2.6424   2.8913   3.0741   3.6398   4.2789   4.8948
     5.3721

          k = 0.0324 0.0349 0.0000 ( 27866 PWs)   bands (ev):

   -72.2741 -72.1918 -71.8633 -71.7802 -71.7583 -71.6748 -42.5725 -42.4887
   -42.4866 -42.2361 -42.1865 -42.1420 -42.0641 -41.7927 -41.7779 -41.7138
   -41.7010 -41.6523 -41.6374 -41.5753 -41.5464 -41.5353 -41.4946 -41.4657
    -6.2808  -4.6090  -4.5176  -4.3458  -4.2857  -3.9071  -3.5936  -3.5717
    -3.4820  -3.4697  -3.3790  -3.3162  -3.2057  -3.1882  -2.8329  -2.6522
    -2.4266  -2.4265  -2.3861  -2.2747  -2.2311  -2.1477  -2.0571  -1.9796
    -1.9160  -1.8625  -1.8102  -1.7371  -1.7264  -1.6711  -1.5557  -1.5461
    -1.4959  -1.4434  -1.2707  -1.2604  -1.1971  -1.1269  -1.1129  -0.9388
    -0.8771  -0.8372  -0.7975  -0.6156  -0.5116  -0.4991  -0.3135  -0.1484
    -0.0805   0.1147   0.1200   0.2906   0.3570   0.5606   0.6444   0.7621
     1.0284   1.0289   1.3103   1.3252   1.5699   1.6170   1.9198   2.0636
     2.5170   2.5485   2.6928   2.7893   3.2950   4.2556   4.5220   4.8370
     5.6628

          k = 0.0324 0.0523 0.0000 ( 27896 PWs)   bands (ev):

   -72.2741 -72.1918 -71.8633 -71.7802 -71.7583 -71.6748 -42.5727 -42.4887
   -42.4867 -42.2362 -42.1866 -42.1424 -42.0640 -41.7927 -41.7781 -41.7138
   -41.7011 -41.6524 -41.6374 -41.5754 -41.5464 -41.5353 -41.4946 -41.4657
    -6.0362  -4.4447  -4.4034  -4.1838  -4.1552  -3.8768  -3.5406  -3.4648
    -3.4602  -3.3410  -3.2943  -3.2271  -3.0970  -3.0799  -2.7462  -2.6589
    -2.5090  -2.4445  -2.3737  -2.2970  -2.2520  -2.1864  -2.0637  -2.0355
    -1.9959  -1.8887  -1.8563  -1.8214  -1.7499  -1.6857  -1.6049  -1.5941
    -1.4929  -1.4413  -1.4151  -1.2827  -1.2688  -1.2181  -1.1139  -1.1026
    -1.0152  -0.8846  -0.8499  -0.7856  -0.6552  -0.6437  -0.5723  -0.2894
    -0.2822  -0.1878  -0.0129   0.1339   0.1701   0.4359   0.7445   0.7730
     0.9691   0.9924   1.2655   1.2971   1.4676   1.5880   1.6397   2.0142
     2.1288   2.5567   2.7076   3.2063   4.0364   4.3486   4.5590   5.2232
     5.7045

          k = 0.0324 0.0697 0.0000 ( 27934 PWs)   bands (ev):

   -72.2741 -72.1918 -71.8633 -71.7802 -71.7583 -71.6748 -42.5729 -42.4888
   -42.4868 -42.2363 -42.1867 -42.1428 -42.0639 -41.7927 -41.7783 -41.7139
   -41.7012 -41.6524 -41.6375 -41.5755 -41.5464 -41.5353 -41.4946 -41.4658
    -5.7152  -4.3797  -4.2763  -4.0000  -3.9881  -3.7840  -3.4734  -3.4005
    -3.3551  -3.2234  -3.1623  -3.1183  -2.9863  -2.9274  -2.7333  -2.6261
    -2.6102  -2.4233  -2.4174  -2.3182  -2.3056  -2.2799  -2.1628  -2.0865
    -1.9962  -1.9414  -1.9053  -1.8653  -1.8216  -1.6840  -1.6708  -1.5856
    -1.5821  -1.5456  -1.4398  -1.3416  -1.3138  -1.3070  -1.2595  -1.2279
    -1.1479  -1.1201  -0.9463  -0.8945  -0.7977  -0.7762  -0.6804  -0.5578
    -0.4997  -0.3026  -0.1283   0.0157   0.1076   0.2464   0.7913   0.8501
     0.9145   0.9889   1.1930   1.2625   1.3899   1.3946   1.5306   1.8743
     2.2018   2.5757   2.7324   3.4891   4.2194   4.4370   4.9389   5.7757
     5.9654

          k = 0.0324 0.0872 0.0000 ( 27962 PWs)   bands (ev):

   -72.2741 -72.1918 -71.8633 -71.7802 -71.7583 -71.6748 -42.5730 -42.4888
   -42.4868 -42.2363 -42.1867 -42.1431 -42.0639 -41.7927 -41.7785 -41.7139
   -41.7013 -41.6525 -41.6375 -41.5755 -41.5464 -41.5353 -41.4946 -41.4658
    -5.3510  -4.5422  -4.1721  -3.8435  -3.8152  -3.6207  -3.3641  -3.3080
    -3.3029  -3.1365  -3.0528  -2.9786  -2.8897  -2.8753  -2.7497  -2.6590
    -2.5569  -2.5537  -2.4816  -2.4158  -2.2879  -2.2350  -2.1875  -2.1785
    -2.0318  -1.9613  -1.9573  -1.8606  -1.8449  -1.7602  -1.7123  -1.6456
    -1.6447  -1.5728  -1.5709  -1.5093  -1.5085  -1.3723  -1.3345  -1.3264
    -1.2884  -1.1173  -1.0810  -0.9304  -0.8725  -0.8643  -0.7547  -0.7276
    -0.6363  -0.2997  -0.1647  -0.0858   0.1003   0.1064   0.7898   0.8423
     0.9183   0.9466   1.1674   1.2204   1.3169   1.3515   1.4149   1.8334
     2.3987   2.5950   2.7430   3.3591   4.4579   4.5466   5.4588   5.8196
     6.1384

          k = 0.0324 0.1046 0.0000 ( 27940 PWs)   bands (ev):

   -72.2741 -72.1918 -71.8633 -71.7802 -71.7583 -71.6748 -42.5731 -42.4888
   -42.4869 -42.2363 -42.1867 -42.1432 -42.0638 -41.7927 -41.7785 -41.7139
   -41.7013 -41.6525 -41.6375 -41.5756 -41.5464 -41.5353 -41.4946 -41.4658
    -5.0916  -4.7459  -4.1308  -3.7803  -3.7250  -3.5560  -3.3242  -3.3242
    -3.1206  -3.0763  -3.0492  -2.9837  -2.8958  -2.8177  -2.7368  -2.7234
    -2.6467  -2.5601  -2.4995  -2.3674  -2.2587  -2.1880  -2.1804  -2.1769
    -2.0643  -2.0425  -1.9937  -1.8588  -1.8338  -1.7977  -1.7525  -1.7342
    -1.6859  -1.6491  -1.6288  -1.5703  -1.5089  -1.4320  -1.3530  -1.3421
    -1.3052  -1.1455  -1.1095  -0.9505  -0.8939  -0.8659  -0.8275  -0.7647
    -0.6606  -0.2828  -0.1727  -0.1267   0.0545   0.0993   0.7752   0.8332
     0.9127   0.9364   1.1696   1.1986   1.2959   1.3417   1.3758   1.8280
     2.5162   2.6038   2.7446   3.2271   4.4579   4.8851   5.4434   5.6186
     6.2956

          k = 0.0324-0.0872 0.0000 ( 27962 PWs)   bands (ev):

   -72.2741 -72.1918 -71.8633 -71.7802 -71.7583 -71.6748 -42.5730 -42.4888
   -42.4868 -42.2363 -42.1867 -42.1431 -42.0639 -41.7927 -41.7785 -41.7139
   -41.7013 -41.6525 -41.6375 -41.5755 -41.5464 -41.5353 -41.4946 -41.4658
    -5.3510  -4.5422  -4.1721  -3.8435  -3.8152  -3.6207  -3.3641  -3.3080
    -3.3029  -3.1365  -3.0528  -2.9786  -2.8897  -2.8752  -2.7497  -2.6590
    -2.5568  -2.5537  -2.4816  -2.4159  -2.2879  -2.2350  -2.1875  -2.1785
    -2.0318  -1.9613  -1.9573  -1.8606  -1.8449  -1.7602  -1.7123  -1.6456
    -1.6447  -1.5728  -1.5709  -1.5093  -1.5085  -1.3723  -1.3345  -1.3264
    -1.2884  -1.1173  -1.0810  -0.9303  -0.8725  -0.8642  -0.7547  -0.7276
    -0.6363  -0.2997  -0.1647  -0.0858   0.1003   0.1064   0.7898   0.8423
     0.9183   0.9466   1.1674   1.2204   1.3169   1.3515   1.4149   1.8334
     2.3988   2.5950   2.7430   3.3590   4.4579   4.5466   5.4588   5.8196
     6.1384

          k = 0.0324-0.0697 0.0000 ( 27934 PWs)   bands (ev):

   -72.2741 -72.1918 -71.8633 -71.7802 -71.7583 -71.6748 -42.5729 -42.4888
   -42.4868 -42.2363 -42.1867 -42.1428 -42.0639 -41.7927 -41.7783 -41.7139
   -41.7012 -41.6524 -41.6375 -41.5755 -41.5464 -41.5353 -41.4946 -41.4658
    -5.7152  -4.3797  -4.2763  -4.0000  -3.9881  -3.7841  -3.4734  -3.4005
    -3.3551  -3.2234  -3.1623  -3.1183  -2.9863  -2.9274  -2.7333  -2.6261
    -2.6102  -2.4233  -2.4174  -2.3182  -2.3056  -2.2799  -2.1628  -2.0866
    -1.9962  -1.9414  -1.9054  -1.8653  -1.8216  -1.6840  -1.6708  -1.5856
    -1.5821  -1.5456  -1.4398  -1.3416  -1.3138  -1.3070  -1.2595  -1.2279
    -1.1479  -1.1201  -0.9463  -0.8945  -0.7977  -0.7761  -0.6804  -0.5578
    -0.4997  -0.3026  -0.1283   0.0157   0.1076   0.2464   0.7913   0.8501
     0.9145   0.9889   1.1930   1.2625   1.3899   1.3946   1.5306   1.8743
     2.2019   2.5757   2.7324   3.4891   4.2194   4.4369   4.9389   5.7757
     5.9654

          k = 0.0324-0.0523 0.0000 ( 27896 PWs)   bands (ev):

   -72.2741 -72.1918 -71.8633 -71.7802 -71.7583 -71.6748 -42.5727 -42.4887
   -42.4867 -42.2362 -42.1866 -42.1424 -42.0640 -41.7927 -41.7781 -41.7138
   -41.7011 -41.6524 -41.6374 -41.5754 -41.5464 -41.5353 -41.4946 -41.4657
    -6.0362  -4.4447  -4.4034  -4.1838  -4.1552  -3.8768  -3.5406  -3.4648
    -3.4602  -3.3410  -3.2942  -3.2271  -3.0970  -3.0799  -2.7462  -2.6589
    -2.5090  -2.4445  -2.3737  -2.2970  -2.2520  -2.1864  -2.0638  -2.0355
    -1.9960  -1.8887  -1.8563  -1.8214  -1.7499  -1.6857  -1.6050  -1.5941
    -1.4929  -1.4413  -1.4151  -1.2827  -1.2688  -1.2181  -1.1139  -1.1026
    -1.0152  -0.8846  -0.8499  -0.7856  -0.6552  -0.6437  -0.5722  -0.2894
    -0.2822  -0.1878  -0.0129   0.1339   0.1701   0.4359   0.7445   0.7730
     0.9691   0.9924   1.2655   1.2971   1.4676   1.5880   1.6397   2.0142
     2.1288   2.5567   2.7076   3.2063   4.0364   4.3486   4.5590   5.2233
     5.9790

          k = 0.0324-0.0349 0.0000 ( 27866 PWs)   bands (ev):

   -72.2741 -72.1918 -71.8633 -71.7802 -71.7583 -71.6748 -42.5725 -42.4887
   -42.4866 -42.2361 -42.1865 -42.1420 -42.0641 -41.7927 -41.7779 -41.7138
   -41.7010 -41.6523 -41.6374 -41.5753 -41.5464 -41.5353 -41.4946 -41.4657
    -6.2808  -4.6090  -4.5176  -4.3458  -4.2857  -3.9071  -3.5936  -3.5717
    -3.4820  -3.4697  -3.3790  -3.3162  -3.2057  -3.1882  -2.8329  -2.6522
    -2.4266  -2.4265  -2.3861  -2.2748  -2.2310  -2.1477  -2.0572  -1.9796
    -1.9160  -1.8625  -1.8102  -1.7371  -1.7264  -1.6711  -1.5557  -1.5461
    -1.4959  -1.4434  -1.2706  -1.2604  -1.1971  -1.1269  -1.1128  -0.9388
    -0.8771  -0.8372  -0.7975  -0.6155  -0.5116  -0.4992  -0.3135  -0.1484
    -0.0805   0.1147   0.1200   0.2906   0.3570   0.5606   0.6444   0.7622
     1.0284   1.0289   1.3103   1.3251   1.5699   1.6170   1.9198   2.0636
     2.5170   2.5485   2.6928   2.7893   3.2949   4.2557   4.5220   4.8369
     5.4891

          k = 0.0324-0.0174 0.0000 ( 27856 PWs)   bands (ev):

   -72.2741 -72.1918 -71.8633 -71.7802 -71.7583 -71.6748 -42.5724 -42.4886
   -42.4865 -42.2361 -42.1864 -42.1416 -42.0642 -41.7927 -41.7778 -41.7138
   -41.7009 -41.6523 -41.6374 -41.5753 -41.5463 -41.5353 -41.4946 -41.4657
    -6.4328  -4.7345  -4.5948  -4.4537  -4.3675  -3.9282  -3.6452  -3.6321
    -3.5561  -3.4817  -3.4323  -3.3714  -3.2798  -3.2498  -2.9155  -2.6331
    -2.4236  -2.4134  -2.3550  -2.2845  -2.2255  -2.0865  -2.0852  -1.9509
    -1.8863  -1.8214  -1.7575  -1.7571  -1.6805  -1.6675  -1.5365  -1.5305
    -1.4970  -1.3731  -1.2463  -1.1769  -1.1255  -1.1173  -1.0626  -0.8623
    -0.8613  -0.8091  -0.7387  -0.5295  -0.3154  -0.2922  -0.1395  -0.0811
     0.0245   0.1607   0.2498   0.3769   0.4868   0.6186   0.7734   1.0103
     1.0433   1.0944   1.3290   1.3542   1.5967   1.6711   1.8995   2.3057
     2.4323   2.6403   2.6424   2.8913   3.0741   3.6399   4.2789   4.8948
     5.3722

          k = 0.0324-0.0000 0.0000 ( 27843 PWs)   bands (ev):

   -72.2741 -72.1918 -71.8633 -71.7802 -71.7583 -71.6748 -42.5723 -42.4886
   -42.4865 -42.2361 -42.1864 -42.1415 -42.0643 -41.7927 -41.7777 -41.7137
   -41.7009 -41.6522 -41.6374 -41.5753 -41.5463 -41.5353 -41.4946 -41.4656
    -6.4843  -4.7792  -4.6219  -4.4913  -4.3953  -3.9367  -3.6714  -3.6459
    -3.5857  -3.4792  -3.4505  -3.3903  -3.3039  -3.2722  -2.9457  -2.6271
    -2.4236  -2.4091  -2.3603  -2.2715  -2.2244  -2.0989  -2.0552  -1.9532
    -1.8916  -1.7807  -1.7595  -1.7329  -1.7001  -1.6502  -1.5476  -1.5236
    -1.5139  -1.2924  -1.2416  -1.1440  -1.1378  -1.0881  -1.0589  -0.8723
    -0.8477  -0.8111  -0.6727  -0.5182  -0.1505  -0.1168  -0.0911  -0.0785
    -0.0265   0.0730   0.1830   0.4378   0.5870   0.7486   0.8376   1.0154
     1.0653   1.2708   1.3328   1.4200   1.5845   1.7921   1.8827   1.9230
     2.3003   2.5505   3.0566   3.1124   3.1674   3.4775   3.7711   5.0237
     5.1737

          k = 0.0486 0.0262 0.0000 ( 27874 PWs)   bands (ev):

   -72.2666 -72.1994 -71.8557 -71.7879 -71.7507 -71.6825 -42.5648 -42.4960
   -42.4252 -42.1747 -42.1347 -42.1248 -42.0715 -41.8583 -41.7709 -41.7081
   -41.7068 -41.6453 -41.6444 -41.6116 -41.5824 -41.5601 -41.5290 -41.4721
    -6.1575  -4.4959  -4.4627  -4.2711  -4.2519  -3.7267  -3.6395  -3.4944
    -3.4789  -3.3383  -3.3226  -3.2957  -3.1446  -3.0093  -2.8312  -2.5604
    -2.4194  -2.4060  -2.3174  -2.2343  -2.2280  -2.0715  -2.0512  -2.0173
    -1.9322  -1.7911  -1.7785  -1.7649  -1.6650  -1.6364  -1.5744  -1.5677
    -1.5032  -1.4648  -1.4037  -1.3345  -1.2203  -1.1663  -1.1403  -1.0470
    -0.9860  -0.8505  -0.8474  -0.6047  -0.4042  -0.3679  -0.3428  -0.2366
     0.0493   0.0568   0.0912   0.2165   0.2891   0.3257   0.4476   0.6643
     0.9217   0.9233   0.9803   1.2030   1.2659   1.6353   1.8579   2.0127
     2.1535   2.5543   2.7334   2.9946   3.3648   3.5380   4.4823   4.9175
     5.7111

          k = 0.0486 0.0436 0.0000 ( 27878 PWs)   bands (ev):

   -72.2666 -72.1994 -71.8557 -71.7879 -71.7507 -71.6825 -42.5649 -42.4960
   -42.4253 -42.1747 -42.1350 -42.1249 -42.0713 -41.8583 -41.7711 -41.7082
   -41.7068 -41.6453 -41.6444 -41.6116 -41.5825 -41.5601 -41.5290 -41.4721
    -5.9649  -4.3792  -4.3591  -4.1811  -4.1373  -3.6991  -3.5619  -3.4440
    -3.3796  -3.3149  -3.2790  -3.2225  -3.0385  -2.9408  -2.7546  -2.5745
    -2.4353  -2.4287  -2.3694  -2.2478  -2.2477  -2.0876  -2.0707  -2.0301
    -2.0257  -1.8531  -1.8338  -1.7542  -1.7206  -1.6803  -1.6068  -1.5632
    -1.5223  -1.5054  -1.4534  -1.3484  -1.2944  -1.2231  -1.1727  -1.1530
    -1.0658  -0.9072  -0.8191  -0.7668  -0.5577  -0.5427  -0.4472  -0.3941
    -0.1863  -0.1377   0.0026   0.1227   0.1856   0.3168   0.4495   0.5811
     0.8877   0.9194   0.9611   1.1635   1.2605   1.6076   1.9531   1.9881
     2.1455   2.1726   2.7535   3.3685   3.3739   4.0274   4.6035   4.8213
     5.7744

          k = 0.0486 0.0610 0.0000 ( 27901 PWs)   bands (ev):

   -72.2666 -72.1994 -71.8557 -71.7879 -71.7507 -71.6825 -42.5651 -42.4960
   -42.4254 -42.1748 -42.1355 -42.1250 -42.0712 -41.8583 -41.7713 -41.7082
   -41.7069 -41.6454 -41.6445 -41.6116 -41.5825 -41.5601 -41.5290 -41.4722
    -5.6900  -4.2658  -4.2439  -4.0917  -3.9384  -3.6690  -3.4564  -3.3783
    -3.2816  -3.2480  -3.1883  -3.1346  -2.8925  -2.8502  -2.7413  -2.5599
    -2.5481  -2.4188  -2.3438  -2.3115  -2.2869  -2.2534  -2.1179  -2.0134
    -2.0076  -1.9116  -1.8903  -1.8625  -1.8025  -1.6849  -1.6631  -1.6100
    -1.5930  -1.5411  -1.4719  -1.3752  -1.3555  -1.2886  -1.2567  -1.2051
    -1.1801  -1.0880  -1.0052  -0.8014  -0.7440  -0.6823  -0.6298  -0.4534
    -0.4170  -0.2632  -0.0481   0.0104   0.1159   0.2080   0.5615   0.6394
     0.8395   0.9101   0.9695   1.1041   1.2293   1.5342   1.6985   1.9623
     2.0046   2.2380   2.3869   3.7766   3.8947   4.3645   4.4839   5.3978
     6.0183

          k = 0.0486 0.0785 0.0000 ( 27897 PWs)   bands (ev):

   -72.2666 -72.1994 -71.8557 -71.7879 -71.7507 -71.6825 -42.5652 -42.4959
   -42.4255 -42.1748 -42.1358 -42.1250 -42.0711 -41.8583 -41.7715 -41.7083
   -41.7069 -41.6455 -41.6445 -41.6116 -41.5826 -41.5601 -41.5290 -41.4722
    -5.3561  -4.2852  -4.1424  -4.0081  -3.7164  -3.5869  -3.3430  -3.2986
    -3.2126  -3.1322  -3.0762  -3.0402  -2.8530  -2.7515  -2.6922  -2.6496
    -2.5926  -2.4384  -2.4150  -2.3843  -2.2729  -2.2675  -2.1578  -2.0731
    -2.0032  -1.9665  -1.9613  -1.8911  -1.8817  -1.7580  -1.7254  -1.7008
    -1.6594  -1.5478  -1.5141  -1.4938  -1.4252  -1.4075  -1.4059  -1.3202
    -1.2667  -1.2185  -1.1400  -0.8319  -0.7909  -0.7612  -0.6857  -0.5744
    -0.5517  -0.2566  -0.0761  -0.0438   0.0955   0.0963   0.6331   0.6912
     0.7975   0.8801   0.9769   1.0218   1.1962   1.3300   1.5768   1.7389
     1.9569   2.2882   2.5315   3.8047   3.8293   4.5524   5.3180   6.1300
     6.2284

          k = 0.0486 0.0959 0.0000 ( 27907 PWs)   bands (ev):

   -72.2666 -72.1994 -71.8557 -71.7879 -71.7507 -71.6825 -42.5653 -42.4959
   -42.4256 -42.1749 -42.1360 -42.1251 -42.0710 -41.8583 -41.7716 -41.7083
   -41.7069 -41.6455 -41.6445 -41.6116 -41.5826 -41.5601 -41.5290 -41.4722
    -5.0258  -4.4895  -4.0488  -3.9623  -3.6046  -3.4436  -3.2565  -3.2131
    -3.1039  -3.0976  -3.0071  -2.9427  -2.8800  -2.8424  -2.7018  -2.6657
    -2.5446  -2.4953  -2.4865  -2.3487  -2.2205  -2.1607  -2.1447  -2.1206
    -2.0976  -2.0560  -2.0241  -1.9392  -1.9205  -1.8595  -1.7733  -1.7273
    -1.7265  -1.6424  -1.6166  -1.5681  -1.5265  -1.4948  -1.4231  -1.3740
    -1.3114  -1.2728  -1.0907  -0.8684  -0.8234  -0.7615  -0.7132  -0.6496
    -0.5905  -0.2345  -0.0881  -0.0461   0.0220   0.0938   0.6707   0.7017
     0.7893   0.8341   0.9427   0.9787   1.1760   1.2066   1.4834   1.6534
     1.9589   2.3132   2.7377   3.5448   3.7862   5.0177   5.7656   6.1307
     6.2829

          k = 0.0486 0.1133 0.0000 ( 27907 PWs)   bands (ev):

   -72.2666 -72.1994 -71.8557 -71.7879 -71.7507 -71.6825 -42.5653 -42.4959
   -42.4256 -42.1749 -42.1360 -42.1251 -42.0710 -41.8583 -41.7716 -41.7083
   -41.7069 -41.6455 -41.6445 -41.6116 -41.5826 -41.5601 -41.5290 -41.4722
    -5.0258  -4.4896  -4.0488  -3.9623  -3.6045  -3.4436  -3.2565  -3.2131
    -3.1039  -3.0975  -3.0071  -2.9427  -2.8800  -2.8424  -2.7018  -2.6657
    -2.5446  -2.4953  -2.4865  -2.3487  -2.2205  -2.1607  -2.1447  -2.1206
    -2.0976  -2.0560  -2.0241  -1.9392  -1.9205  -1.8595  -1.7733  -1.7273
    -1.7265  -1.6424  -1.6166  -1.5681  -1.5265  -1.4948  -1.4231  -1.3740
    -1.3114  -1.2728  -1.0907  -0.8684  -0.8234  -0.7615  -0.7132  -0.6496
    -0.5905  -0.2345  -0.0881  -0.0460   0.0220   0.0938   0.6707   0.7017
     0.7893   0.8341   0.9427   0.9787   1.1760   1.2066   1.4834   1.6534
     1.9589   2.3132   2.7377   3.5448   3.7862   5.0177   5.7656   6.1307
     6.2829

          k = 0.0486-0.0785 0.0000 ( 27897 PWs)   bands (ev):

   -72.2666 -72.1994 -71.8557 -71.7879 -71.7507 -71.6825 -42.5652 -42.4959
   -42.4255 -42.1748 -42.1358 -42.1250 -42.0711 -41.8583 -41.7715 -41.7083
   -41.7069 -41.6455 -41.6445 -41.6116 -41.5826 -41.5601 -41.5290 -41.4722
    -5.3561  -4.2852  -4.1424  -4.0081  -3.7164  -3.5869  -3.3430  -3.2986
    -3.2126  -3.1322  -3.0762  -3.0402  -2.8530  -2.7515  -2.6922  -2.6496
    -2.5926  -2.4384  -2.4150  -2.3844  -2.2729  -2.2675  -2.1578  -2.0731
    -2.0032  -1.9665  -1.9614  -1.8911  -1.8817  -1.7580  -1.7254  -1.7008
    -1.6593  -1.5478  -1.5142  -1.4938  -1.4252  -1.4076  -1.4059  -1.3202
    -1.2667  -1.2185  -1.1400  -0.8319  -0.7909  -0.7612  -0.6857  -0.5744
    -0.5518  -0.2566  -0.0761  -0.0438   0.0955   0.0963   0.6331   0.6912
     0.7975   0.8801   0.9769   1.0218   1.1962   1.3300   1.5768   1.7389
     1.9568   2.2882   2.5315   3.8047   3.8293   4.5525   5.3180   6.1300
     6.2285

          k = 0.0486-0.0610 0.0000 ( 27901 PWs)   bands (ev):

   -72.2666 -72.1994 -71.8557 -71.7879 -71.7507 -71.6825 -42.5651 -42.4960
   -42.4254 -42.1748 -42.1355 -42.1250 -42.0712 -41.8583 -41.7713 -41.7082
   -41.7069 -41.6454 -41.6445 -41.6116 -41.5825 -41.5601 -41.5290 -41.4722
    -5.6900  -4.2658  -4.2438  -4.0917  -3.9384  -3.6690  -3.4564  -3.3783
    -3.2816  -3.2480  -3.1883  -3.1346  -2.8925  -2.8502  -2.7413  -2.5599
    -2.5481  -2.4188  -2.3438  -2.3115  -2.2870  -2.2534  -2.1179  -2.0134
    -2.0076  -1.9116  -1.8903  -1.8625  -1.8025  -1.6849  -1.6631  -1.6100
    -1.5930  -1.5411  -1.4719  -1.3752  -1.3554  -1.2886  -1.2567  -1.2051
    -1.1801  -1.0880  -1.0052  -0.8014  -0.7440  -0.6823  -0.6298  -0.4534
    -0.4170  -0.2632  -0.0481   0.0105   0.1159   0.2080   0.5615   0.6394
     0.8395   0.9101   0.9695   1.1041   1.2293   1.5342   1.6985   1.9623
     2.0046   2.2380   2.3869   3.7766   3.8947   4.3645   4.4839   5.3978
     6.0183

          k = 0.0486-0.0436 0.0000 ( 27878 PWs)   bands (ev):

   -72.2666 -72.1994 -71.8557 -71.7879 -71.7507 -71.6825 -42.5649 -42.4960
   -42.4253 -42.1747 -42.1350 -42.1249 -42.0713 -41.8583 -41.7711 -41.7082
   -41.7068 -41.6453 -41.6444 -41.6116 -41.5825 -41.5601 -41.5290 -41.4721
    -5.9649  -4.3792  -4.3591  -4.1811  -4.1373  -3.6992  -3.5620  -3.4440
    -3.3796  -3.3149  -3.2790  -3.2225  -3.0385  -2.9408  -2.7546  -2.5745
    -2.4353  -2.4287  -2.3694  -2.2478  -2.2477  -2.0876  -2.0708  -2.0302
    -2.0257  -1.8531  -1.8338  -1.7542  -1.7206  -1.6803  -1.6068  -1.5632
    -1.5223  -1.5054  -1.4534  -1.3483  -1.2944  -1.2231  -1.1726  -1.1530
    -1.0658  -0.9072  -0.8191  -0.7667  -0.5577  -0.5427  -0.4472  -0.3941
    -0.1863  -0.1377   0.0026   0.1227   0.1856   0.3168   0.4495   0.5811
     0.8877   0.9194   0.9611   1.1635   1.2605   1.6076   1.9531   1.9881
     2.1455   2.1726   2.7535   3.3685   3.3739   4.0274   4.6036   4.8213
     5.7744

          k = 0.0486-0.0262 0.0000 ( 27874 PWs)   bands (ev):

   -72.2666 -72.1994 -71.8557 -71.7879 -71.7507 -71.6825 -42.5648 -42.4960
   -42.4252 -42.1747 -42.1347 -42.1248 -42.0715 -41.8583 -41.7709 -41.7081
   -41.7068 -41.6453 -41.6444 -41.6116 -41.5824 -41.5601 -41.5290 -41.4721
    -6.1575  -4.4959  -4.4627  -4.2711  -4.2519  -3.7267  -3.6395  -3.4944
    -3.4789  -3.3383  -3.3226  -3.2957  -3.1446  -3.0093  -2.8312  -2.5604
    -2.4194  -2.4060  -2.3174  -2.2343  -2.2280  -2.0715  -2.0512  -2.0173
    -1.9322  -1.7911  -1.7786  -1.7649  -1.6650  -1.6364  -1.5744  -1.5677
    -1.5032  -1.4648  -1.4037  -1.3345  -1.2203  -1.1663  -1.1403  -1.0470
    -0.9860  -0.8505  -0.8474  -0.6047  -0.4041  -0.3679  -0.3429  -0.2366
     0.0493   0.0568   0.0912   0.2165   0.2891   0.3257   0.4476   0.6643
     0.9216   0.9233   0.9803   1.2030   1.2659   1.6353   1.8579   2.0127
     2.1535   2.5543   2.7334   2.9947   3.3648   3.5380   4.4823   4.9175
     5.7111

          k = 0.0486-0.0087 0.0000 ( 27878 PWs)   bands (ev):

   -72.2666 -72.1994 -71.8557 -71.7879 -71.7507 -71.6825 -42.5647 -42.4960
   -42.4251 -42.1747 -42.1345 -42.1248 -42.0716 -41.8583 -41.7708 -41.7081
   -41.7068 -41.6453 -41.6444 -41.6116 -41.5824 -41.5600 -41.5290 -41.4721
    -6.2563  -4.5761  -4.5064  -4.3395  -4.2904  -3.7451  -3.6798  -3.5314
    -3.5215  -3.3629  -3.3408  -3.3226  -3.1981  -3.0465  -2.8858  -2.5463
    -2.4122  -2.4109  -2.2949  -2.2182  -2.2047  -2.1017  -2.0494  -1.9771
    -1.8772  -1.8140  -1.7293  -1.7203  -1.6400  -1.6338  -1.5932  -1.5555
    -1.5542  -1.3828  -1.3527  -1.3374  -1.1508  -1.1389  -1.1069  -0.9988
    -0.9389  -0.8830  -0.8525  -0.5103  -0.3746  -0.2280  -0.1730  -0.1256
     0.0495   0.0695   0.1683   0.1825   0.3339   0.4468   0.5331   0.9067
     0.9245   1.0213   1.1260   1.2256   1.2573   1.6448   1.7762   1.7934
     2.0027   2.3735   2.7586   2.8918   3.4406   3.8779   4.4559   4.7433
     5.2589

          k = 0.0486 0.0087 0.0000 ( 27878 PWs)   bands (ev):

   -72.2666 -72.1994 -71.8557 -71.7879 -71.7507 -71.6825 -42.5647 -42.4960
   -42.4251 -42.1747 -42.1345 -42.1248 -42.0716 -41.8583 -41.7708 -41.7081
   -41.7068 -41.6453 -41.6444 -41.6116 -41.5824 -41.5600 -41.5290 -41.4721
    -6.2563  -4.5761  -4.5064  -4.3395  -4.2904  -3.7451  -3.6798  -3.5314
    -3.5215  -3.3629  -3.3408  -3.3226  -3.1981  -3.0465  -2.8858  -2.5463
    -2.4122  -2.4109  -2.2949  -2.2182  -2.2048  -2.1017  -2.0493  -1.9771
    -1.8772  -1.8140  -1.7293  -1.7203  -1.6400  -1.6338  -1.5932  -1.5555
    -1.5543  -1.3828  -1.3527  -1.3374  -1.1508  -1.1389  -1.1069  -0.9988
    -0.9389  -0.8830  -0.8525  -0.5103  -0.3746  -0.2280  -0.1730  -0.1256
     0.0495   0.0694   0.1682   0.1825   0.3339   0.4468   0.5331   0.9067
     0.9245   1.0213   1.1260   1.2257   1.2573   1.6448   1.7762   1.7934
     2.0027   2.3735   2.7586   2.8918   3.4406   3.8779   4.4559   4.7433
     5.2588

          k = 0.0648 0.0349 0.0000 ( 27867 PWs)   bands (ev):

   -72.2568 -72.2093 -71.8458 -71.7979 -71.7408 -71.6925 -42.5548 -42.5062
   -42.3441 -42.1256 -42.0941 -42.0809 -42.0440 -41.9433 -41.7619 -41.7174
   -41.6978 -41.6959 -41.6536 -41.6449 -41.6360 -41.5917 -41.5207 -41.4805
    -5.7967  -4.4253  -4.2140  -4.0772  -4.0454  -3.6441  -3.5413  -3.3868
    -3.2740  -3.2734  -3.1694  -3.1531  -2.9591  -2.7679  -2.7375  -2.4893
    -2.4141  -2.4029  -2.3345  -2.2692  -2.2302  -2.1371  -2.0684  -2.0583
    -1.9603  -1.8229  -1.7846  -1.7025  -1.7017  -1.6468  -1.6374  -1.5785
    -1.5780  -1.4724  -1.4186  -1.3753  -1.3412  -1.2870  -1.2680  -1.2258
    -1.1583  -0.8760  -0.8571  -0.6787  -0.5737  -0.4480  -0.3944  -0.3376
    -0.2234  -0.1048  -0.0391  -0.0276   0.1377   0.2229   0.2631   0.3220
     0.4951   0.7077   0.9223   1.0806   1.1024   1.3427   1.4491   1.7078
     2.0819   2.5993   2.7819   3.4504   3.5621   3.6071   4.0368   5.4118
     5.8846

          k = 0.0648 0.0523 0.0000 ( 27864 PWs)   bands (ev):

   -72.2568 -72.2093 -71.8458 -71.7979 -71.7407 -71.6925 -42.5550 -42.5061
   -42.3442 -42.1259 -42.0942 -42.0807 -42.0441 -41.9433 -41.7621 -41.7174
   -41.6979 -41.6959 -41.6536 -41.6449 -41.6360 -41.5917 -41.5207 -41.4805
    -5.5767  -4.4208  -4.1055  -4.0071  -3.8981  -3.5544  -3.5162  -3.2780
    -3.2175  -3.2132  -3.1406  -3.0976  -2.8445  -2.7270  -2.7244  -2.4716
    -2.4677  -2.3972  -2.3684  -2.3120  -2.2988  -2.2435  -2.0834  -2.0095
    -1.9483  -1.8659  -1.8380  -1.8043  -1.7548  -1.6816  -1.6457  -1.6204
    -1.5772  -1.5134  -1.4465  -1.4287  -1.3752  -1.3513  -1.3215  -1.2788
    -1.2309  -1.0361  -0.8984  -0.8085  -0.6681  -0.5753  -0.5234  -0.4472
    -0.3250  -0.2647  -0.0592  -0.0550   0.1376   0.1518   0.2612   0.3875
     0.4894   0.6748   0.9052   1.0341   1.1160   1.3809   1.4269   1.7148
     2.1168   2.2511   2.9013   3.4014   3.5888   3.9971   4.6060   5.0207
     6.0782

          k = 0.0648 0.0697 0.0000 ( 27872 PWs)   bands (ev):

   -72.2568 -72.2093 -71.8458 -71.7979 -71.7407 -71.6925 -42.5551 -42.5061
   -42.3443 -42.1263 -42.0942 -42.0805 -42.0442 -41.9432 -41.7622 -41.7175
   -41.6979 -41.6959 -41.6537 -41.6449 -41.6360 -41.5918 -41.5207 -41.4805
    -5.2907  -4.4122  -4.0724  -3.9185  -3.6916  -3.4956  -3.4452  -3.1641
    -3.1609  -3.1363  -3.0869  -3.0186  -2.7984  -2.7268  -2.6657  -2.5895
    -2.5295  -2.3907  -2.3803  -2.3395  -2.3160  -2.2397  -2.1245  -1.9863
    -1.9797  -1.9361  -1.8615  -1.8449  -1.8350  -1.7446  -1.7124  -1.6782
    -1.6734  -1.5399  -1.5314  -1.4871  -1.4369  -1.4033  -1.3901  -1.2883
    -1.2803  -1.2148  -1.1546  -0.7813  -0.7555  -0.6173  -0.6150  -0.4848
    -0.4372  -0.2354  -0.0475  -0.0330   0.0755   0.1048   0.3239   0.4431
     0.5237   0.6428   0.8506   0.9529   1.1318   1.3821   1.3856   1.6837
     1.7610   2.0643   2.7013   3.3659   4.3120   4.4249   4.6767   5.5249
     5.8589

          k = 0.0648 0.0872 0.0000 ( 27902 PWs)   bands (ev):

   -72.2568 -72.2093 -71.8458 -71.7979 -71.7407 -71.6925 -42.5552 -42.5061
   -42.3444 -42.1266 -42.0942 -42.0804 -42.0442 -41.9432 -41.7623 -41.7175
   -41.6979 -41.6959 -41.6537 -41.6449 -41.6361 -41.5918 -41.5207 -41.4806
    -4.9753  -4.4032  -4.1909  -3.8360  -3.4908  -3.4476  -3.3343  -3.1192
    -3.1162  -3.0638  -3.0029  -2.9280  -2.8270  -2.7886  -2.6960  -2.6191
    -2.5162  -2.4341  -2.4090  -2.3407  -2.2835  -2.1702  -2.0850  -2.0573
    -2.0223  -1.9875  -1.9564  -1.9301  -1.8898  -1.8286  -1.7424  -1.7275
    -1.7070  -1.6490  -1.5591  -1.5571  -1.4996  -1.4967  -1.4501  -1.4335
    -1.3630  -1.2859  -1.0293  -0.8282  -0.7324  -0.6811  -0.6513  -0.5881
    -0.3709  -0.1897  -0.0581  -0.0215   0.0886   0.1032   0.3990   0.4665
     0.5523   0.6245   0.7505   0.8643   1.1396   1.2603   1.3720   1.4791
     1.7158   1.8027   2.9151   3.2665   3.9901   5.0805   5.3955   5.6960
     6.3042

          k = 0.0648 0.1046 0.0000 ( 27888 PWs)   bands (ev):

   -72.2568 -72.2093 -71.8458 -71.7979 -71.7407 -71.6925 -42.5552 -42.5061
   -42.3444 -42.1266 -42.0943 -42.0803 -42.0442 -41.9432 -41.7623 -41.7175
   -41.6979 -41.6959 -41.6537 -41.6449 -41.6361 -41.5918 -41.5207 -41.4806
    -4.7764  -4.3992  -4.3319  -3.8001  -3.4487  -3.3605  -3.2689  -3.1395
    -3.0994  -3.0434  -2.9451  -2.8542  -2.8434  -2.8230  -2.7469  -2.6676
    -2.5432  -2.4443  -2.3197  -2.2703  -2.2423  -2.2007  -2.1499  -2.0860
    -2.0434  -2.0370  -2.0089  -1.9343  -1.9319  -1.8726  -1.7910  -1.6993
    -1.6692  -1.6614  -1.6423  -1.6111  -1.5750  -1.4957  -1.4769  -1.4384
    -1.3929  -1.2811  -0.9645  -0.8430  -0.7432  -0.7011  -0.6607  -0.6244
    -0.3379  -0.1857  -0.0536  -0.0198   0.0872   0.1456   0.4533   0.4705
     0.5606   0.6219   0.6980   0.8023   1.1421   1.1489   1.3673   1.4483
     1.5988   1.8183   3.0669   3.2317   3.7791   5.5001   5.5544   5.8554
     6.5255

          k = 0.0648 0.1221 0.0000 ( 27902 PWs)   bands (ev):

   -72.2568 -72.2093 -71.8458 -71.7979 -71.7407 -71.6925 -42.5552 -42.5061
   -42.3444 -42.1266 -42.0942 -42.0804 -42.0442 -41.9432 -41.7623 -41.7175
   -41.6979 -41.6959 -41.6537 -41.6449 -41.6361 -41.5918 -41.5207 -41.4806
    -4.9753  -4.4032  -4.1909  -3.8360  -3.4908  -3.4476  -3.3342  -3.1192
    -3.1162  -3.0638  -3.0029  -2.9280  -2.8270  -2.7886  -2.6960  -2.6191
    -2.5162  -2.4341  -2.4090  -2.3407  -2.2835  -2.1702  -2.0850  -2.0573
    -2.0223  -1.9876  -1.9564  -1.9301  -1.8898  -1.8286  -1.7424  -1.7274
    -1.7070  -1.6490  -1.5591  -1.5571  -1.4996  -1.4968  -1.4500  -1.4335
    -1.3630  -1.2859  -1.0293  -0.8282  -0.7324  -0.6811  -0.6513  -0.5881
    -0.3709  -0.1896  -0.0581  -0.0215   0.0886   0.1032   0.3990   0.4665
     0.5523   0.6245   0.7505   0.8643   1.1396   1.2603   1.3720   1.4791
     1.7158   1.8027   2.9151   3.2665   3.9901   5.0805   5.3955   5.6960
     6.3042

          k = 0.0648-0.0697 0.0000 ( 27872 PWs)   bands (ev):

   -72.2568 -72.2093 -71.8458 -71.7979 -71.7407 -71.6925 -42.5551 -42.5061
   -42.3443 -42.1263 -42.0942 -42.0805 -42.0442 -41.9432 -41.7622 -41.7175
   -41.6979 -41.6959 -41.6537 -41.6449 -41.6360 -41.5918 -41.5207 -41.4805
    -5.2907  -4.4122  -4.0724  -3.9185  -3.6916  -3.4956  -3.4452  -3.1641
    -3.1609  -3.1363  -3.0869  -3.0186  -2.7984  -2.7268  -2.6657  -2.5895
    -2.5295  -2.3907  -2.3803  -2.3395  -2.3160  -2.2397  -2.1245  -1.9863
    -1.9797  -1.9361  -1.8615  -1.8449  -1.8350  -1.7446  -1.7124  -1.6782
    -1.6734  -1.5399  -1.5314  -1.4871  -1.4369  -1.4033  -1.3901  -1.2883
    -1.2803  -1.2148  -1.1546  -0.7813  -0.7555  -0.6173  -0.6150  -0.4848
    -0.4372  -0.2354  -0.0475  -0.0330   0.0755   0.1048   0.3239   0.4431
     0.5237   0.6428   0.8506   0.9529   1.1317   1.3821   1.3855   1.6837
     1.7610   2.0643   2.7014   3.3660   4.3120   4.4249   4.6767   5.5249
     5.8590

          k = 0.0648-0.0523 0.0000 ( 27864 PWs)   bands (ev):

   -72.2568 -72.2093 -71.8458 -71.7979 -71.7407 -71.6925 -42.5550 -42.5061
   -42.3442 -42.1259 -42.0942 -42.0807 -42.0441 -41.9433 -41.7621 -41.7174
   -41.6979 -41.6959 -41.6536 -41.6449 -41.6360 -41.5917 -41.5207 -41.4805
    -5.5767  -4.4208  -4.1055  -4.0071  -3.8981  -3.5544  -3.5162  -3.2780
    -3.2175  -3.2132  -3.1406  -3.0976  -2.8445  -2.7270  -2.7244  -2.4716
    -2.4677  -2.3972  -2.3684  -2.3120  -2.2988  -2.2435  -2.0835  -2.0096
    -1.9484  -1.8659  -1.8380  -1.8043  -1.7548  -1.6816  -1.6457  -1.6204
    -1.5773  -1.5134  -1.4465  -1.4287  -1.3752  -1.3513  -1.3215  -1.2788
    -1.2308  -1.0361  -0.8984  -0.8085  -0.6681  -0.5753  -0.5234  -0.4473
    -0.3250  -0.2647  -0.0592  -0.0550   0.1376   0.1518   0.2613   0.3875
     0.4894   0.6748   0.9052   1.0341   1.1160   1.3809   1.4268   1.7148
     2.1168   2.2511   2.9013   3.4014   3.5888   3.9971   4.6060   5.0207
     6.0783

          k = 0.0648-0.0349 0.0000 ( 27867 PWs)   bands (ev):

   -72.2568 -72.2093 -71.8458 -71.7979 -71.7408 -71.6925 -42.5548 -42.5062
   -42.3441 -42.1256 -42.0941 -42.0809 -42.0440 -41.9433 -41.7619 -41.7174
   -41.6978 -41.6959 -41.6536 -41.6449 -41.6360 -41.5917 -41.5207 -41.4805
    -5.7967  -4.4253  -4.2140  -4.0772  -4.0454  -3.6441  -3.5413  -3.3868
    -3.2740  -3.2734  -3.1694  -3.1531  -2.9591  -2.7679  -2.7375  -2.4893
    -2.4141  -2.4028  -2.3345  -2.2692  -2.2302  -2.1371  -2.0684  -2.0583
    -1.9603  -1.8229  -1.7846  -1.7025  -1.7017  -1.6468  -1.6374  -1.5786
    -1.5780  -1.4724  -1.4186  -1.3753  -1.3412  -1.2870  -1.2680  -1.2258
    -1.1583  -0.8760  -0.8571  -0.6787  -0.5737  -0.4480  -0.3944  -0.3376
    -0.2234  -0.1047  -0.0391  -0.0276   0.1377   0.2229   0.2631   0.3221
     0.4951   0.7076   0.9223   1.0806   1.1024   1.3427   1.4491   1.7078
     2.0819   2.5993   2.7819   3.4504   3.5621   3.6072   4.0368   5.4118
     5.8846

          k = 0.0648-0.0174 0.0000 ( 27863 PWs)   bands (ev):

   -72.2569 -72.2093 -71.8458 -71.7979 -71.7408 -71.6925 -42.5547 -42.5062
   -42.3440 -42.1253 -42.0941 -42.0810 -42.0440 -41.9433 -41.7618 -41.7174
   -41.6978 -41.6959 -41.6536 -41.6450 -41.6359 -41.5917 -41.5207 -41.4805
    -5.9340  -4.4261  -4.3083  -4.1306  -4.1195  -3.7039  -3.5645  -3.4580
    -3.3131  -3.3077  -3.2231  -3.1523  -3.0315  -2.8055  -2.7945  -2.4785
    -2.4299  -2.3991  -2.2449  -2.2390  -2.1821  -2.1055  -2.0957  -2.0692
    -1.9394  -1.7704  -1.7319  -1.7054  -1.6539  -1.6398  -1.6129  -1.5825
    -1.5616  -1.5344  -1.3757  -1.3190  -1.3164  -1.2463  -1.2367  -1.1136
    -1.0765  -0.8915  -0.8474  -0.5859  -0.5220  -0.3183  -0.3066  -0.2056
    -0.1516  -0.0553   0.0343   0.1156   0.1422   0.2334   0.3014   0.4288
     0.6547   0.7732   0.9286   1.0011   1.1584   1.2848   1.4537   1.7465
     1.8894   1.9706   2.8042   3.3046   3.5662   4.2333   4.2517   5.2781
     5.2854

          k = 0.0648-0.0000 0.0000 ( 27895 PWs)   bands (ev):

   -72.2569 -72.2093 -71.8458 -71.7979 -71.7408 -71.6925 -42.5547 -42.5062
   -42.3440 -42.1252 -42.0941 -42.0811 -42.0440 -41.9433 -41.7618 -41.7174
   -41.6978 -41.6959 -41.6536 -41.6450 -41.6359 -41.5917 -41.5207 -41.4805
    -5.9805  -4.4259  -4.3433  -4.1590  -4.1332  -3.7253  -3.5736  -3.4823
    -3.3267  -3.3177  -3.2437  -3.1510  -3.0560  -2.8215  -2.8200  -2.4653
    -2.4358  -2.4035  -2.2328  -2.1910  -2.1710  -2.1278  -2.1056  -2.0632
    -1.9234  -1.7498  -1.7005  -1.6893  -1.6819  -1.6342  -1.6076  -1.5800
    -1.5615  -1.5516  -1.3456  -1.3365  -1.2933  -1.2317  -1.2135  -1.0527
    -1.0437  -0.9061  -0.8608  -0.5958  -0.4615  -0.3003  -0.2103  -0.1862
    -0.1332  -0.0561   0.0385   0.1087   0.2021   0.2232   0.3199   0.5938
     0.7478   0.8496   0.9309   1.1680   1.1851   1.2303   1.3081   1.4490
     1.9156   1.9315   2.4163   3.2095   4.2019   4.4745   4.5717   4.7707
     4.9304

          k = 0.0648 0.0174 0.0000 ( 27863 PWs)   bands (ev):

   -72.2569 -72.2093 -71.8458 -71.7979 -71.7408 -71.6925 -42.5547 -42.5062
   -42.3440 -42.1253 -42.0941 -42.0810 -42.0440 -41.9433 -41.7618 -41.7174
   -41.6978 -41.6959 -41.6536 -41.6450 -41.6359 -41.5917 -41.5207 -41.4805
    -5.9340  -4.4261  -4.3083  -4.1306  -4.1195  -3.7039  -3.5645  -3.4580
    -3.3131  -3.3077  -3.2231  -3.1523  -3.0315  -2.8055  -2.7945  -2.4785
    -2.4299  -2.3991  -2.2449  -2.2390  -2.1821  -2.1055  -2.0957  -2.0692
    -1.9394  -1.7704  -1.7319  -1.7054  -1.6539  -1.6398  -1.6129  -1.5825
    -1.5616  -1.5345  -1.3757  -1.3190  -1.3164  -1.2463  -1.2367  -1.1136
    -1.0765  -0.8915  -0.8473  -0.5859  -0.5220  -0.3183  -0.3066  -0.2056
    -0.1516  -0.0553   0.0342   0.1155   0.1422   0.2334   0.3014   0.4288
     0.6548   0.7732   0.9286   1.0011   1.1584   1.2848   1.4537   1.7465
     1.8895   1.9706   2.8041   3.3046   3.5662   4.2333   4.2517   5.2781
     5.2854

          k = 0.0811 0.0436 0.0000 ( 27842 PWs)   bands (ev):

   -72.2454 -72.2208 -71.8343 -71.8095 -71.7292 -71.7042 -42.5432 -42.5180
   -42.2488 -42.1149 -42.0917 -42.0414 -41.9995 -41.9491 -41.7935 -41.7512
   -41.7425 -41.7282 -41.6871 -41.6643 -41.6255 -41.6025 -41.5111 -41.4902
    -5.3800  -4.6038  -3.9475  -3.8677  -3.8299  -3.6555  -3.4060  -3.2814
    -3.2396  -3.0662  -3.0424  -3.0025  -2.7687  -2.7084  -2.6733  -2.4703
    -2.4419  -2.3685  -2.3653  -2.3389  -2.2920  -2.2181  -2.0584  -2.0302
    -1.9168  -1.8513  -1.7842  -1.7757  -1.7628  -1.7088  -1.6562  -1.6302
    -1.6113  -1.5912  -1.4969  -1.4967  -1.3664  -1.3555  -1.3134  -1.1384
    -0.9789  -0.9592  -0.8193  -0.7887  -0.5986  -0.5877  -0.4306  -0.4149
    -0.3046  -0.2999  -0.2101  -0.1368  -0.0114  -0.0005   0.0541   0.1884
     0.2566   0.3087   0.8723   0.9345   1.0381   1.0554   1.2741   1.3931
     2.4005   2.6723   2.7844   3.1809   3.6783   3.8127   4.2586   5.6702
     5.7133

          k = 0.0811 0.0610 0.0000 ( 27843 PWs)   bands (ev):

   -72.2454 -72.2208 -71.8343 -71.8095 -71.7292 -71.7042 -42.5433 -42.5179
   -42.2489 -42.1152 -42.0915 -42.0413 -41.9995 -41.9492 -41.7935 -41.7513
   -41.7425 -41.7282 -41.6871 -41.6643 -41.6255 -41.6025 -41.5111 -41.4903
    -5.1557  -4.7021  -3.9008  -3.8196  -3.7175  -3.5834  -3.3960  -3.2198
    -3.1594  -3.0991  -2.9773  -2.9515  -2.7431  -2.7257  -2.6478  -2.5078
    -2.4763  -2.4290  -2.3860  -2.3738  -2.2322  -2.2077  -2.0720  -2.0020
    -1.9579  -1.8570  -1.8449  -1.8076  -1.8029  -1.7345  -1.6981  -1.6518
    -1.6383  -1.5928  -1.5116  -1.4944  -1.4343  -1.3975  -1.3231  -1.1866
    -1.1538  -1.0884  -0.9698  -0.7200  -0.7176  -0.5077  -0.4793  -0.4497
    -0.4020  -0.2478  -0.1344  -0.0840  -0.0545   0.0101   0.0270   0.1484
     0.2712   0.3026   0.8617   0.9313   0.9699   1.1267   1.2658   1.3919
     2.1116   2.5050   3.0323   3.0509   3.5297   4.6162   4.6621   5.1462
     5.3373

          k = 0.0811 0.0785 0.0000 ( 27852 PWs)   bands (ev):

   -72.2454 -72.2208 -71.8343 -71.8095 -71.7292 -71.7042 -42.5434 -42.5179
   -42.2490 -42.1155 -42.0913 -42.0413 -41.9996 -41.9492 -41.7935 -41.7514
   -41.7424 -41.7282 -41.6871 -41.6643 -41.6255 -41.6025 -41.5111 -41.4903
    -4.8905  -4.7746  -3.9483  -3.7646  -3.5832  -3.5153  -3.3912  -3.1936
    -3.1338  -3.0788  -2.9053  -2.9015  -2.7686  -2.7575  -2.5657  -2.5332
    -2.5182  -2.4906  -2.4313  -2.3743  -2.2343  -2.1387  -2.0699  -2.0240
    -1.9692  -1.9572  -1.9117  -1.8800  -1.7820  -1.7734  -1.7356  -1.7010
    -1.6391  -1.5891  -1.5704  -1.5156  -1.4664  -1.4173  -1.3535  -1.3049
    -1.2897  -1.1477  -0.9059  -0.7741  -0.6859  -0.5599  -0.5399  -0.5021
    -0.2810  -0.1963  -0.0689  -0.0609  -0.0292   0.0289   0.1070   0.1804
     0.2479   0.3364   0.7430   0.8665   0.9848   1.1356   1.2566   1.4119
     1.6165   2.1209   2.8883   3.0833   4.4507   4.5508   5.0752   5.1878
     5.6005

          k = 0.0811 0.0959 0.0000 ( 27861 PWs)   bands (ev):

   -72.2454 -72.2208 -71.8343 -71.8095 -71.7292 -71.7042 -42.5434 -42.5178
   -42.2490 -42.1157 -42.0912 -42.0413 -41.9996 -41.9493 -41.7935 -41.7515
   -41.7424 -41.7282 -41.6871 -41.6643 -41.6255 -41.6025 -41.5111 -41.4903
    -4.8127  -4.6503  -4.0840  -3.7250  -3.4824  -3.4650  -3.3833  -3.1820
    -3.1586  -3.0620  -2.8914  -2.8539  -2.7234  -2.7087  -2.6170  -2.5982
    -2.5616  -2.5024  -2.4050  -2.3119  -2.2409  -2.1845  -2.0768  -2.0706
    -2.0128  -1.9603  -1.9490  -1.9283  -1.7950  -1.7791  -1.7529  -1.7157
    -1.6427  -1.6048  -1.5852  -1.5432  -1.5031  -1.4388  -1.4213  -1.3840
    -1.3134  -1.0929  -0.8036  -0.7961  -0.6980  -0.6006  -0.5878  -0.5516
    -0.2453  -0.1350  -0.0530  -0.0017   0.0262   0.0758   0.1128   0.2336
     0.3558   0.3965   0.5915   0.7678   1.0285   1.1140   1.2311   1.2925
     1.4310   1.7958   2.8064   3.3266   4.1423   4.9115   5.4999   5.7095
     6.4608

          k = 0.0811 0.1133 0.0000 ( 27861 PWs)   bands (ev):

   -72.2454 -72.2208 -71.8343 -71.8095 -71.7292 -71.7042 -42.5434 -42.5178
   -42.2490 -42.1157 -42.0912 -42.0413 -41.9996 -41.9493 -41.7935 -41.7515
   -41.7424 -41.7282 -41.6871 -41.6643 -41.6255 -41.6025 -41.5111 -41.4903
    -4.8127  -4.6503  -4.0840  -3.7250  -3.4824  -3.4650  -3.3833  -3.1820
    -3.1586  -3.0620  -2.8914  -2.8539  -2.7234  -2.7087  -2.6170  -2.5982
    -2.5616  -2.5024  -2.4050  -2.3119  -2.2409  -2.1846  -2.0768  -2.0706
    -2.0128  -1.9603  -1.9490  -1.9283  -1.7950  -1.7791  -1.7529  -1.7157
    -1.6427  -1.6048  -1.5852  -1.5432  -1.5031  -1.4388  -1.4213  -1.3840
    -1.3134  -1.0929  -0.8036  -0.7961  -0.6980  -0.6006  -0.5878  -0.5516
    -0.2453  -0.1350  -0.0530  -0.0017   0.0262   0.0758   0.1128   0.2336
     0.3558   0.3965   0.5914   0.7678   1.0285   1.1140   1.2311   1.2925
     1.4310   1.7958   2.8064   3.3266   4.1423   4.9115   5.4999   5.7096
     6.4607

          k = 0.0811 0.1308 0.0000 ( 27852 PWs)   bands (ev):

   -72.2454 -72.2208 -71.8343 -71.8095 -71.7292 -71.7042 -42.5434 -42.5179
   -42.2490 -42.1155 -42.0913 -42.0413 -41.9996 -41.9492 -41.7935 -41.7514
   -41.7424 -41.7282 -41.6871 -41.6643 -41.6255 -41.6025 -41.5111 -41.4903
    -4.8905  -4.7746  -3.9483  -3.7646  -3.5832  -3.5152  -3.3912  -3.1936
    -3.1338  -3.0788  -2.9053  -2.9015  -2.7686  -2.7575  -2.5657  -2.5332
    -2.5182  -2.4906  -2.4314  -2.3743  -2.2343  -2.1387  -2.0699  -2.0241
    -1.9692  -1.9572  -1.9118  -1.8800  -1.7819  -1.7734  -1.7356  -1.7010
    -1.6391  -1.5891  -1.5704  -1.5156  -1.4664  -1.4173  -1.3535  -1.3049
    -1.2897  -1.1477  -0.9059  -0.7741  -0.6859  -0.5599  -0.5398  -0.5021
    -0.2811  -0.1963  -0.0689  -0.0609  -0.0292   0.0289   0.1070   0.1804
     0.2479   0.3364   0.7430   0.8665   0.9848   1.1356   1.2565   1.4119
     1.6165   2.1209   2.8883   3.0833   4.4507   4.5508   5.0753   5.1879
     5.6005

          k = 0.0811-0.0610 0.0000 ( 27843 PWs)   bands (ev):

   -72.2454 -72.2208 -71.8343 -71.8095 -71.7292 -71.7042 -42.5433 -42.5179
   -42.2489 -42.1152 -42.0915 -42.0413 -41.9995 -41.9492 -41.7935 -41.7513
   -41.7425 -41.7282 -41.6871 -41.6643 -41.6255 -41.6025 -41.5111 -41.4903
    -5.1557  -4.7021  -3.9008  -3.8196  -3.7175  -3.5834  -3.3960  -3.2198
    -3.1594  -3.0991  -2.9773  -2.9515  -2.7431  -2.7256  -2.6478  -2.5078
    -2.4764  -2.4290  -2.3860  -2.3738  -2.2322  -2.2077  -2.0720  -2.0020
    -1.9579  -1.8570  -1.8449  -1.8076  -1.8028  -1.7345  -1.6981  -1.6518
    -1.6383  -1.5928  -1.5116  -1.4944  -1.4343  -1.3975  -1.3231  -1.1866
    -1.1538  -1.0884  -0.9698  -0.7200  -0.7176  -0.5077  -0.4793  -0.4497
    -0.4020  -0.2477  -0.1344  -0.0840  -0.0545   0.0101   0.0270   0.1484
     0.2713   0.3027   0.8617   0.9312   0.9699   1.1267   1.2658   1.3919
     2.1116   2.5051   3.0323   3.0509   3.5297   4.6162   4.6622   5.1462
     5.3374

          k = 0.0811-0.0436 0.0000 ( 27842 PWs)   bands (ev):

   -72.2454 -72.2208 -71.8343 -71.8095 -71.7292 -71.7042 -42.5432 -42.5180
   -42.2488 -42.1149 -42.0917 -42.0414 -41.9995 -41.9491 -41.7935 -41.7512
   -41.7425 -41.7282 -41.6871 -41.6643 -41.6255 -41.6025 -41.5111 -41.4902
    -5.3800  -4.6038  -3.9475  -3.8677  -3.8299  -3.6555  -3.4060  -3.2814
    -3.2396  -3.0662  -3.0424  -3.0025  -2.7687  -2.7084  -2.6733  -2.4703
    -2.4419  -2.3685  -2.3653  -2.3389  -2.2920  -2.2181  -2.0585  -2.0302
    -1.9168  -1.8513  -1.7842  -1.7757  -1.7627  -1.7088  -1.6562  -1.6302
    -1.6113  -1.5912  -1.4969  -1.4967  -1.3664  -1.3555  -1.3134  -1.1384
    -0.9788  -0.9592  -0.8193  -0.7887  -0.5986  -0.5878  -0.4306  -0.4149
    -0.3046  -0.2999  -0.2101  -0.1368  -0.0115  -0.0004   0.0541   0.1884
     0.2566   0.3087   0.8722   0.9344   1.0381   1.0554   1.2741   1.3931
     2.4005   2.6723   2.7844   3.1809   3.6783   3.8127   4.2587   5.6702
     5.7133

          k = 0.0811-0.0262 0.0000 ( 27839 PWs)   bands (ev):

   -72.2454 -72.2208 -71.8343 -71.8095 -71.7292 -71.7042 -42.5430 -42.5180
   -42.2487 -42.1146 -42.0919 -42.0414 -41.9995 -41.9491 -41.7935 -41.7511
   -41.7425 -41.7283 -41.6871 -41.6643 -41.6254 -41.6025 -41.5110 -41.4902
    -5.5392  -4.4974  -4.0233  -3.8989  -3.8979  -3.7324  -3.4216  -3.3709
    -3.2649  -3.0915  -3.0583  -3.0207  -2.8383  -2.7211  -2.6892  -2.4322
    -2.4307  -2.3994  -2.3245  -2.2834  -2.2623  -2.1658  -2.1219  -2.0224
    -1.9564  -1.8389  -1.7498  -1.7461  -1.7213  -1.6877  -1.6782  -1.6580
    -1.5840  -1.5481  -1.5272  -1.5144  -1.3477  -1.2341  -1.2185  -1.0325
    -0.9634  -0.8680  -0.8534  -0.6962  -0.5953  -0.4115  -0.4050  -0.3428
    -0.3344  -0.2674  -0.2529  -0.1350   0.0361   0.0764   0.2062   0.2111
     0.3084   0.3501   0.7955   0.9335   0.9747   1.0977   1.2693   1.4007
     1.9685   2.2534   2.7593   3.5654   3.7301   3.9485   4.4873   5.2668
     6.0087

          k = 0.0811-0.0087 0.0000 ( 27850 PWs)   bands (ev):

   -72.2454 -72.2208 -71.8343 -71.8095 -71.7292 -71.7042 -42.5430 -42.5181
   -42.2487 -42.1144 -42.0921 -42.0414 -41.9994 -41.9491 -41.7935 -41.7511
   -41.7425 -41.7283 -41.6871 -41.6643 -41.6254 -41.6025 -41.5111 -41.4902
    -5.6214  -4.4188  -4.0716  -3.9307  -3.9126  -3.7961  -3.4325  -3.4182
    -3.2745  -3.1198  -3.0739  -3.0070  -2.8715  -2.7436  -2.7271  -2.4447
    -2.4209  -2.3762  -2.2917  -2.2731  -2.1889  -2.1734  -2.1104  -2.0513
    -2.0054  -1.8169  -1.7402  -1.7354  -1.7181  -1.6935  -1.6922  -1.6427
    -1.5975  -1.5477  -1.5331  -1.4986  -1.3360  -1.1752  -1.0881  -0.9804
    -0.9096  -0.8761  -0.8687  -0.7757  -0.4654  -0.3966  -0.3885  -0.3479
    -0.3312  -0.2652  -0.1905  -0.1407   0.0722   0.2114   0.2252   0.2749
     0.4534   0.5571   0.6965   0.8948   0.9889   1.1647   1.2382   1.2669
     1.5619   2.1679   2.2452   3.7525   4.0123   4.4649   4.7557   5.1417
     5.5214

          k = 0.0811 0.0087 0.0000 ( 27850 PWs)   bands (ev):

   -72.2454 -72.2208 -71.8343 -71.8095 -71.7292 -71.7042 -42.5430 -42.5181
   -42.2487 -42.1144 -42.0921 -42.0414 -41.9994 -41.9491 -41.7935 -41.7511
   -41.7425 -41.7283 -41.6871 -41.6643 -41.6254 -41.6025 -41.5111 -41.4902
    -5.6214  -4.4188  -4.0716  -3.9307  -3.9126  -3.7961  -3.4325  -3.4182
    -3.2745  -3.1198  -3.0739  -3.0070  -2.8715  -2.7436  -2.7271  -2.4447
    -2.4209  -2.3762  -2.2917  -2.2731  -2.1889  -2.1734  -2.1103  -2.0513
    -2.0054  -1.8169  -1.7402  -1.7354  -1.7181  -1.6935  -1.6922  -1.6426
    -1.5975  -1.5477  -1.5331  -1.4986  -1.3360  -1.1752  -1.0881  -0.9803
    -0.9096  -0.8761  -0.8687  -0.7757  -0.4654  -0.3966  -0.3885  -0.3479
    -0.3312  -0.2652  -0.1905  -0.1407   0.0722   0.2114   0.2252   0.2749
     0.4534   0.5571   0.6965   0.8948   0.9889   1.1648   1.2381   1.2669
     1.5619   2.1679   2.2452   3.7525   4.0123   4.4649   4.7557   5.1417
     5.5215

          k = 0.0811 0.0262 0.0000 ( 27839 PWs)   bands (ev):

   -72.2454 -72.2208 -71.8343 -71.8095 -71.7292 -71.7042 -42.5430 -42.5180
   -42.2487 -42.1146 -42.0919 -42.0414 -41.9995 -41.9491 -41.7935 -41.7511
   -41.7425 -41.7283 -41.6871 -41.6643 -41.6254 -41.6025 -41.5110 -41.4902
    -5.5392  -4.4974  -4.0233  -3.8989  -3.8979  -3.7324  -3.4216  -3.3709
    -3.2649  -3.0915  -3.0583  -3.0208  -2.8383  -2.7211  -2.6892  -2.4322
    -2.4307  -2.3995  -2.3245  -2.2834  -2.2623  -2.1658  -2.1219  -2.0224
    -1.9564  -1.8389  -1.7498  -1.7461  -1.7214  -1.6877  -1.6782  -1.6580
    -1.5840  -1.5481  -1.5272  -1.5144  -1.3477  -1.2341  -1.2185  -1.0325
    -0.9634  -0.8680  -0.8534  -0.6961  -0.5953  -0.4115  -0.4050  -0.3428
    -0.3344  -0.2674  -0.2529  -0.1350   0.0361   0.0764   0.2062   0.2111
     0.3084   0.3501   0.7955   0.9335   0.9747   1.0977   1.2693   1.4007
     1.9685   2.2534   2.7593   3.5654   3.7301   3.9485   4.4873   5.2668
     6.0087

          k =-0.0973-0.0523 0.0000 ( 27834 PWs)   bands (ev):

   -72.2332 -72.2331 -71.8220 -71.8218 -71.7170 -71.7164 -42.5306 -42.5306
   -42.1456 -42.1456 -42.1034 -42.1033 -41.8971 -41.8969 -41.8466 -41.8461
   -41.7399 -41.7397 -41.6757 -41.6757 -41.6142 -41.6138 -41.5008 -41.5005
    -4.9562  -4.9561  -3.7767  -3.7766  -3.7183  -3.7182  -3.3070  -3.3069
    -3.1180  -3.1180  -2.9447  -2.9447  -2.6981  -2.6981  -2.5799  -2.5798
    -2.4769  -2.4769  -2.3498  -2.3498  -2.1888  -2.1887  -2.0396  -2.0395
    -1.8554  -1.8553  -1.8385  -1.8384  -1.7760  -1.7759  -1.6973  -1.6971
    -1.6401  -1.6400  -1.4881  -1.4881  -1.4245  -1.4244  -1.1593  -1.1591
    -1.0291  -1.0289  -0.6883  -0.6882  -0.5105  -0.5104  -0.4433  -0.4431
    -0.3330  -0.3329  -0.2446  -0.2446  -0.1807  -0.1806  -0.0736  -0.0735
     0.1959   0.1959   0.8615   0.8617   1.0354   1.0354   1.2452   1.2453
     2.7048   2.7048   2.8197   2.8198   3.7426   3.7427   4.9502   4.9503
     5.8714

          k =-0.0973-0.0349 0.0000 ( 27790 PWs)   bands (ev):

   -72.2332 -72.2331 -71.8220 -71.8218 -71.7170 -71.7164 -42.5307 -42.5305
   -42.1457 -42.1455 -42.1036 -42.1031 -41.8971 -41.8969 -41.8466 -41.8461
   -41.7399 -41.7396 -41.6757 -41.6757 -41.6142 -41.6138 -41.5008 -41.5005
    -5.1081  -4.7652  -3.8080  -3.7815  -3.7171  -3.7053  -3.3285  -3.3023
    -3.1950  -3.0348  -2.9776  -2.9060  -2.7397  -2.6877  -2.6242  -2.5385
    -2.4733  -2.4217  -2.3695  -2.3492  -2.2626  -2.1293  -2.1107  -1.9904
    -1.8701  -1.8640  -1.8462  -1.8355  -1.7970  -1.7611  -1.7437  -1.6834
    -1.6524  -1.6160  -1.5145  -1.5054  -1.4326  -1.3367  -1.2312  -1.1399
    -1.0772  -0.9049  -0.7455  -0.5954  -0.5197  -0.5088  -0.4628  -0.4171
    -0.4063  -0.3215  -0.2748  -0.2247  -0.1854  -0.0866  -0.0203   0.0415
     0.1571   0.2290   0.7753   0.9318   0.9376   1.0827   1.2436   1.2475
     2.0521   2.6122   2.6856   3.3158   3.5598   4.5377   4.6698   5.2115
     5.3776

          k =-0.0973-0.0174 0.0000 ( 27832 PWs)   bands (ev):

   -72.2332 -72.2331 -71.8220 -71.8218 -71.7170 -71.7164 -42.5307 -42.5304
   -42.1457 -42.1455 -42.1038 -42.1029 -41.8971 -41.8969 -41.8466 -41.8461
   -41.7399 -41.7396 -41.6757 -41.6757 -41.6142 -41.6138 -41.5008 -41.5005
    -5.2045  -4.5706  -3.8701  -3.8307  -3.6962  -3.6873  -3.3654  -3.3025
    -3.2238  -2.9974  -2.9702  -2.8816  -2.7962  -2.6900  -2.6455  -2.4964
    -2.4871  -2.4090  -2.3489  -2.3180  -2.3018  -2.1884  -2.0914  -2.0043
    -1.8973  -1.8786  -1.8612  -1.8327  -1.8221  -1.7698  -1.7553  -1.7203
    -1.6296  -1.5948  -1.5369  -1.5238  -1.4175  -1.2578  -1.2567  -1.2013
    -1.0063  -0.8164  -0.7611  -0.5570  -0.5366  -0.4745  -0.4686  -0.4462
    -0.4342  -0.3710  -0.2453  -0.2408  -0.1551   0.0269   0.1027   0.1849
     0.2433   0.3321   0.6462   0.8117   0.9975   1.0829   1.2268   1.2475
     1.5383   2.1703   2.4877   3.5253   4.3277   4.5377   4.6536   5.4783
     5.8678

          k =-0.0973 0.0000 0.0000 ( 27839 PWs)   bands (ev):

   -72.2332 -72.2331 -71.8220 -71.8218 -71.7170 -71.7164 -42.5308 -42.5304
   -42.1457 -42.1455 -42.1039 -42.1028 -41.8971 -41.8969 -41.8466 -41.8461
   -41.7399 -41.7396 -41.6757 -41.6757 -41.6142 -41.6138 -41.5008 -41.5005
    -5.2375  -4.4694  -3.9390  -3.8386  -3.6923  -3.6732  -3.3817  -3.3029
    -3.2265  -3.0042  -2.9338  -2.8879  -2.8190  -2.6873  -2.6515  -2.5113
    -2.4769  -2.4243  -2.3512  -2.2735  -2.2530  -2.2494  -2.0740  -2.0604
    -1.9105  -1.8800  -1.8568  -1.8392  -1.8312  -1.7734  -1.7542  -1.7350
    -1.6213  -1.5900  -1.5424  -1.5291  -1.4138  -1.2585  -1.2305  -1.2167
    -0.9713  -0.7772  -0.7603  -0.5688  -0.5561  -0.5203  -0.4678  -0.4326
    -0.3843  -0.3469  -0.3001  -0.2462  -0.1428   0.0428   0.2471   0.2644
     0.2849   0.4426   0.5225   0.8308   1.0409   1.0617   1.1414   1.2493
     1.3135   1.9426   2.4430   3.7200   4.2951   4.3613   5.3564   5.5918
     6.0792

          k =-0.0973 0.0174 0.0000 ( 27832 PWs)   bands (ev):

   -72.2332 -72.2331 -71.8220 -71.8218 -71.7170 -71.7164 -42.5307 -42.5304
   -42.1457 -42.1455 -42.1038 -42.1029 -41.8971 -41.8969 -41.8466 -41.8461
   -41.7399 -41.7396 -41.6757 -41.6757 -41.6142 -41.6138 -41.5008 -41.5005
    -5.2045  -4.5706  -3.8701  -3.8307  -3.6962  -3.6873  -3.3654  -3.3025
    -3.2238  -2.9974  -2.9702  -2.8816  -2.7962  -2.6900  -2.6455  -2.4964
    -2.4871  -2.4090  -2.3489  -2.3180  -2.3018  -2.1885  -2.0914  -2.0043
    -1.8973  -1.8786  -1.8613  -1.8327  -1.8221  -1.7698  -1.7553  -1.7203
    -1.6296  -1.5949  -1.5369  -1.5238  -1.4175  -1.2578  -1.2567  -1.2013
    -1.0063  -0.8164  -0.7611  -0.5570  -0.5366  -0.4745  -0.4686  -0.4462
    -0.4342  -0.3710  -0.2453  -0.2408  -0.1551   0.0269   0.1027   0.1849
     0.2433   0.3321   0.6461   0.8117   0.9974   1.0829   1.2268   1.2475
     1.5383   2.1703   2.4877   3.5253   4.3277   4.5377   4.6536   5.4783
     5.8679

          k =-0.0973 0.0349 0.0000 ( 27790 PWs)   bands (ev):

   -72.2332 -72.2331 -71.8220 -71.8218 -71.7170 -71.7164 -42.5307 -42.5305
   -42.1457 -42.1455 -42.1036 -42.1031 -41.8971 -41.8969 -41.8466 -41.8461
   -41.7399 -41.7396 -41.6757 -41.6757 -41.6142 -41.6138 -41.5008 -41.5005
    -5.1081  -4.7652  -3.8080  -3.7815  -3.7171  -3.7053  -3.3285  -3.3023
    -3.1950  -3.0348  -2.9776  -2.9059  -2.7397  -2.6877  -2.6242  -2.5385
    -2.4733  -2.4217  -2.3695  -2.3492  -2.2626  -2.1293  -2.1107  -1.9904
    -1.8701  -1.8640  -1.8462  -1.8355  -1.7970  -1.7611  -1.7437  -1.6834
    -1.6524  -1.6160  -1.5145  -1.5054  -1.4326  -1.3367  -1.2312  -1.1398
    -1.0772  -0.9049  -0.7455  -0.5954  -0.5197  -0.5088  -0.4628  -0.4171
    -0.4063  -0.3215  -0.2748  -0.2247  -0.1854  -0.0866  -0.0203   0.0415
     0.1571   0.2290   0.7752   0.9318   0.9376   1.0827   1.2436   1.2475
     2.0521   2.6123   2.6856   3.3158   3.5598   4.5377   4.6698   5.2115
     5.3777

          k =-0.0973-0.1569 0.0000 ( 27834 PWs)   bands (ev):

   -72.2332 -72.2331 -71.8220 -71.8218 -71.7170 -71.7164 -42.5306 -42.5306
   -42.1456 -42.1456 -42.1034 -42.1033 -41.8971 -41.8969 -41.8466 -41.8461
   -41.7399 -41.7397 -41.6757 -41.6757 -41.6142 -41.6138 -41.5008 -41.5005
    -4.9562  -4.9561  -3.7767  -3.7766  -3.7183  -3.7182  -3.3070  -3.3069
    -3.1180  -3.1180  -2.9447  -2.9447  -2.6981  -2.6981  -2.5799  -2.5798
    -2.4769  -2.4769  -2.3498  -2.3498  -2.1888  -2.1887  -2.0397  -2.0396
    -1.8554  -1.8553  -1.8386  -1.8384  -1.7760  -1.7759  -1.6973  -1.6971
    -1.6401  -1.6400  -1.4882  -1.4881  -1.4245  -1.4244  -1.1593  -1.1591
    -1.0291  -1.0289  -0.6883  -0.6882  -0.5105  -0.5104  -0.4433  -0.4431
    -0.3330  -0.3329  -0.2446  -0.2446  -0.1807  -0.1806  -0.0736  -0.0735
     0.1959   0.1959   0.8615   0.8616   1.0354   1.0354   1.2452   1.2453
     2.7048   2.7048   2.8197   2.8198   3.7426   3.7427   4.9502   4.9504
     5.8715

     the Fermi energy is     0.8412 ev

!    total energy              =   -1932.17588083 Ry
     estimated scf accuracy    <       0.00000255 Ry
     smearing contrib. (-TS)   =      -0.06265753 Ry
     internal energy E=F+TS    =   -1932.11322331 Ry

     The total energy is F=E-TS. E is the sum of the following terms:
     one-electron contribution =  -16407.89417067 Ry
     hartree contribution      =    8274.03805346 Ry
     xc contribution           =    -455.50400665 Ry
     ewald contribution        =    6657.24690008 Ry
     electric field correction =       0.00000048 Ry

     convergence has been achieved in  15 iterations

     negative rho (up, down):  1.215E-03 0.000E+00

     Forces acting on atoms (cartesian axes, Ry/au):

     atom    1 type  1   force =     0.00002154    0.00426972   -0.00261233
     atom    2 type  1   force =    -0.00002018    0.00427158   -0.00261772
     atom    3 type  2   force =    -0.00000272    0.00394023    0.01411320
     atom    4 type  2   force =     0.00000071    0.00394905    0.01406011
     atom    5 type  1   force =    -0.00013769    0.00056335   -0.00577320
     atom    6 type  1   force =     0.00013634    0.00056814   -0.00576819
     atom    7 type  2   force =    -0.00001021   -0.00762559   -0.00565399
     atom    8 type  2   force =     0.00000277   -0.00754782   -0.00558838
     atom    9 type  1   force =    -0.00004957   -0.00098721   -0.00030245
     atom   10 type  1   force =     0.00005413   -0.00097932   -0.00028947
     atom   11 type  2   force =     0.00000315   -0.00024745    0.00022460
     atom   12 type  2   force =     0.00000175   -0.00017468    0.00020784

     Total force =     0.026945     Total SCF correction =     0.001812

     Writing output data file ./Cu2Ru2/Cu2Ru2_beef.save/

     init_run     :     53.47s CPU     53.92s WALL (       1 calls)
     electrons    :   2534.96s CPU   2552.43s WALL (       1 calls)
     forces       :     54.59s CPU     54.95s WALL (       1 calls)

     Called by init_run:
     wfcinit      :     42.94s CPU     43.28s WALL (       1 calls)
     potinit      :      7.25s CPU      7.29s WALL (       1 calls)
     hinit0       :      1.81s CPU      1.82s WALL (       1 calls)

     Called by electrons:
     c_bands      :   2204.13s CPU   2215.39s WALL (      15 calls)
     sum_band     :    297.65s CPU    300.91s WALL (      15 calls)
     v_of_rho     :     23.36s CPU     24.50s WALL (      16 calls)
     newd         :     14.29s CPU     15.90s WALL (      16 calls)
     mix_rho      :      2.03s CPU      2.06s WALL (      15 calls)
     vdW_kernel   :      5.69s CPU      5.69s WALL (       1 calls)

     Called by c_bands:
     init_us_2    :      8.55s CPU      8.66s WALL (    2368 calls)
     cegterg      :   2173.83s CPU   2183.37s WALL (    1110 calls)

     Called by *egterg:
     cdiaghg      :    119.91s CPU    120.04s WALL (    4243 calls)
     h_psi        :   1114.50s CPU   1121.69s WALL (    4317 calls)
     s_psi        :    310.88s CPU    311.38s WALL (    4317 calls)
     g_psi        :      0.85s CPU      0.87s WALL (    3133 calls)

     Called by h_psi:
     h_psi:calbec :    390.28s CPU    391.40s WALL (    4317 calls)
     vloc_psi     :    398.48s CPU    404.01s WALL (    4317 calls)
     add_vuspsi   :    321.92s CPU    322.43s WALL (    4317 calls)

     General routines
     calbec       :    619.00s CPU    620.76s WALL (    5723 calls)
     fft          :     14.27s CPU     14.79s WALL (    1067 calls)
     ffts         :      0.08s CPU      0.08s WALL (      31 calls)
     fftw         :    459.26s CPU    465.59s WALL (  601146 calls)
     interpolate  :      0.20s CPU      0.20s WALL (      16 calls)

     Parallel routines
     fft_scatt_xy :     36.49s CPU     36.96s WALL (  602244 calls)
     fft_scatt_yz :    130.01s CPU    132.24s WALL (  602244 calls)

     PWSCF        :  44m18.35s CPU  44m59.24s WALL


   This run was terminated on:   3:21:21  11Jul2022            

=------------------------------------------------------------------------------=
   JOB DONE.
=------------------------------------------------------------------------------=
