
     Program PWSCF v.6.6 starts on 11Jul2022 at  1:49:49 

     This program is part of the open-source Quantum ESPRESSO suite
     for quantum simulation of materials; please cite
         "P. Giannozzi et al., J. Phys.:Condens. Matter 21 395502 (2009);
         "P. Giannozzi et al., J. Phys.:Condens. Matter 29 465901 (2017);
          URL http://www.quantum-espresso.org", 
     in publications or presentations arising from this work. More details at
     http://www.quantum-espresso.org/quote

     Parallel version (MPI), running on    37 processors

     MPI processes distributed on     1 nodes
     R & G space division:  proc/nbgrp/npool/nimage =      37
     Fft bands division:     nmany     =       1
     Reading input from Cu2Rh2.in
Warning: card &CELL ignored
Warning: card / ignored

     Current dimensions of program PWSCF are:
     Max number of different atomic species (ntypx) = 10
     Max number of k-points (npk) =  40000
     Max angular momentum in pseudopotentials (lmaxx) =  3
     Presently stress not available with electric field and gates

     Message from routine cell_base_init:
     DEPRECATED: use true lattice parameter, not A to a.u. conversion factor
     file Cu.pbe-dn-rrkjus_psl.1.0.0.UPF: wavefunction(s)  3D renormalized
     file Rh.pbe-spn-rrkjus_psl.1.0.0.UPF: wavefunction(s)  4S 5S renormalized

     **************************************************************************
     Initializing libbeef V0.1.2 with the BEEF-vdW functional.
     Citation: Wellendorff et al., PRB 85, 235149 (2012).
     **************************************************************************


     IMPORTANT: XC functional enforced from input :
     Exchange-correlation= BEEF-VDW
                           (   1   4  43  14   2   0   0)
     Any further DFT definition will be discarded
     Please, verify this is what you really want


     Subspace diagonalization in iterative solution of the eigenvalue problem:
     a serial algorithm will be used


     Parallelization info
     --------------------
     sticks:   dense  smooth     PW     G-vecs:    dense   smooth      PW
     Min         104      41     11                24002     6063     925
     Max         105      42     12                24025     6082     954
     Sum        3869    1547    443               888465   224703   34959



     bravais-lattice index     =            0
     lattice parameter (alat)  =       1.8897  a.u.
     unit-cell volume          =    4065.4990 (a.u.)^3
     number of atoms/cell      =           12
     number of atomic types    =            2
     number of electrons       =       168.00
     number of Kohn-Sham states=          101
     kinetic-energy cutoff     =      55.1240  Ry
     charge density cutoff     =     551.2396  Ry
     convergence threshold     =      1.0E-05
     mixing beta               =       0.1000
     number of iterations used =           10  plain     mixing
     Exchange-correlation= BEEF-VDW
                           (   1   4  43  14   2   0   0)

     celldm(1)=   1.889726  celldm(2)=   0.000000  celldm(3)=   0.000000
     celldm(4)=   0.000000  celldm(5)=   0.000000  celldm(6)=   0.000000

     crystal axes: (cart. coord. in units of alat)
               a(1) = (   5.331832   0.000000   0.000000 )  
               a(2) = (   2.630392   4.637830   0.000000 )  
               a(3) = (   0.000000   0.000000  24.362736 )  

     reciprocal axes: (cart. coord. in units 2 pi/alat)
               b(1) = (  0.187553 -0.106372  0.000000 )  
               b(2) = (  0.000000  0.215618  0.000000 )  
               b(3) = (  0.000000  0.000000  0.041046 )  


     PseudoPot. # 1 for Cu read from file:
     ../pseudo/Cu.pbe-dn-rrkjus_psl.1.0.0.UPF
     MD5 check sum: 8469560995d0c2df1ffe68c099c04a63
     Pseudo is Ultrasoft + core correction, Zval = 11.0
     Generated using "atomic" code by A. Dal Corso v.6.3
     Using radial grid of 1199 points,  6 beta functions with: 
                l(1) =   0
                l(2) =   0
                l(3) =   1
                l(4) =   1
                l(5) =   2
                l(6) =   2
     Q(r) pseudized with 0 coefficients 


     PseudoPot. # 2 for Rh read from file:
     ../pseudo/Rh.pbe-spn-rrkjus_psl.1.0.0.UPF
     MD5 check sum: 912a852783f0c9b7bd5e9eb06cc0cc10
     Pseudo is Ultrasoft + core correction, Zval = 17.0
     Generated using "atomic" code by A. Dal Corso v.6.3
     Using radial grid of 1233 points,  6 beta functions with: 
                l(1) =   0
                l(2) =   0
                l(3) =   1
                l(4) =   1
                l(5) =   2
                l(6) =   2
     Q(r) pseudized with 0 coefficients 


     atomic species   valence    mass     pseudopotential
        Cu            11.00    63.54600     Cu( 1.00)
        Rh            17.00   102.90550     Rh( 1.00)

     No symmetry found



   Cartesian axes

     site n.     atom                  positions (alat units)
         1           Cu  tau(   1) = (   0.0000000   0.0000000  10.0000000  )
         2           Cu  tau(   2) = (   3.9811118   2.3189150  10.0000000  )
         3           Rh  tau(   3) = (   2.6659159   0.0000000  10.0000000  )
         4           Rh  tau(   4) = (   1.3151959   2.3189150  10.0000000  )
         5           Cu  tau(   5) = (   5.3318317   3.1056814  12.1813679  )
         6           Cu  tau(   6) = (   1.3507199   0.7867663  12.1813679  )
         7           Rh  tau(   7) = (   2.6659159   3.1056814  12.1813679  )
         8           Rh  tau(   8) = (   4.0166358   0.7867663  12.1813679  )
         9           Cu  tau(   9) = (   2.5856351   1.5059427  14.3653116  )
        10           Cu  tau(  10) = (   6.5666166   3.8250822  14.3653239  )
        11           Rh  tau(  11) = (   5.2629475   1.5127206  14.3450632  )
        12           Rh  tau(  12) = (   3.9121106   3.8315687  14.3450526  )

     number of k points=    74  Fermi-Dirac smearing, width (Ry)=  0.0100
                       cart. coord. in units 2pi/alat
        k(    1) = (   0.0000000   0.0000000   0.0000000), wk =   0.0138889
        k(    2) = (   0.0000000   0.0179682   0.0000000), wk =   0.0277778
        k(    3) = (   0.0000000   0.0359363   0.0000000), wk =   0.0277778
        k(    4) = (   0.0000000   0.0539045   0.0000000), wk =   0.0277778
        k(    5) = (   0.0000000   0.0718727   0.0000000), wk =   0.0277778
        k(    6) = (   0.0000000   0.0898409   0.0000000), wk =   0.0277778
        k(    7) = (   0.0000000  -0.1078090   0.0000000), wk =   0.0138889
        k(    8) = (   0.0156294  -0.0088644   0.0000000), wk =   0.0277778
        k(    9) = (   0.0156294   0.0091038   0.0000000), wk =   0.0277778
        k(   10) = (   0.0156294   0.0270720   0.0000000), wk =   0.0277778
        k(   11) = (   0.0156294   0.0450401   0.0000000), wk =   0.0277778
        k(   12) = (   0.0156294   0.0630083   0.0000000), wk =   0.0277778
        k(   13) = (   0.0156294   0.0809765   0.0000000), wk =   0.0277778
        k(   14) = (   0.0156294  -0.1166734   0.0000000), wk =   0.0277778
        k(   15) = (   0.0156294  -0.0987052   0.0000000), wk =   0.0277778
        k(   16) = (   0.0156294  -0.0807371   0.0000000), wk =   0.0277778
        k(   17) = (   0.0156294  -0.0627689   0.0000000), wk =   0.0277778
        k(   18) = (   0.0156294  -0.0448007   0.0000000), wk =   0.0277778
        k(   19) = (   0.0156294  -0.0268325   0.0000000), wk =   0.0277778
        k(   20) = (   0.0312588  -0.0177287   0.0000000), wk =   0.0277778
        k(   21) = (   0.0312588   0.0002394   0.0000000), wk =   0.0277778
        k(   22) = (   0.0312588   0.0182076   0.0000000), wk =   0.0277778
        k(   23) = (   0.0312588   0.0361758   0.0000000), wk =   0.0277778
        k(   24) = (   0.0312588   0.0541440   0.0000000), wk =   0.0277778
        k(   25) = (   0.0312588   0.0721121   0.0000000), wk =   0.0277778
        k(   26) = (   0.0312588  -0.1255378   0.0000000), wk =   0.0277778
        k(   27) = (   0.0312588  -0.1075696   0.0000000), wk =   0.0277778
        k(   28) = (   0.0312588  -0.0896014   0.0000000), wk =   0.0277778
        k(   29) = (   0.0312588  -0.0716333   0.0000000), wk =   0.0277778
        k(   30) = (   0.0312588  -0.0536651   0.0000000), wk =   0.0277778
        k(   31) = (   0.0312588  -0.0356969   0.0000000), wk =   0.0277778
        k(   32) = (   0.0468882  -0.0265931   0.0000000), wk =   0.0277778
        k(   33) = (   0.0468882  -0.0086249   0.0000000), wk =   0.0277778
        k(   34) = (   0.0468882   0.0093432   0.0000000), wk =   0.0277778
        k(   35) = (   0.0468882   0.0273114   0.0000000), wk =   0.0277778
        k(   36) = (   0.0468882   0.0452796   0.0000000), wk =   0.0277778
        k(   37) = (   0.0468882   0.0632478   0.0000000), wk =   0.0277778
        k(   38) = (   0.0468882  -0.1344022   0.0000000), wk =   0.0277778
        k(   39) = (   0.0468882  -0.1164340   0.0000000), wk =   0.0277778
        k(   40) = (   0.0468882  -0.0984658   0.0000000), wk =   0.0277778
        k(   41) = (   0.0468882  -0.0804976   0.0000000), wk =   0.0277778
        k(   42) = (   0.0468882  -0.0625295   0.0000000), wk =   0.0277778
        k(   43) = (   0.0468882  -0.0445613   0.0000000), wk =   0.0277778
        k(   44) = (   0.0625176  -0.0354575   0.0000000), wk =   0.0277778
        k(   45) = (   0.0625176  -0.0174893   0.0000000), wk =   0.0277778
        k(   46) = (   0.0625176   0.0004789   0.0000000), wk =   0.0277778
        k(   47) = (   0.0625176   0.0184470   0.0000000), wk =   0.0277778
        k(   48) = (   0.0625176   0.0364152   0.0000000), wk =   0.0277778
        k(   49) = (   0.0625176   0.0543834   0.0000000), wk =   0.0277778
        k(   50) = (   0.0625176  -0.1432665   0.0000000), wk =   0.0277778
        k(   51) = (   0.0625176  -0.1252984   0.0000000), wk =   0.0277778
        k(   52) = (   0.0625176  -0.1073302   0.0000000), wk =   0.0277778
        k(   53) = (   0.0625176  -0.0893620   0.0000000), wk =   0.0277778
        k(   54) = (   0.0625176  -0.0713938   0.0000000), wk =   0.0277778
        k(   55) = (   0.0625176  -0.0534257   0.0000000), wk =   0.0277778
        k(   56) = (   0.0781470  -0.0443219   0.0000000), wk =   0.0277778
        k(   57) = (   0.0781470  -0.0263537   0.0000000), wk =   0.0277778
        k(   58) = (   0.0781470  -0.0083855   0.0000000), wk =   0.0277778
        k(   59) = (   0.0781470   0.0095827   0.0000000), wk =   0.0277778
        k(   60) = (   0.0781470   0.0275508   0.0000000), wk =   0.0277778
        k(   61) = (   0.0781470   0.0455190   0.0000000), wk =   0.0277778
        k(   62) = (   0.0781470  -0.1521309   0.0000000), wk =   0.0277778
        k(   63) = (   0.0781470  -0.1341627   0.0000000), wk =   0.0277778
        k(   64) = (   0.0781470  -0.1161946   0.0000000), wk =   0.0277778
        k(   65) = (   0.0781470  -0.0982264   0.0000000), wk =   0.0277778
        k(   66) = (   0.0781470  -0.0802582   0.0000000), wk =   0.0277778
        k(   67) = (   0.0781470  -0.0622900   0.0000000), wk =   0.0277778
        k(   68) = (  -0.0937764   0.0531862   0.0000000), wk =   0.0138889
        k(   69) = (  -0.0937764   0.0711544   0.0000000), wk =   0.0277778
        k(   70) = (  -0.0937764   0.0891226   0.0000000), wk =   0.0277778
        k(   71) = (  -0.0937764   0.1070907   0.0000000), wk =   0.0277778
        k(   72) = (  -0.0937764   0.1250589   0.0000000), wk =   0.0277778
        k(   73) = (  -0.0937764   0.1430271   0.0000000), wk =   0.0277778
        k(   74) = (  -0.0937764  -0.0546228   0.0000000), wk =   0.0138889

     Dense  grid:   888465 G-vectors     FFT dimensions: (  75,  75, 360)

     Smooth grid:   224703 G-vectors     FFT dimensions: (  48,  48, 225)

     Estimated max dynamical RAM per process >     184.16 MB

     Estimated total dynamical RAM >       6.65 GB

     Initial potential from superposition of free atoms

     starting charge  167.99568, renormalised to  168.00000

     negative rho (up, down):  1.062E-03 0.000E+00


     %%%%%%%%%%%%%%%%%%%%%%%%%%%%%%%%%%%%%%%%%%%%%%%%%%%%%%%%%%%%%%%%%%%%%%%%
     %                                                                      %
     % You are using vdW-DF, which was implemented by the Thonhauser group. %
     % Please cite the following two papers that made this development      %
     % possible and the two reviews that describe the various versions:     %
     %                                                                      %
     %   T. Thonhauser et al., PRL 115, 136402 (2015).                      %
     %   T. Thonhauser et al., PRB 76, 125112 (2007).                       %
     %   K. Berland et al., Rep. Prog. Phys. 78, 066501 (2015).             %
     %   D.C. Langreth et al., J. Phys.: Condens. Matter 21, 084203 (2009). %
     %                                                                      %
     %                                                                      %
     % If you are calculating the stress with vdW-DF, please also cite:     %
     %                                                                      %
     %   R. Sabatini et al., J. Phys.: Condens. Matter 24, 424209 (2012).   %
     %                                                                      %
     %%%%%%%%%%%%%%%%%%%%%%%%%%%%%%%%%%%%%%%%%%%%%%%%%%%%%%%%%%%%%%%%%%%%%%%%



     Adding external electric field

     Computed dipole along edir(3) : 
        Dipole               -0.0000 Ry au,         -0.0000 Debye
        Dipole field         -0.0000 Ry au, 

        Potential amp.        0.0000 Ry
        Total length         44.8879 bohr

     Starting wfcs are  114 randomized atomic wfcs

     total cpu time spent up to now is       77.7 secs

     Self-consistent Calculation

     iteration #  1     ecut=    55.12 Ry     beta= 0.10
     Davidson diagonalization with overlap
     ethr =  1.00E-02,  avg # of iterations =  4.7

     negative rho (up, down):  1.023E-03 0.000E+00

     Adding external electric field

     Computed dipole along edir(3) : 
        Dipole                0.0434 Ry au,          0.1103 Debye
        Dipole field          0.0001 Ry au, 

        Potential amp.       -0.0120 Ry
        Total length         44.8879 bohr


     total cpu time spent up to now is      288.2 secs

     total energy              =   -2107.48570981 Ry
     estimated scf accuracy    <      12.25278433 Ry

     iteration #  2     ecut=    55.12 Ry     beta= 0.10
     Davidson diagonalization with overlap
     ethr =  7.29E-03,  avg # of iterations =  1.0

     negative rho (up, down):  1.023E-03 0.000E+00

     Adding external electric field

     Computed dipole along edir(3) : 
        Dipole               -0.0959 Ry au,         -0.2438 Debye
        Dipole field         -0.0003 Ry au, 

        Potential amp.        0.0266 Ry
        Total length         44.8879 bohr


     total cpu time spent up to now is      445.3 secs

     total energy              =   -2108.76804680 Ry
     estimated scf accuracy    <       1.28629299 Ry

     iteration #  3     ecut=    55.12 Ry     beta= 0.10
     Davidson diagonalization with overlap
     ethr =  7.66E-04,  avg # of iterations =  1.9

     negative rho (up, down):  1.037E-03 0.000E+00

     Adding external electric field

     Computed dipole along edir(3) : 
        Dipole                0.1823 Ry au,          0.4633 Debye
        Dipole field          0.0006 Ry au, 

        Potential amp.       -0.0506 Ry
        Total length         44.8879 bohr


     total cpu time spent up to now is      620.7 secs

     total energy              =   -2108.75647988 Ry
     estimated scf accuracy    <       2.20315487 Ry

     iteration #  4     ecut=    55.12 Ry     beta= 0.10
     Davidson diagonalization with overlap
     ethr =  7.66E-04,  avg # of iterations =  1.9

     negative rho (up, down):  1.053E-03 0.000E+00

     Adding external electric field

     Computed dipole along edir(3) : 
        Dipole               -0.0160 Ry au,         -0.0406 Debye
        Dipole field         -0.0000 Ry au, 

        Potential amp.        0.0044 Ry
        Total length         44.8879 bohr


     total cpu time spent up to now is      782.8 secs

     total energy              =   -2108.76123006 Ry
     estimated scf accuracy    <       3.60118210 Ry

     iteration #  5     ecut=    55.12 Ry     beta= 0.10
     Davidson diagonalization with overlap
     ethr =  7.66E-04,  avg # of iterations =  1.9

     negative rho (up, down):  1.072E-03 0.000E+00

     Adding external electric field

     Computed dipole along edir(3) : 
        Dipole               -0.0041 Ry au,         -0.0104 Debye
        Dipole field         -0.0000 Ry au, 

        Potential amp.        0.0011 Ry
        Total length         44.8879 bohr


     total cpu time spent up to now is      951.2 secs

     total energy              =   -2108.76132617 Ry
     estimated scf accuracy    <       0.29729114 Ry

     iteration #  6     ecut=    55.12 Ry     beta= 0.10
     Davidson diagonalization with overlap
     c_bands:  1 eigenvalues not converged
     c_bands:  1 eigenvalues not converged
     ethr =  1.77E-04,  avg # of iterations =  9.9

     negative rho (up, down):  1.082E-03 0.000E+00

     Adding external electric field

     Computed dipole along edir(3) : 
        Dipole                0.0153 Ry au,          0.0389 Debye
        Dipole field          0.0000 Ry au, 

        Potential amp.       -0.0042 Ry
        Total length         44.8879 bohr


     total cpu time spent up to now is     1157.2 secs

     total energy              =   -2108.78022657 Ry
     estimated scf accuracy    <       0.05687442 Ry

     iteration #  7     ecut=    55.12 Ry     beta= 0.10
     Davidson diagonalization with overlap
     c_bands:  1 eigenvalues not converged
     c_bands:  2 eigenvalues not converged
     c_bands:  2 eigenvalues not converged
     c_bands:  2 eigenvalues not converged
     ethr =  3.39E-05,  avg # of iterations =  8.8

     negative rho (up, down):  1.104E-03 0.000E+00

     Adding external electric field

     Computed dipole along edir(3) : 
        Dipole               -0.0105 Ry au,         -0.0267 Debye
        Dipole field         -0.0000 Ry au, 

        Potential amp.        0.0029 Ry
        Total length         44.8879 bohr


     total cpu time spent up to now is     1369.1 secs

     total energy              =   -2108.78118763 Ry
     estimated scf accuracy    <       0.02966336 Ry

     iteration #  8     ecut=    55.12 Ry     beta= 0.10
     Davidson diagonalization with overlap
     c_bands:  1 eigenvalues not converged
     c_bands:  1 eigenvalues not converged
     c_bands:  1 eigenvalues not converged
     ethr =  1.77E-05,  avg # of iterations =  4.2

     negative rho (up, down):  1.164E-03 0.000E+00

     Adding external electric field

     Computed dipole along edir(3) : 
        Dipole                0.0033 Ry au,          0.0083 Debye
        Dipole field          0.0000 Ry au, 

        Potential amp.       -0.0009 Ry
        Total length         44.8879 bohr


     total cpu time spent up to now is     1559.6 secs

     total energy              =   -2108.78175370 Ry
     estimated scf accuracy    <       0.04861055 Ry

     iteration #  9     ecut=    55.12 Ry     beta= 0.10
     Davidson diagonalization with overlap
     ethr =  1.77E-05,  avg # of iterations =  2.4

     negative rho (up, down):  1.160E-03 0.000E+00

     Adding external electric field

     Computed dipole along edir(3) : 
        Dipole                0.0062 Ry au,          0.0157 Debye
        Dipole field          0.0000 Ry au, 

        Potential amp.       -0.0017 Ry
        Total length         44.8879 bohr


     total cpu time spent up to now is     1735.6 secs

     total energy              =   -2108.78377348 Ry
     estimated scf accuracy    <       0.00377669 Ry

     iteration # 10     ecut=    55.12 Ry     beta= 0.10
     Davidson diagonalization with overlap
     ethr =  2.25E-06,  avg # of iterations =  7.5

     negative rho (up, down):  1.165E-03 0.000E+00

     Adding external electric field

     Computed dipole along edir(3) : 
        Dipole                0.0025 Ry au,          0.0063 Debye
        Dipole field          0.0000 Ry au, 

        Potential amp.       -0.0007 Ry
        Total length         44.8879 bohr


     total cpu time spent up to now is     1934.1 secs

     total energy              =   -2108.78390647 Ry
     estimated scf accuracy    <       0.00063880 Ry

     iteration # 11     ecut=    55.12 Ry     beta= 0.10
     Davidson diagonalization with overlap
     ethr =  3.80E-07,  avg # of iterations =  2.8

     negative rho (up, down):  1.168E-03 0.000E+00

     Adding external electric field

     Computed dipole along edir(3) : 
        Dipole                0.0046 Ry au,          0.0117 Debye
        Dipole field          0.0000 Ry au, 

        Potential amp.       -0.0013 Ry
        Total length         44.8879 bohr


     total cpu time spent up to now is     2157.8 secs

     total energy              =   -2108.78395654 Ry
     estimated scf accuracy    <       0.00368354 Ry

     iteration # 12     ecut=    55.12 Ry     beta= 0.10
     Davidson diagonalization with overlap
     ethr =  3.80E-07,  avg # of iterations =  1.6

     negative rho (up, down):  1.168E-03 0.000E+00

     Adding external electric field

     Computed dipole along edir(3) : 
        Dipole                0.0072 Ry au,          0.0184 Debye
        Dipole field          0.0000 Ry au, 

        Potential amp.       -0.0020 Ry
        Total length         44.8879 bohr


     total cpu time spent up to now is     2332.0 secs

     total energy              =   -2108.78392521 Ry
     estimated scf accuracy    <       0.00061022 Ry

     iteration # 13     ecut=    55.12 Ry     beta= 0.10
     Davidson diagonalization with overlap
     ethr =  3.63E-07,  avg # of iterations =  2.0

     negative rho (up, down):  1.165E-03 0.000E+00

     Adding external electric field

     Computed dipole along edir(3) : 
        Dipole                0.0067 Ry au,          0.0171 Debye
        Dipole field          0.0000 Ry au, 

        Potential amp.       -0.0019 Ry
        Total length         44.8879 bohr


     total cpu time spent up to now is     2526.6 secs

     total energy              =   -2108.78401606 Ry
     estimated scf accuracy    <       0.00021794 Ry

     iteration # 14     ecut=    55.12 Ry     beta= 0.10
     Davidson diagonalization with overlap
     ethr =  1.30E-07,  avg # of iterations =  1.1

     negative rho (up, down):  1.155E-03 0.000E+00

     Adding external electric field

     Computed dipole along edir(3) : 
        Dipole               -0.0017 Ry au,         -0.0043 Debye
        Dipole field         -0.0000 Ry au, 

        Potential amp.        0.0005 Ry
        Total length         44.8879 bohr


     total cpu time spent up to now is     2684.4 secs

     End of self-consistent calculation

          k = 0.0000 0.0000 0.0000 ( 28027 PWs)   bands (ev):

   -77.7393 -77.7014 -77.4469 -77.4088 -77.3985 -77.3603 -45.7924 -45.7842
   -45.7427 -45.6055 -45.5750 -45.4745 -45.4349 -45.4071 -45.3161 -45.2773
   -45.2526 -45.2214 -45.2138 -45.1903 -45.1790 -45.1397 -45.1332 -45.0940
    -6.4834  -4.8569  -4.3883  -4.3780  -4.2396  -3.8798  -3.6665  -3.6188
    -3.5193  -3.5086  -3.4364  -3.3656  -3.3446  -3.3187  -2.9909  -2.6136
    -2.4211  -2.3427  -2.1387  -2.1068  -2.0705  -1.9999  -1.9830  -1.8919
    -1.8339  -1.7911  -1.7698  -1.7314  -1.7133  -1.7064  -1.5860  -1.5387
    -1.5219  -1.2261  -1.1682  -1.0817  -1.0518  -0.9660  -0.9243  -0.8468
    -0.8372  -0.7338  -0.6673  -0.4093  -0.3851  -0.3420  -0.2729  -0.2328
    -0.0175  -0.0045   0.1350   0.2786   0.3824   0.4742   0.6271   0.6516
     0.6706   0.8339   0.8684   0.9628   0.9860   0.9865   1.4305   1.6214
     1.9197   2.2402   2.3333   3.4530   3.4688   3.6512   3.6657   3.8041
     3.9787   4.9720   5.2485   5.6590   6.4333

          k = 0.0000 0.0180 0.0000 ( 28032 PWs)   bands (ev):

   -77.7386 -77.7020 -77.4463 -77.4095 -77.3979 -77.3610 -45.7860 -45.7835
   -45.7434 -45.5991 -45.5686 -45.4739 -45.4356 -45.4138 -45.3155 -45.2780
   -45.2519 -45.2281 -45.2145 -45.1970 -45.1783 -45.1403 -45.1325 -45.0947
    -6.4288  -4.8056  -4.3513  -4.3502  -4.2139  -3.8431  -3.6324  -3.6104
    -3.4942  -3.4860  -3.4130  -3.3524  -3.3034  -3.3010  -2.9707  -2.5982
    -2.4178  -2.3432  -2.1255  -2.0960  -2.0599  -2.0028  -1.9967  -1.9114
    -1.8460  -1.7809  -1.7757  -1.7292  -1.7163  -1.6898  -1.5725  -1.5681
    -1.5085  -1.2490  -1.1920  -1.0917  -1.0673  -1.0390  -0.9363  -0.8825
    -0.8282  -0.7572  -0.6552  -0.5936  -0.3668  -0.3361  -0.2774  -0.2155
    -0.0155  -0.0144   0.0496   0.2114   0.3502   0.4354   0.5626   0.5963
     0.6642   0.7436   0.8153   0.8245   0.9243   0.9783   1.5173   1.6797
     1.8053   2.1870   2.3218   2.9493   3.3431   3.3504   4.1242   4.1681
     4.3128   5.0184   5.3046   5.7065   6.6091

          k = 0.0000 0.0359 0.0000 ( 28060 PWs)   bands (ev):

   -77.7368 -77.7039 -77.4444 -77.4114 -77.3960 -77.3629 -45.7815 -45.7671
   -45.7455 -45.5802 -45.5497 -45.4720 -45.4377 -45.4334 -45.3136 -45.2800
   -45.2501 -45.2477 -45.2166 -45.2165 -45.1764 -45.1423 -45.1306 -45.0967
    -6.2674  -4.6563  -4.2817  -4.2399  -4.1400  -3.7377  -3.5952  -3.5383
    -3.4247  -3.4127  -3.3471  -3.3106  -3.2488  -3.1751  -2.9106  -2.5557
    -2.4127  -2.3454  -2.0906  -2.0798  -2.0631  -2.0293  -1.9951  -1.9728
    -1.8432  -1.8047  -1.7771  -1.7282  -1.7072  -1.6442  -1.6144  -1.5174
    -1.5061  -1.3123  -1.2636  -1.2564  -1.1327  -1.0808  -0.9698  -0.9458
    -0.8797  -0.8149  -0.7903  -0.6518  -0.4530  -0.4179  -0.3038  -0.2144
    -0.1658  -0.0325   0.0031   0.0587   0.1950   0.2533   0.3720   0.4763
     0.5149   0.6040   0.6946   0.7913   0.8010   0.9791   1.1858   1.3091
     2.0672   2.1560   2.3786   2.4572   3.2472   3.3455   4.3821   4.6574
     4.6625   5.1568   5.4737   5.8478   6.9443

          k = 0.0000 0.0539 0.0000 ( 28065 PWs)   bands (ev):

   -77.7338 -77.7069 -77.4414 -77.4144 -77.3929 -77.3659 -45.7782 -45.7489
   -45.7370 -45.5502 -45.5197 -45.4689 -45.4645 -45.4409 -45.3105 -45.2831
   -45.2787 -45.2477 -45.2470 -45.2196 -45.1733 -45.1455 -45.1275 -45.0998
    -6.0074  -4.4242  -4.2168  -4.0710  -4.0222  -3.5832  -3.5827  -3.4018
    -3.3356  -3.2792  -3.2696  -3.2207  -3.1348  -2.9814  -2.8119  -2.4992
    -2.4168  -2.3479  -2.1909  -2.0957  -2.0520  -2.0043  -1.9864  -1.9856
    -1.9023  -1.8717  -1.7603  -1.7321  -1.6637  -1.6466  -1.5731  -1.5666
    -1.4693  -1.4099  -1.4002  -1.3310  -1.2171  -1.1899  -1.1187  -1.0690
    -1.0125  -0.8712  -0.8357  -0.6782  -0.5517  -0.4878  -0.4527  -0.3602
    -0.2540  -0.2242  -0.0974  -0.0665  -0.0153   0.0892   0.1186   0.3542
     0.4056   0.4217   0.4227   0.6031   0.6745   0.6965   0.9727   1.2577
     1.4683   2.3755   2.5261   2.7397   3.2940   3.4472   3.9904   5.1266
     5.1598   5.3859   5.7568   6.0828   6.8474

          k = 0.0000 0.0719 0.0000 ( 28108 PWs)   bands (ev):

   -77.7299 -77.7108 -77.4374 -77.4184 -77.3890 -77.3699 -45.7740 -45.7532
   -45.6976 -45.5110 -45.5050 -45.4803 -45.4649 -45.4450 -45.3190 -45.3066
   -45.2880 -45.2872 -45.2431 -45.2237 -45.1692 -45.1495 -45.1235 -45.1039
    -5.6638  -4.2612  -4.1414  -3.8686  -3.8682  -3.5550  -3.4264  -3.2451
    -3.2154  -3.2051  -3.1108  -3.0822  -2.9729  -2.7614  -2.6850  -2.4489
    -2.4264  -2.3400  -2.3274  -2.2153  -2.0849  -2.0288  -2.0007  -1.9850
    -1.9046  -1.8812  -1.8016  -1.7394  -1.7031  -1.6806  -1.6110  -1.5744
    -1.5196  -1.4367  -1.4167  -1.3655  -1.3505  -1.3345  -1.2479  -1.1762
    -1.0310  -0.9503  -0.9343  -0.7337  -0.7036  -0.5864  -0.5482  -0.4980
    -0.4950  -0.3802  -0.2680  -0.2401  -0.1616  -0.1108  -0.0103   0.0118
     0.1697   0.1988   0.4285   0.4551   0.4719   0.6078   0.6615   1.0168
     1.5987   2.4480   2.5809   3.2866   3.3424   3.5425   3.5705   5.4740
     5.5076   5.7017   6.1339   6.1487   6.4108

          k = 0.0000 0.0898 0.0000 ( 28102 PWs)   bands (ev):

   -77.7253 -77.7154 -77.4329 -77.4230 -77.3844 -77.3745 -45.7691 -45.7582
   -45.6515 -45.5518 -45.4650 -45.4602 -45.4498 -45.4343 -45.3656 -45.3348
   -45.3020 -45.2919 -45.2385 -45.2284 -45.1645 -45.1543 -45.1188 -45.1086
    -5.2627  -4.4857  -3.8680  -3.7279  -3.6771  -3.5206  -3.3048  -3.2002
    -3.1102  -3.0103  -2.9685  -2.9410  -2.8059  -2.6551  -2.6035  -2.4720
    -2.3618  -2.3580  -2.3453  -2.3233  -2.1897  -2.1813  -2.0138  -1.9653
    -1.8751  -1.8129  -1.8079  -1.7723  -1.7621  -1.6897  -1.6683  -1.6278
    -1.6127  -1.5341  -1.4985  -1.4558  -1.4217  -1.3338  -1.3012  -1.2036
    -1.0720  -1.0317  -0.9532  -0.8916  -0.7493  -0.7277  -0.6670  -0.5806
    -0.5275  -0.5257  -0.4165  -0.4095  -0.2863  -0.2440  -0.2263  -0.1647
     0.0149   0.0602   0.3020   0.3131   0.4551   0.5053   0.6510   0.7826
     1.9851   2.5166   2.5909   2.8750   3.5511   3.5879   3.9951   5.3971
     5.6693   5.6818   6.0973   6.5962   6.8320

          k = 0.0000-0.1078 0.0000 ( 28122 PWs)   bands (ev):

   -77.7212 -77.7195 -77.4284 -77.4274 -77.3800 -77.3789 -45.7645 -45.7628
   -45.6026 -45.6010 -45.4558 -45.4542 -45.4159 -45.4150 -45.3852 -45.3842
   -45.2975 -45.2964 -45.2340 -45.2329 -45.1599 -45.1589 -45.1142 -45.1132
    -4.8476  -4.8475  -3.7037  -3.7035  -3.5534  -3.5530  -3.2253  -3.2249
    -3.0080  -3.0077  -2.8497  -2.8495  -2.6995  -2.6993  -2.5822  -2.5822
    -2.3699  -2.3699  -2.2731  -2.2730  -2.2466  -2.2465  -1.9867  -1.9866
    -1.8428  -1.8426  -1.7971  -1.7970  -1.7499  -1.7498  -1.6841  -1.6841
    -1.5792  -1.5791  -1.4924  -1.4921  -1.4231  -1.4230  -1.2946  -1.2942
    -1.1710  -1.1710  -0.8616  -0.8615  -0.6768  -0.6766  -0.6602  -0.6600
    -0.5471  -0.5470  -0.4994  -0.4991  -0.4159  -0.4152  -0.2829  -0.2824
     0.0368   0.0369   0.2475   0.2481   0.4813   0.4819   0.6774   0.6780
     2.4110   2.4110   2.5683   2.5684   3.5877   3.5880   4.6811   4.6812
     5.7243   5.7244   6.5758   6.5759   7.1560

          k = 0.0156-0.0089 0.0000 ( 28032 PWs)   bands (ev):

   -77.7386 -77.7020 -77.4463 -77.4095 -77.3979 -77.3610 -45.7860 -45.7835
   -45.7434 -45.5991 -45.5686 -45.4739 -45.4356 -45.4138 -45.3155 -45.2780
   -45.2519 -45.2281 -45.2145 -45.1970 -45.1783 -45.1403 -45.1325 -45.0947
    -6.4288  -4.8056  -4.3513  -4.3502  -4.2139  -3.8431  -3.6324  -3.6104
    -3.4942  -3.4860  -3.4130  -3.3524  -3.3034  -3.3010  -2.9707  -2.5982
    -2.4178  -2.3432  -2.1255  -2.0960  -2.0599  -2.0028  -1.9967  -1.9114
    -1.8460  -1.7809  -1.7757  -1.7292  -1.7163  -1.6898  -1.5725  -1.5681
    -1.5085  -1.2490  -1.1920  -1.0917  -1.0673  -1.0390  -0.9363  -0.8825
    -0.8282  -0.7572  -0.6552  -0.5936  -0.3668  -0.3361  -0.2774  -0.2155
    -0.0155  -0.0144   0.0496   0.2114   0.3502   0.4354   0.5626   0.5963
     0.6642   0.7436   0.8153   0.8245   0.9243   0.9783   1.5173   1.6797
     1.8053   2.1870   2.3218   2.9493   3.3431   3.3504   4.1242   4.1681
     4.3128   5.0184   5.3044   5.7063   6.6088

          k = 0.0156 0.0091 0.0000 ( 28021 PWs)   bands (ev):

   -77.7393 -77.7014 -77.4469 -77.4088 -77.3985 -77.3603 -45.7925 -45.7842
   -45.7427 -45.6055 -45.5750 -45.4746 -45.4349 -45.4071 -45.3161 -45.2774
   -45.2526 -45.2214 -45.2139 -45.1903 -45.1790 -45.1397 -45.1332 -45.0941
    -6.4275  -4.8046  -4.3470  -4.3450  -4.2065  -3.8692  -3.6559  -3.5785
    -3.5015  -3.4950  -3.4176  -3.3434  -3.3208  -3.3053  -2.9579  -2.6129
    -2.4118  -2.3389  -2.1253  -2.0965  -2.0571  -2.0049  -1.9612  -1.9407
    -1.8205  -1.8013  -1.7942  -1.7214  -1.6953  -1.6927  -1.5996  -1.5680
    -1.5293  -1.2319  -1.1647  -1.1506  -1.0820  -0.9763  -0.9460  -0.9208
    -0.8135  -0.7360  -0.6784  -0.4890  -0.4621  -0.4451  -0.3139  -0.2385
    -0.0687   0.1034   0.1300   0.1778   0.3291   0.4841   0.5890   0.5999
     0.6303   0.6961   0.8014   0.8553   0.9766   0.9916   1.5743   1.6585
     1.8860   2.1388   2.2506   2.8711   3.2384   3.6891   4.1105   4.1434
     4.2780   5.0221   5.3107   5.7089   6.5593

          k = 0.0156 0.0271 0.0000 ( 28040 PWs)   bands (ev):

   -77.7386 -77.7020 -77.4463 -77.4095 -77.3979 -77.3610 -45.7861 -45.7836
   -45.7434 -45.5991 -45.5686 -45.4741 -45.4356 -45.4138 -45.3155 -45.2780
   -45.2520 -45.2281 -45.2146 -45.1970 -45.1783 -45.1404 -45.1325 -45.0947
    -6.3182  -4.7034  -4.2880  -4.2711  -4.1516  -3.8223  -3.6105  -3.5426
    -3.4710  -3.4401  -3.3763  -3.3063  -3.2741  -3.2556  -2.9061  -2.5978
    -2.4007  -2.3368  -2.1000  -2.0793  -2.0392  -2.0342  -1.9953  -1.9283
    -1.8464  -1.8277  -1.7749  -1.7111  -1.6940  -1.6764  -1.6057  -1.5789
    -1.5437  -1.2672  -1.2311  -1.1616  -1.1258  -1.1091  -0.9780  -0.9595
    -0.8087  -0.7802  -0.6859  -0.6520  -0.5433  -0.5256  -0.2905  -0.2546
    -0.1300  -0.0630   0.0559   0.1714   0.2228   0.3399   0.5111   0.5232
     0.5566   0.6127   0.7334   0.8302   0.8814   0.9325   1.5141   1.6445
     1.7057   2.0262   2.4931   2.6476   2.8922   3.8774   4.2575   4.4981
     4.5101   5.1165   5.4244   5.8047   6.6778

          k = 0.0156 0.0450 0.0000 ( 28073 PWs)   bands (ev):

   -77.7367 -77.7039 -77.4444 -77.4114 -77.3960 -77.3629 -45.7816 -45.7672
   -45.7455 -45.5803 -45.5498 -45.4722 -45.4375 -45.4334 -45.3137 -45.2800
   -45.2501 -45.2477 -45.2166 -45.2166 -45.1764 -45.1423 -45.1306 -45.0967
    -6.1058  -4.5115  -4.2004  -4.1331  -4.0631  -3.7058  -3.5211  -3.5005
    -3.3927  -3.3478  -3.2892  -3.2420  -3.1911  -3.1112  -2.8181  -2.5576
    -2.3931  -2.3395  -2.1487  -2.0590  -2.0587  -2.0092  -1.9953  -1.9705
    -1.8880  -1.8445  -1.7518  -1.7201  -1.6898  -1.6408  -1.6344  -1.5852
    -1.4998  -1.3664  -1.3530  -1.3002  -1.1966  -1.1645  -1.0357  -1.0267
    -0.9731  -0.8322  -0.8210  -0.7010  -0.5949  -0.5927  -0.3497  -0.3140
    -0.2974  -0.1974  -0.1936   0.0238   0.0728   0.1595   0.2456   0.3886
     0.4635   0.4761   0.6666   0.7065   0.7790   1.0024   1.1191   1.3600
     1.7447   1.9338   2.4914   2.6665   3.0896   3.9691   4.2718   4.7226
     4.8235   5.2998   5.6401   5.9931   6.9358

          k = 0.0156 0.0630 0.0000 ( 28069 PWs)   bands (ev):

   -77.7337 -77.7069 -77.4414 -77.4144 -77.3929 -77.3659 -45.7784 -45.7488
   -45.7371 -45.5503 -45.5197 -45.4692 -45.4645 -45.4407 -45.3107 -45.2831
   -45.2787 -45.2477 -45.2470 -45.2197 -45.1732 -45.1455 -45.1275 -45.0999
    -5.8018  -4.2532  -4.1671  -3.9528  -3.9411  -3.5418  -3.4948  -3.3454
    -3.2582  -3.2564  -3.1908  -3.1401  -3.0430  -2.9022  -2.7061  -2.5019
    -2.3997  -2.3431  -2.2754  -2.1455  -2.0496  -2.0231  -1.9764  -1.9744
    -1.9257  -1.8893  -1.7721  -1.7341  -1.7056  -1.6462  -1.6435  -1.5676
    -1.5178  -1.4657  -1.4046  -1.3539  -1.2817  -1.2633  -1.2092  -1.1823
    -1.0761  -0.9740  -0.8795  -0.7613  -0.6805  -0.6297  -0.5593  -0.5291
    -0.4519  -0.3502  -0.3179  -0.1418  -0.1339  -0.0450   0.0795   0.2967
     0.3687   0.3936   0.4134   0.5827   0.6180   0.6739   1.0596   1.3168
     1.4456   1.8044   2.6662   3.1276   3.2626   3.7066   4.2182   4.8647
     5.4606   5.5692   5.9571   6.2741   6.5257

          k = 0.0156 0.0810 0.0000 ( 28093 PWs)   bands (ev):

   -77.7298 -77.7108 -77.4374 -77.4184 -77.3890 -77.3699 -45.7741 -45.7532
   -45.6977 -45.5110 -45.5049 -45.4804 -45.4652 -45.4448 -45.3190 -45.3067
   -45.2880 -45.2872 -45.2431 -45.2238 -45.1692 -45.1496 -45.1235 -45.1039
    -5.4267  -4.3071  -3.9769  -3.7908  -3.7620  -3.4462  -3.3881  -3.1750
    -3.1423  -3.1127  -3.0937  -3.0024  -2.8714  -2.6851  -2.6298  -2.4150
    -2.4030  -2.4019  -2.3484  -2.2785  -2.1568  -2.1042  -2.0079  -2.0009
    -1.8624  -1.8576  -1.8231  -1.7613  -1.7372  -1.7141  -1.6571  -1.5905
    -1.5648  -1.4757  -1.4458  -1.4356  -1.4228  -1.3289  -1.3114  -1.2979
    -1.1366  -1.1199  -0.9570  -0.9326  -0.7626  -0.7421  -0.6627  -0.6367
    -0.5057  -0.5008  -0.3520  -0.3249  -0.2132  -0.1691   0.0064   0.0097
     0.1593   0.1859   0.4137   0.4459   0.4799   0.6251   0.6901   0.9320
     1.8066   1.8431   2.7270   3.1635   3.3581   3.7477   4.4021   4.9370
     5.7769   5.9230   6.0891   6.3773   6.6478

          k = 0.0156-0.1167 0.0000 ( 28109 PWs)   bands (ev):

   -77.7253 -77.7154 -77.4329 -77.4230 -77.3844 -77.3745 -45.7692 -45.7581
   -45.6516 -45.5518 -45.4651 -45.4605 -45.4496 -45.4344 -45.3656 -45.3347
   -45.3021 -45.2918 -45.2385 -45.2284 -45.1645 -45.1543 -45.1188 -45.1087
    -5.0153  -4.6189  -3.7564  -3.6885  -3.6191  -3.4396  -3.2858  -3.1570
    -3.0221  -3.0094  -2.9058  -2.8722  -2.7336  -2.6620  -2.6110  -2.5322
    -2.3869  -2.3770  -2.3096  -2.2843  -2.2240  -2.2222  -2.0045  -1.9786
    -1.9186  -1.8089  -1.7989  -1.7767  -1.7697  -1.7259  -1.6874  -1.6834
    -1.6438  -1.5612  -1.5092  -1.5084  -1.4845  -1.4132  -1.3500  -1.2677
    -1.2188  -1.2009  -1.0314  -0.8303  -0.7997  -0.7161  -0.6418  -0.6289
    -0.6040  -0.4977  -0.4124  -0.3676  -0.3429  -0.2506  -0.2249  -0.1814
    -0.0024   0.0526   0.3142   0.3551   0.4371   0.5108   0.6154   0.7577
     1.8312   2.2012   2.6583   2.7696   3.4168   4.4101   4.5105   4.9612
     5.0491   6.3605   6.4732   6.8755   6.8984

          k = 0.0156-0.0987 0.0000 ( 28130 PWs)   bands (ev):

   -77.7212 -77.7195 -77.4284 -77.4274 -77.3800 -77.3789 -45.7645 -45.7628
   -45.6026 -45.6010 -45.4559 -45.4542 -45.4159 -45.4150 -45.3852 -45.3842
   -45.2975 -45.2964 -45.2340 -45.2329 -45.1599 -45.1589 -45.1142 -45.1132
    -5.0217  -4.6242  -3.7442  -3.6625  -3.5936  -3.5441  -3.2330  -3.2173
    -3.0649  -2.9521  -2.8663  -2.8445  -2.7202  -2.7033  -2.6014  -2.5290
    -2.3839  -2.3834  -2.3051  -2.2820  -2.2220  -2.2186  -2.0262  -1.9619
    -1.8867  -1.8620  -1.8201  -1.8019  -1.7628  -1.7508  -1.7314  -1.6837
    -1.6413  -1.5540  -1.4962  -1.4905  -1.4457  -1.3344  -1.3244  -1.2589
    -1.1976  -1.0459  -0.8802  -0.8113  -0.6957  -0.6935  -0.6533  -0.6228
    -0.6051  -0.5050  -0.4807  -0.4570  -0.4403  -0.3149  -0.2551  -0.2028
     0.0158   0.0293   0.2400   0.2738   0.4435   0.4750   0.6819   0.6852
     1.7919   2.2035   2.5135   2.8927   3.4511   4.3460   4.5435   4.9433
     5.1177   6.3518   6.4781   6.8801   6.9421

          k = 0.0156-0.0807 0.0000 ( 28116 PWs)   bands (ev):

   -77.7253 -77.7154 -77.4329 -77.4230 -77.3844 -77.3745 -45.7690 -45.7583
   -45.6515 -45.5518 -45.4650 -45.4599 -45.4500 -45.4343 -45.3657 -45.3348
   -45.3019 -45.2919 -45.2384 -45.2284 -45.1645 -45.1542 -45.1188 -45.1086
    -5.4368  -4.3341  -3.9713  -3.7486  -3.7306  -3.6214  -3.3237  -3.2314
    -3.1789  -3.0536  -2.9964  -2.9604  -2.8657  -2.6876  -2.6375  -2.4164
    -2.4048  -2.3905  -2.3432  -2.2944  -2.1375  -2.1144  -2.0169  -2.0096
    -1.8797  -1.8425  -1.8210  -1.7589  -1.7514  -1.7167  -1.6799  -1.6320
    -1.5694  -1.5351  -1.4846  -1.4675  -1.3928  -1.2627  -1.1423  -1.0662
    -0.9906  -0.9528  -0.9465  -0.7593  -0.7439  -0.6458  -0.6389  -0.5467
    -0.5386  -0.4892  -0.4196  -0.4038  -0.2078  -0.1488  -0.0995  -0.0347
     0.0145   0.0827   0.2582   0.3290   0.4370   0.4522   0.6639   0.8679
     1.7238   1.7981   2.5717   3.2882   3.4451   3.6991   4.4864   4.9103
     5.8424   5.9138   6.1352   6.4469   6.6390

          k = 0.0156-0.0628 0.0000 ( 28101 PWs)   bands (ev):

   -77.7299 -77.7108 -77.4374 -77.4184 -77.3890 -77.3699 -45.7739 -45.7533
   -45.6976 -45.5109 -45.5050 -45.4803 -45.4646 -45.4452 -45.3190 -45.3065
   -45.2880 -45.2872 -45.2430 -45.2237 -45.1692 -45.1495 -45.1235 -45.1039
    -5.8111  -4.2570  -4.2174  -3.9451  -3.9144  -3.6354  -3.4561  -3.2905
    -3.2635  -3.2593  -3.1401  -3.1142  -3.0371  -2.8151  -2.7686  -2.4399
    -2.4387  -2.3572  -2.2705  -2.1682  -2.0604  -2.0246  -1.9877  -1.9760
    -1.9550  -1.8509  -1.7863  -1.7502  -1.7099  -1.6505  -1.5983  -1.5674
    -1.5126  -1.4618  -1.3731  -1.3099  -1.2987  -1.2674  -1.2249  -1.0443
    -1.0410  -0.8779  -0.8212  -0.6505  -0.6248  -0.5692  -0.4810  -0.4329
    -0.3951  -0.2635  -0.2132  -0.1701  -0.1225   0.0397   0.0419   0.1613
     0.2353   0.3514   0.4279   0.4483   0.4761   0.5065   0.6664   1.2321
     1.4432   1.6395   2.5374   3.0540   3.4256   3.8045   4.3303   4.8368
     5.5510   5.5577   5.9621   6.2644   6.5780

          k = 0.0156-0.0448 0.0000 ( 28078 PWs)   bands (ev):

   -77.7338 -77.7069 -77.4414 -77.4144 -77.3930 -77.3659 -45.7781 -45.7489
   -45.7369 -45.5502 -45.5196 -45.4687 -45.4645 -45.4410 -45.3105 -45.2831
   -45.2787 -45.2477 -45.2469 -45.2196 -45.1733 -45.1454 -45.1275 -45.0998
    -6.1126  -4.5165  -4.2438  -4.1380  -4.0643  -3.6273  -3.6081  -3.4325
    -3.3788  -3.3061  -3.2861  -3.2666  -3.1801  -3.0234  -2.8763  -2.4952
    -2.4243  -2.3551  -2.1513  -2.0676  -2.0598  -2.0307  -2.0058  -1.9934
    -1.8964  -1.7868  -1.7656  -1.7440  -1.6805  -1.6765  -1.5687  -1.5089
    -1.4459  -1.3989  -1.3700  -1.3233  -1.1433  -1.1269  -1.0727  -1.0016
    -1.0007  -0.8421  -0.8150  -0.6318  -0.4617  -0.3993  -0.3557  -0.3159
    -0.2318  -0.1217  -0.0734   0.0014   0.0392   0.1634   0.2131   0.4137
     0.4180   0.5020   0.6355   0.6570   0.6851   0.8576   0.9410   1.1466
     1.5711   1.8280   2.4965   2.5260   3.2483   4.0990   4.3042   4.7110
     4.8350   5.2858   5.6230   5.9835   6.9093

          k = 0.0156-0.0268 0.0000 ( 28050 PWs)   bands (ev):

   -77.7368 -77.7039 -77.4444 -77.4114 -77.3960 -77.3629 -45.7814 -45.7671
   -45.7455 -45.5802 -45.5497 -45.4719 -45.4377 -45.4334 -45.3135 -45.2800
   -45.2500 -45.2476 -45.2166 -45.2165 -45.1764 -45.1423 -45.1306 -45.0967
    -6.3221  -4.7065  -4.3097  -4.2784  -4.1668  -3.7500  -3.6215  -3.5522
    -3.4517  -3.4175  -3.3637  -3.3364  -3.2665  -3.1975  -2.9436  -2.5559
    -2.4189  -2.3483  -2.1022  -2.0756  -2.0599  -2.0419  -1.9931  -1.9628
    -1.8375  -1.7893  -1.7659  -1.7367  -1.7177  -1.6440  -1.6222  -1.5039
    -1.4887  -1.3017  -1.2474  -1.2346  -1.0785  -1.0415  -0.9558  -0.9273
    -0.8297  -0.8284  -0.7996  -0.6322  -0.3202  -0.3002  -0.2924  -0.2105
    -0.1515  -0.1206   0.0219   0.1192   0.2988   0.3001   0.4368   0.4494
     0.5304   0.7062   0.7848   0.7961   0.8508   0.9243   1.2800   1.5440
     1.6643   2.0134   2.5199   2.6968   2.8546   3.8505   4.2300   4.5095
     4.5320   5.1061   5.4080   5.7976   6.8654

          k = 0.0313-0.0177 0.0000 ( 28060 PWs)   bands (ev):

   -77.7368 -77.7039 -77.4444 -77.4114 -77.3960 -77.3629 -45.7815 -45.7671
   -45.7455 -45.5802 -45.5497 -45.4720 -45.4377 -45.4334 -45.3136 -45.2800
   -45.2501 -45.2477 -45.2166 -45.2165 -45.1764 -45.1423 -45.1306 -45.0967
    -6.2674  -4.6563  -4.2817  -4.2399  -4.1400  -3.7377  -3.5952  -3.5383
    -3.4247  -3.4127  -3.3471  -3.3106  -3.2488  -3.1751  -2.9106  -2.5557
    -2.4127  -2.3454  -2.0906  -2.0798  -2.0631  -2.0293  -1.9951  -1.9728
    -1.8432  -1.8047  -1.7771  -1.7282  -1.7072  -1.6442  -1.6144  -1.5174
    -1.5061  -1.3123  -1.2636  -1.2564  -1.1327  -1.0808  -0.9698  -0.9458
    -0.8797  -0.8149  -0.7903  -0.6518  -0.4530  -0.4179  -0.3038  -0.2144
    -0.1658  -0.0325   0.0031   0.0587   0.1950   0.2533   0.3720   0.4763
     0.5149   0.6040   0.6946   0.7913   0.8010   0.9791   1.1858   1.3091
     2.0672   2.1560   2.3786   2.4572   3.2472   3.3455   4.3821   4.6574
     4.6625   5.1568   5.4737   5.8478   6.7729

          k = 0.0313 0.0002 0.0000 ( 28040 PWs)   bands (ev):

   -77.7386 -77.7020 -77.4463 -77.4095 -77.3979 -77.3610 -45.7861 -45.7836
   -45.7434 -45.5991 -45.5686 -45.4741 -45.4356 -45.4138 -45.3155 -45.2780
   -45.2520 -45.2281 -45.2146 -45.1970 -45.1783 -45.1404 -45.1325 -45.0947
    -6.3182  -4.7034  -4.2880  -4.2711  -4.1516  -3.8223  -3.6105  -3.5426
    -3.4710  -3.4401  -3.3763  -3.3063  -3.2741  -3.2556  -2.9061  -2.5978
    -2.4007  -2.3368  -2.1000  -2.0793  -2.0392  -2.0342  -1.9953  -1.9283
    -1.8464  -1.8277  -1.7749  -1.7111  -1.6940  -1.6764  -1.6057  -1.5789
    -1.5437  -1.2672  -1.2311  -1.1616  -1.1258  -1.1091  -0.9780  -0.9595
    -0.8087  -0.7802  -0.6859  -0.6520  -0.5433  -0.5256  -0.2905  -0.2546
    -0.1300  -0.0630   0.0559   0.1714   0.2228   0.3399   0.5111   0.5232
     0.5566   0.6127   0.7334   0.8302   0.8814   0.9325   1.5141   1.6445
     1.7057   2.0262   2.4931   2.6476   2.8922   3.8774   4.2575   4.4981
     4.5101   5.1165   5.4242   5.8046   6.6777

          k = 0.0313 0.0182 0.0000 ( 28017 PWs)   bands (ev):

   -77.7393 -77.7014 -77.4469 -77.4088 -77.3985 -77.3603 -45.7925 -45.7844
   -45.7427 -45.6055 -45.5751 -45.4749 -45.4348 -45.4071 -45.3163 -45.2774
   -45.2527 -45.2215 -45.2139 -45.1903 -45.1790 -45.1397 -45.1332 -45.0941
    -6.2624  -4.6535  -4.2511  -4.2329  -4.1087  -3.8426  -3.6272  -3.4733
    -3.4610  -3.4245  -3.3619  -3.2810  -3.2592  -3.2544  -2.8636  -2.6142
    -2.3835  -2.3301  -2.0864  -2.0847  -2.0612  -2.0192  -1.9919  -1.8987
    -1.8599  -1.8504  -1.7864  -1.6888  -1.6836  -1.6549  -1.6340  -1.6321
    -1.5562  -1.3061  -1.2470  -1.1563  -1.1519  -1.1099  -1.0326  -1.0108
    -0.8428  -0.7651  -0.7090  -0.6355  -0.6250  -0.6122  -0.3758  -0.2711
    -0.2311  -0.1121   0.0208   0.0828   0.1526   0.4541   0.4857   0.5418
     0.5802   0.6653   0.7278   0.7984   0.8524   0.9624   1.1681   1.6247
     1.7691   2.0240   2.2566   2.7689   3.0738   3.8073   4.4024   4.5474
     4.7077   5.1649   5.4751   5.8539   6.5575

          k = 0.0313 0.0362 0.0000 ( 28045 PWs)   bands (ev):

   -77.7386 -77.7020 -77.4463 -77.4095 -77.3979 -77.3610 -45.7862 -45.7837
   -45.7434 -45.5992 -45.5687 -45.4744 -45.4354 -45.4138 -45.3157 -45.2781
   -45.2521 -45.2281 -45.2147 -45.1970 -45.1783 -45.1404 -45.1325 -45.0948
    -6.1021  -4.5117  -4.1705  -4.1356  -4.0314  -3.7885  -3.5717  -3.4296
    -3.4277  -3.3313  -3.2969  -3.2192  -3.2090  -3.1722  -2.7868  -2.6023
    -2.3661  -2.3300  -2.1575  -2.0544  -2.0534  -2.0171  -1.9878  -1.9196
    -1.9118  -1.8292  -1.7582  -1.7127  -1.6989  -1.6770  -1.6509  -1.5870
    -1.5541  -1.4033  -1.2918  -1.2767  -1.1936  -1.1676  -1.0872  -1.0630
    -0.9012  -0.8740  -0.7725  -0.7253  -0.7067  -0.6290  -0.4450  -0.3287
    -0.2989  -0.2954  -0.1535  -0.1257   0.0623   0.3352   0.4006   0.4292
     0.4921   0.5825   0.6664   0.7644   0.8720   0.9577   1.1152   1.3750
     1.5867   1.9005   2.5348   2.5426   3.3066   4.1967   4.3453   4.6103
     4.8166   5.3014   5.6317   5.9953   6.8305

          k = 0.0313 0.0541 0.0000 ( 28069 PWs)   bands (ev):

   -77.7367 -77.7039 -77.4444 -77.4114 -77.3960 -77.3629 -45.7817 -45.7673
   -45.7455 -45.5804 -45.5499 -45.4726 -45.4374 -45.4334 -45.3138 -45.2800
   -45.2502 -45.2477 -45.2167 -45.2166 -45.1763 -45.1424 -45.1306 -45.0968
    -5.8451  -4.2978  -4.0746  -3.9945  -3.9478  -3.6605  -3.4457  -3.4122
    -3.3420  -3.2406  -3.1781  -3.1424  -3.0823  -3.0138  -2.6927  -2.5584
    -2.3605  -2.3395  -2.2655  -2.1007  -2.0418  -2.0391  -1.9731  -1.9652
    -1.9427  -1.8298  -1.7758  -1.7575  -1.7220  -1.6773  -1.6335  -1.6042
    -1.5027  -1.4904  -1.4448  -1.3346  -1.2468  -1.2226  -1.1936  -1.1172
    -1.1157  -0.9449  -0.9160  -0.8046  -0.7231  -0.6819  -0.6497  -0.5124
    -0.4406  -0.4290  -0.3271  -0.2574  -0.0488   0.0225   0.2683   0.3669
     0.4211   0.4531   0.6122   0.6392   0.7633   0.8912   1.1231   1.3227
     1.4025   1.8832   1.9383   3.0239   3.8355   4.1660   4.3251   4.6495
     5.1380   5.5251   5.8964   6.2293   6.9279

          k = 0.0313 0.0721 0.0000 ( 28125 PWs)   bands (ev):

   -77.7337 -77.7069 -77.4414 -77.4144 -77.3929 -77.3659 -45.7785 -45.7488
   -45.7372 -45.5503 -45.5198 -45.4696 -45.4645 -45.4405 -45.3108 -45.2831
   -45.2787 -45.2478 -45.2471 -45.2198 -45.1732 -45.1455 -45.1275 -45.0999
    -5.5068  -4.1039  -4.0622  -3.8300  -3.8157  -3.4890  -3.3702  -3.2714
    -3.2014  -3.1477  -3.0771  -3.0408  -2.9068  -2.7936  -2.6482  -2.4524
    -2.3955  -2.3737  -2.3493  -2.2143  -2.1321  -2.0807  -2.0429  -2.0018
    -1.9045  -1.8377  -1.8088  -1.7892  -1.7710  -1.6915  -1.6845  -1.6196
    -1.5770  -1.4899  -1.4290  -1.3829  -1.3734  -1.3344  -1.3053  -1.2746
    -1.1698  -1.1615  -1.0432  -0.9119  -0.8224  -0.7955  -0.7210  -0.6783
    -0.5671  -0.4721  -0.3426  -0.2807  -0.2409  -0.1365   0.1455   0.3078
     0.3344   0.3885   0.4186   0.5458   0.5515   0.6385   1.1269   1.2027
     1.2718   1.6026   2.0576   3.5495   3.5826   4.2245   4.3282   5.0402
     5.7203   5.8347   6.2610   6.2683   6.5553

          k = 0.0313-0.1255 0.0000 ( 28129 PWs)   bands (ev):

   -77.7298 -77.7109 -77.4374 -77.4184 -77.3890 -77.3699 -45.7743 -45.7531
   -45.6978 -45.5111 -45.5049 -45.4804 -45.4655 -45.4446 -45.3190 -45.3068
   -45.2880 -45.2872 -45.2432 -45.2238 -45.1692 -45.1496 -45.1235 -45.1040
    -5.1149  -4.3429  -3.8805  -3.6897  -3.6198  -3.3455  -3.3207  -3.0848
    -3.0697  -3.0211  -3.0087  -2.9159  -2.7553  -2.6457  -2.6213  -2.5042
    -2.4233  -2.3874  -2.3521  -2.2821  -2.2119  -2.1648  -2.0485  -2.0317
    -1.9242  -1.8380  -1.8371  -1.7912  -1.7891  -1.7280  -1.7070  -1.6970
    -1.6402  -1.6278  -1.5399  -1.5102  -1.4693  -1.4089  -1.3839  -1.3342
    -1.2788  -1.2490  -1.1229  -0.8494  -0.8469  -0.7891  -0.7191  -0.6691
    -0.6286  -0.4727  -0.3547  -0.2996  -0.2719  -0.2209   0.0521   0.0537
     0.1290   0.2041   0.3731   0.4354   0.4661   0.5707   0.7361   0.9074
     1.2273   1.7989   2.2937   2.9959   4.1189   4.3517   4.4121   5.3978
     5.5257   6.2284   6.3901   6.7417   6.8851

          k = 0.0313-0.1076 0.0000 ( 28135 PWs)   bands (ev):

   -77.7253 -77.7154 -77.4329 -77.4230 -77.3844 -77.3745 -45.7693 -45.7581
   -45.6517 -45.5517 -45.4651 -45.4607 -45.4494 -45.4344 -45.3656 -45.3347
   -45.3022 -45.2918 -45.2385 -45.2285 -45.1644 -45.1543 -45.1188 -45.1087
    -4.7156  -4.7154  -3.7816  -3.6361  -3.5191  -3.3711  -3.2646  -3.1147
    -3.0071  -2.9453  -2.8139  -2.8011  -2.7342  -2.7036  -2.5608  -2.5545
    -2.4603  -2.4582  -2.3178  -2.2764  -2.1985  -2.1351  -2.0266  -1.9899
    -1.9897  -1.9322  -1.9085  -1.8339  -1.7901  -1.7833  -1.7405  -1.7171
    -1.6232  -1.6184  -1.5715  -1.5488  -1.5045  -1.4590  -1.4019  -1.3335
    -1.3290  -1.1518  -0.9569  -0.8754  -0.7929  -0.7023  -0.6974  -0.6167
    -0.5072  -0.4640  -0.4209  -0.3122  -0.2793  -0.2086  -0.1898  -0.1635
     0.0089   0.0410   0.3116   0.3759   0.3976   0.4827   0.5919   0.7516
     1.2092   1.8668   2.5011   2.6740   4.2550   4.3953   4.8083   4.9395
     5.5463   6.6932   6.6978   6.8701   7.0554

          k = 0.0313-0.0896 0.0000 ( 28122 PWs)   bands (ev):

   -77.7212 -77.7195 -77.4284 -77.4274 -77.3800 -77.3789 -45.7645 -45.7628
   -45.6026 -45.6010 -45.4559 -45.4541 -45.4159 -45.4150 -45.3852 -45.3842
   -45.2975 -45.2964 -45.2340 -45.2329 -45.1599 -45.1589 -45.1142 -45.1132
    -5.1314  -4.3828  -3.7689  -3.7492  -3.5887  -3.5426  -3.2331  -3.2124
    -3.1007  -2.9161  -2.8889  -2.8298  -2.7450  -2.7244  -2.5936  -2.4830
    -2.4297  -2.3879  -2.3620  -2.2769  -2.1763  -2.1738  -2.0689  -2.0492
    -1.9041  -1.8887  -1.8533  -1.8105  -1.8046  -1.7617  -1.7355  -1.7245
    -1.6853  -1.5841  -1.4891  -1.4651  -1.4304  -1.3233  -1.2925  -1.2411
    -1.1182  -0.9398  -0.8702  -0.7385  -0.7214  -0.7085  -0.6377  -0.6313
    -0.6109  -0.5205  -0.5198  -0.4463  -0.2859  -0.2212  -0.1220  -0.0511
     0.0040   0.1201   0.2406   0.3019   0.3448   0.4549   0.6846   0.7383
     1.1635   1.8734   2.0685   3.1424   4.1098   4.2677   4.4403   5.4782
     5.6297   6.2121   6.6021   6.7796   6.8617

          k = 0.0313-0.0716 0.0000 ( 28122 PWs)   bands (ev):

   -77.7253 -77.7154 -77.4329 -77.4230 -77.3844 -77.3745 -45.7689 -45.7583
   -45.6514 -45.5518 -45.4650 -45.4598 -45.4501 -45.4343 -45.3657 -45.3348
   -45.3018 -45.2920 -45.2384 -45.2284 -45.1645 -45.1542 -45.1188 -45.1086
    -5.5263  -4.2088  -4.0278  -3.7623  -3.7557  -3.7205  -3.3353  -3.2455
    -3.2107  -3.0814  -3.0291  -2.9469  -2.8929  -2.7152  -2.6908  -2.4127
    -2.4098  -2.3733  -2.3664  -2.2514  -2.1106  -2.0780  -2.0685  -2.0125
    -1.9214  -1.8234  -1.8092  -1.7860  -1.7627  -1.7167  -1.6694  -1.6469
    -1.5776  -1.5420  -1.5081  -1.4320  -1.3588  -1.2200  -1.0136  -1.0067
    -0.9792  -0.9175  -0.9088  -0.7071  -0.6846  -0.6413  -0.6180  -0.5775
    -0.5634  -0.5137  -0.3923  -0.3261  -0.1582  -0.0819  -0.0003   0.0534
     0.0832   0.2439   0.2740   0.3497   0.4411   0.4759   0.6619   0.9523
     1.1937   1.6959   1.8715   3.5077   3.6698   4.2802   4.3529   5.1687
     5.7966   5.8719   6.2478   6.3542   6.5387

          k = 0.0313-0.0537 0.0000 ( 28098 PWs)   bands (ev):

   -77.7299 -77.7108 -77.4375 -77.4184 -77.3890 -77.3699 -45.7738 -45.7533
   -45.6975 -45.5109 -45.5050 -45.4803 -45.4645 -45.4452 -45.3190 -45.3065
   -45.2880 -45.2872 -45.2430 -45.2236 -45.1692 -45.1495 -45.1235 -45.1038
    -5.8610  -4.2974  -4.1981  -3.9727  -3.9293  -3.6670  -3.4672  -3.3066
    -3.2798  -3.2752  -3.1616  -3.1149  -3.0590  -2.8342  -2.8031  -2.4421
    -2.4281  -2.3716  -2.2536  -2.1411  -2.0598  -2.0467  -1.9806  -1.9781
    -1.9671  -1.7829  -1.7798  -1.7655  -1.7649  -1.6374  -1.6048  -1.5497
    -1.5075  -1.4780  -1.3467  -1.2814  -1.2761  -1.2730  -1.1859  -1.0665
    -0.9787  -0.8646  -0.7733  -0.6184  -0.6088  -0.4895  -0.4892  -0.4846
    -0.3451  -0.2468  -0.2372  -0.1160  -0.0868   0.0639   0.0898   0.2469
     0.2657   0.4074   0.4227   0.4381   0.4914   0.6609   0.9232   0.9309
     1.3865   1.5706   1.9818   2.9601   3.9743   4.1715   4.3581   4.7070
     5.1961   5.5031   5.8794   6.2124   6.9796

          k = 0.0313-0.0357 0.0000 ( 28078 PWs)   bands (ev):

   -77.7338 -77.7069 -77.4414 -77.4144 -77.3930 -77.3659 -45.7781 -45.7489
   -45.7369 -45.5502 -45.5196 -45.4687 -45.4645 -45.4410 -45.3105 -45.2831
   -45.2787 -45.2477 -45.2469 -45.2196 -45.1733 -45.1454 -45.1275 -45.0998
    -6.1126  -4.5165  -4.2438  -4.1380  -4.0643  -3.6273  -3.6081  -3.4325
    -3.3788  -3.3061  -3.2861  -3.2666  -3.1801  -3.0234  -2.8763  -2.4952
    -2.4243  -2.3551  -2.1513  -2.0676  -2.0598  -2.0307  -2.0058  -1.9934
    -1.8964  -1.7868  -1.7656  -1.7440  -1.6805  -1.6766  -1.5687  -1.5089
    -1.4459  -1.3989  -1.3700  -1.3233  -1.1433  -1.1269  -1.0727  -1.0016
    -1.0007  -0.8421  -0.8150  -0.6318  -0.4618  -0.3993  -0.3557  -0.3159
    -0.2318  -0.1217  -0.0734   0.0014   0.0392   0.1634   0.2131   0.4137
     0.4180   0.5020   0.6355   0.6570   0.6851   0.8576   0.9410   1.1466
     1.5711   1.8280   2.4965   2.5260   3.2483   4.0990   4.3042   4.7110
     4.8350   5.2858   5.6230   5.9835   6.9092

          k = 0.0469-0.0266 0.0000 ( 28065 PWs)   bands (ev):

   -77.7338 -77.7069 -77.4414 -77.4144 -77.3929 -77.3659 -45.7782 -45.7489
   -45.7370 -45.5502 -45.5197 -45.4689 -45.4645 -45.4409 -45.3105 -45.2831
   -45.2787 -45.2477 -45.2470 -45.2196 -45.1733 -45.1455 -45.1275 -45.0998
    -6.0074  -4.4242  -4.2168  -4.0710  -4.0222  -3.5832  -3.5827  -3.4018
    -3.3356  -3.2792  -3.2696  -3.2207  -3.1348  -2.9814  -2.8119  -2.4992
    -2.4168  -2.3479  -2.1909  -2.0957  -2.0520  -2.0043  -1.9864  -1.9856
    -1.9023  -1.8717  -1.7603  -1.7321  -1.6637  -1.6466  -1.5731  -1.5666
    -1.4693  -1.4099  -1.4002  -1.3310  -1.2171  -1.1899  -1.1187  -1.0690
    -1.0125  -0.8712  -0.8357  -0.6782  -0.5517  -0.4878  -0.4527  -0.3602
    -0.2540  -0.2242  -0.0974  -0.0665  -0.0153   0.0892   0.1186   0.3542
     0.4056   0.4217   0.4227   0.6031   0.6745   0.6965   0.9727   1.2577
     1.4683   2.3755   2.5261   2.7397   3.2940   3.4472   3.9904   5.1266
     5.1598   5.3859   5.7568   6.0827   6.8473

          k = 0.0469-0.0086 0.0000 ( 28073 PWs)   bands (ev):

   -77.7367 -77.7039 -77.4444 -77.4114 -77.3960 -77.3629 -45.7816 -45.7672
   -45.7455 -45.5803 -45.5498 -45.4722 -45.4375 -45.4334 -45.3137 -45.2800
   -45.2501 -45.2477 -45.2166 -45.2166 -45.1764 -45.1423 -45.1306 -45.0967
    -6.1058  -4.5115  -4.2004  -4.1331  -4.0631  -3.7058  -3.5211  -3.5005
    -3.3927  -3.3478  -3.2892  -3.2420  -3.1911  -3.1112  -2.8181  -2.5576
    -2.3931  -2.3395  -2.1487  -2.0590  -2.0587  -2.0092  -1.9953  -1.9705
    -1.8880  -1.8445  -1.7518  -1.7201  -1.6898  -1.6408  -1.6344  -1.5852
    -1.4998  -1.3664  -1.3530  -1.3002  -1.1966  -1.1645  -1.0357  -1.0267
    -0.9731  -0.8322  -0.8210  -0.7010  -0.5949  -0.5927  -0.3497  -0.3140
    -0.2974  -0.1974  -0.1936   0.0238   0.0728   0.1595   0.2456   0.3886
     0.4635   0.4761   0.6666   0.7065   0.7790   1.0024   1.1191   1.3600
     1.7447   1.9338   2.4914   2.6665   3.0896   3.9691   4.2718   4.7226
     4.8235   5.2999   5.6401   5.9932   6.9358

          k = 0.0469 0.0093 0.0000 ( 28045 PWs)   bands (ev):

   -77.7386 -77.7020 -77.4463 -77.4095 -77.3979 -77.3610 -45.7862 -45.7837
   -45.7434 -45.5992 -45.5687 -45.4744 -45.4354 -45.4138 -45.3157 -45.2781
   -45.2521 -45.2281 -45.2147 -45.1970 -45.1783 -45.1404 -45.1325 -45.0948
    -6.1021  -4.5117  -4.1705  -4.1356  -4.0314  -3.7885  -3.5717  -3.4296
    -3.4277  -3.3313  -3.2969  -3.2192  -3.2090  -3.1722  -2.7868  -2.6023
    -2.3661  -2.3300  -2.1575  -2.0544  -2.0534  -2.0171  -1.9878  -1.9196
    -1.9118  -1.8292  -1.7582  -1.7127  -1.6989  -1.6770  -1.6509  -1.5870
    -1.5541  -1.4033  -1.2918  -1.2767  -1.1936  -1.1676  -1.0872  -1.0630
    -0.9012  -0.8740  -0.7725  -0.7253  -0.7067  -0.6290  -0.4450  -0.3287
    -0.2989  -0.2954  -0.1535  -0.1257   0.0623   0.3352   0.4006   0.4292
     0.4921   0.5825   0.6664   0.7644   0.8720   0.9577   1.1152   1.3750
     1.5867   1.9005   2.5348   2.5426   3.3066   4.1967   4.3453   4.6103
     4.8166   5.3014   5.6317   5.9953   6.8301

          k = 0.0469 0.0273 0.0000 ( 28047 PWs)   bands (ev):

   -77.7392 -77.7014 -77.4469 -77.4088 -77.3985 -77.3603 -45.7927 -45.7845
   -45.7427 -45.6056 -45.5752 -45.4753 -45.4347 -45.4071 -45.3164 -45.2774
   -45.2528 -45.2215 -45.2141 -45.1903 -45.1789 -45.1397 -45.1332 -45.0942
    -5.9959  -4.4279  -4.1131  -4.0949  -3.9512  -3.7977  -3.5810  -3.4137
    -3.3182  -3.2995  -3.2532  -3.1907  -3.1661  -3.1549  -2.7208  -2.6231
    -2.3375  -2.3251  -2.2124  -2.0683  -2.0311  -2.0233  -1.9622  -1.9506
    -1.9004  -1.8051  -1.7997  -1.7454  -1.7082  -1.6540  -1.6311  -1.6075
    -1.5461  -1.4965  -1.3460  -1.2673  -1.2354  -1.1720  -1.1454  -1.1270
    -1.0003  -0.8780  -0.8607  -0.8030  -0.7543  -0.6418  -0.4929  -0.4304
    -0.4183  -0.3688  -0.2950  -0.1152  -0.0935   0.3880   0.4148   0.4742
     0.5002   0.5321   0.6429   0.7291   0.7458   0.8961   0.9519   1.4592
     1.5175   1.6680   2.7066   2.9671   3.2578   3.9716   4.0870   5.0373
     5.1589   5.3910   5.7338   6.0896   6.7259

          k = 0.0469 0.0453 0.0000 ( 28089 PWs)   bands (ev):

   -77.7386 -77.7020 -77.4463 -77.4095 -77.3979 -77.3610 -45.7863 -45.7839
   -45.7434 -45.5992 -45.5688 -45.4748 -45.4353 -45.4138 -45.3159 -45.2781
   -45.2522 -45.2282 -45.2148 -45.1970 -45.1783 -45.1404 -45.1325 -45.0948
    -5.7917  -4.2831  -4.0210  -4.0198  -3.8631  -3.7134  -3.5105  -3.3556
    -3.3051  -3.2169  -3.1353  -3.1010  -3.0916  -3.0610  -2.6492  -2.5960
    -2.3310  -2.3204  -2.2947  -2.1259  -2.0502  -2.0248  -1.9681  -1.9444
    -1.9403  -1.8660  -1.7712  -1.7471  -1.7113  -1.6778  -1.6454  -1.6074
    -1.5518  -1.4954  -1.4757  -1.3027  -1.2833  -1.2604  -1.2184  -1.1448
    -1.0802  -1.0317  -0.9964  -0.8605  -0.7831  -0.7042  -0.6831  -0.5818
    -0.5331  -0.4194  -0.3920  -0.3329  -0.1221   0.1218   0.3697   0.3700
     0.4379   0.5759   0.6026   0.6300   0.6812   0.8769   1.0393   1.1970
     1.5527   1.6147   2.5210   3.0296   3.7170   3.9568   4.4056   4.7253
     5.5035   5.5679   5.9458   6.2744   6.6728

          k = 0.0469 0.0632 0.0000 ( 28109 PWs)   bands (ev):

   -77.7367 -77.7039 -77.4444 -77.4114 -77.3960 -77.3629 -45.7819 -45.7674
   -45.7455 -45.5804 -45.5499 -45.4730 -45.4372 -45.4334 -45.3140 -45.2801
   -45.2503 -45.2477 -45.2168 -45.2166 -45.1763 -45.1424 -45.1306 -45.0968
    -5.5005  -4.1489  -3.9223  -3.8640  -3.8178  -3.5611  -3.3625  -3.2883
    -3.2569  -3.1178  -3.0396  -3.0219  -2.9171  -2.8939  -2.6407  -2.4899
    -2.4047  -2.3370  -2.3260  -2.2065  -2.1391  -2.0722  -2.0387  -2.0255
    -1.9107  -1.8320  -1.8069  -1.7822  -1.7689  -1.6982  -1.6770  -1.6322
    -1.5862  -1.5262  -1.4424  -1.3794  -1.3716  -1.3418  -1.3127  -1.2522
    -1.1771  -1.1690  -1.0967  -0.9871  -0.8583  -0.8458  -0.7961  -0.7709
    -0.6225  -0.4533  -0.3984  -0.3395  -0.1868  -0.1519   0.2671   0.3385
     0.4017   0.4622   0.5397   0.5829   0.6610   0.8205   0.8268   1.1524
     1.4315   1.8045   1.8832   3.4044   3.9786   4.0449   4.4219   5.0913
     5.7788   5.8296   6.2641   6.4201   6.5738

          k = 0.0469-0.1344 0.0000 ( 28123 PWs)   bands (ev):

   -77.7337 -77.7069 -77.4414 -77.4144 -77.3929 -77.3659 -45.7787 -45.7488
   -45.7373 -45.5504 -45.5198 -45.4699 -45.4645 -45.4404 -45.3110 -45.2831
   -45.2787 -45.2478 -45.2472 -45.2199 -45.1732 -45.1455 -45.1275 -45.1000
    -5.1433  -4.0685  -4.0426  -3.7098  -3.6217  -3.3990  -3.2257  -3.1718
    -3.1033  -3.0122  -2.9702  -2.9429  -2.7710  -2.6670  -2.6409  -2.5292
    -2.4681  -2.3965  -2.2858  -2.2801  -2.2135  -2.1608  -2.0939  -2.0795
    -1.8924  -1.8632  -1.8530  -1.8370  -1.8176  -1.7330  -1.7080  -1.6894
    -1.6703  -1.5974  -1.5139  -1.5019  -1.4768  -1.4461  -1.4353  -1.3749
    -1.2903  -1.2697  -1.1328  -0.9173  -0.8816  -0.8763  -0.8170  -0.7567
    -0.6593  -0.4501  -0.3865  -0.3148  -0.2579  -0.2292   0.1947   0.2571
     0.3474   0.3525   0.4496   0.4724   0.4877   0.6028   0.8042   1.1633
     1.2348   1.2732   2.1502   3.4504   3.6114   4.2988   5.1020   5.5486
     6.0853   6.1460   6.2282   6.3009   6.6928

          k = 0.0469-0.1164 0.0000 ( 28151 PWs)   bands (ev):

   -77.7298 -77.7109 -77.4374 -77.4184 -77.3890 -77.3699 -45.7744 -45.7531
   -45.6978 -45.5111 -45.5049 -45.4805 -45.4658 -45.4445 -45.3190 -45.3069
   -45.2880 -45.2872 -45.2432 -45.2238 -45.1692 -45.1496 -45.1235 -45.1040
    -4.7583  -4.3644  -4.0160  -3.5895  -3.4238  -3.2950  -3.1978  -3.0010
    -2.9828  -2.9356  -2.9126  -2.8575  -2.7274  -2.6607  -2.5757  -2.5573
    -2.5195  -2.3858  -2.3386  -2.3354  -2.1568  -2.1003  -2.0895  -2.0277
    -2.0106  -1.9667  -1.9438  -1.9153  -1.9111  -1.8641  -1.7700  -1.7276
    -1.6594  -1.6169  -1.5969  -1.5801  -1.5656  -1.4961  -1.4642  -1.4285
    -1.3272  -1.2652  -0.9922  -0.8990  -0.8756  -0.7959  -0.7651  -0.6505
    -0.5909  -0.4611  -0.3805  -0.2734  -0.2351  -0.1619   0.0602   0.1166
     0.1174   0.2152   0.2935   0.3875   0.4469   0.5513   0.7560   0.7961
     0.9080   1.2902   2.5567   2.8967   3.6689   4.8572   5.2814   5.4817
     6.1632   6.1916   6.6393   6.6570   7.1170

          k = 0.0469-0.0985 0.0000 ( 28142 PWs)   bands (ev):

   -77.7253 -77.7154 -77.4329 -77.4230 -77.3844 -77.3745 -45.7694 -45.7580
   -45.6517 -45.5517 -45.4651 -45.4609 -45.4492 -45.4344 -45.3656 -45.3347
   -45.3022 -45.2918 -45.2386 -45.2285 -45.1644 -45.1543 -45.1187 -45.1087
    -4.7658  -4.4165  -3.9675  -3.5941  -3.4196  -3.3261  -3.2430  -3.0885
    -3.0007  -2.8973  -2.8077  -2.7697  -2.6951  -2.6770  -2.5776  -2.5635
    -2.4952  -2.4615  -2.3494  -2.2878  -2.1451  -2.1161  -2.0792  -2.0690
    -2.0377  -2.0085  -1.9660  -1.9199  -1.8363  -1.8036  -1.7407  -1.7333
    -1.6742  -1.6324  -1.5955  -1.5329  -1.4896  -1.4743  -1.4625  -1.3584
    -1.3422  -1.1105  -0.8884  -0.8436  -0.8079  -0.7478  -0.7096  -0.6114
    -0.5104  -0.4214  -0.3717  -0.2688  -0.2233  -0.1910  -0.1274  -0.0720
     0.0324   0.1720   0.2612   0.3206   0.4249   0.4528   0.5707   0.7495
     0.8192   1.3400   2.4212   3.0111   3.7140   4.6552   5.4637   5.5053
     6.1612   6.3826   6.5643   6.8847   7.1628

          k = 0.0469-0.0805 0.0000 ( 28160 PWs)   bands (ev):

   -77.7212 -77.7195 -77.4284 -77.4274 -77.3800 -77.3789 -45.7645 -45.7628
   -45.6026 -45.6010 -45.4560 -45.4541 -45.4159 -45.4150 -45.3852 -45.3842
   -45.2975 -45.2964 -45.2340 -45.2329 -45.1599 -45.1589 -45.1142 -45.1132
    -5.1687  -4.2358  -3.8594  -3.7769  -3.5708  -3.5419  -3.2301  -3.2105
    -3.1118  -2.9048  -2.8993  -2.8118  -2.7739  -2.7147  -2.5870  -2.4927
    -2.4640  -2.3886  -2.3509  -2.2600  -2.1498  -2.1461  -2.1372  -2.0957
    -1.8924  -1.8896  -1.8816  -1.8373  -1.8059  -1.7642  -1.7463  -1.7098
    -1.7041  -1.6204  -1.4654  -1.4518  -1.4427  -1.3183  -1.2851  -1.2183
    -1.0960  -0.8778  -0.8556  -0.7385  -0.7255  -0.6852  -0.6635  -0.6198
    -0.6064  -0.5586  -0.5291  -0.4380  -0.2045  -0.2006  -0.0550  -0.0096
     0.0410   0.2049   0.2342   0.3136   0.4438   0.5167   0.5677   0.6828
     0.9971   1.4656   2.0219   3.4510   3.8456   4.0466   5.2154   5.6872
     6.1492   6.1561   6.2860   6.3401   6.6599

          k = 0.0469-0.0625 0.0000 ( 28122 PWs)   bands (ev):

   -77.7253 -77.7154 -77.4329 -77.4230 -77.3844 -77.3745 -45.7689 -45.7583
   -45.6514 -45.5518 -45.4650 -45.4598 -45.4501 -45.4343 -45.3657 -45.3348
   -45.3018 -45.2920 -45.2384 -45.2284 -45.1645 -45.1542 -45.1188 -45.1086
    -5.5263  -4.2088  -4.0278  -3.7623  -3.7557  -3.7205  -3.3353  -3.2455
    -3.2107  -3.0814  -3.0291  -2.9469  -2.8929  -2.7152  -2.6908  -2.4127
    -2.4098  -2.3733  -2.3664  -2.2514  -2.1106  -2.0780  -2.0685  -2.0125
    -1.9214  -1.8234  -1.8092  -1.7860  -1.7627  -1.7167  -1.6694  -1.6469
    -1.5776  -1.5420  -1.5081  -1.4320  -1.3588  -1.2200  -1.0136  -1.0067
    -0.9792  -0.9175  -0.9088  -0.7071  -0.6846  -0.6413  -0.6180  -0.5775
    -0.5634  -0.5137  -0.3923  -0.3261  -0.1582  -0.0819  -0.0003   0.0534
     0.0832   0.2439   0.2740   0.3497   0.4411   0.4759   0.6619   0.9523
     1.1937   1.6959   1.8715   3.5077   3.6698   4.2802   4.3529   5.1687
     5.7966   5.8719   6.2478   6.3542   6.5388

          k = 0.0469-0.0446 0.0000 ( 28101 PWs)   bands (ev):

   -77.7299 -77.7108 -77.4374 -77.4184 -77.3890 -77.3699 -45.7739 -45.7533
   -45.6976 -45.5109 -45.5050 -45.4803 -45.4646 -45.4452 -45.3190 -45.3065
   -45.2880 -45.2872 -45.2430 -45.2237 -45.1692 -45.1495 -45.1235 -45.1039
    -5.8111  -4.2570  -4.2174  -3.9451  -3.9144  -3.6354  -3.4561  -3.2905
    -3.2635  -3.2593  -3.1401  -3.1142  -3.0371  -2.8151  -2.7686  -2.4399
    -2.4387  -2.3572  -2.2705  -2.1682  -2.0604  -2.0246  -1.9877  -1.9760
    -1.9550  -1.8509  -1.7863  -1.7502  -1.7099  -1.6505  -1.5983  -1.5674
    -1.5126  -1.4618  -1.3731  -1.3099  -1.2987  -1.2674  -1.2249  -1.0443
    -1.0410  -0.8779  -0.8212  -0.6505  -0.6248  -0.5692  -0.4810  -0.4329
    -0.3951  -0.2635  -0.2132  -0.1701  -0.1225   0.0397   0.0419   0.1613
     0.2353   0.3514   0.4279   0.4483   0.4761   0.5065   0.6664   1.2321
     1.4432   1.6395   2.5374   3.0540   3.4256   3.8045   4.3303   4.8368
     5.5510   5.5577   5.9621   6.2644   6.5780

          k = 0.0625-0.0355 0.0000 ( 28108 PWs)   bands (ev):

   -77.7299 -77.7108 -77.4374 -77.4184 -77.3890 -77.3699 -45.7740 -45.7532
   -45.6976 -45.5110 -45.5050 -45.4803 -45.4649 -45.4450 -45.3190 -45.3066
   -45.2880 -45.2872 -45.2431 -45.2237 -45.1692 -45.1495 -45.1235 -45.1039
    -5.6638  -4.2612  -4.1414  -3.8686  -3.8682  -3.5550  -3.4264  -3.2451
    -3.2154  -3.2051  -3.1108  -3.0822  -2.9729  -2.7614  -2.6850  -2.4489
    -2.4264  -2.3400  -2.3274  -2.2153  -2.0849  -2.0288  -2.0007  -1.9850
    -1.9046  -1.8812  -1.8016  -1.7394  -1.7031  -1.6806  -1.6110  -1.5744
    -1.5196  -1.4367  -1.4167  -1.3655  -1.3505  -1.3345  -1.2479  -1.1762
    -1.0310  -0.9503  -0.9343  -0.7337  -0.7036  -0.5864  -0.5482  -0.4980
    -0.4950  -0.3802  -0.2680  -0.2401  -0.1616  -0.1108  -0.0103   0.0118
     0.1697   0.1988   0.4285   0.4551   0.4719   0.6078   0.6615   1.0168
     1.5987   2.4480   2.5809   3.2866   3.3424   3.5425   3.5705   5.4740
     5.5076   5.7017   6.1339   6.1487   6.4108

          k = 0.0625-0.0175 0.0000 ( 28069 PWs)   bands (ev):

   -77.7337 -77.7069 -77.4414 -77.4144 -77.3929 -77.3659 -45.7784 -45.7488
   -45.7371 -45.5503 -45.5197 -45.4692 -45.4645 -45.4407 -45.3107 -45.2831
   -45.2787 -45.2477 -45.2470 -45.2197 -45.1732 -45.1455 -45.1275 -45.0999
    -5.8018  -4.2532  -4.1671  -3.9528  -3.9411  -3.5418  -3.4948  -3.3454
    -3.2582  -3.2564  -3.1908  -3.1401  -3.0430  -2.9022  -2.7061  -2.5019
    -2.3997  -2.3431  -2.2754  -2.1455  -2.0496  -2.0231  -1.9764  -1.9744
    -1.9257  -1.8893  -1.7721  -1.7341  -1.7056  -1.6462  -1.6435  -1.5676
    -1.5178  -1.4657  -1.4046  -1.3539  -1.2817  -1.2633  -1.2092  -1.1823
    -1.0761  -0.9740  -0.8795  -0.7613  -0.6805  -0.6297  -0.5593  -0.5291
    -0.4519  -0.3502  -0.3179  -0.1418  -0.1339  -0.0450   0.0795   0.2967
     0.3687   0.3936   0.4134   0.5827   0.6180   0.6739   1.0596   1.3168
     1.4456   1.8044   2.6662   3.1276   3.2626   3.7066   4.2182   4.8647
     5.4606   5.5692   5.9571   6.2741   6.5257

          k = 0.0625 0.0005 0.0000 ( 28069 PWs)   bands (ev):

   -77.7367 -77.7039 -77.4444 -77.4114 -77.3960 -77.3629 -45.7817 -45.7673
   -45.7455 -45.5804 -45.5499 -45.4726 -45.4374 -45.4334 -45.3138 -45.2800
   -45.2502 -45.2477 -45.2167 -45.2166 -45.1763 -45.1424 -45.1306 -45.0968
    -5.8451  -4.2978  -4.0746  -3.9945  -3.9478  -3.6605  -3.4457  -3.4122
    -3.3420  -3.2406  -3.1781  -3.1424  -3.0823  -3.0138  -2.6927  -2.5584
    -2.3606  -2.3395  -2.2655  -2.1007  -2.0418  -2.0391  -1.9731  -1.9652
    -1.9427  -1.8298  -1.7758  -1.7575  -1.7220  -1.6773  -1.6335  -1.6042
    -1.5027  -1.4904  -1.4448  -1.3346  -1.2468  -1.2226  -1.1936  -1.1172
    -1.1157  -0.9449  -0.9160  -0.8046  -0.7231  -0.6819  -0.6497  -0.5124
    -0.4406  -0.4290  -0.3271  -0.2574  -0.0488   0.0225   0.2683   0.3669
     0.4211   0.4531   0.6122   0.6392   0.7633   0.8912   1.1231   1.3227
     1.4025   1.8832   1.9383   3.0239   3.8355   4.1660   4.3251   4.6495
     5.1380   5.5251   5.8964   6.2292   6.9279

          k = 0.0625 0.0184 0.0000 ( 28089 PWs)   bands (ev):

   -77.7386 -77.7020 -77.4463 -77.4095 -77.3979 -77.3610 -45.7863 -45.7839
   -45.7434 -45.5992 -45.5688 -45.4748 -45.4353 -45.4138 -45.3159 -45.2781
   -45.2522 -45.2282 -45.2148 -45.1970 -45.1783 -45.1404 -45.1325 -45.0948
    -5.7917  -4.2831  -4.0210  -4.0198  -3.8631  -3.7134  -3.5105  -3.3556
    -3.3051  -3.2169  -3.1353  -3.1010  -3.0916  -3.0610  -2.6492  -2.5960
    -2.3310  -2.3204  -2.2947  -2.1259  -2.0502  -2.0248  -1.9681  -1.9444
    -1.9403  -1.8660  -1.7712  -1.7471  -1.7113  -1.6778  -1.6454  -1.6075
    -1.5518  -1.4954  -1.4757  -1.3027  -1.2833  -1.2604  -1.2184  -1.1448
    -1.0802  -1.0317  -0.9964  -0.8605  -0.7831  -0.7042  -0.6830  -0.5818
    -0.5331  -0.4194  -0.3920  -0.3329  -0.1221   0.1218   0.3697   0.3700
     0.4379   0.5759   0.6026   0.6300   0.6812   0.8769   1.0393   1.1970
     1.5527   1.6147   2.5210   3.0296   3.7170   3.9568   4.4056   4.7253
     5.5034   5.5679   5.9457   6.2744   6.6728

          k = 0.0625 0.0364 0.0000 ( 28070 PWs)   bands (ev):

   -77.7392 -77.7014 -77.4469 -77.4088 -77.3985 -77.3603 -45.7928 -45.7847
   -45.7427 -45.6057 -45.5752 -45.4757 -45.4345 -45.4071 -45.3166 -45.2775
   -45.2529 -45.2215 -45.2142 -45.1903 -45.1789 -45.1398 -45.1332 -45.0942
    -5.6436  -4.2583  -4.0059  -3.9604  -3.7471  -3.6666  -3.5019  -3.3266
    -3.2041  -3.2007  -3.0548  -3.0425  -3.0346  -3.0338  -2.6261  -2.5589
    -2.3633  -2.3230  -2.2824  -2.1798  -2.1025  -2.0212  -2.0157  -1.9427
    -1.9298  -1.8716  -1.7595  -1.7194  -1.6868  -1.6749  -1.6711  -1.6317
    -1.5609  -1.5600  -1.4459  -1.3710  -1.3181  -1.3014  -1.2876  -1.1511
    -1.1420  -1.1339  -1.1234  -0.8999  -0.8330  -0.8157  -0.7754  -0.6936
    -0.6225  -0.4969  -0.4384  -0.3547  -0.2196   0.0959   0.3016   0.3453
     0.4377   0.4409   0.5794   0.6724   0.7037   0.7074   0.9431   1.2694
     1.5598   1.6920   2.9010   3.0983   3.6257   3.8204   4.1387   5.3306
     5.4645   5.6945   6.1017   6.2535   6.4331

          k = 0.0625 0.0544 0.0000 ( 28109 PWs)   bands (ev):

   -77.7386 -77.7020 -77.4463 -77.4095 -77.3979 -77.3610 -45.7864 -45.7841
   -45.7434 -45.5993 -45.5688 -45.4752 -45.4351 -45.4138 -45.3160 -45.2781
   -45.2523 -45.2282 -45.2149 -45.1970 -45.1783 -45.1405 -45.1325 -45.0949
    -5.4080  -4.2804  -3.8718  -3.8718  -3.6694  -3.5627  -3.4016  -3.2589
    -3.2074  -3.1149  -2.9808  -2.9610  -2.9393  -2.8968  -2.6067  -2.4966
    -2.4438  -2.3057  -2.2877  -2.2538  -2.1856  -2.1279  -2.0276  -1.9919
    -1.8859  -1.8266  -1.8095  -1.7419  -1.7200  -1.7160  -1.6533  -1.6481
    -1.5867  -1.5464  -1.4602  -1.4469  -1.4235  -1.3378  -1.3115  -1.3027
    -1.2565  -1.1721  -1.1021  -1.0617  -0.9371  -0.9078  -0.9004  -0.8806
    -0.6610  -0.4784  -0.4529  -0.3641  -0.2640  -0.1423   0.2801   0.3166
     0.3836   0.4362   0.5460   0.6188   0.6207   0.7386   0.9039   1.0960
     1.6330   1.7654   2.5143   3.1476   3.9614   3.9697   4.5941   4.7608
     5.8459   6.0062   6.1308   6.3723   6.6584

          k = 0.0625-0.1433 0.0000 ( 28119 PWs)   bands (ev):

   -77.7367 -77.7039 -77.4444 -77.4114 -77.3960 -77.3629 -45.7820 -45.7675
   -45.7454 -45.5805 -45.5500 -45.4732 -45.4371 -45.4334 -45.3141 -45.2801
   -45.2504 -45.2477 -45.2168 -45.2166 -45.1763 -45.1424 -45.1306 -45.0969
    -5.1008  -4.3109  -3.7782  -3.7140  -3.6597  -3.4334  -3.2381  -3.1724
    -3.1439  -3.0265  -2.9204  -2.8827  -2.7833  -2.7780  -2.5786  -2.5351
    -2.4962  -2.3637  -2.3356  -2.3089  -2.2176  -2.1450  -2.0717  -2.0433
    -1.8852  -1.8726  -1.8357  -1.8316  -1.7659  -1.7539  -1.6853  -1.6798
    -1.6378  -1.6283  -1.5463  -1.5246  -1.4869  -1.4598  -1.4413  -1.3517
    -1.2824  -1.2760  -1.1672  -1.0368  -0.9586  -0.9302  -0.9043  -0.9030
    -0.6788  -0.4456  -0.4349  -0.3516  -0.2886  -0.2650   0.2337   0.2811
     0.3730   0.4268   0.4966   0.5185   0.5313   0.7795   0.7998   0.8332
     1.4488   1.8940   2.0741   3.1731   4.0185   4.3485   4.5952   5.4183
     5.6884   6.2448   6.5840   6.7427   6.7571

          k = 0.0625-0.1253 0.0000 ( 28135 PWs)   bands (ev):

   -77.7337 -77.7069 -77.4414 -77.4144 -77.3929 -77.3659 -45.7787 -45.7487
   -45.7373 -45.5504 -45.5199 -45.4701 -45.4645 -45.4403 -45.3110 -45.2832
   -45.2787 -45.2478 -45.2472 -45.2199 -45.1732 -45.1455 -45.1275 -45.1000
    -4.7568  -4.3171  -4.0036  -3.6230  -3.4401  -3.3148  -3.0876  -3.0799
    -2.9775  -2.9609  -2.8830  -2.8531  -2.7543  -2.7061  -2.5650  -2.5299
    -2.5013  -2.4646  -2.3739  -2.3336  -2.1491  -2.1354  -2.0575  -2.0380
    -1.9939  -1.9819  -1.9415  -1.9253  -1.9141  -1.8883  -1.7551  -1.7236
    -1.6798  -1.6418  -1.6055  -1.5648  -1.5341  -1.5165  -1.5037  -1.4653
    -1.3173  -1.3007  -1.0510  -0.9669  -0.9275  -0.8865  -0.8488  -0.7529
    -0.6765  -0.4406  -0.4174  -0.3153  -0.2755  -0.1902   0.2092   0.2165
     0.3147   0.3715   0.3750   0.4385   0.4696   0.5165   0.6790   0.9055
     1.1780   1.2829   2.4345   3.2215   3.4029   4.8590   5.3406   5.5605
     5.9300   6.3493   6.6336   6.7293   7.1368

          k = 0.0625-0.1073 0.0000 ( 28144 PWs)   bands (ev):

   -77.7298 -77.7109 -77.4374 -77.4184 -77.3890 -77.3699 -45.7744 -45.7530
   -45.6979 -45.5111 -45.5049 -45.4805 -45.4658 -45.4444 -45.3190 -45.3070
   -45.2880 -45.2872 -45.2433 -45.2239 -45.1691 -45.1496 -45.1235 -45.1040
    -4.4888  -4.3715  -4.2247  -3.5430  -3.3105  -3.2841  -3.1322  -2.9725
    -2.9445  -2.9268  -2.8214  -2.8038  -2.7585  -2.7303  -2.6103  -2.5558
    -2.5178  -2.3257  -2.3056  -2.2871  -2.1783  -2.1621  -2.1516  -2.0495
    -2.0459  -2.0288  -2.0013  -1.9744  -1.9451  -1.9322  -1.7496  -1.7252
    -1.6875  -1.6741  -1.6071  -1.5653  -1.5401  -1.5280  -1.4974  -1.4853
    -1.3439  -1.2546  -0.9320  -0.9130  -0.8682  -0.8252  -0.7783  -0.6519
    -0.5493  -0.4760  -0.3914  -0.2684  -0.1639  -0.0947   0.0504   0.1198
     0.2038   0.2186   0.2353   0.3114   0.4387   0.5572   0.6254   0.7616
     0.9107   1.0428   2.7859   2.8642   3.3589   5.2713   5.3840   5.5859
     6.2311   6.4986   6.6720   7.0909   7.2117

          k = 0.0625-0.0894 0.0000 ( 28142 PWs)   bands (ev):

   -77.7253 -77.7154 -77.4329 -77.4230 -77.3844 -77.3745 -45.7694 -45.7580
   -45.6517 -45.5517 -45.4651 -45.4609 -45.4492 -45.4344 -45.3656 -45.3347
   -45.3022 -45.2918 -45.2386 -45.2285 -45.1644 -45.1543 -45.1187 -45.1087
    -4.7658  -4.4165  -3.9675  -3.5941  -3.4196  -3.3261  -3.2430  -3.0885
    -3.0007  -2.8973  -2.8077  -2.7697  -2.6951  -2.6770  -2.5776  -2.5635
    -2.4952  -2.4615  -2.3494  -2.2878  -2.1451  -2.1161  -2.0792  -2.0690
    -2.0377  -2.0085  -1.9660  -1.9199  -1.8363  -1.8036  -1.7407  -1.7333
    -1.6742  -1.6324  -1.5955  -1.5329  -1.4896  -1.4743  -1.4625  -1.3584
    -1.3422  -1.1105  -0.8884  -0.8436  -0.8079  -0.7478  -0.7096  -0.6114
    -0.5104  -0.4214  -0.3717  -0.2688  -0.2233  -0.1910  -0.1274  -0.0720
     0.0324   0.1720   0.2612   0.3206   0.4249   0.4528   0.5707   0.7495
     0.8192   1.3400   2.4212   3.0111   3.7140   4.6552   5.4637   5.5053
     6.1612   6.3826   6.5643   6.8847   7.1628

          k = 0.0625-0.0714 0.0000 ( 28122 PWs)   bands (ev):

   -77.7212 -77.7195 -77.4284 -77.4274 -77.3800 -77.3789 -45.7645 -45.7628
   -45.6026 -45.6010 -45.4559 -45.4541 -45.4159 -45.4150 -45.3852 -45.3842
   -45.2975 -45.2964 -45.2340 -45.2329 -45.1599 -45.1589 -45.1142 -45.1132
    -5.1314  -4.3828  -3.7689  -3.7492  -3.5887  -3.5426  -3.2331  -3.2124
    -3.1007  -2.9161  -2.8889  -2.8298  -2.7450  -2.7244  -2.5936  -2.4830
    -2.4297  -2.3879  -2.3620  -2.2769  -2.1763  -2.1738  -2.0688  -2.0492
    -1.9041  -1.8887  -1.8533  -1.8105  -1.8046  -1.7617  -1.7355  -1.7245
    -1.6853  -1.5841  -1.4891  -1.4651  -1.4304  -1.3233  -1.2925  -1.2411
    -1.1182  -0.9398  -0.8702  -0.7385  -0.7214  -0.7085  -0.6377  -0.6313
    -0.6109  -0.5205  -0.5198  -0.4463  -0.2859  -0.2212  -0.1220  -0.0511
     0.0040   0.1201   0.2406   0.3019   0.3448   0.4549   0.6846   0.7383
     1.1635   1.8734   2.0685   3.1424   4.1098   4.2677   4.4403   5.4782
     5.6297   6.2121   6.6021   6.7796   6.8617

          k = 0.0625-0.0534 0.0000 ( 28116 PWs)   bands (ev):

   -77.7253 -77.7154 -77.4329 -77.4230 -77.3844 -77.3745 -45.7690 -45.7583
   -45.6515 -45.5518 -45.4650 -45.4599 -45.4500 -45.4343 -45.3657 -45.3348
   -45.3019 -45.2919 -45.2384 -45.2284 -45.1645 -45.1542 -45.1188 -45.1086
    -5.4368  -4.3341  -3.9713  -3.7486  -3.7306  -3.6214  -3.3237  -3.2314
    -3.1789  -3.0536  -2.9964  -2.9604  -2.8657  -2.6876  -2.6375  -2.4164
    -2.4048  -2.3905  -2.3432  -2.2944  -2.1375  -2.1144  -2.0168  -2.0096
    -1.8797  -1.8425  -1.8210  -1.7589  -1.7514  -1.7167  -1.6798  -1.6320
    -1.5694  -1.5351  -1.4846  -1.4675  -1.3928  -1.2627  -1.1423  -1.0662
    -0.9906  -0.9528  -0.9465  -0.7593  -0.7439  -0.6458  -0.6389  -0.5467
    -0.5386  -0.4892  -0.4196  -0.4038  -0.2078  -0.1488  -0.0995  -0.0347
     0.0145   0.0827   0.2582   0.3290   0.4370   0.4522   0.6639   0.8680
     1.7238   1.7981   2.5717   3.2883   3.4451   3.6991   4.4864   4.9103
     5.8424   5.9138   6.1352   6.4469   6.6390

          k = 0.0781-0.0443 0.0000 ( 28102 PWs)   bands (ev):

   -77.7253 -77.7154 -77.4329 -77.4230 -77.3844 -77.3745 -45.7691 -45.7582
   -45.6515 -45.5518 -45.4650 -45.4602 -45.4498 -45.4343 -45.3656 -45.3348
   -45.3020 -45.2919 -45.2385 -45.2284 -45.1645 -45.1543 -45.1188 -45.1086
    -5.2627  -4.4857  -3.8680  -3.7279  -3.6771  -3.5206  -3.3048  -3.2002
    -3.1102  -3.0103  -2.9685  -2.9410  -2.8059  -2.6551  -2.6035  -2.4720
    -2.3618  -2.3580  -2.3453  -2.3233  -2.1897  -2.1813  -2.0138  -1.9653
    -1.8751  -1.8129  -1.8079  -1.7723  -1.7621  -1.6896  -1.6683  -1.6278
    -1.6127  -1.5341  -1.4985  -1.4558  -1.4217  -1.3338  -1.3012  -1.2036
    -1.0720  -1.0317  -0.9532  -0.8916  -0.7493  -0.7277  -0.6670  -0.5806
    -0.5275  -0.5257  -0.4165  -0.4095  -0.2863  -0.2440  -0.2263  -0.1647
     0.0149   0.0602   0.3020   0.3131   0.4551   0.5053   0.6510   0.7826
     1.9851   2.5166   2.5909   2.8750   3.5511   3.5879   3.9951   5.3971
     5.6693   5.6818   6.0973   6.5962   6.8316

          k = 0.0781-0.0264 0.0000 ( 28093 PWs)   bands (ev):

   -77.7298 -77.7108 -77.4374 -77.4184 -77.3890 -77.3699 -45.7741 -45.7532
   -45.6977 -45.5110 -45.5049 -45.4804 -45.4652 -45.4448 -45.3190 -45.3067
[...]
    -1.9107  -1.8320  -1.8069  -1.7822  -1.7689  -1.6982  -1.6770  -1.6322
    -1.5862  -1.5262  -1.4424  -1.3794  -1.3716  -1.3418  -1.3127  -1.2522
    -1.1771  -1.1690  -1.0967  -0.9871  -0.8583  -0.8458  -0.7961  -0.7709
    -0.6225  -0.4533  -0.3984  -0.3395  -0.1868  -0.1519   0.2671   0.3385
     0.4017   0.4622   0.5397   0.5829   0.6610   0.8205   0.8268   1.1524
     1.4315   1.8045   1.8832   3.4044   3.9786   4.0449   4.4219   5.0913
     5.7788   5.8296   6.2640   6.4201   6.5738

          k = 0.0781 0.0276 0.0000 ( 28109 PWs)   bands (ev):

   -77.7386 -77.7020 -77.4463 -77.4095 -77.3979 -77.3610 -45.7864 -45.7841
   -45.7434 -45.5993 -45.5688 -45.4752 -45.4351 -45.4138 -45.3160 -45.2781
   -45.2523 -45.2282 -45.2149 -45.1970 -45.1783 -45.1405 -45.1325 -45.0949
    -5.4080  -4.2804  -3.8718  -3.8718  -3.6694  -3.5627  -3.4016  -3.2589
    -3.2074  -3.1149  -2.9808  -2.9610  -2.9393  -2.8968  -2.6067  -2.4966
    -2.4438  -2.3057  -2.2877  -2.2538  -2.1856  -2.1279  -2.0276  -1.9919
    -1.8859  -1.8266  -1.8095  -1.7419  -1.7200  -1.7160  -1.6533  -1.6481
    -1.5867  -1.5464  -1.4602  -1.4469  -1.4235  -1.3378  -1.3115  -1.3027
    -1.2565  -1.1721  -1.1021  -1.0617  -0.9371  -0.9078  -0.9004  -0.8806
    -0.6610  -0.4784  -0.4529  -0.3641  -0.2640  -0.1423   0.2801   0.3166
     0.3836   0.4362   0.5460   0.6188   0.6207   0.7386   0.9039   1.0960
     1.6330   1.7654   2.5143   3.1476   3.9614   3.9697   4.5941   4.7608
     5.8459   6.0062   6.1308   6.3723   6.6585

          k = 0.0781 0.0455 0.0000 ( 28096 PWs)   bands (ev):

   -77.7392 -77.7014 -77.4469 -77.4088 -77.3985 -77.3603 -45.7929 -45.7849
   -45.7426 -45.6057 -45.5753 -45.4760 -45.4344 -45.4071 -45.3168 -45.2775
   -45.2530 -45.2215 -45.2143 -45.1904 -45.1789 -45.1398 -45.1332 -45.0943
    -5.2341  -4.4340  -3.8346  -3.8091  -3.5374  -3.5325  -3.3590  -3.2186
    -3.1595  -3.1152  -2.9328  -2.9233  -2.8577  -2.8475  -2.5470  -2.4966
    -2.4954  -2.3353  -2.2800  -2.2582  -2.2459  -2.2169  -2.0262  -1.9512
    -1.8528  -1.8302  -1.7974  -1.7179  -1.7062  -1.7046  -1.6901  -1.6159
    -1.5958  -1.5596  -1.5312  -1.5070  -1.4564  -1.3726  -1.3599  -1.3048
    -1.3013  -1.2212  -1.1245  -1.1190  -1.1028  -1.0329  -0.9967  -0.9312
    -0.6802  -0.5063  -0.4512  -0.3785  -0.3264  -0.2352   0.2043   0.2920
     0.3403   0.4492   0.5368   0.5514   0.6236   0.7071   0.9365   1.1768
     1.7042   1.8443   2.8665   2.9514   3.8349   4.1687   4.2682   5.3556
     5.5182   5.7249   6.1124   6.5814   6.8453

          k = 0.0781-0.1521 0.0000 ( 28123 PWs)   bands (ev):

   -77.7386 -77.7020 -77.4463 -77.4095 -77.3979 -77.3610 -45.7864 -45.7842
   -45.7433 -45.5993 -45.5689 -45.4754 -45.4351 -45.4138 -45.3161 -45.2782
   -45.2523 -45.2282 -45.2149 -45.1971 -45.1783 -45.1405 -45.1325 -45.0949
    -4.9924  -4.5628  -3.7753  -3.6962  -3.5111  -3.4788  -3.2728  -3.1628
    -3.1300  -3.0674  -2.8906  -2.8670  -2.8082  -2.7388  -2.5569  -2.5292
    -2.4656  -2.4275  -2.3652  -2.2987  -2.2613  -2.1602  -2.0201  -1.9641
    -1.8572  -1.8558  -1.7945  -1.7642  -1.7600  -1.7094  -1.7086  -1.6781
    -1.6243  -1.5982  -1.5697  -1.5602  -1.4916  -1.4565  -1.4070  -1.3229
    -1.3022  -1.2937  -1.2011  -1.1533  -1.0865  -1.0512  -1.0139  -0.9439
    -0.6877  -0.4911  -0.4284  -0.3760  -0.3576  -0.3220   0.2031   0.2737
     0.2853   0.4516   0.5135   0.5767   0.5836   0.6593   0.8940   1.0537
     1.6418   2.0286   2.5125   2.8808   4.0655   4.4978   4.7018   4.7705
     5.2339   6.3677   6.4318   6.8479   6.9409

          k = 0.0781-0.1342 0.0000 ( 28140 PWs)   bands (ev):

   -77.7367 -77.7039 -77.4444 -77.4114 -77.3960 -77.3629 -45.7821 -45.7675
   -45.7454 -45.5805 -45.5500 -45.4733 -45.4371 -45.4334 -45.3142 -45.2801
   -45.2504 -45.2477 -45.2168 -45.2166 -45.1763 -45.1424 -45.1306 -45.0969
    -4.7623  -4.5867  -3.7050  -3.6833  -3.5601  -3.3851  -3.1790  -3.1038
    -3.0302  -3.0213  -2.8546  -2.8089  -2.7892  -2.7072  -2.6060  -2.5423
    -2.4774  -2.4619  -2.3817  -2.3578  -2.2122  -2.0864  -2.0207  -1.9898
    -1.9660  -1.9181  -1.8912  -1.8656  -1.8096  -1.7833  -1.7620  -1.7373
    -1.6564  -1.6459  -1.5850  -1.5781  -1.5141  -1.4770  -1.4659  -1.4626
    -1.3153  -1.2943  -1.1411  -1.0640  -0.9779  -0.9646  -0.9340  -0.9321
    -0.6878  -0.4582  -0.4263  -0.3538  -0.3290  -0.2920   0.2225   0.2572
     0.2720   0.4452   0.4832   0.5034   0.5074   0.7000   0.7932   0.7936
     1.4545   1.8989   2.2539   2.9577   4.0080   4.6349   4.8460   5.1368
     5.5157   6.6773   6.6949   6.7351   7.2776

          k = 0.0781-0.1162 0.0000 ( 28135 PWs)   bands (ev):

   -77.7337 -77.7069 -77.4414 -77.4144 -77.3929 -77.3659 -45.7787 -45.7487
   -45.7373 -45.5504 -45.5199 -45.4701 -45.4645 -45.4403 -45.3110 -45.2832
   -45.2787 -45.2478 -45.2472 -45.2199 -45.1732 -45.1455 -45.1275 -45.1000
    -4.7568  -4.3171  -4.0036  -3.6230  -3.4401  -3.3148  -3.0876  -3.0799
    -2.9775  -2.9609  -2.8830  -2.8531  -2.7543  -2.7061  -2.5650  -2.5299
    -2.5013  -2.4646  -2.3739  -2.3336  -2.1491  -2.1354  -2.0575  -2.0380
    -1.9939  -1.9819  -1.9415  -1.9253  -1.9141  -1.8883  -1.7551  -1.7236
    -1.6798  -1.6418  -1.6055  -1.5648  -1.5341  -1.5165  -1.5037  -1.4653
    -1.3173  -1.3007  -1.0510  -0.9669  -0.9275  -0.8865  -0.8488  -0.7529
    -0.6765  -0.4406  -0.4174  -0.3153  -0.2755  -0.1902   0.2092   0.2165
     0.3147   0.3715   0.3750   0.4385   0.4696   0.5165   0.6790   0.9055
     1.1780   1.2829   2.4345   3.2215   3.4029   4.8590   5.3406   5.5605
     5.9299   6.3492   6.6336   6.7293   7.1373

          k = 0.0781-0.0982 0.0000 ( 28151 PWs)   bands (ev):

   -77.7298 -77.7109 -77.4374 -77.4184 -77.3890 -77.3699 -45.7744 -45.7531
   -45.6978 -45.5111 -45.5049 -45.4805 -45.4658 -45.4445 -45.3190 -45.3069
   -45.2880 -45.2872 -45.2432 -45.2238 -45.1692 -45.1496 -45.1235 -45.1040
    -4.7583  -4.3644  -4.0160  -3.5895  -3.4238  -3.2950  -3.1978  -3.0010
    -2.9828  -2.9356  -2.9126  -2.8575  -2.7274  -2.6607  -2.5757  -2.5573
    -2.5195  -2.3858  -2.3386  -2.3354  -2.1568  -2.1003  -2.0895  -2.0277
    -2.0106  -1.9667  -1.9438  -1.9153  -1.9111  -1.8641  -1.7700  -1.7276
    -1.6594  -1.6169  -1.5969  -1.5801  -1.5656  -1.4961  -1.4642  -1.4285
    -1.3272  -1.2652  -0.9922  -0.8990  -0.8756  -0.7959  -0.7651  -0.6505
    -0.5909  -0.4611  -0.3805  -0.2734  -0.2351  -0.1619   0.0602   0.1166
     0.1174   0.2152   0.2935   0.3875   0.4469   0.5513   0.7560   0.7961
     0.9080   1.2902   2.5567   2.8967   3.6689   4.8572   5.2814   5.4817
     6.1632   6.1916   6.6393   6.6570   7.1170

          k = 0.0781-0.0803 0.0000 ( 28135 PWs)   bands (ev):

   -77.7253 -77.7154 -77.4329 -77.4230 -77.3844 -77.3745 -45.7693 -45.7581
   -45.6517 -45.5517 -45.4651 -45.4607 -45.4494 -45.4344 -45.3656 -45.3347
   -45.3022 -45.2918 -45.2385 -45.2285 -45.1644 -45.1543 -45.1188 -45.1087
    -4.7156  -4.7154  -3.7816  -3.6361  -3.5191  -3.3711  -3.2646  -3.1147
    -3.0071  -2.9453  -2.8139  -2.8011  -2.7342  -2.7036  -2.5608  -2.5545
    -2.4603  -2.4582  -2.3178  -2.2764  -2.1985  -2.1351  -2.0266  -1.9899
    -1.9897  -1.9322  -1.9085  -1.8339  -1.7901  -1.7833  -1.7405  -1.7171
    -1.6232  -1.6184  -1.5715  -1.5488  -1.5045  -1.4590  -1.4019  -1.3335
    -1.3290  -1.1518  -0.9569  -0.8754  -0.7929  -0.7023  -0.6974  -0.6167
    -0.5072  -0.4640  -0.4209  -0.3122  -0.2793  -0.2086  -0.1898  -0.1635
     0.0089   0.0410   0.3116   0.3759   0.3976   0.4827   0.5919   0.7516
     1.2092   1.8668   2.5011   2.6740   4.2550   4.3953   4.8083   4.9395
     5.5463   6.6931   6.6978   6.8701   7.0554

          k = 0.0781-0.0623 0.0000 ( 28130 PWs)   bands (ev):

   -77.7212 -77.7195 -77.4284 -77.4274 -77.3800 -77.3789 -45.7645 -45.7628
   -45.6026 -45.6010 -45.4559 -45.4542 -45.4159 -45.4150 -45.3852 -45.3842
   -45.2975 -45.2964 -45.2340 -45.2329 -45.1599 -45.1589 -45.1142 -45.1132
    -5.0217  -4.6242  -3.7442  -3.6625  -3.5936  -3.5441  -3.2330  -3.2173
    -3.0649  -2.9521  -2.8663  -2.8445  -2.7202  -2.7033  -2.6014  -2.5290
    -2.3839  -2.3834  -2.3051  -2.2820  -2.2220  -2.2186  -2.0262  -1.9619
    -1.8867  -1.8620  -1.8201  -1.8019  -1.7628  -1.7508  -1.7314  -1.6837
    -1.6413  -1.5540  -1.4962  -1.4905  -1.4457  -1.3344  -1.3244  -1.2589
    -1.1976  -1.0459  -0.8802  -0.8113  -0.6957  -0.6935  -0.6533  -0.6228
    -0.6051  -0.5050  -0.4807  -0.4570  -0.4403  -0.3149  -0.2551  -0.2028
     0.0158   0.0293   0.2400   0.2738   0.4435   0.4750   0.6819   0.6852
     1.7919   2.2035   2.5135   2.8927   3.4511   4.3460   4.5435   4.9433
     5.1177   6.3518   6.4781   6.8801   6.9422

          k =-0.0938 0.0532 0.0000 ( 28122 PWs)   bands (ev):

   -77.7212 -77.7195 -77.4284 -77.4274 -77.3800 -77.3789 -45.7645 -45.7628
   -45.6026 -45.6010 -45.4558 -45.4542 -45.4159 -45.4150 -45.3852 -45.3842
   -45.2975 -45.2964 -45.2340 -45.2329 -45.1599 -45.1589 -45.1142 -45.1132
    -4.8476  -4.8475  -3.7037  -3.7035  -3.5534  -3.5530  -3.2253  -3.2249
    -3.0080  -3.0077  -2.8497  -2.8495  -2.6995  -2.6993  -2.5822  -2.5822
    -2.3699  -2.3699  -2.2731  -2.2730  -2.2466  -2.2465  -1.9867  -1.9866
    -1.8427  -1.8426  -1.7971  -1.7970  -1.7499  -1.7498  -1.6841  -1.6841
    -1.5792  -1.5791  -1.4924  -1.4921  -1.4231  -1.4230  -1.2946  -1.2942
    -1.1710  -1.1710  -0.8616  -0.8615  -0.6768  -0.6766  -0.6602  -0.6600
    -0.5471  -0.5470  -0.4994  -0.4991  -0.4159  -0.4152  -0.2829  -0.2824
     0.0368   0.0369   0.2475   0.2481   0.4813   0.4819   0.6774   0.6780
     2.4110   2.4110   2.5683   2.5684   3.5877   3.5880   4.6811   4.6812
     5.7243   5.7244   6.5758   6.5759   7.1561

          k =-0.0938 0.0712 0.0000 ( 28109 PWs)   bands (ev):

   -77.7253 -77.7154 -77.4329 -77.4230 -77.3844 -77.3745 -45.7692 -45.7581
   -45.6516 -45.5518 -45.4651 -45.4605 -45.4496 -45.4344 -45.3656 -45.3347
   -45.3021 -45.2918 -45.2385 -45.2284 -45.1645 -45.1543 -45.1188 -45.1087
    -5.0153  -4.6189  -3.7564  -3.6885  -3.6191  -3.4396  -3.2858  -3.1570
    -3.0221  -3.0094  -2.9058  -2.8722  -2.7336  -2.6620  -2.6110  -2.5322
    -2.3869  -2.3770  -2.3096  -2.2843  -2.2240  -2.2222  -2.0045  -1.9786
    -1.9186  -1.8089  -1.7989  -1.7767  -1.7697  -1.7259  -1.6874  -1.6834
    -1.6438  -1.5612  -1.5092  -1.5084  -1.4845  -1.4132  -1.3500  -1.2677
    -1.2189  -1.2009  -1.0314  -0.8303  -0.7997  -0.7161  -0.6418  -0.6289
    -0.6040  -0.4977  -0.4124  -0.3676  -0.3429  -0.2506  -0.2249  -0.1814
    -0.0024   0.0526   0.3142   0.3551   0.4371   0.5108   0.6154   0.7577
     1.8312   2.2012   2.6583   2.7696   3.4168   4.4101   4.5105   4.9612
     5.0491   6.3606   6.4733   6.8760   6.8984

          k =-0.0938 0.0891 0.0000 ( 28129 PWs)   bands (ev):

   -77.7298 -77.7109 -77.4374 -77.4184 -77.3890 -77.3699 -45.7743 -45.7531
   -45.6978 -45.5111 -45.5049 -45.4804 -45.4655 -45.4446 -45.3190 -45.3068
   -45.2880 -45.2872 -45.2432 -45.2238 -45.1692 -45.1496 -45.1235 -45.1040
    -5.1149  -4.3429  -3.8805  -3.6897  -3.6198  -3.3455  -3.3207  -3.0848
    -3.0697  -3.0211  -3.0087  -2.9159  -2.7553  -2.6457  -2.6213  -2.5042
    -2.4233  -2.3874  -2.3521  -2.2821  -2.2119  -2.1648  -2.0485  -2.0317
    -1.9242  -1.8380  -1.8371  -1.7912  -1.7891  -1.7280  -1.7070  -1.6970
    -1.6402  -1.6278  -1.5399  -1.5102  -1.4693  -1.4089  -1.3839  -1.3342
    -1.2788  -1.2490  -1.1229  -0.8494  -0.8469  -0.7891  -0.7191  -0.6691
    -0.6286  -0.4727  -0.3547  -0.2996  -0.2719  -0.2209   0.0521   0.0537
     0.1290   0.2041   0.3731   0.4354   0.4661   0.5707   0.7361   0.9074
     1.2273   1.7989   2.2937   2.9959   4.1189   4.3517   4.4121   5.3978
     5.5257   6.2284   6.3901   6.7417   6.8851

          k =-0.0938 0.1071 0.0000 ( 28123 PWs)   bands (ev):

   -77.7337 -77.7069 -77.4414 -77.4144 -77.3929 -77.3659 -45.7787 -45.7488
   -45.7373 -45.5504 -45.5198 -45.4699 -45.4645 -45.4404 -45.3110 -45.2831
   -45.2787 -45.2478 -45.2472 -45.2199 -45.1732 -45.1455 -45.1275 -45.1000
    -5.1433  -4.0685  -4.0426  -3.7098  -3.6217  -3.3990  -3.2257  -3.1718
    -3.1033  -3.0122  -2.9702  -2.9429  -2.7710  -2.6670  -2.6409  -2.5292
    -2.4681  -2.3965  -2.2858  -2.2801  -2.2135  -2.1608  -2.0939  -2.0795
    -1.8924  -1.8632  -1.8530  -1.8370  -1.8175  -1.7330  -1.7080  -1.6894
    -1.6703  -1.5974  -1.5139  -1.5019  -1.4768  -1.4461  -1.4353  -1.3749
    -1.2903  -1.2697  -1.1328  -0.9173  -0.8816  -0.8763  -0.8170  -0.7567
    -0.6593  -0.4501  -0.3865  -0.3148  -0.2579  -0.2292   0.1947   0.2571
     0.3474   0.3525   0.4496   0.4724   0.4877   0.6028   0.8042   1.1633
     1.2348   1.2732   2.1502   3.4504   3.6114   4.2988   5.1020   5.5486
     6.0852   6.1461   6.2281   6.3009   6.6928

          k =-0.0938 0.1251 0.0000 ( 28119 PWs)   bands (ev):

   -77.7367 -77.7039 -77.4444 -77.4114 -77.3960 -77.3629 -45.7820 -45.7675
   -45.7454 -45.5805 -45.5500 -45.4732 -45.4371 -45.4334 -45.3141 -45.2801
   -45.2504 -45.2477 -45.2168 -45.2166 -45.1763 -45.1424 -45.1306 -45.0969
    -5.1008  -4.3109  -3.7782  -3.7140  -3.6597  -3.4334  -3.2381  -3.1724
    -3.1439  -3.0265  -2.9204  -2.8827  -2.7833  -2.7780  -2.5786  -2.5351
    -2.4962  -2.3636  -2.3356  -2.3089  -2.2176  -2.1450  -2.0717  -2.0433
    -1.8852  -1.8726  -1.8357  -1.8316  -1.7659  -1.7539  -1.6853  -1.6798
    -1.6378  -1.6283  -1.5463  -1.5246  -1.4869  -1.4598  -1.4413  -1.3517
    -1.2824  -1.2760  -1.1672  -1.0368  -0.9586  -0.9302  -0.9043  -0.9030
    -0.6788  -0.4456  -0.4349  -0.3516  -0.2886  -0.2650   0.2337   0.2811
     0.3730   0.4268   0.4966   0.5185   0.5313   0.7795   0.7998   0.8332
     1.4488   1.8940   2.0741   3.1731   4.0185   4.3485   4.5952   5.4183
     5.6884   6.2448   6.5840   6.7427   6.7571

          k =-0.0938 0.1430 0.0000 ( 28123 PWs)   bands (ev):

   -77.7386 -77.7020 -77.4463 -77.4095 -77.3979 -77.3610 -45.7864 -45.7842
   -45.7433 -45.5993 -45.5689 -45.4754 -45.4351 -45.4138 -45.3161 -45.2782
   -45.2523 -45.2282 -45.2149 -45.1971 -45.1783 -45.1405 -45.1325 -45.0949
    -4.9924  -4.5628  -3.7753  -3.6962  -3.5111  -3.4788  -3.2728  -3.1628
    -3.1300  -3.0674  -2.8906  -2.8670  -2.8082  -2.7388  -2.5569  -2.5292
    -2.4656  -2.4275  -2.3652  -2.2987  -2.2613  -2.1602  -2.0201  -1.9641
    -1.8572  -1.8558  -1.7945  -1.7642  -1.7600  -1.7094  -1.7086  -1.6781
    -1.6243  -1.5982  -1.5697  -1.5602  -1.4916  -1.4565  -1.4070  -1.3229
    -1.3022  -1.2937  -1.2011  -1.1533  -1.0865  -1.0512  -1.0139  -0.9439
    -0.6877  -0.4911  -0.4284  -0.3760  -0.3576  -0.3220   0.2031   0.2737
     0.2853   0.4516   0.5135   0.5767   0.5836   0.6593   0.8940   1.0537
     1.6418   2.0286   2.5125   2.8808   4.0655   4.4978   4.7018   4.7705
     5.2339   6.3675   6.4318   6.8479   6.9408

          k =-0.0938-0.0546 0.0000 ( 28112 PWs)   bands (ev):

   -77.7392 -77.7014 -77.4469 -77.4088 -77.3985 -77.3603 -45.7929 -45.7849
   -45.7426 -45.6058 -45.5753 -45.4761 -45.4344 -45.4071 -45.3168 -45.2775
   -45.2530 -45.2215 -45.2143 -45.1904 -45.1789 -45.1398 -45.1332 -45.0943
    -4.8729  -4.7341  -3.7842  -3.7089  -3.5025  -3.4121  -3.2848  -3.1794
    -3.1134  -3.0792  -2.8961  -2.8850  -2.7898  -2.6446  -2.6244  -2.5219
    -2.4568  -2.4322  -2.3648  -2.3227  -2.2811  -2.1488  -1.9863  -1.9811
    -1.8175  -1.7881  -1.7841  -1.7584  -1.7490  -1.7438  -1.6900  -1.6802
    -1.6280  -1.5847  -1.5549  -1.5223  -1.4908  -1.4457  -1.3612  -1.3277
    -1.3182  -1.3106  -1.2818  -1.2144  -1.1235  -1.1210  -1.0607  -0.9555
    -0.6900  -0.5073  -0.4270  -0.3847  -0.3749  -0.3702   0.1656   0.2691
     0.3008   0.4577   0.5079   0.5216   0.6047   0.7104   0.9339   1.1498
     1.7081   2.0134   2.7754   2.8559   3.9000   4.3176   4.6466   4.9810
     5.3540   5.8066   6.5598   6.6005   7.1475

     the Fermi energy is     0.6132 ev

!    total energy              =   -2108.78403507 Ry
     estimated scf accuracy    <       0.00000962 Ry
     smearing contrib. (-TS)   =      -0.08490804 Ry
     internal energy E=F+TS    =   -2108.69912703 Ry

     The total energy is F=E-TS. E is the sum of the following terms:
     one-electron contribution =  -17544.55599884 Ry
     hartree contribution      =    8845.12671226 Ry
     xc contribution           =    -459.93965674 Ry
     ewald contribution        =    7050.66981627 Ry
     electric field correction =       0.00000001 Ry

     convergence has been achieved in  14 iterations

     negative rho (up, down):  1.155E-03 0.000E+00

     Forces acting on atoms (cartesian axes, Ry/au):

     atom    1 type  1   force =     0.00474360    0.00313348   -0.00220189
     atom    2 type  1   force =     0.00507435    0.00258896   -0.00220208
     atom    3 type  2   force =     0.00252859    0.00147274    0.00697413
     atom    4 type  2   force =     0.00261085    0.00152268    0.00706677
     atom    5 type  1   force =    -0.00168374   -0.00096163   -0.00225572
     atom    6 type  1   force =    -0.00166508   -0.00098905   -0.00226157
     atom    7 type  2   force =    -0.00443809   -0.00258688   -0.00079224
     atom    8 type  2   force =    -0.00443994   -0.00258363   -0.00080076
     atom    9 type  1   force =    -0.00013618   -0.00038794   -0.00081138
     atom   10 type  1   force =    -0.00039462    0.00007234   -0.00081824
     atom   11 type  2   force =    -0.00106102   -0.00061916   -0.00090170
     atom   12 type  2   force =    -0.00113872   -0.00066192   -0.00099531

     Total force =     0.016408     Total SCF correction =     0.010626
     SCF correction compared to forces is large: reduce conv_thr to get better values

     Writing output data file ./Cu2Rh2/Cu2Rh2_beef.save/

     init_run     :     74.82s CPU     75.36s WALL (       1 calls)
     electrons    :   2588.54s CPU   2607.10s WALL (       1 calls)
     forces       :     64.73s CPU     65.14s WALL (       1 calls)

     Called by init_run:
     wfcinit      :     63.23s CPU     63.63s WALL (       1 calls)
     potinit      :      8.03s CPU      8.08s WALL (       1 calls)
     hinit0       :      2.29s CPU      2.29s WALL (       1 calls)

     Called by electrons:
     c_bands      :   2264.09s CPU   2276.40s WALL (      14 calls)
     sum_band     :    295.84s CPU    299.03s WALL (      14 calls)
     v_of_rho     :     22.46s CPU     23.73s WALL (      15 calls)
     newd         :     13.16s CPU     14.81s WALL (      15 calls)
     mix_rho      :      0.49s CPU      0.50s WALL (      14 calls)
     vdW_kernel   :      6.00s CPU      6.01s WALL (       1 calls)

     Called by c_bands:
     init_us_2    :      8.18s CPU      8.26s WALL (    2220 calls)
     cegterg      :   2232.92s CPU   2243.61s WALL (    1036 calls)

     Called by *egterg:
     cdiaghg      :    129.94s CPU    130.08s WALL (    4861 calls)
     h_psi        :   1103.67s CPU   1111.90s WALL (    4935 calls)
     s_psi        :    324.34s CPU    324.82s WALL (    4935 calls)
     g_psi        :      0.81s CPU      0.82s WALL (    3825 calls)

     Called by h_psi:
     h_psi:calbec :    413.56s CPU    414.87s WALL (    4935 calls)
     vloc_psi     :    349.95s CPU    356.27s WALL (    4935 calls)
     add_vuspsi   :    335.91s CPU    336.43s WALL (    4935 calls)

     General routines
     calbec       :    660.88s CPU    662.97s WALL (    6267 calls)
     fft          :     12.72s CPU     13.38s WALL (    1004 calls)
     ffts         :      0.06s CPU      0.07s WALL (      29 calls)
     fftw         :    402.14s CPU    409.15s WALL (  570206 calls)
     interpolate  :      0.20s CPU      0.21s WALL (      15 calls)

     Parallel routines
     fft_scatt_xy :     28.46s CPU     28.76s WALL (  571239 calls)
     fft_scatt_yz :    132.29s CPU    135.86s WALL (  571239 calls)

     PWSCF        :  45m45.91s CPU  46m30.42s WALL


   This run was terminated on:   2:36:20  11Jul2022            

=------------------------------------------------------------------------------=
   JOB DONE.
=------------------------------------------------------------------------------=
