
     Program PWSCF v.6.6 starts on 11Jul2022 at  3:21:25 

     This program is part of the open-source Quantum ESPRESSO suite
     for quantum simulation of materials; please cite
         "P. Giannozzi et al., J. Phys.:Condens. Matter 21 395502 (2009);
         "P. Giannozzi et al., J. Phys.:Condens. Matter 29 465901 (2017);
          URL http://www.quantum-espresso.org", 
     in publications or presentations arising from this work. More details at
     http://www.quantum-espresso.org/quote

     Parallel version (MPI), running on    37 processors

     MPI processes distributed on     1 nodes
     R & G space division:  proc/nbgrp/npool/nimage =      37
     Fft bands division:     nmany     =       1
     Reading input from Cu2Y2.in
Warning: card &CELL ignored
Warning: card / ignored

     Current dimensions of program PWSCF are:
     Max number of different atomic species (ntypx) = 10
     Max number of k-points (npk) =  40000
     Max angular momentum in pseudopotentials (lmaxx) =  3
     Presently stress not available with electric field and gates

     Message from routine cell_base_init:
     DEPRECATED: use true lattice parameter, not A to a.u. conversion factor
     file Cu.pbe-dn-rrkjus_psl.1.0.0.UPF: wavefunction(s)  3D renormalized
     file Y.pbe-spn-rrkjus_psl.1.0.0.UPF: wavefunction(s)  4S renormalized

     **************************************************************************
     Initializing libbeef V0.1.2 with the BEEF-vdW functional.
     Citation: Wellendorff et al., PRB 85, 235149 (2012).
     **************************************************************************


     IMPORTANT: XC functional enforced from input :
     Exchange-correlation= BEEF-VDW
                           (   1   4  43  14   2   0   0)
     Any further DFT definition will be discarded
     Please, verify this is what you really want


     Subspace diagonalization in iterative solution of the eigenvalue problem:
     a serial algorithm will be used


     Parallelization info
     --------------------
     sticks:   dense  smooth     PW     G-vecs:    dense   smooth      PW
     Min         146      58     16                34276     8662    1280
     Max         149      60     17                34296     8674    1297
     Sum        5405    2155    611              1268597   320709   47631



     bravais-lattice index     =            0
     lattice parameter (alat)  =       1.8897  a.u.
     unit-cell volume          =    5804.7773 (a.u.)^3
     number of atoms/cell      =           12
     number of atomic types    =            2
     number of electrons       =       132.00
     number of Kohn-Sham states=           79
     kinetic-energy cutoff     =      55.1240  Ry
     charge density cutoff     =     551.2396  Ry
     convergence threshold     =      1.0E-05
     mixing beta               =       0.1000
     number of iterations used =           10  plain     mixing
     Exchange-correlation= BEEF-VDW
                           (   1   4  43  14   2   0   0)

     celldm(1)=   1.889726  celldm(2)=   0.000000  celldm(3)=   0.000000
     celldm(4)=   0.000000  celldm(5)=   0.000000  celldm(6)=   0.000000

     crystal axes: (cart. coord. in units of alat)
               a(1) = (   6.048507   0.000000   0.000000 )  
               a(2) = (   2.016303   5.702540   0.000000 )  
               a(3) = (   0.000000   0.000000  24.938626 )  

     reciprocal axes: (cart. coord. in units 2 pi/alat)
               b(1) = (  0.165330 -0.058457  0.000000 )  
               b(2) = (  0.000000  0.175360  0.000000 )  
               b(3) = (  0.000000  0.000000  0.040098 )  


     PseudoPot. # 1 for Cu read from file:
     ../pseudo/Cu.pbe-dn-rrkjus_psl.1.0.0.UPF
     MD5 check sum: 8469560995d0c2df1ffe68c099c04a63
     Pseudo is Ultrasoft + core correction, Zval = 11.0
     Generated using "atomic" code by A. Dal Corso v.6.3
     Using radial grid of 1199 points,  6 beta functions with: 
                l(1) =   0
                l(2) =   0
                l(3) =   1
                l(4) =   1
                l(5) =   2
                l(6) =   2
     Q(r) pseudized with 0 coefficients 


     PseudoPot. # 2 for Y  read from file:
     ../pseudo/Y.pbe-spn-rrkjus_psl.1.0.0.UPF
     MD5 check sum: 5fe32e6a006803c2ec2edff47948a3c8
     Pseudo is Ultrasoft + core correction, Zval = 11.0
     Generated using "atomic" code by A. Dal Corso v.6.2.2
     Using radial grid of 1223 points,  6 beta functions with: 
                l(1) =   0
                l(2) =   0
                l(3) =   1
                l(4) =   1
                l(5) =   2
                l(6) =   2
     Q(r) pseudized with 0 coefficients 


     atomic species   valence    mass     pseudopotential
        Cu            11.00    63.54600     Cu( 1.00)
        Y             11.00    88.90584     Y ( 1.00)

     No symmetry found



   Cartesian axes

     site n.     atom                  positions (alat units)
         1           Cu  tau(   1) = (   0.0000000   0.0000000  10.0000000  )
         2           Cu  tau(   2) = (   4.0324051   2.8512699  10.0000000  )
         3           Y   tau(   3) = (   3.0242535   0.0000000  10.0000000  )
         4           Y   tau(   4) = (   1.0081515   2.8512699  10.0000000  )
         5           Cu  tau(   5) = (   6.0485071   4.2768338  12.4693132  )
         6           Cu  tau(   6) = (   2.0161020   1.4255639  12.4693132  )
         7           Y   tau(   7) = (   3.0242535   4.2768338  12.4693132  )
         8           Y   tau(   8) = (   5.0403556   1.4255639  12.4693132  )
         9           Cu  tau(   9) = (   4.0322116   2.8512163  14.7558195  )
        10           Cu  tau(  10) = (   8.0646860   5.7023881  14.7558193  )
        11           Y   tau(  11) = (   7.0564863   2.8511438  14.9316346  )
        12           Y   tau(  12) = (   5.0404290   5.7024596  14.9316272  )

     number of k points=    74  Fermi-Dirac smearing, width (Ry)=  0.0100
                       cart. coord. in units 2pi/alat
        k(    1) = (   0.0000000   0.0000000   0.0000000), wk =   0.0138889
        k(    2) = (   0.0000000   0.0146134   0.0000000), wk =   0.0277778
        k(    3) = (   0.0000000   0.0292267   0.0000000), wk =   0.0277778
        k(    4) = (   0.0000000   0.0438401   0.0000000), wk =   0.0277778
        k(    5) = (   0.0000000   0.0584535   0.0000000), wk =   0.0277778
        k(    6) = (   0.0000000   0.0730669   0.0000000), wk =   0.0277778
        k(    7) = (   0.0000000  -0.0876802   0.0000000), wk =   0.0138889
        k(    8) = (   0.0137775  -0.0048714   0.0000000), wk =   0.0277778
        k(    9) = (   0.0137775   0.0097419   0.0000000), wk =   0.0277778
        k(   10) = (   0.0137775   0.0243553   0.0000000), wk =   0.0277778
        k(   11) = (   0.0137775   0.0389687   0.0000000), wk =   0.0277778
        k(   12) = (   0.0137775   0.0535820   0.0000000), wk =   0.0277778
        k(   13) = (   0.0137775   0.0681954   0.0000000), wk =   0.0277778
        k(   14) = (   0.0137775  -0.0925517   0.0000000), wk =   0.0277778
        k(   15) = (   0.0137775  -0.0779383   0.0000000), wk =   0.0277778
        k(   16) = (   0.0137775  -0.0633249   0.0000000), wk =   0.0277778
        k(   17) = (   0.0137775  -0.0487116   0.0000000), wk =   0.0277778
        k(   18) = (   0.0137775  -0.0340982   0.0000000), wk =   0.0277778
        k(   19) = (   0.0137775  -0.0194848   0.0000000), wk =   0.0277778
        k(   20) = (   0.0275550  -0.0097429   0.0000000), wk =   0.0277778
        k(   21) = (   0.0275550   0.0048705   0.0000000), wk =   0.0277778
        k(   22) = (   0.0275550   0.0194838   0.0000000), wk =   0.0277778
        k(   23) = (   0.0275550   0.0340972   0.0000000), wk =   0.0277778
        k(   24) = (   0.0275550   0.0487106   0.0000000), wk =   0.0277778
        k(   25) = (   0.0275550   0.0633240   0.0000000), wk =   0.0277778
        k(   26) = (   0.0275550  -0.0974231   0.0000000), wk =   0.0277778
        k(   27) = (   0.0275550  -0.0828098   0.0000000), wk =   0.0277778
        k(   28) = (   0.0275550  -0.0681964   0.0000000), wk =   0.0277778
        k(   29) = (   0.0275550  -0.0535830   0.0000000), wk =   0.0277778
        k(   30) = (   0.0275550  -0.0389696   0.0000000), wk =   0.0277778
        k(   31) = (   0.0275550  -0.0243563   0.0000000), wk =   0.0277778
        k(   32) = (   0.0413325  -0.0146143   0.0000000), wk =   0.0277778
        k(   33) = (   0.0413325  -0.0000010   0.0000000), wk =   0.0277778
        k(   34) = (   0.0413325   0.0146124   0.0000000), wk =   0.0277778
        k(   35) = (   0.0413325   0.0292258   0.0000000), wk =   0.0277778
        k(   36) = (   0.0413325   0.0438391   0.0000000), wk =   0.0277778
        k(   37) = (   0.0413325   0.0584525   0.0000000), wk =   0.0277778
        k(   38) = (   0.0413325  -0.1022946   0.0000000), wk =   0.0277778
        k(   39) = (   0.0413325  -0.0876812   0.0000000), wk =   0.0277778
        k(   40) = (   0.0413325  -0.0730678   0.0000000), wk =   0.0277778
        k(   41) = (   0.0413325  -0.0584545   0.0000000), wk =   0.0277778
        k(   42) = (   0.0413325  -0.0438411   0.0000000), wk =   0.0277778
        k(   43) = (   0.0413325  -0.0292277   0.0000000), wk =   0.0277778
        k(   44) = (   0.0551100  -0.0194858   0.0000000), wk =   0.0277778
        k(   45) = (   0.0551100  -0.0048724   0.0000000), wk =   0.0277778
        k(   46) = (   0.0551100   0.0097410   0.0000000), wk =   0.0277778
        k(   47) = (   0.0551100   0.0243543   0.0000000), wk =   0.0277778
        k(   48) = (   0.0551100   0.0389677   0.0000000), wk =   0.0277778
        k(   49) = (   0.0551100   0.0535811   0.0000000), wk =   0.0277778
        k(   50) = (   0.0551100  -0.1071660   0.0000000), wk =   0.0277778
        k(   51) = (   0.0551100  -0.0925526   0.0000000), wk =   0.0277778
        k(   52) = (   0.0551100  -0.0779393   0.0000000), wk =   0.0277778
        k(   53) = (   0.0551100  -0.0633259   0.0000000), wk =   0.0277778
        k(   54) = (   0.0551100  -0.0487125   0.0000000), wk =   0.0277778
        k(   55) = (   0.0551100  -0.0340992   0.0000000), wk =   0.0277778
        k(   56) = (   0.0688875  -0.0243572   0.0000000), wk =   0.0277778
        k(   57) = (   0.0688875  -0.0097439   0.0000000), wk =   0.0277778
        k(   58) = (   0.0688875   0.0048695   0.0000000), wk =   0.0277778
        k(   59) = (   0.0688875   0.0194829   0.0000000), wk =   0.0277778
        k(   60) = (   0.0688875   0.0340962   0.0000000), wk =   0.0277778
        k(   61) = (   0.0688875   0.0487096   0.0000000), wk =   0.0277778
        k(   62) = (   0.0688875  -0.1120375   0.0000000), wk =   0.0277778
        k(   63) = (   0.0688875  -0.0974241   0.0000000), wk =   0.0277778
        k(   64) = (   0.0688875  -0.0828107   0.0000000), wk =   0.0277778
        k(   65) = (   0.0688875  -0.0681974   0.0000000), wk =   0.0277778
        k(   66) = (   0.0688875  -0.0535840   0.0000000), wk =   0.0277778
        k(   67) = (   0.0688875  -0.0389706   0.0000000), wk =   0.0277778
        k(   68) = (  -0.0826650   0.0292287   0.0000000), wk =   0.0138889
        k(   69) = (  -0.0826650   0.0438421   0.0000000), wk =   0.0277778
        k(   70) = (  -0.0826650   0.0584554   0.0000000), wk =   0.0277778
        k(   71) = (  -0.0826650   0.0730688   0.0000000), wk =   0.0277778
        k(   72) = (  -0.0826650   0.0876822   0.0000000), wk =   0.0277778
        k(   73) = (  -0.0826650   0.1022955   0.0000000), wk =   0.0277778
        k(   74) = (  -0.0826650  -0.0584515   0.0000000), wk =   0.0138889

     Dense  grid:  1268597 G-vectors     FFT dimensions: (  90,  90, 360)

     Smooth grid:   320709 G-vectors     FFT dimensions: (  60,  60, 225)

     Estimated max dynamical RAM per process >     234.06 MB

     Estimated total dynamical RAM >       8.46 GB

     Initial potential from superposition of free atoms

     starting charge  131.97411, renormalised to  132.00000

     negative rho (up, down):  2.799E-04 0.000E+00


     %%%%%%%%%%%%%%%%%%%%%%%%%%%%%%%%%%%%%%%%%%%%%%%%%%%%%%%%%%%%%%%%%%%%%%%%
     %                                                                      %
     % You are using vdW-DF, which was implemented by the Thonhauser group. %
     % Please cite the following two papers that made this development      %
     % possible and the two reviews that describe the various versions:     %
     %                                                                      %
     %   T. Thonhauser et al., PRL 115, 136402 (2015).                      %
     %   T. Thonhauser et al., PRB 76, 125112 (2007).                       %
     %   K. Berland et al., Rep. Prog. Phys. 78, 066501 (2015).             %
     %   D.C. Langreth et al., J. Phys.: Condens. Matter 21, 084203 (2009). %
     %                                                                      %
     %                                                                      %
     % If you are calculating the stress with vdW-DF, please also cite:     %
     %                                                                      %
     %   R. Sabatini et al., J. Phys.: Condens. Matter 24, 424209 (2012).   %
     %                                                                      %
     %%%%%%%%%%%%%%%%%%%%%%%%%%%%%%%%%%%%%%%%%%%%%%%%%%%%%%%%%%%%%%%%%%%%%%%%



     Adding external electric field

     Computed dipole along edir(3) : 
        Dipole                0.0013 Ry au,          0.0033 Debye
        Dipole field          0.0000 Ry au, 

        Potential amp.       -0.0003 Ry
        Total length         45.9490 bohr

     Starting wfcs are  132 randomized atomic wfcs

     total cpu time spent up to now is      152.0 secs

     Self-consistent Calculation

     iteration #  1     ecut=    55.12 Ry     beta= 0.10
     Davidson diagonalization with overlap
     ethr =  1.00E-02,  avg # of iterations =  2.0

     negative rho (up, down):  2.162E-04 0.000E+00

     Adding external electric field

     Computed dipole along edir(3) : 
        Dipole               -0.0108 Ry au,         -0.0275 Debye
        Dipole field         -0.0000 Ry au, 

        Potential amp.        0.0021 Ry
        Total length         45.9490 bohr


     total cpu time spent up to now is      372.8 secs

     total energy              =   -1248.85656488 Ry
     estimated scf accuracy    <       2.15635777 Ry

     iteration #  2     ecut=    55.12 Ry     beta= 0.10
     Davidson diagonalization with overlap
     ethr =  1.63E-03,  avg # of iterations =  2.0

     negative rho (up, down):  1.937E-04 0.000E+00

     Adding external electric field

     Computed dipole along edir(3) : 
        Dipole                0.1580 Ry au,          0.4015 Debye
        Dipole field          0.0003 Ry au, 

        Potential amp.       -0.0314 Ry
        Total length         45.9490 bohr


     total cpu time spent up to now is      580.6 secs

     total energy              =   -1248.95434180 Ry
     estimated scf accuracy    <       0.41954166 Ry

     iteration #  3     ecut=    55.12 Ry     beta= 0.10
     Davidson diagonalization with overlap
     ethr =  3.18E-04,  avg # of iterations =  7.4

     negative rho (up, down):  1.844E-04 0.000E+00

     Adding external electric field

     Computed dipole along edir(3) : 
        Dipole               -0.1026 Ry au,         -0.2608 Debye
        Dipole field         -0.0002 Ry au, 

        Potential amp.        0.0204 Ry
        Total length         45.9490 bohr


     total cpu time spent up to now is      832.0 secs

     total energy              =   -1248.96866851 Ry
     estimated scf accuracy    <       0.45435935 Ry

     iteration #  4     ecut=    55.12 Ry     beta= 0.10
     Davidson diagonalization with overlap
     ethr =  3.18E-04,  avg # of iterations =  1.9

     negative rho (up, down):  1.696E-04 0.000E+00

     Adding external electric field

     Computed dipole along edir(3) : 
        Dipole                0.0433 Ry au,          0.1101 Debye
        Dipole field          0.0001 Ry au, 

        Potential amp.       -0.0086 Ry
        Total length         45.9490 bohr


     total cpu time spent up to now is     1032.4 secs

     total energy              =   -1248.95397102 Ry
     estimated scf accuracy    <       0.45542499 Ry

     iteration #  5     ecut=    55.12 Ry     beta= 0.10
     Davidson diagonalization with overlap
     ethr =  3.18E-04,  avg # of iterations =  1.0

     negative rho (up, down):  1.818E-04 0.000E+00

     Adding external electric field

     Computed dipole along edir(3) : 
        Dipole                0.1266 Ry au,          0.3218 Debye
        Dipole field          0.0003 Ry au, 

        Potential amp.       -0.0252 Ry
        Total length         45.9490 bohr


     total cpu time spent up to now is     1216.3 secs

     total energy              =   -1248.93591985 Ry
     estimated scf accuracy    <       0.08242554 Ry

     iteration #  6     ecut=    55.12 Ry     beta= 0.10
     Davidson diagonalization with overlap
     ethr =  6.24E-05,  avg # of iterations =  9.3

     negative rho (up, down):  1.515E-04 0.000E+00

     Adding external electric field

     Computed dipole along edir(3) : 
        Dipole                0.0818 Ry au,          0.2079 Debye
        Dipole field          0.0002 Ry au, 

        Potential amp.       -0.0163 Ry
        Total length         45.9490 bohr


     total cpu time spent up to now is     1592.7 secs

     total energy              =   -1248.95679761 Ry
     estimated scf accuracy    <       0.51615722 Ry

     iteration #  7     ecut=    55.12 Ry     beta= 0.10
     Davidson diagonalization with overlap
     ethr =  6.24E-05,  avg # of iterations =  3.5

     negative rho (up, down):  1.531E-04 0.000E+00

     Adding external electric field

     Computed dipole along edir(3) : 
        Dipole                0.0861 Ry au,          0.2187 Debye
        Dipole field          0.0002 Ry au, 

        Potential amp.       -0.0171 Ry
        Total length         45.9490 bohr


     total cpu time spent up to now is     1815.1 secs

     total energy              =   -1248.96896137 Ry
     estimated scf accuracy    <       0.09950035 Ry

     iteration #  8     ecut=    55.12 Ry     beta= 0.10
     Davidson diagonalization with overlap
     ethr =  6.24E-05,  avg # of iterations =  1.3

     negative rho (up, down):  1.744E-04 0.000E+00

     Adding external electric field

     Computed dipole along edir(3) : 
        Dipole                0.0738 Ry au,          0.1875 Debye
        Dipole field          0.0002 Ry au, 

        Potential amp.       -0.0147 Ry
        Total length         45.9490 bohr


     total cpu time spent up to now is     2000.5 secs

     total energy              =   -1248.95795470 Ry
     estimated scf accuracy    <       0.06510667 Ry

     iteration #  9     ecut=    55.12 Ry     beta= 0.10
     Davidson diagonalization with overlap
     ethr =  4.93E-05,  avg # of iterations =  5.2

     negative rho (up, down):  1.732E-04 0.000E+00

     Adding external electric field

     Computed dipole along edir(3) : 
        Dipole                0.0656 Ry au,          0.1668 Debye
        Dipole field          0.0001 Ry au, 

        Potential amp.       -0.0131 Ry
        Total length         45.9490 bohr


     total cpu time spent up to now is     2213.8 secs

     total energy              =   -1248.96248124 Ry
     estimated scf accuracy    <       0.00366526 Ry

     iteration # 10     ecut=    55.12 Ry     beta= 0.10
     Davidson diagonalization with overlap
     c_bands:  1 eigenvalues not converged
     c_bands:  1 eigenvalues not converged
     c_bands:  1 eigenvalues not converged
     c_bands:  1 eigenvalues not converged
     ethr =  2.78E-06,  avg # of iterations = 10.0

     negative rho (up, down):  1.604E-04 0.000E+00

     Adding external electric field

     Computed dipole along edir(3) : 
        Dipole                0.0548 Ry au,          0.1392 Debye
        Dipole field          0.0001 Ry au, 

        Potential amp.       -0.0109 Ry
        Total length         45.9490 bohr


     total cpu time spent up to now is     2450.4 secs

     total energy              =   -1248.96401995 Ry
     estimated scf accuracy    <       0.00169586 Ry

     iteration # 11     ecut=    55.12 Ry     beta= 0.10
     Davidson diagonalization with overlap
     c_bands:  1 eigenvalues not converged
     ethr =  1.28E-06,  avg # of iterations =  2.6

     negative rho (up, down):  1.531E-04 0.000E+00

     Adding external electric field

     Computed dipole along edir(3) : 
        Dipole                0.0511 Ry au,          0.1299 Debye
        Dipole field          0.0001 Ry au, 

        Potential amp.       -0.0102 Ry
        Total length         45.9490 bohr


     total cpu time spent up to now is     2667.9 secs

     total energy              =   -1248.96380751 Ry
     estimated scf accuracy    <       0.00171029 Ry

     iteration # 12     ecut=    55.12 Ry     beta= 0.10
     Davidson diagonalization with overlap
     ethr =  1.28E-06,  avg # of iterations =  4.0

     negative rho (up, down):  1.498E-04 0.000E+00

     Adding external electric field

     Computed dipole along edir(3) : 
        Dipole                0.0527 Ry au,          0.1339 Debye
        Dipole field          0.0001 Ry au, 

        Potential amp.       -0.0105 Ry
        Total length         45.9490 bohr


     total cpu time spent up to now is     2858.2 secs

     total energy              =   -1248.96407077 Ry
     estimated scf accuracy    <       0.00019741 Ry

     iteration # 13     ecut=    55.12 Ry     beta= 0.10
     Davidson diagonalization with overlap
     ethr =  1.50E-07,  avg # of iterations =  6.3

     negative rho (up, down):  1.458E-04 0.000E+00

     Adding external electric field

     Computed dipole along edir(3) : 
        Dipole                0.0532 Ry au,          0.1353 Debye
        Dipole field          0.0001 Ry au, 

        Potential amp.       -0.0106 Ry
        Total length         45.9490 bohr


     total cpu time spent up to now is     3100.7 secs

     total energy              =   -1248.96409896 Ry
     estimated scf accuracy    <       0.00011438 Ry

     iteration # 14     ecut=    55.12 Ry     beta= 0.10
     Davidson diagonalization with overlap
     ethr =  8.67E-08,  avg # of iterations =  5.8

     negative rho (up, down):  1.437E-04 0.000E+00

     Adding external electric field

     Computed dipole along edir(3) : 
        Dipole                0.0537 Ry au,          0.1365 Debye
        Dipole field          0.0001 Ry au, 

        Potential amp.       -0.0107 Ry
        Total length         45.9490 bohr


     total cpu time spent up to now is     3338.1 secs

     total energy              =   -1248.96411834 Ry
     estimated scf accuracy    <       0.00004212 Ry

     iteration # 15     ecut=    55.12 Ry     beta= 0.10
     Davidson diagonalization with overlap
     ethr =  3.19E-08,  avg # of iterations =  2.1

     negative rho (up, down):  1.310E-04 0.000E+00

     Adding external electric field

     Computed dipole along edir(3) : 
        Dipole                0.0376 Ry au,          0.0956 Debye
        Dipole field          0.0001 Ry au, 

        Potential amp.       -0.0075 Ry
        Total length         45.9490 bohr


     total cpu time spent up to now is     3552.3 secs

     End of self-consistent calculation

          k = 0.0000 0.0000 0.0000 ( 40211 PWs)   bands (ev):

   -42.7477 -42.7193 -42.7189 -42.6906 -42.2147 -42.1858 -22.7734 -22.7637
   -22.7404 -22.7314 -22.7265 -22.6841 -22.6503 -22.6311 -22.6186 -22.5868
   -22.4155 -22.3826 -22.3573 -22.1763 -22.1144 -22.1115 -22.0745 -21.9793
    -5.0409  -3.7380  -3.0763  -3.0057  -2.9337  -2.6662  -2.6389  -2.6210
    -2.6148  -2.5988  -2.5087  -2.4493  -2.4292  -2.2971  -2.2685  -2.2568
    -2.2521  -2.2477  -2.2047  -2.1903  -2.1663  -2.1592  -2.1339  -2.0527
    -2.0424  -2.0237  -2.0087  -1.9771  -1.8930  -1.8501  -1.8189  -1.7880
    -1.4412  -1.2679  -1.2649  -1.1533   0.2588   0.3758   0.3768   0.8653
     0.8815   1.1252   1.1800   1.1832   1.3341   1.6131   1.7537   1.8648
     1.9261   1.9514   2.0044   2.1350   2.3413   2.5628   2.7432

          k = 0.0000 0.0146 0.0000 ( 40163 PWs)   bands (ev):

   -42.7472 -42.7194 -42.7189 -42.6911 -42.2142 -42.1863 -22.7676 -22.7630
   -22.7346 -22.7318 -22.7263 -22.6852 -22.6493 -22.6310 -22.6188 -22.5878
   -22.4219 -22.3890 -22.3511 -22.1751 -22.1138 -22.1125 -22.0753 -21.9860
    -5.0008  -3.7016  -3.0494  -3.0001  -2.9184  -2.6538  -2.6278  -2.6179
    -2.6129  -2.5920  -2.4913  -2.4380  -2.4212  -2.2952  -2.2689  -2.2524
    -2.2474  -2.2414  -2.2075  -2.1904  -2.1653  -2.1575  -2.1297  -2.0538
    -2.0457  -2.0272  -2.0138  -1.9755  -1.8955  -1.8512  -1.8252  -1.7943
    -1.4371  -1.3349  -1.2944  -1.1793   0.2309   0.3434   0.4841   0.8383
     0.8448   1.1069   1.1738   1.2110   1.3390   1.5051   1.6986   1.7604
     1.8823   2.0053   2.0815   2.1456   2.1909   2.7057   2.8156

          k = 0.0000 0.0292 0.0000 ( 40148 PWs)   bands (ev):

   -42.7458 -42.7208 -42.7174 -42.6925 -42.2128 -42.1878 -22.7609 -22.7506
   -22.7332 -22.7255 -22.7174 -22.6885 -22.6465 -22.6308 -22.6191 -22.5906
   -22.4406 -22.4077 -22.3329 -22.1716 -22.1156 -22.1122 -22.0776 -22.0057
    -4.8820  -3.5952  -2.9987  -2.9718  -2.8780  -2.6184  -2.6171  -2.5959
    -2.5892  -2.5728  -2.4618  -2.4059  -2.3864  -2.2897  -2.2653  -2.2433
    -2.2359  -2.2223  -2.2156  -2.1908  -2.1639  -2.1528  -2.1159  -2.0666
    -2.0488  -2.0321  -2.0282  -1.9755  -1.9028  -1.8533  -1.8477  -1.8146
    -1.5094  -1.4239  -1.3765  -1.2403   0.2515   0.2675   0.6469   0.7108
     0.7839   1.0575   1.1715   1.2337   1.2654   1.3545   1.4649   1.7249
     1.9325   1.9885   2.0211   2.0424   2.3398   2.6673   2.7800

          k = 0.0000 0.0438 0.0000 ( 40174 PWs)   bands (ev):

   -42.7435 -42.7231 -42.7151 -42.6948 -42.2105 -42.1901 -22.7578 -22.7357
   -22.7240 -22.7230 -22.6939 -22.6898 -22.6424 -22.6306 -22.6194 -22.5950
   -22.4702 -22.4373 -22.3038 -22.1661 -22.1204 -22.1094 -22.0811 -22.0367
    -4.6901  -3.4285  -3.0496  -2.8535  -2.8278  -2.5950  -2.5660  -2.5525
    -2.5474  -2.5424  -2.4435  -2.3572  -2.3252  -2.2810  -2.2545  -2.2333
    -2.2284  -2.2173  -2.1952  -2.1922  -2.1620  -2.1455  -2.0937  -2.0882
    -2.0571  -2.0482  -2.0341  -1.9811  -1.9147  -1.8969  -1.8588  -1.8531
    -1.7201  -1.4604  -1.4013  -1.3346   0.1192   0.3819   0.5041   0.6843
     0.7568   0.9853   1.0048   1.1462   1.1543   1.3347   1.3939   1.7418
     1.9116   1.9620   1.9919   2.0645   2.4274   2.4734   2.5360

          k = 0.0000 0.0585 0.0000 ( 40173 PWs)   bands (ev):

   -42.7405 -42.7261 -42.7121 -42.6977 -42.2075 -42.1930 -22.7540 -22.7385
   -22.7213 -22.6996 -22.6871 -22.6542 -22.6379 -22.6305 -22.6189 -22.6005
   -22.5083 -22.4754 -22.2657 -22.1591 -22.1268 -22.1057 -22.0857 -22.0769
    -4.4343  -3.2216  -3.2078  -2.7895  -2.7117  -2.5461  -2.5122  -2.5097
    -2.5070  -2.4805  -2.4311  -2.3019  -2.2830  -2.2677  -2.2429  -2.2317
    -2.2251  -2.1953  -2.1949  -2.1662  -2.1539  -2.1349  -2.1116  -2.0724
    -2.0715  -2.0648  -2.0408  -1.9899  -1.9813  -1.9527  -1.9318  -1.8621
    -1.8449  -1.4964  -1.4692  -1.3761  -0.0110   0.3129   0.5347   0.5524
     0.5879   0.8746   0.9042   1.0751   1.1109   1.3912   1.4816   1.7622
     1.8253   1.8896   1.9390   2.0781   2.2603   2.4548   2.5834

          k = 0.0000 0.0731 0.0000 ( 40097 PWs)   bands (ev):

   -42.7370 -42.7296 -42.7087 -42.7012 -42.2040 -42.1965 -22.7498 -22.7419
   -22.7173 -22.7060 -22.6450 -22.6340 -22.6307 -22.6167 -22.6121 -22.6063
   -22.5522 -22.5193 -22.2209 -22.1511 -22.1344 -22.1232 -22.1011 -22.0908
    -4.1294  -3.4734  -3.0121  -2.7883  -2.5748  -2.4971  -2.4806  -2.4745
    -2.4577  -2.4246  -2.4033  -2.2768  -2.2682  -2.2614  -2.2322  -2.2226
    -2.2079  -2.1949  -2.1936  -2.1553  -2.1368  -2.1329  -2.1175  -2.1065
    -2.0895  -2.0635  -2.0551  -2.0531  -2.0059  -1.9990  -1.9533  -1.9494
    -1.8186  -1.6262  -1.4691  -1.3714  -0.0687   0.2152   0.2669   0.4058
     0.7533   0.8137   0.8336   1.0420   1.1725   1.4154   1.5934   1.7358
     1.7581   1.7650   1.8288   1.9258   2.3616   2.5460   2.6270

          k = 0.0000-0.0877 0.0000 ( 40072 PWs)   bands (ev):

   -42.7333 -42.7333 -42.7049 -42.7049 -42.2003 -42.2002 -22.7457 -22.7457
   -22.7121 -22.7121 -22.6318 -22.6318 -22.6124 -22.6124 -22.5988 -22.5987
   -22.5658 -22.5658 -22.1724 -22.1723 -22.1427 -22.1426 -22.0962 -22.0961
    -3.7975  -3.7975  -2.8562  -2.8562  -2.4941  -2.4941  -2.4643  -2.4643
    -2.4286  -2.4285  -2.3137  -2.3136  -2.2641  -2.2641  -2.2309  -2.2309
    -2.2092  -2.2092  -2.1732  -2.1732  -2.1345  -2.1345  -2.1090  -2.1090
    -2.0913  -2.0913  -2.0626  -2.0626  -2.0084  -2.0083  -1.9740  -1.9740
    -1.7522  -1.7522  -1.4098  -1.4098   0.0133   0.0133   0.2834   0.2834
     0.7948   0.7948   0.9340   0.9341   1.3168   1.3168   1.6759   1.6759
     1.7092   1.7092   1.8312   1.8312   2.5153   2.5154   2.6761

          k = 0.0138-0.0049 0.0000 ( 40163 PWs)   bands (ev):

   -42.7472 -42.7194 -42.7189 -42.6911 -42.2142 -42.1863 -22.7676 -22.7630
   -22.7346 -22.7318 -22.7263 -22.6852 -22.6493 -22.6310 -22.6188 -22.5878
   -22.4219 -22.3890 -22.3511 -22.1751 -22.1138 -22.1125 -22.0753 -21.9860
    -5.0008  -3.7016  -3.0494  -3.0001  -2.9184  -2.6538  -2.6278  -2.6179
    -2.6129  -2.5920  -2.4913  -2.4380  -2.4212  -2.2952  -2.2689  -2.2524
    -2.2474  -2.2414  -2.2075  -2.1904  -2.1653  -2.1575  -2.1297  -2.0538
    -2.0457  -2.0272  -2.0138  -1.9755  -1.8955  -1.8512  -1.8252  -1.7943
    -1.4371  -1.3349  -1.2944  -1.1793   0.2309   0.3434   0.4841   0.8383
     0.8448   1.1069   1.1738   1.2110   1.3390   1.5051   1.6986   1.7604
     1.8823   2.0053   2.0815   2.1456   2.1909   2.7057   2.8156

          k = 0.0138 0.0097 0.0000 ( 40170 PWs)   bands (ev):

   -42.7477 -42.7193 -42.7190 -42.6906 -42.2147 -42.1858 -22.7738 -22.7637
   -22.7407 -22.7302 -22.7283 -22.6858 -22.6493 -22.6274 -22.6218 -22.5874
   -22.4155 -22.3826 -22.3573 -22.1745 -22.1148 -22.1128 -22.0745 -21.9794
    -4.9872  -3.6876  -3.0461  -2.9927  -2.9042  -2.6580  -2.6273  -2.6078
    -2.6039  -2.5883  -2.4858  -2.4394  -2.4195  -2.2863  -2.2692  -2.2563
    -2.2417  -2.2415  -2.2025  -2.1932  -2.1629  -2.1493  -2.1292  -2.0490
    -2.0444  -2.0231  -2.0125  -1.9799  -1.8931  -1.8546  -1.8189  -1.7882
    -1.4296  -1.2889  -1.2314  -1.1470   0.0057   0.1928   0.4504   0.7146
     0.7909   1.1161   1.1498   1.2600   1.3484   1.4195   1.6397   1.8341
     1.8555   1.9897   1.9985   2.2586   2.3354   2.5783   2.8377

          k = 0.0138 0.0244 0.0000 ( 40193 PWs)   bands (ev):

   -42.7471 -42.7195 -42.7188 -42.6911 -42.2143 -42.1862 -22.7683 -22.7631
   -22.7352 -22.7296 -22.7294 -22.6882 -22.6478 -22.6247 -22.6242 -22.5889
   -22.4218 -22.3890 -22.3511 -22.1717 -22.1150 -22.1146 -22.0753 -21.9862
    -4.8946  -3.6027  -2.9933  -2.9818  -2.8639  -2.6375  -2.6054  -2.5927
    -2.5863  -2.5716  -2.4601  -2.4191  -2.3946  -2.2745  -2.2674  -2.2512
    -2.2317  -2.2273  -2.2035  -2.1956  -2.1605  -2.1390  -2.1192  -2.0564
    -2.0395  -2.0276  -2.0204  -1.9812  -1.8962  -1.8586  -1.8267  -1.7939
    -1.4146  -1.3702  -1.2432  -1.1732  -0.0872   0.0214   0.4739   0.5758
     0.6942   1.0998   1.1059   1.1396   1.3063   1.4723   1.4765   1.7307
     1.8132   1.9867   2.0048   2.2358   2.4105   2.6591   2.7428

          k = 0.0138 0.0390 0.0000 ( 40179 PWs)   bands (ev):

   -42.7457 -42.7209 -42.7173 -42.6926 -42.2128 -42.1876 -22.7616 -22.7515
   -22.7302 -22.7290 -22.7183 -22.6920 -22.6455 -22.6266 -22.6218 -22.5921
   -22.4405 -22.4076 -22.3329 -22.1670 -22.1192 -22.1132 -22.0776 -22.0060
    -4.7269  -3.4550  -3.0061  -2.9009  -2.8112  -2.5949  -2.5670  -2.5643
    -2.5524  -2.5441  -2.4441  -2.3804  -2.3407  -2.2612  -2.2587  -2.2439
    -2.2122  -2.2117  -2.2045  -2.1972  -2.1598  -2.1279  -2.0990  -2.0738
    -2.0402  -2.0341  -2.0331  -1.9836  -1.9061  -1.8592  -1.8532  -1.8140
    -1.5746  -1.3946  -1.3012  -1.2541  -0.1475  -0.0147   0.4247   0.4952
     0.5860   0.8449   1.0681   1.1492   1.2351   1.3551   1.4891   1.6450
     1.8050   1.9497   2.0169   2.1347   2.5522   2.5957   2.6259

          k = 0.0138 0.0536 0.0000 ( 40159 PWs)   bands (ev):

   -42.7433 -42.7232 -42.7150 -42.6949 -42.2106 -42.1899 -22.7593 -22.7324
   -22.7267 -22.7238 -22.6969 -22.6908 -22.6436 -22.6264 -22.6204 -22.5965
   -22.4699 -22.4370 -22.3038 -22.1606 -22.1250 -22.1106 -22.0811 -22.0371
    -4.4923  -3.2614  -3.1204  -2.7841  -2.7649  -2.5378  -2.5195  -2.5141
    -2.5111  -2.5041  -2.4330  -2.3305  -2.2980  -2.2485  -2.2451  -2.2315
    -2.2265  -2.1992  -2.1864  -2.1751  -2.1563  -2.1171  -2.0945  -2.0740
    -2.0567  -2.0458  -2.0340  -1.9902  -1.9224  -1.9064  -1.8702  -1.8500
    -1.7829  -1.4206  -1.3831  -1.3296  -0.2739   0.1628   0.2609   0.4204
     0.4888   0.6642   1.0298   1.0706   1.1743   1.4162   1.4777   1.6150
     1.7688   1.8822   2.0486   2.0805   2.3250   2.4501   2.7701

          k = 0.0138 0.0682 0.0000 ( 40110 PWs)   bands (ev):

   -42.7403 -42.7262 -42.7120 -42.6979 -42.2076 -42.1929 -22.7564 -22.7350
   -22.7226 -22.7017 -22.6881 -22.6551 -22.6429 -22.6234 -22.6205 -22.6013
   -22.5079 -22.4750 -22.2656 -22.1532 -22.1321 -22.1068 -22.0855 -22.0772
    -4.2033  -3.3480  -3.0537  -2.7463  -2.6626  -2.4830  -2.4752  -2.4748
    -2.4659  -2.4384  -2.4248  -2.2874  -2.2858  -2.2427  -2.2409  -2.2319
    -2.2079  -2.1991  -2.1730  -2.1510  -2.1450  -2.1215  -2.1019  -2.0755
    -2.0600  -2.0476  -2.0460  -1.9999  -1.9980  -1.9742  -1.9434  -1.8865
    -1.8206  -1.6053  -1.4108  -1.3429  -0.2932   0.0975   0.2337   0.3979
     0.4546   0.5866   0.9977   1.0694   1.1995   1.4452   1.5145   1.6166
     1.6397   1.8294   1.9767   2.0577   2.2623   2.4072   2.7912

          k = 0.0138-0.0926 0.0000 ( 40061 PWs)   bands (ev):

   -42.7369 -42.7297 -42.7085 -42.7014 -42.2041 -42.1964 -22.7531 -22.7389
   -22.7168 -22.7065 -22.6458 -22.6428 -22.6227 -22.6182 -22.6130 -22.6052
   -22.5517 -22.5188 -22.2208 -22.1453 -22.1400 -22.1234 -22.1020 -22.0904
    -3.8790  -3.6554  -2.8827  -2.7848  -2.5698  -2.4585  -2.4567  -2.4458
    -2.4306  -2.4175  -2.3613  -2.2926  -2.2726  -2.2553  -2.2452  -2.2009
    -2.1925  -2.1920  -2.1867  -2.1585  -2.1387  -2.1360  -2.1116  -2.1015
    -2.0908  -2.0787  -2.0684  -2.0308  -2.0101  -1.9966  -1.9683  -1.9661
    -1.7558  -1.7494  -1.4901  -1.3301  -0.1628  -0.0259   0.0971   0.5121
     0.5701   0.6426   0.9874   1.1624   1.1910   1.3993   1.4913   1.6182
     1.6352   1.7933   1.9404   1.9715   2.3659   2.4783   2.6250

          k = 0.0138-0.0779 0.0000 ( 40096 PWs)   bands (ev):

   -42.7335 -42.7332 -42.7051 -42.7048 -42.2004 -42.2001 -22.7495 -22.7436
   -22.7108 -22.7099 -22.6426 -22.6273 -22.6119 -22.6083 -22.5994 -22.5981
   -22.5665 -22.5652 -22.1726 -22.1722 -22.1482 -22.1373 -22.0967 -22.0954
    -3.9881  -3.5485  -2.9133  -2.7926  -2.5510  -2.4886  -2.4683  -2.4597
    -2.4288  -2.4055  -2.3461  -2.2772  -2.2758  -2.2553  -2.2499  -2.2288
    -2.2017  -2.2012  -2.1778  -2.1716  -2.1431  -2.1339  -2.1215  -2.1187
    -2.0986  -2.0864  -2.0759  -2.0614  -2.0250  -2.0004  -1.9804  -1.9599
    -1.8221  -1.6291  -1.5781  -1.3356  -0.0867   0.0897   0.1323   0.6086
     0.6684   0.8065   1.0111   1.0761   1.2805   1.2858   1.5229   1.6220
     1.7141   1.8152   1.9524   1.9827   2.4305   2.4618   2.5984

          k = 0.0138-0.0633 0.0000 ( 40134 PWs)   bands (ev):

   -42.7372 -42.7294 -42.7088 -42.7011 -42.2039 -42.1967 -22.7486 -22.7456
   -22.7146 -22.7027 -22.6445 -22.6413 -22.6331 -22.6112 -22.6101 -22.6052
   -22.5527 -22.5198 -22.2210 -22.1564 -22.1298 -22.1229 -22.1004 -22.0912
    -4.3044  -3.2568  -3.1165  -2.7794  -2.6066  -2.5924  -2.4970  -2.4932
    -2.4713  -2.4358  -2.4020  -2.2881  -2.2679  -2.2649  -2.2460  -2.2279
    -2.2073  -2.2012  -2.1843  -2.1635  -2.1520  -2.1451  -2.1292  -2.1112
    -2.0810  -2.0751  -2.0645  -2.0538  -2.0075  -1.9939  -1.9378  -1.9365
    -1.8443  -1.6320  -1.4888  -1.3673   0.0104   0.2053   0.5019   0.7015
     0.8226   0.8895   0.9082   1.0874   1.2026   1.3485   1.5193   1.5810
     1.7797   1.9686   1.9688   2.1348   2.3147   2.3881   2.5957

          k = 0.0138-0.0487 0.0000 ( 40129 PWs)   bands (ev):

   -42.7406 -42.7260 -42.7123 -42.6976 -42.2074 -42.1932 -22.7534 -22.7416
   -22.7179 -22.6960 -22.6864 -22.6534 -22.6400 -22.6390 -22.6118 -22.5992
   -22.5086 -22.4757 -22.2658 -22.1636 -22.1232 -22.1049 -22.0858 -22.0766
    -4.5778  -3.3330  -3.0624  -2.8121  -2.7607  -2.6391  -2.5372  -2.5307
    -2.5243  -2.5091  -2.4106  -2.3185  -2.3064  -2.2959  -2.2498  -2.2465
    -2.2179  -2.2114  -2.1851  -2.1819  -2.1599  -2.1596  -2.1071  -2.0911
    -2.0708  -2.0681  -2.0412  -1.9869  -1.9731  -1.9326  -1.9207  -1.8504
    -1.8353  -1.6215  -1.4023  -1.3787   0.2417   0.3635   0.7274   0.8188
     0.9262   0.9376   0.9874   1.0718   1.2049   1.3284   1.3847   1.6399
     1.7714   1.9912   2.1356   2.2021   2.3098   2.3383   2.4922

          k = 0.0138-0.0341 0.0000 ( 40157 PWs)   bands (ev):

   -42.7436 -42.7231 -42.7152 -42.6947 -42.2104 -42.1901 -22.7577 -22.7379
   -22.7224 -22.7209 -22.6910 -22.6890 -22.6440 -22.6377 -22.6137 -22.5939
   -22.4703 -22.4374 -22.3039 -22.1694 -22.1179 -22.1088 -22.0812 -22.0365
    -4.7914  -3.5166  -2.9931  -2.8995  -2.8614  -2.6506  -2.5797  -2.5761
    -2.5672  -2.5607  -2.4268  -2.3750  -2.3733  -2.3009  -2.2602  -2.2345
    -2.2307  -2.2236  -2.2108  -2.1860  -2.1633  -2.1628  -2.1091  -2.0829
    -2.0603  -2.0454  -2.0345  -1.9782  -1.9095  -1.8914  -1.8562  -1.8508
    -1.6646  -1.5473  -1.4259  -1.2972   0.4631   0.5274   0.5947   0.8683
     0.9344   1.0099   1.0635   1.2562   1.2896   1.3392   1.3821   1.6705
     1.7116   2.0232   2.0497   2.1197   2.3116   2.5336   2.6522

          k = 0.0138-0.0195 0.0000 ( 40143 PWs)   bands (ev):

   -42.7458 -42.7208 -42.7175 -42.6925 -42.2127 -42.1878 -22.7609 -22.7503
   -22.7344 -22.7237 -22.7171 -22.6867 -22.6475 -22.6346 -22.6160 -22.5900
   -22.4406 -22.4078 -22.3329 -22.1733 -22.1143 -22.1118 -22.0775 -22.0055
    -4.9345  -3.6432  -2.9994  -2.9935  -2.9022  -2.6363  -2.6263  -2.6070
    -2.6022  -2.5824  -2.4623  -2.4151  -2.4113  -2.3002  -2.2666  -2.2450
    -2.2373  -2.2330  -2.2171  -2.1877  -2.1649  -2.1622  -2.1231  -2.0609
    -2.0565  -2.0309  -2.0250  -1.9734  -1.9016  -1.8501  -1.8462  -1.8151
    -1.4654  -1.4365  -1.4285  -1.2325   0.4452   0.4473   0.6308   0.7655
     0.9537   1.0603   1.1327   1.2279   1.2602   1.5251   1.6256   1.6913
     1.8083   1.9594   2.0362   2.0597   2.2571   2.7384   2.8546

          k = 0.0276-0.0097 0.0000 ( 40148 PWs)   bands (ev):

   -42.7458 -42.7208 -42.7174 -42.6925 -42.2128 -42.1878 -22.7609 -22.7506
   -22.7332 -22.7255 -22.7174 -22.6885 -22.6465 -22.6308 -22.6191 -22.5906
   -22.4406 -22.4077 -22.3329 -22.1716 -22.1156 -22.1122 -22.0776 -22.0057
    -4.8820  -3.5952  -2.9987  -2.9718  -2.8780  -2.6184  -2.6171  -2.5959
    -2.5892  -2.5728  -2.4618  -2.4059  -2.3864  -2.2897  -2.2653  -2.2433
    -2.2359  -2.2223  -2.2156  -2.1908  -2.1639  -2.1528  -2.1159  -2.0667
    -2.0488  -2.0321  -2.0282  -1.9755  -1.9028  -1.8533  -1.8477  -1.8146
    -1.5094  -1.4239  -1.3765  -1.2403   0.2515   0.2675   0.6469   0.7108
     0.7839   1.0575   1.1715   1.2337   1.2654   1.3545   1.4648   1.7249
     1.9325   1.9885   2.0211   2.0424   2.3398   2.6671   2.7800

          k = 0.0276 0.0049 0.0000 ( 40193 PWs)   bands (ev):

   -42.7471 -42.7195 -42.7188 -42.6911 -42.2143 -42.1862 -22.7683 -22.7631
   -22.7352 -22.7296 -22.7294 -22.6882 -22.6478 -22.6247 -22.6242 -22.5889
   -22.4218 -22.3890 -22.3511 -22.1717 -22.1150 -22.1146 -22.0753 -21.9862
    -4.8946  -3.6027  -2.9933  -2.9818  -2.8639  -2.6375  -2.6054  -2.5927
    -2.5863  -2.5716  -2.4601  -2.4191  -2.3946  -2.2745  -2.2674  -2.2512
    -2.2317  -2.2273  -2.2035  -2.1956  -2.1605  -2.1390  -2.1192  -2.0564
    -2.0395  -2.0276  -2.0204  -1.9812  -1.8962  -1.8586  -1.8267  -1.7939
    -1.4146  -1.3702  -1.2432  -1.1732  -0.0872   0.0214   0.4739   0.5758
     0.6942   1.0998   1.1059   1.1396   1.3063   1.4723   1.4765   1.7308
     1.8132   1.9867   2.0048   2.2358   2.4104   2.6592   2.7428

          k = 0.0276 0.0195 0.0000 ( 40176 PWs)   bands (ev):

   -42.7476 -42.7192 -42.7190 -42.6907 -42.2148 -42.1857 -22.7747 -22.7643
   -22.7416 -22.7318 -22.7273 -22.6892 -22.6484 -22.6294 -22.6186 -22.5890
   -22.4154 -22.3826 -22.3573 -22.1699 -22.1164 -22.1160 -22.0746 -21.9798
    -4.8286  -3.5397  -2.9688  -2.9533  -2.8220  -2.6329  -2.5945  -2.5743
    -2.5672  -2.5573  -2.4274  -2.4118  -2.3920  -2.2678  -2.2564  -2.2470
    -2.2264  -2.2181  -2.2013  -2.1945  -2.1554  -2.1237  -2.1164  -2.0510
    -2.0432  -2.0213  -2.0175  -1.9903  -1.8931  -1.8650  -1.8219  -1.7874
    -1.4007  -1.3035  -1.1990  -1.1060  -0.3735  -0.2035   0.3560   0.3699
     0.6048   0.9072   1.0942   1.1046   1.3325   1.3767   1.5692   1.6709
     1.7228   1.9343   1.9738   2.3812   2.5052   2.5642   2.7187

          k = 0.0276 0.0341 0.0000 ( 40189 PWs)   bands (ev):

   -42.7470 -42.7196 -42.7186 -42.6912 -42.2144 -42.1861 -22.7694 -22.7647
   -22.7363 -22.7322 -22.7264 -22.6912 -22.6492 -22.6320 -22.6144 -22.5906
   -22.4218 -22.3889 -22.3511 -22.1662 -22.1195 -22.1159 -22.0754 -21.9867
    -4.6871  -3.4127  -2.9450  -2.9093  -2.7646  -2.6031  -2.5641  -2.5476
    -2.5361  -2.5316  -2.4105  -2.3854  -2.3513  -2.2626  -2.2400  -2.2384
    -2.2095  -2.2080  -2.1995  -2.1906  -2.1541  -2.1091  -2.1028  -2.0636
    -2.0394  -2.0281  -2.0195  -1.9942  -1.8970  -1.8676  -1.8327  -1.7929
    -1.4139  -1.3893  -1.2281  -1.1062  -0.4283  -0.3975   0.1649   0.2873
     0.5184   0.6787   1.0658   1.0925   1.1975   1.3497   1.5476   1.6181
     1.6660   1.8803   1.9936   2.3124   2.5768   2.6051   2.7134

          k = 0.0276 0.0487 0.0000 ( 40159 PWs)   bands (ev):

   -42.7455 -42.7211 -42.7171 -42.6927 -42.2130 -42.1875 -22.7642 -22.7527
   -22.7302 -22.7270 -22.7195 -22.6938 -22.6510 -22.6315 -22.6123 -22.5931
   -22.4403 -22.4075 -22.3328 -22.1610 -22.1243 -22.1145 -22.0776 -22.0064
    -4.4767  -3.2363  -3.0082  -2.8306  -2.7091  -2.5509  -2.5179  -2.5039
    -2.4973  -2.4962  -2.4040  -2.3454  -2.3088  -2.2529  -2.2300  -2.2289
    -2.2130  -2.1912  -2.1816  -2.1753  -2.1541  -2.0990  -2.0808  -2.0804
    -2.0447  -2.0343  -2.0294  -1.9950  -1.9091  -1.8612  -1.8593  -1.8167
    -1.6577  -1.4032  -1.3451  -1.1456  -0.5145  -0.2639  -0.0385   0.2189
     0.4525   0.5114   1.0395   1.0531   1.0842   1.3739   1.4683   1.5958
     1.6534   1.8238   2.0511   2.2000   2.4637   2.5098   2.6687

          k = 0.0276 0.0633 0.0000 ( 40107 PWs)   bands (ev):

   -42.7432 -42.7234 -42.7148 -42.6950 -42.2107 -42.1897 -22.7629 -22.7300
   -22.7261 -22.7247 -22.6973 -22.6918 -22.6531 -22.6282 -22.6130 -22.5957
   -22.4697 -22.4368 -22.3037 -22.1547 -22.1304 -22.1117 -22.0810 -22.0375
    -4.2081  -3.1836  -3.0384  -2.7493  -2.6727  -2.4858  -2.4680  -2.4617
    -2.4522  -2.4480  -2.3977  -2.3058  -2.2927  -2.2493  -2.2358  -2.2118
    -2.2105  -2.1892  -2.1590  -2.1543  -2.1491  -2.1092  -2.0857  -2.0593
    -2.0590  -2.0458  -2.0304  -1.9963  -1.9278  -1.9165  -1.9045  -1.8330
    -1.8287  -1.5462  -1.4736  -1.1856  -0.4964  -0.2282  -0.0132   0.1239
     0.3736   0.5168   0.9965   1.0514   1.0864   1.4236   1.4542   1.5685
     1.6038   1.7835   2.1188   2.1323   2.2917   2.3846   2.7632

          k = 0.0276-0.0974 0.0000 ( 40089 PWs)   bands (ev):

   -42.7402 -42.7264 -42.7118 -42.6980 -42.2077 -42.1927 -22.7605 -22.7332
   -22.7202 -22.7003 -22.6891 -22.6561 -22.6544 -22.6233 -22.6167 -22.5976
   -22.5075 -22.4747 -22.2655 -22.1477 -22.1375 -22.1077 -22.0852 -22.0775
    -3.8977  -3.4604  -2.8648  -2.6854  -2.6781  -2.4403  -2.4393  -2.4174
    -2.4070  -2.3986  -2.3893  -2.2946  -2.2930  -2.2538  -2.2248  -2.2146
    -2.1902  -2.1814  -2.1631  -2.1458  -2.1359  -2.1312  -2.0936  -2.0761
    -2.0692  -2.0670  -2.0429  -2.0126  -2.0062  -1.9785  -1.9508  -1.9112
    -1.7511  -1.7484  -1.5855  -1.2260  -0.4100  -0.2948   0.0415   0.2827
     0.3685   0.6245   1.0517   1.0563   1.1059   1.4879   1.4909   1.5062
     1.5679   1.7715   2.0918   2.1441   2.2573   2.3796   2.6503

          k = 0.0276-0.0828 0.0000 ( 40084 PWs)   bands (ev):

   -42.7367 -42.7299 -42.7084 -42.7015 -42.2043 -42.1962 -22.7571 -22.7379
   -22.7133 -22.7037 -22.6544 -22.6465 -22.6222 -22.6173 -22.6135 -22.5993
   -22.5512 -22.5183 -22.2206 -22.1451 -22.1406 -22.1237 -22.1027 -22.0899
    -3.7852  -3.5698  -2.7659  -2.7636  -2.6653  -2.4452  -2.4327  -2.4180
    -2.3978  -2.3715  -2.3151  -2.3062  -2.2788  -2.2733  -2.2374  -2.2054
    -2.1819  -2.1776  -2.1731  -2.1700  -2.1556  -2.1475  -2.1085  -2.1081
    -2.1026  -2.0956  -2.0852  -2.0380  -2.0318  -2.0016  -1.9740  -1.9662
    -1.8289  -1.6898  -1.6128  -1.2824  -0.4587  -0.0201   0.1009   0.4043
     0.5479   0.7919   1.0448   1.1556   1.1607   1.3677   1.5518   1.5675
     1.6086   1.7874   2.1163   2.1334   2.3016   2.4665   2.4967

          k = 0.0276-0.0682 0.0000 ( 40105 PWs)   bands (ev):

   -42.7336 -42.7330 -42.7052 -42.7047 -42.2005 -42.2000 -22.7528 -22.7432
   -22.7075 -22.7060 -22.6527 -22.6286 -22.6109 -22.6018 -22.5999 -22.5976
   -22.5670 -22.5647 -22.1727 -22.1720 -22.1525 -22.1335 -22.0971 -22.0949
    -4.1073  -3.2634  -2.9518  -2.7445  -2.6928  -2.4817  -2.4723  -2.4626
    -2.4313  -2.3678  -2.3543  -2.2961  -2.2780  -2.2487  -2.2453  -2.2238
    -2.2028  -2.1859  -2.1797  -2.1754  -2.1650  -2.1402  -2.1365  -2.1363
    -2.1148  -2.0871  -2.0862  -2.0688  -2.0355  -1.9982  -1.9849  -1.9455
    -1.8471  -1.7348  -1.4832  -1.3442  -0.3691   0.2761   0.3414   0.5093
     0.7053   0.9639   1.0281   1.2422   1.2554   1.2833   1.5405   1.5467
     1.6854   1.8814   2.1293   2.2503   2.2545   2.3837   2.5979

          k = 0.0276-0.0536 0.0000 ( 40123 PWs)   bands (ev):

   -42.7373 -42.7294 -42.7089 -42.7010 -42.2038 -42.1967 -22.7485 -22.7479
   -22.7116 -22.6994 -22.6492 -22.6436 -22.6348 -22.6107 -22.6048 -22.6045
   -22.5530 -22.5201 -22.2211 -22.1596 -22.1272 -22.1228 -22.0999 -22.0913
    -4.3943  -3.1738  -3.0446  -2.7778  -2.7216  -2.6259  -2.5074  -2.5061
    -2.4792  -2.4530  -2.3555  -2.3084  -2.2878  -2.2701  -2.2590  -2.2441
    -2.2126  -2.1874  -2.1844  -2.1690  -2.1647  -2.1515  -2.1270  -2.1225
    -2.0831  -2.0737  -2.0728  -2.0559  -2.0024  -1.9948  -1.9299  -1.9277
    -1.8507  -1.7294  -1.4003  -1.3909  -0.1173   0.5097   0.6492   0.7253
     0.7536   0.9678   1.0993   1.2644   1.3011   1.3745   1.4162   1.4440
     1.6640   2.0920   2.1377   2.2032   2.2742   2.3998   2.5862

          k = 0.0276-0.0390 0.0000 ( 40113 PWs)   bands (ev):

   -42.7407 -42.7260 -42.7123 -42.6976 -42.2073 -42.1932 -22.7535 -22.7428
   -22.7161 -22.6941 -22.6861 -22.6532 -22.6440 -22.6400 -22.6088 -22.5987
   -22.5087 -22.4758 -22.2658 -22.1653 -22.1218 -22.1046 -22.0859 -22.0766
    -4.6263  -3.3718  -2.9805  -2.8221  -2.7795  -2.6968  -2.5479  -2.5374
    -2.5301  -2.5191  -2.3639  -2.3634  -2.3247  -2.3075  -2.2515  -2.2475
    -2.2268  -2.2000  -2.1928  -2.1846  -2.1659  -2.1601  -2.1052  -2.1007
    -2.0707  -2.0664  -2.0420  -1.9872  -1.9707  -1.9257  -1.9165  -1.8506
    -1.8187  -1.6727  -1.4167  -1.3478   0.2197   0.6112   0.8075   0.8224
     0.8313   1.0009   1.1894   1.2278   1.2538   1.3055   1.4291   1.5217
     1.5549   2.0801   2.1517   2.2573   2.3164   2.3371   2.5361

          k = 0.0276-0.0244 0.0000 ( 40157 PWs)   bands (ev):

   -42.7436 -42.7231 -42.7152 -42.6947 -42.2104 -42.1901 -22.7577 -22.7379
   -22.7224 -22.7209 -22.6910 -22.6890 -22.6440 -22.6377 -22.6137 -22.5939
   -22.4703 -22.4374 -22.3039 -22.1694 -22.1179 -22.1088 -22.0812 -22.0365
    -4.7914  -3.5166  -2.9931  -2.8995  -2.8614  -2.6506  -2.5797  -2.5761
    -2.5672  -2.5607  -2.4268  -2.3750  -2.3733  -2.3009  -2.2602  -2.2345
    -2.2307  -2.2236  -2.2108  -2.1860  -2.1633  -2.1628  -2.1091  -2.0829
    -2.0603  -2.0454  -2.0345  -1.9782  -1.9095  -1.8914  -1.8562  -1.8508
    -1.6646  -1.5473  -1.4259  -1.2972   0.4630   0.5274   0.5947   0.8683
     0.9344   1.0099   1.0635   1.2562   1.2896   1.3392   1.3821   1.6705
     1.7116   2.0232   2.0497   2.1197   2.3116   2.5336   2.6521

          k = 0.0413-0.0146 0.0000 ( 40174 PWs)   bands (ev):

   -42.7435 -42.7231 -42.7151 -42.6948 -42.2105 -42.1901 -22.7578 -22.7357
   -22.7240 -22.7230 -22.6939 -22.6898 -22.6424 -22.6306 -22.6194 -22.5950
   -22.4702 -22.4373 -22.3038 -22.1661 -22.1204 -22.1094 -22.0811 -22.0367
    -4.6901  -3.4285  -3.0496  -2.8535  -2.8278  -2.5950  -2.5660  -2.5525
    -2.5474  -2.5424  -2.4435  -2.3572  -2.3252  -2.2810  -2.2545  -2.2333
    -2.2284  -2.2173  -2.1952  -2.1922  -2.1620  -2.1455  -2.0937  -2.0882
    -2.0571  -2.0482  -2.0341  -1.9811  -1.9147  -1.8969  -1.8588  -1.8531
    -1.7201  -1.4604  -1.4013  -1.3346   0.1192   0.3819   0.5041   0.6843
     0.7568   0.9853   1.0048   1.1462   1.1543   1.3347   1.3939   1.7418
     1.9116   1.9620   1.9919   2.0645   2.4274   2.4730   2.5360

          k = 0.0413-0.0000 0.0000 ( 40179 PWs)   bands (ev):

   -42.7457 -42.7209 -42.7173 -42.6926 -42.2128 -42.1876 -22.7616 -22.7515
   -22.7302 -22.7290 -22.7183 -22.6920 -22.6455 -22.6266 -22.6218 -22.5921
   -22.4405 -22.4076 -22.3329 -22.1670 -22.1192 -22.1132 -22.0776 -22.0060
    -4.7269  -3.4550  -3.0061  -2.9009  -2.8112  -2.5949  -2.5670  -2.5643
    -2.5524  -2.5441  -2.4441  -2.3804  -2.3407  -2.2612  -2.2587  -2.2439
    -2.2122  -2.2117  -2.2045  -2.1972  -2.1598  -2.1279  -2.0990  -2.0738
    -2.0402  -2.0341  -2.0331  -1.9836  -1.9061  -1.8592  -1.8532  -1.8140
    -1.5746  -1.3946  -1.3012  -1.2541  -0.1475  -0.0147   0.4247   0.4952
     0.5860   0.8449   1.0681   1.1492   1.2351   1.3551   1.4891   1.6450
     1.8050   1.9497   2.0169   2.1346   2.5519   2.5956   2.6257

          k = 0.0413 0.0146 0.0000 ( 40189 PWs)   bands (ev):

   -42.7470 -42.7196 -42.7186 -42.6912 -42.2144 -42.1861 -22.7694 -22.7647
   -22.7363 -22.7322 -22.7264 -22.6912 -22.6492 -22.6320 -22.6144 -22.5906
   -22.4218 -22.3889 -22.3511 -22.1662 -22.1195 -22.1159 -22.0754 -21.9867
    -4.6871  -3.4127  -2.9450  -2.9093  -2.7646  -2.6031  -2.5641  -2.5476
    -2.5361  -2.5316  -2.4105  -2.3854  -2.3513  -2.2626  -2.2400  -2.2384
    -2.2095  -2.2080  -2.1995  -2.1906  -2.1541  -2.1091  -2.1028  -2.0636
    -2.0393  -2.0281  -2.0195  -1.9942  -1.8970  -1.8676  -1.8327  -1.7929
    -1.4139  -1.3893  -1.2281  -1.1062  -0.4283  -0.3975   0.1649   0.2873
     0.5184   0.6787   1.0658   1.0925   1.1975   1.3497   1.5476   1.6181
     1.6660   1.8803   1.9934   2.3124   2.5768   2.6037   2.7133

          k = 0.0413 0.0292 0.0000 ( 40184 PWs)   bands (ev):

   -42.7474 -42.7192 -42.7190 -42.6908 -42.2149 -42.1855 -22.7760 -22.7671
   -22.7429 -22.7330 -22.7242 -22.6911 -22.6539 -22.6344 -22.6093 -22.5902
   -22.4153 -22.3825 -22.3572 -22.1638 -22.1214 -22.1174 -22.0748 -21.9803
    -4.5727  -3.3073  -2.8935  -2.8922  -2.6996  -2.5856  -2.5453  -2.5261
    -2.5073  -2.5071  -2.3721  -2.3616  -2.3534  -2.2605  -2.2292  -2.2157
    -2.2133  -2.2040  -2.1823  -2.1786  -2.1499  -2.0997  -2.0914  -2.0634
    -2.0431  -2.0276  -2.0107  -2.0026  -1.8923  -1.8741  -1.8302  -1.7863
    -1.4008  -1.3154  -1.2003  -0.9883  -0.7539  -0.5914  -0.0872   0.1374
     0.4392   0.4773   0.9760   1.0532   1.0890   1.3351   1.4090   1.5517
     1.7328   1.8146   2.0037   2.3753   2.5026   2.5616   2.8363

          k = 0.0413 0.0438 0.0000 ( 40140 PWs)   bands (ev):

   -42.7468 -42.7197 -42.7184 -42.6914 -42.2145 -42.1859 -22.7707 -22.7685
   -22.7376 -22.7314 -22.7239 -22.6914 -22.6590 -22.6340 -22.6074 -22.5900
   -22.4217 -22.3888 -22.3510 -22.1601 -22.1248 -22.1173 -22.0755 -21.9872
    -4.3890  -3.1523  -2.8969  -2.8656  -2.6334  -2.5427  -2.5087  -2.4903
    -2.4736  -2.4703  -2.3571  -2.3437  -2.3152  -2.2524  -2.2232  -2.2207
    -2.1956  -2.1825  -2.1720  -2.1624  -2.1498  -2.0863  -2.0829  -2.0721
    -2.0441  -2.0276  -2.0268  -1.9939  -1.8966  -1.8700  -1.8420  -1.7943
    -1.4816  -1.4592  -1.2663  -0.9671  -0.6984  -0.6751  -0.3270   0.0370
     0.2887   0.4176   0.8928   0.8981   1.0877   1.2880   1.3240   1.4926
     1.7585   1.7931   2.0483   2.2507   2.4675   2.6090   2.6741

          k = 0.0413 0.0585 0.0000 ( 40130 PWs)   bands (ev):

   -42.7453 -42.7212 -42.7169 -42.6928 -42.2131 -42.1873 -22.7686 -22.7539
   -22.7277 -22.7253 -22.7207 -22.6924 -22.6631 -22.6315 -22.6089 -22.5898
   -22.4402 -22.4073 -22.3328 -22.1553 -22.1296 -22.1157 -22.0776 -22.0069
    -4.1451  -3.0042  -2.9744  -2.8419  -2.5814  -2.4851  -2.4557  -2.4437
    -2.4354  -2.4323  -2.3530  -2.3108  -2.2972  -2.2475  -2.2359  -2.2066
    -2.1794  -2.1749  -2.1590  -2.1537  -2.1419  -2.0981  -2.0718  -2.0675
    -2.0524  -2.0425  -2.0212  -1.9900  -1.9097  -1.8676  -1.8419  -1.8255
    -1.7555  -1.5719  -1.4441  -0.9935  -0.6333  -0.5275  -0.4299  -0.0459
     0.1821   0.4775   0.8176   0.8438   1.1023   1.2391   1.3385   1.4782
     1.7163   1.8006   2.1171   2.1593   2.3806   2.4782   2.7155

          k = 0.0413-0.1023 0.0000 ( 40075 PWs)   bands (ev):

   -42.7430 -42.7235 -42.7146 -42.6951 -42.2108 -42.1896 -22.7671 -22.7294
   -22.7255 -22.7224 -22.6952 -22.6921 -22.6653 -22.6276 -22.6129 -22.5901
   -22.4694 -22.4366 -22.3037 -22.1498 -22.1353 -22.1127 -22.0808 -22.0378
    -3.8551  -3.2299  -2.8466  -2.8008  -2.5569  -2.4297  -2.4137  -2.3983
    -2.3972  -2.3896  -2.3517  -2.2981  -2.2977  -2.2506  -2.2351  -2.1933
    -2.1865  -2.1633  -2.1586  -2.1454  -2.1334  -2.1194  -2.0844  -2.0641
    -2.0587  -2.0571  -2.0096  -1.9977  -1.9591  -1.9299  -1.9237  -1.8556
    -1.7620  -1.6883  -1.6872  -1.0717  -0.7475  -0.4079  -0.1288  -0.0606
     0.1666   0.6219   0.7555   0.9141   1.1370   1.2751   1.3935   1.5077
     1.7008   1.7458   2.1356   2.1992   2.3463   2.3676   2.7114

          k = 0.0413-0.0877 0.0000 ( 40071 PWs)   bands (ev):

   -42.7401 -42.7265 -42.7117 -42.6981 -42.2078 -42.1926 -22.7641 -22.7329
   -22.7161 -22.6971 -22.6897 -22.6652 -22.6567 -22.6225 -22.6182 -22.5915
   -22.5073 -22.4744 -22.2654 -22.1438 -22.1416 -22.1084 -22.0849 -22.0778
    -3.5395  -3.5327  -2.8580  -2.7084  -2.5934  -2.4146  -2.3963  -2.3808
    -2.3600  -2.3596  -2.3248  -2.3059  -2.3041  -2.2627  -2.2152  -2.2019
    -2.1752  -2.1740  -2.1610  -2.1569  -2.1440  -2.1227  -2.1054  -2.0924
    -2.0873  -2.0732  -2.0720  -2.0254  -2.0019  -1.9734  -1.9543  -1.9445
    -1.8355  -1.7831  -1.5935  -1.1864  -0.8432  -0.1361  -0.0131   0.1879
     0.2544   0.7273   0.8094   1.0429   1.1954   1.3867   1.4878   1.5619
     1.6467   1.7213   2.1844   2.2308   2.3241   2.4458   2.5275

          k = 0.0413-0.0731 0.0000 ( 40073 PWs)   bands (ev):

   -42.7366 -42.7299 -42.7083 -42.7016 -42.2043 -42.1962 -22.7596 -22.7379
   -22.7097 -22.7008 -22.6624 -22.6469 -22.6241 -22.6166 -22.6138 -22.5944
   -22.5510 -22.5181 -22.2205 -22.1481 -22.1379 -22.1238 -22.1031 -22.0896
    -3.8526  -3.2313  -2.8984  -2.7447  -2.6854  -2.4414  -2.4195  -2.3992
    -2.3805  -2.3199  -2.3152  -2.2861  -2.2838  -2.2553  -2.2380  -2.2314
    -2.1881  -2.1803  -2.1792  -2.1680  -2.1585  -2.1477  -2.1422  -2.1186
    -2.1096  -2.0941  -2.0891  -2.0669  -2.0507  -2.0001  -1.9789  -1.9571
    -1.8515  -1.8077  -1.4568  -1.2903  -0.7678   0.1650   0.1806   0.3178
     0.4980   0.7688   0.9792   1.1613   1.2813   1.4944   1.5136   1.5972
     1.6188   1.7885   2.1628   2.2873   2.3597   2.3946   2.5746

          k = 0.0413-0.0585 0.0000 ( 40110 PWs)   bands (ev):

   -42.7336 -42.7330 -42.7052 -42.7046 -42.2006 -42.2000 -22.7541 -22.7432
   -22.7057 -22.7040 -22.6569 -22.6297 -22.6105 -22.6002 -22.5989 -22.5975
   -22.5672 -22.5645 -22.1727 -22.1720 -22.1542 -22.1321 -22.0972 -22.0947
    -4.1479  -3.0323  -2.9654  -2.8851  -2.7139  -2.4749  -2.4746  -2.4656
    -2.4331  -2.3749  -2.3155  -2.3148  -2.2802  -2.2564  -2.2423  -2.2057
    -2.2039  -2.1986  -2.1904  -2.1713  -2.1604  -2.1549  -2.1518  -2.1379
    -2.1257  -2.0907  -2.0784  -2.0750  -2.0365  -1.9991  -1.9872  -1.9399
    -1.8522  -1.7874  -1.4118  -1.3574  -0.4883   0.3899   0.4704   0.4798
     0.6494   0.9088   1.0906   1.2422   1.3369   1.3809   1.5111   1.5667
     1.6458   1.9276   2.1193   2.2815   2.3466   2.3839   2.6537

          k = 0.0413-0.0438 0.0000 ( 40123 PWs)   bands (ev):

   -42.7373 -42.7294 -42.7089 -42.7010 -42.2038 -42.1967 -22.7485 -22.7479
   -22.7116 -22.6994 -22.6492 -22.6436 -22.6348 -22.6107 -22.6048 -22.6045
   -22.5530 -22.5201 -22.2211 -22.1596 -22.1272 -22.1228 -22.0999 -22.0913
    -4.3943  -3.1738  -3.0446  -2.7778  -2.7216  -2.6259  -2.5074  -2.5061
    -2.4792  -2.4530  -2.3555  -2.3084  -2.2878  -2.2701  -2.2590  -2.2441
    -2.2126  -2.1874  -2.1844  -2.1690  -2.1647  -2.1515  -2.1270  -2.1225
    -2.0831  -2.0737  -2.0728  -2.0559  -2.0024  -1.9948  -1.9299  -1.9277
    -1.8507  -1.7294  -1.4003  -1.3909  -0.1173   0.5097   0.6492   0.7253
     0.7536   0.9678   1.0993   1.2644   1.3011   1.3745   1.4162   1.4440
     1.6640   2.0920   2.1377   2.2032   2.2742   2.3998   2.5855

          k = 0.0413-0.0292 0.0000 ( 40129 PWs)   bands (ev):

   -42.7406 -42.7260 -42.7123 -42.6976 -42.2074 -42.1932 -22.7534 -22.7416
   -22.7179 -22.6960 -22.6864 -22.6534 -22.6400 -22.6390 -22.6118 -22.5992
   -22.5086 -22.4757 -22.2658 -22.1636 -22.1232 -22.1049 -22.0858 -22.0766
    -4.5778  -3.3330  -3.0624  -2.8121  -2.7607  -2.6391  -2.5372  -2.5307
    -2.5243  -2.5091  -2.4106  -2.3185  -2.3064  -2.2959  -2.2498  -2.2465
    -2.2179  -2.2114  -2.1851  -2.1819  -2.1599  -2.1596  -2.1071  -2.0911
    -2.0708  -2.0681  -2.0412  -1.9869  -1.9731  -1.9326  -1.9207  -1.8504
    -1.8353  -1.6215  -1.4023  -1.3787   0.2417   0.3635   0.7274   0.8188
     0.9262   0.9376   0.9874   1.0718   1.2049   1.3284   1.3847   1.6399
     1.7714   1.9913   2.1356   2.2021   2.3098   2.3386   2.4923

          k = 0.0551-0.0195 0.0000 ( 40173 PWs)   bands (ev):

   -42.7405 -42.7261 -42.7121 -42.6977 -42.2075 -42.1930 -22.7540 -22.7385
   -22.7213 -22.6996 -22.6871 -22.6542 -22.6379 -22.6305 -22.6189 -22.6005
   -22.5083 -22.4754 -22.2657 -22.1591 -22.1268 -22.1057 -22.0857 -22.0769
    -4.4343  -3.2216  -3.2078  -2.7895  -2.7117  -2.5461  -2.5122  -2.5097
    -2.5070  -2.4805  -2.4311  -2.3019  -2.2830  -2.2677  -2.2429  -2.2317
    -2.2251  -2.1953  -2.1949  -2.1662  -2.1539  -2.1349  -2.1116  -2.0724
    -2.0715  -2.0648  -2.0408  -1.9899  -1.9813  -1.9527  -1.9318  -1.8621
    -1.8449  -1.4964  -1.4692  -1.3761  -0.0110   0.3129   0.5347   0.5524
     0.5879   0.8746   0.9042   1.0751   1.1109   1.3912   1.4816   1.7622
     1.8253   1.8896   1.9390   2.0781   2.2603   2.4548   2.5831

          k = 0.0551-0.0049 0.0000 ( 40159 PWs)   bands (ev):

   -42.7433 -42.7232 -42.7150 -42.6949 -42.2106 -42.1899 -22.7593 -22.7324
   -22.7267 -22.7238 -22.6969 -22.6908 -22.6436 -22.6264 -22.6204 -22.5965
   -22.4699 -22.4370 -22.3038 -22.1606 -22.1250 -22.1106 -22.0811 -22.0371
    -4.4923  -3.2614  -3.1204  -2.7841  -2.7649  -2.5378  -2.5195  -2.5141
    -2.5111  -2.5041  -2.4330  -2.3305  -2.2980  -2.2485  -2.2451  -2.2315
    -2.2265  -2.1992  -2.1864  -2.1751  -2.1563  -2.1171  -2.0945  -2.0740
    -2.0567  -2.0458  -2.0340  -1.9902  -1.9224  -1.9064  -1.8702  -1.8500
    -1.7829  -1.4206  -1.3831  -1.3296  -0.2739   0.1628   0.2609   0.4204
     0.4888   0.6642   1.0298   1.0706   1.1743   1.4162   1.4777   1.6150
     1.7688   1.8822   2.0486   2.0805   2.3250   2.4501   2.7687

          k = 0.0551 0.0097 0.0000 ( 40159 PWs)   bands (ev):

   -42.7455 -42.7211 -42.7171 -42.6927 -42.2130 -42.1875 -22.7642 -22.7527
   -22.7302 -22.7270 -22.7195 -22.6938 -22.6510 -22.6315 -22.6123 -22.5931
   -22.4403 -22.4075 -22.3328 -22.1610 -22.1243 -22.1145 -22.0776 -22.0064
    -4.4767  -3.2363  -3.0082  -2.8306  -2.7091  -2.5509  -2.5179  -2.5039
    -2.4973  -2.4962  -2.4040  -2.3454  -2.3088  -2.2529  -2.2300  -2.2289
    -2.2130  -2.1912  -2.1816  -2.1753  -2.1541  -2.0990  -2.0808  -2.0804
    -2.0447  -2.0343  -2.0294  -1.9950  -1.9091  -1.8612  -1.8593  -1.8167
    -1.6577  -1.4032  -1.3451  -1.1456  -0.5145  -0.2639  -0.0385   0.2189
     0.4525   0.5114   1.0395   1.0531   1.0842   1.3739   1.4683   1.5958
     1.6534   1.8238   2.0511   2.2000   2.4637   2.5098   2.6687

          k = 0.0551 0.0244 0.0000 ( 40140 PWs)   bands (ev):

   -42.7468 -42.7197 -42.7184 -42.6914 -42.2145 -42.1859 -22.7707 -22.7685
   -22.7376 -22.7314 -22.7239 -22.6914 -22.6590 -22.6340 -22.6074 -22.5900
   -22.4217 -22.3888 -22.3510 -22.1601 -22.1248 -22.1173 -22.0755 -21.9872
    -4.3890  -3.1523  -2.8969  -2.8656  -2.6334  -2.5427  -2.5087  -2.4903
    -2.4736  -2.4703  -2.3571  -2.3437  -2.3152  -2.2524  -2.2232  -2.2207
    -2.1956  -2.1825  -2.1720  -2.1624  -2.1498  -2.0863  -2.0829  -2.0721
    -2.0441  -2.0276  -2.0268  -1.9939  -1.8966  -1.8700  -1.8420  -1.7943
    -1.4816  -1.4592  -1.2663  -0.9671  -0.6984  -0.6751  -0.3270   0.0370
     0.2887   0.4176   0.8928   0.8981   1.0877   1.2880   1.3240   1.4926
     1.7585   1.7930   2.0483   2.2507   2.4667   2.6090   2.6741

          k = 0.0551 0.0390 0.0000 ( 40128 PWs)   bands (ev):

   -42.7472 -42.7193 -42.7188 -42.6909 -42.2151 -42.1853 -22.7773 -22.7715
   -22.7441 -22.7305 -22.7226 -22.6896 -22.6662 -22.6345 -22.6060 -22.5870
   -22.4153 -22.3825 -22.3572 -22.1581 -22.1267 -22.1187 -22.0748 -21.9807
    -4.2337  -3.0246  -2.9019  -2.8276  -2.5547  -2.5159  -2.4802  -2.4695
    -2.4405  -2.4370  -2.3252  -2.3190  -2.3157  -2.2438  -2.2258  -2.2100
    -2.1799  -2.1713  -2.1559  -2.1528  -2.1414  -2.0852  -2.0824  -2.0671
    -2.0402  -2.0352  -2.0218  -1.9855  -1.8905  -1.8748  -1.8419  -1.7878
    -1.5649  -1.3302  -1.2237  -1.0834  -0.7946  -0.7221  -0.5862  -0.0927
     0.1233   0.3606   0.7057   0.7351   1.0821   1.1129   1.2801   1.4224
     1.7065   1.9045   2.0802   2.1786   2.4039   2.7522   3.0213

          k = 0.0551 0.0536 0.0000 ( 40099 PWs)   bands (ev):

   -42.7466 -42.7198 -42.7183 -42.6915 -42.2146 -42.1858 -22.7729 -22.7719
   -22.7386 -22.7276 -22.7231 -22.6887 -22.6716 -22.6335 -22.6074 -22.5847
   -22.4216 -22.3888 -22.3510 -22.1551 -22.1296 -22.1184 -22.0755 -21.9876
    -4.0187  -2.9585  -2.8690  -2.8506  -2.4907  -2.4790  -2.4347  -2.4338
    -2.4030  -2.4022  -2.3164  -2.2994  -2.2968  -2.2355  -2.2328  -2.2008
    -2.1650  -2.1597  -2.1479  -2.1464  -2.1336  -2.0951  -2.0761  -2.0656
    -2.0450  -2.0366  -2.0126  -1.9801  -1.8948  -1.8566  -1.8516  -1.7998
    -1.6896  -1.5783  -1.3319  -0.9341  -0.8624  -0.7005  -0.6047  -0.1812
     0.0125   0.4069   0.5943   0.5993   1.0039   1.0920   1.2618   1.3997
     1.6675   1.9662   2.0994   2.1305   2.3376   2.6460   2.8813

          k = 0.0551-0.1072 0.0000 ( 40078 PWs)   bands (ev):

   -42.7452 -42.7213 -42.7168 -42.6929 -42.2132 -42.1872 -22.7723 -22.7548
   -22.7252 -22.7234 -22.7215 -22.6892 -22.6744 -22.6309 -22.6106 -22.5841
   -22.4401 -22.4072 -22.3328 -22.1513 -22.1336 -22.1166 -22.0776 -22.0072
    -3.7563  -3.0191  -2.9982  -2.7429  -2.4498  -2.4379  -2.3957  -2.3889
    -2.3776  -2.3583  -2.3159  -2.3014  -2.2801  -2.2421  -2.2395  -2.1858
    -2.1640  -2.1630  -2.1504  -2.1383  -2.1236  -2.1078  -2.0763  -2.0655
    -2.0506  -2.0419  -2.0023  -1.9866  -1.9088  -1.8693  -1.8484  -1.8349
    -1.8165  -1.7410  -1.5463  -1.0638  -0.8750  -0.4918  -0.4322  -0.2222
    -0.0029   0.4863   0.5667   0.6717   0.9885   1.1234   1.2868   1.4262
     1.6485   1.9569   2.0789   2.1858   2.3403   2.5426   2.7836

          k = 0.0551-0.0926 0.0000 ( 40066 PWs)   bands (ev):

   -42.7429 -42.7236 -42.7146 -42.6952 -42.2109 -42.1895 -22.7697 -22.7296
   -22.7259 -22.7185 -22.6944 -22.6906 -22.6739 -22.6271 -22.6148 -22.5855
   -22.4693 -22.4364 -22.3036 -22.1470 -22.1382 -22.1132 -22.0807 -22.0380
    -3.4642  -3.2543  -3.0936  -2.6662  -2.4437  -2.3949  -2.3839  -2.3664
    -2.3578  -2.3270  -2.3268  -2.3113  -2.2776  -2.2484  -2.2394  -2.1909
    -2.1907  -2.1600  -2.1476  -2.1463  -2.1245  -2.1093  -2.0966  -2.0774
    -2.0762  -2.0449  -2.0151  -1.9979  -1.9930  -1.9296  -1.9268  -1.8587
    -1.8536  -1.7873  -1.5569  -1.2022  -1.0259  -0.2045  -0.1668  -0.1386
     0.0593   0.4449   0.7672   0.8538   1.0972   1.1719   1.3635   1.4953
     1.6573   1.8637   2.1292   2.2346   2.4532   2.5103   2.6484

          k = 0.0551-0.0779 0.0000 ( 40046 PWs)   bands (ev):

   -42.7400 -42.7265 -42.7116 -42.6982 -42.2079 -42.1926 -22.7654 -22.7330
   -22.7138 -22.6955 -22.6900 -22.6698 -22.6570 -22.6222 -22.6194 -22.5889
   -22.5072 -22.4743 -22.2654 -22.1432 -22.1424 -22.1086 -22.0848 -22.0779
    -3.5576  -3.1792  -3.1572  -2.6520  -2.5419  -2.4099  -2.3716  -2.3695
    -2.3449  -2.3398  -2.3276  -2.3186  -2.2689  -2.2542  -2.2225  -2.1980
    -2.1973  -2.1701  -2.1533  -2.1503  -2.1456  -2.1338  -2.1168  -2.1069
    -2.0901  -2.0886  -2.0592  -2.0454  -2.0016  -1.9719  -1.9613  -1.9551
    -1.8552  -1.8498  -1.4265  -1.1855  -1.1182  -0.0111   0.0134   0.1455
     0.2260   0.5309   0.9048   1.0367   1.2321   1.3300   1.4793   1.5805
     1.7019   1.7056   2.2200   2.2239   2.4785   2.5298   2.6080

          k = 0.0551-0.0633 0.0000 ( 40073 PWs)   bands (ev):

   -42.7366 -42.7299 -42.7083 -42.7016 -42.2043 -42.1962 -22.7596 -22.7379
   -22.7097 -22.7008 -22.6624 -22.6469 -22.6241 -22.6166 -22.6138 -22.5944
   -22.5510 -22.5181 -22.2205 -22.1481 -22.1379 -22.1238 -22.1031 -22.0896
    -3.8526  -3.2313  -2.8984  -2.7447  -2.6854  -2.4414  -2.4195  -2.3992
    -2.3805  -2.3199  -2.3152  -2.2861  -2.2838  -2.2553  -2.2380  -2.2314
    -2.1881  -2.1803  -2.1792  -2.1680  -2.1585  -2.1477  -2.1422  -2.1186
    -2.1096  -2.0941  -2.0891  -2.0669  -2.0507  -2.0001  -1.9789  -1.9571
    -1.8515  -1.8077  -1.4568  -1.2903  -0.7678   0.1650   0.1806   0.3178
     0.4980   0.7688   0.9792   1.1613   1.2813   1.4944   1.5136   1.5972
     1.6188   1.7885   2.1630   2.2873   2.3598   2.3946   2.5748

          k = 0.0551-0.0487 0.0000 ( 40105 PWs)   bands (ev):

   -42.7336 -42.7330 -42.7052 -42.7047 -42.2005 -42.2000 -22.7528 -22.7432
   -22.7075 -22.7060 -22.6527 -22.6286 -22.6109 -22.6018 -22.5999 -22.5976
   -22.5670 -22.5647 -22.1727 -22.1720 -22.1525 -22.1335 -22.0971 -22.0949
    -4.1073  -3.2634  -2.9518  -2.7445  -2.6928  -2.4817  -2.4723  -2.4626
    -2.4313  -2.3678  -2.3543  -2.2961  -2.2780  -2.2487  -2.2453  -2.2238
    -2.2028  -2.1859  -2.1797  -2.1754  -2.1650  -2.1402  -2.1365  -2.1363
    -2.1148  -2.0871  -2.0862  -2.0688  -2.0355  -1.9982  -1.9849  -1.9455
    -1.8471  -1.7348  -1.4832  -1.3442  -0.3691   0.2761   0.3414   0.5093
     0.7053   0.9639   1.0281   1.2422   1.2554   1.2833   1.5405   1.5467
     1.6853   1.8814   2.1293   2.2503   2.2545   2.3837   2.5979

          k = 0.0551-0.0341 0.0000 ( 40134 PWs)   bands (ev):

   -42.7372 -42.7294 -42.7088 -42.7011 -42.2039 -42.1967 -22.7486 -22.7456
   -22.7146 -22.7027 -22.6445 -22.6413 -22.6331 -22.6112 -22.6101 -22.6052
   -22.5527 -22.5198 -22.2210 -22.1564 -22.1298 -22.1229 -22.1004 -22.0912
    -4.3044  -3.2568  -3.1165  -2.7794  -2.6066  -2.5924  -2.4970  -2.4932
    -2.4713  -2.4358  -2.4020  -2.2881  -2.2679  -2.2649  -2.2460  -2.2279
    -2.2073  -2.2012  -2.1843  -2.1635  -2.1520  -2.1451  -2.1292  -2.1112
    -2.0810  -2.0751  -2.0645  -2.0538  -2.0075  -1.9939  -1.9378  -1.9365
    -1.8443  -1.6320  -1.4888  -1.3673   0.0104   0.2053   0.5019   0.7015
     0.8226   0.8895   0.9082   1.0874   1.2026   1.3485   1.5193   1.5810
     1.7797   1.9686   1.9688   2.1348   2.3147   2.3883   2.5959

          k = 0.0689-0.0244 0.0000 ( 40097 PWs)   bands (ev):

   -42.7370 -42.7296 -42.7087 -42.7012 -42.2040 -42.1965 -22.7498 -22.7419
   -22.7173 -22.7060 -22.6450 -22.6340 -22.6307 -22.6167 -22.6121 -22.6063
   -22.5522 -22.5193 -22.2209 -22.1511 -22.1344 -22.1232 -22.1011 -22.0908
    -4.1294  -3.4734  -3.0121  -2.7883  -2.5748  -2.4971  -2.4806  -2.4745
    -2.4577  -2.4246  -2.4033  -2.2768  -2.2682  -2.2614  -2.2322  -2.2226
    -2.2079  -2.1949  -2.1936  -2.1553  -2.1368  -2.1329  -2.1175  -2.1065
    -2.0895  -2.0635  -2.0551  -2.0531  -2.0059  -1.9990  -1.9533  -1.9494
    -1.8186  -1.6262  -1.4691  -1.3714  -0.0687   0.2152   0.2669   0.4058
     0.7533   0.8137   0.8336   1.0420   1.1725   1.4154   1.5934   1.7358
     1.7581   1.7650   1.8288   1.9258   2.3616   2.5460   2.6270

          k = 0.0689-0.0097 0.0000 ( 40110 PWs)   bands (ev):

   -42.7403 -42.7262 -42.7120 -42.6979 -42.2076 -42.1929 -22.7564 -22.7350
   -22.7226 -22.7017 -22.6881 -22.6551 -22.6429 -22.6234 -22.6205 -22.6013
   -22.5079 -22.4750 -22.2656 -22.1532 -22.1321 -22.1068 -22.0855 -22.0772
    -4.2033  -3.3480  -3.0537  -2.7463  -2.6626  -2.4830  -2.4752  -2.4748
    -2.4659  -2.4384  -2.4248  -2.2874  -2.2858  -2.2427  -2.2409  -2.2319
    -2.2079  -2.1991  -2.1730  -2.1510  -2.1450  -2.1215  -2.1019  -2.0755
    -2.0600  -2.0476  -2.0460  -1.9999  -1.9980  -1.9742  -1.9434  -1.8865
    -1.8206  -1.6053  -1.4108  -1.3429  -0.2932   0.0975   0.2337   0.3979
     0.4546   0.5866   0.9977   1.0694   1.1995   1.4452   1.5145   1.6166
     1.6397   1.8295   1.9767   2.0577   2.2624   2.4072   2.7914

          k = 0.0689 0.0049 0.0000 ( 40107 PWs)   bands (ev):

   -42.7432 -42.7234 -42.7148 -42.6950 -42.2107 -42.1897 -22.7629 -22.7300
   -22.7261 -22.7247 -22.6973 -22.6918 -22.6531 -22.6282 -22.6130 -22.5957
   -22.4697 -22.4368 -22.3037 -22.1547 -22.1304 -22.1117 -22.0810 -22.0375
    -4.2081  -3.1836  -3.0384  -2.7493  -2.6727  -2.4858  -2.4680  -2.4617
    -2.4522  -2.4480  -2.3977  -2.3058  -2.2927  -2.2493  -2.2358  -2.2118
    -2.2105  -2.1892  -2.1590  -2.1543  -2.1491  -2.1092  -2.0857  -2.0593
    -2.0590  -2.0458  -2.0304  -1.9963  -1.9278  -1.9165  -1.9045  -1.8330
    -1.8287  -1.5462  -1.4736  -1.1856  -0.4964  -0.2282  -0.0132   0.1239
     0.3736   0.5168   0.9965   1.0514   1.0864   1.4236   1.4542   1.5685
     1.6038   1.7835   2.1188   2.1323   2.2917   2.3846   2.7619

          k = 0.0689 0.0195 0.0000 ( 40130 PWs)   bands (ev):

   -42.7453 -42.7212 -42.7169 -42.6928 -42.2131 -42.1873 -22.7686 -22.7539
   -22.7277 -22.7253 -22.7207 -22.6924 -22.6631 -22.6315 -22.6089 -22.5898
   -22.4402 -22.4073 -22.3328 -22.1553 -22.1296 -22.1157 -22.0776 -22.0069
    -4.1451  -3.0042  -2.9744  -2.8419  -2.5814  -2.4851  -2.4557  -2.4437
    -2.4354  -2.4323  -2.3530  -2.3108  -2.2972  -2.2475  -2.2359  -2.2066
    -2.1794  -2.1749  -2.1590  -2.1537  -2.1419  -2.0981  -2.0718  -2.0675
    -2.0524  -2.0425  -2.0212  -1.9900  -1.9097  -1.8676  -1.8419  -1.8255
    -1.7555  -1.5719  -1.4441  -0.9935  -0.6333  -0.5275  -0.4299  -0.0459
     0.1821   0.4775   0.8176   0.8438   1.1023   1.2391   1.3385   1.4782
     1.7163   1.8006   2.1171   2.1593   2.3807   2.4782   2.7157

          k = 0.0689 0.0341 0.0000 ( 40099 PWs)   bands (ev):

   -42.7466 -42.7198 -42.7183 -42.6915 -42.2146 -42.1858 -22.7729 -22.7719
   -22.7386 -22.7276 -22.7231 -22.6887 -22.6716 -22.6335 -22.6074 -22.5847
   -22.4216 -22.3888 -22.3510 -22.1551 -22.1296 -22.1184 -22.0755 -21.9876
    -4.0187  -2.9585  -2.8690  -2.8506  -2.4907  -2.4790  -2.4347  -2.4338
    -2.4030  -2.4022  -2.3164  -2.2994  -2.2968  -2.2355  -2.2328  -2.2008
    -2.1650  -2.1597  -2.1479  -2.1464  -2.1336  -2.0951  -2.0761  -2.0656
    -2.0450  -2.0366  -2.0126  -1.9801  -1.8948  -1.8566  -1.8516  -1.7998
    -1.6896  -1.5783  -1.3319  -0.9341  -0.8624  -0.7005  -0.6047  -0.1812
     0.0125   0.4069   0.5943   0.5993   1.0039   1.0920   1.2618   1.3997
     1.6675   1.9661   2.0995   2.1305   2.3375   2.6462   2.8809

          k = 0.0689 0.0487 0.0000 ( 40068 PWs)   bands (ev):

   -42.7471 -42.7194 -42.7187 -42.6910 -42.2152 -42.1852 -22.7782 -22.7753
   -22.7450 -22.7260 -22.7225 -22.6864 -22.6777 -22.6340 -22.6078 -22.5814
   -22.4152 -22.3824 -22.3572 -22.1541 -22.1306 -22.1196 -22.0749 -21.9811
    -3.8363  -3.0823  -2.7754  -2.7695  -2.4642  -2.4222  -2.4154  -2.4123
    -2.3725  -2.3622  -2.3077  -2.2944  -2.2745  -2.2198  -2.2173  -2.2058
    -2.1570  -2.1565  -2.1312  -2.1308  -2.1280  -2.1058  -2.0797  -2.0562
    -2.0371  -2.0306  -2.0026  -1.9720  -1.8884  -1.8650  -1.8540  -1.7913
    -1.7825  -1.3523  -1.3204  -1.2478  -1.1140  -0.5452  -0.5306  -0.2592
    -0.1123   0.3405   0.4045   0.4195   0.8289   1.0896   1.2119   1.3581
     1.6348   2.0244   2.0630   2.1768   2.2879   2.6941   2.7284

          k = 0.0689-0.1120 0.0000 ( 40048 PWs)   bands (ev):

   -42.7466 -42.7199 -42.7182 -42.6915 -42.2147 -42.1857 -22.7756 -22.7725
   -22.7393 -22.7236 -22.7233 -22.6859 -22.6804 -22.6331 -22.6094 -22.5803
   -22.4215 -22.3887 -22.3510 -22.1523 -22.1325 -22.1190 -22.0755 -21.9879
    -3.6100  -3.2183  -2.8215  -2.6934  -2.4428  -2.4045  -2.3927  -2.3660
    -2.3486  -2.3218  -2.3125  -2.2969  -2.2741  -2.2223  -2.2105  -2.1998
    -2.1540  -2.1447  -2.1428  -2.1367  -2.1113  -2.1072  -2.0787  -2.0575
    -2.0353  -2.0220  -1.9949  -1.9751  -1.8935  -1.8840  -1.8585  -1.8058
    -1.7471  -1.6629  -1.3875  -1.3138  -0.9947  -0.5076  -0.3978  -0.3219
    -0.1369   0.2769   0.3568   0.5203   0.7442   1.1068   1.2068   1.3623
     1.6195   2.0003   2.0906   2.1970   2.3191   2.5918   2.6779

          k = 0.0689-0.0974 0.0000 ( 40086 PWs)   bands (ev):

   -42.7451 -42.7213 -42.7168 -42.6930 -42.2132 -42.1872 -22.7737 -22.7551
   -22.7253 -22.7218 -22.7210 -22.6875 -22.6792 -22.6307 -22.6118 -22.5817
   -22.4400 -22.4072 -22.3327 -22.1499 -22.1351 -22.1169 -22.0775 -22.0073
    -3.3760  -3.3300  -2.9955  -2.6577  -2.4195  -2.3924  -2.3740  -2.3593
    -2.3411  -2.3199  -2.3093  -2.2961  -2.2790  -2.2365  -2.2330  -2.2007
    -2.1691  -2.1501  -2.1456  -2.1398  -2.1130  -2.0945  -2.0790  -2.0743
    -2.0535  -2.0201  -1.9987  -1.9939  -1.9072  -1.8904  -1.8901  -1.8584
    -1.8494  -1.5913  -1.5657  -1.4238  -0.8408  -0.4889  -0.2808  -0.2728
    -0.0668   0.2740   0.5927   0.7213   0.7815   1.1364   1.2603   1.4126
     1.6256   2.0271   2.0433   2.2132   2.4069   2.5659   2.6494

          k = 0.0689-0.0828 0.0000 ( 40066 PWs)   bands (ev):

   -42.7429 -42.7236 -42.7146 -42.6952 -42.2109 -42.1895 -22.7697 -22.7296
   -22.7259 -22.7185 -22.6944 -22.6906 -22.6739 -22.6271 -22.6148 -22.5855
   -22.4693 -22.4364 -22.3036 -22.1470 -22.1382 -22.1132 -22.0807 -22.0380
    -3.4642  -3.2543  -3.0936  -2.6662  -2.4437  -2.3949  -2.3839  -2.3664
    -2.3578  -2.3270  -2.3268  -2.3113  -2.2776  -2.2484  -2.2394  -2.1909
    -2.1907  -2.1600  -2.1476  -2.1463  -2.1245  -2.1093  -2.0966  -2.0774
    -2.0762  -2.0449  -2.0151  -1.9979  -1.9930  -1.9296  -1.9268  -1.8587
    -1.8536  -1.7873  -1.5569  -1.2022  -1.0259  -0.2045  -0.1668  -0.1386
     0.0593   0.4449   0.7672   0.8538   1.0972   1.1719   1.3635   1.4953
     1.6573   1.8637   2.1292   2.2344   2.4517   2.5103   2.6482

          k = 0.0689-0.0682 0.0000 ( 40071 PWs)   bands (ev):

   -42.7401 -42.7265 -42.7117 -42.6981 -42.2078 -42.1926 -22.7641 -22.7329
   -22.7161 -22.6971 -22.6897 -22.6652 -22.6567 -22.6225 -22.6182 -22.5915
   -22.5073 -22.4744 -22.2654 -22.1438 -22.1416 -22.1084 -22.0849 -22.0778
    -3.5395  -3.5327  -2.8580  -2.7084  -2.5934  -2.4146  -2.3963  -2.3808
    -2.3600  -2.3596  -2.3248  -2.3059  -2.3041  -2.2627  -2.2152  -2.2019
    -2.1752  -2.1740  -2.1610  -2.1569  -2.1440  -2.1227  -2.1054  -2.0924
    -2.0873  -2.0732  -2.0720  -2.0254  -2.0019  -1.9734  -1.9543  -1.9445
    -1.8355  -1.7831  -1.5934  -1.1864  -0.8432  -0.1361  -0.0131   0.1879
     0.2544   0.7273   0.8094   1.0429   1.1954   1.3867   1.4878   1.5619
     1.6466   1.7213   2.1845   2.2307   2.3241   2.4457   2.5275

          k = 0.0689-0.0536 0.0000 ( 40084 PWs)   bands (ev):

   -42.7367 -42.7299 -42.7084 -42.7015 -42.2043 -42.1962 -22.7571 -22.7379
   -22.7133 -22.7037 -22.6544 -22.6465 -22.6222 -22.6173 -22.6135 -22.5993
   -22.5512 -22.5183 -22.2206 -22.1451 -22.1406 -22.1237 -22.1027 -22.0899
    -3.7852  -3.5698  -2.7659  -2.7636  -2.6653  -2.4452  -2.4327  -2.4180
    -2.3978  -2.3715  -2.3151  -2.3062  -2.2788  -2.2733  -2.2374  -2.2054
    -2.1819  -2.1776  -2.1731  -2.1700  -2.1556  -2.1475  -2.1085  -2.1081
    -2.1026  -2.0956  -2.0852  -2.0380  -2.0318  -2.0016  -1.9740  -1.9662
    -1.8289  -1.6898  -1.6128  -1.2824  -0.4587  -0.0201   0.1009   0.4043
     0.5479   0.7919   1.0448   1.1556   1.1607   1.3677   1.5518   1.5675
     1.6086   1.7874   2.1163   2.1335   2.3015   2.4665   2.4967

          k = 0.0689-0.0390 0.0000 ( 40096 PWs)   bands (ev):

   -42.7335 -42.7332 -42.7051 -42.7048 -42.2004 -42.2001 -22.7495 -22.7436
   -22.7108 -22.7099 -22.6426 -22.6273 -22.6119 -22.6083 -22.5994 -22.5981
   -22.5665 -22.5652 -22.1726 -22.1722 -22.1482 -22.1373 -22.0967 -22.0954
    -3.9881  -3.5485  -2.9133  -2.7926  -2.5510  -2.4886  -2.4683  -2.4597
    -2.4288  -2.4055  -2.3461  -2.2772  -2.2758  -2.2553  -2.2499  -2.2288
    -2.2017  -2.2012  -2.1778  -2.1716  -2.1431  -2.1339  -2.1215  -2.1187
    -2.0986  -2.0864  -2.0759  -2.0614  -2.0250  -2.0004  -1.9804  -1.9599
    -1.8221  -1.6291  -1.5781  -1.3356  -0.0867   0.0897   0.1323   0.6086
     0.6684   0.8065   1.0111   1.0761   1.2805   1.2858   1.5229   1.6220
     1.7141   1.8152   1.9524   1.9827   2.4305   2.4618   2.5984

          k =-0.0827 0.0292 0.0000 ( 40072 PWs)   bands (ev):

   -42.7333 -42.7333 -42.7049 -42.7049 -42.2003 -42.2002 -22.7457 -22.7457
   -22.7121 -22.7121 -22.6318 -22.6318 -22.6124 -22.6124 -22.5987 -22.5987
   -22.5658 -22.5658 -22.1724 -22.1723 -22.1427 -22.1426 -22.0961 -22.0961
    -3.7975  -3.7975  -2.8562  -2.8562  -2.4941  -2.4941  -2.4643  -2.4643
    -2.4286  -2.4285  -2.3137  -2.3136  -2.2641  -2.2641  -2.2309  -2.2309
    -2.2092  -2.2092  -2.1732  -2.1732  -2.1345  -2.1345  -2.1090  -2.1090
    -2.0913  -2.0913  -2.0626  -2.0626  -2.0083  -2.0083  -1.9740  -1.9740
    -1.7522  -1.7522  -1.4098  -1.4098   0.0133   0.0133   0.2834   0.2834
     0.7948   0.7948   0.9340   0.9341   1.3168   1.3168   1.6759   1.6759
     1.7092   1.7092   1.8312   1.8312   2.5153   2.5154   2.6761

          k =-0.0827 0.0438 0.0000 ( 40061 PWs)   bands (ev):

   -42.7369 -42.7297 -42.7085 -42.7014 -42.2041 -42.1964 -22.7531 -22.7389
   -22.7168 -22.7065 -22.6458 -22.6428 -22.6227 -22.6182 -22.6130 -22.6052
   -22.5517 -22.5188 -22.2208 -22.1453 -22.1400 -22.1235 -22.1020 -22.0904
    -3.8790  -3.6554  -2.8827  -2.7848  -2.5698  -2.4585  -2.4567  -2.4458
    -2.4306  -2.4175  -2.3613  -2.2926  -2.2726  -2.2553  -2.2452  -2.2009
    -2.1925  -2.1920  -2.1867  -2.1585  -2.1387  -2.1360  -2.1116  -2.1015
    -2.0908  -2.0787  -2.0684  -2.0308  -2.0101  -1.9966  -1.9683  -1.9661
    -1.7558  -1.7494  -1.4901  -1.3301  -0.1628  -0.0259   0.0971   0.5121
     0.5701   0.6426   0.9874   1.1624   1.1910   1.3993   1.4913   1.6182
     1.6352   1.7933   1.9403   1.9715   2.3659   2.4783   2.6250

          k =-0.0827 0.0585 0.0000 ( 40089 PWs)   bands (ev):

   -42.7402 -42.7264 -42.7118 -42.6980 -42.2077 -42.1927 -22.7605 -22.7332
   -22.7202 -22.7003 -22.6891 -22.6561 -22.6544 -22.6233 -22.6167 -22.5976
   -22.5075 -22.4747 -22.2655 -22.1477 -22.1375 -22.1077 -22.0852 -22.0775
    -3.8977  -3.4604  -2.8648  -2.6854  -2.6781  -2.4403  -2.4393  -2.4174
    -2.4070  -2.3986  -2.3893  -2.2946  -2.2930  -2.2538  -2.2248  -2.2146
    -2.1902  -2.1814  -2.1631  -2.1458  -2.1359  -2.1312  -2.0936  -2.0761
    -2.0692  -2.0670  -2.0429  -2.0126  -2.0062  -1.9785  -1.9508  -1.9112
    -1.7511  -1.7484  -1.5855  -1.2260  -0.4100  -0.2948   0.0415   0.2827
     0.3685   0.6245   1.0517   1.0563   1.1059   1.4879   1.4909   1.5062
     1.5679   1.7715   2.0918   2.1441   2.2573   2.3797   2.6501

          k =-0.0827 0.0731 0.0000 ( 40075 PWs)   bands (ev):

   -42.7430 -42.7235 -42.7146 -42.6951 -42.2108 -42.1896 -22.7671 -22.7294
   -22.7255 -22.7224 -22.6952 -22.6921 -22.6653 -22.6276 -22.6129 -22.5901
   -22.4694 -22.4366 -22.3037 -22.1498 -22.1353 -22.1127 -22.0808 -22.0378
    -3.8551  -3.2299  -2.8466  -2.8008  -2.5569  -2.4297  -2.4137  -2.3983
    -2.3972  -2.3896  -2.3517  -2.2981  -2.2977  -2.2506  -2.2351  -2.1933
    -2.1865  -2.1633  -2.1586  -2.1454  -2.1334  -2.1194  -2.0844  -2.0641
    -2.0587  -2.0571  -2.0096  -1.9977  -1.9591  -1.9299  -1.9237  -1.8556
    -1.7620  -1.6883  -1.6872  -1.0717  -0.7475  -0.4079  -0.1288  -0.0606
     0.1666   0.6219   0.7555   0.9141   1.1370   1.2751   1.3935   1.5077
     1.7008   1.7458   2.1356   2.1991   2.3463   2.3676   2.7113

          k =-0.0827 0.0877 0.0000 ( 40078 PWs)   bands (ev):

   -42.7452 -42.7213 -42.7168 -42.6929 -42.2132 -42.1872 -22.7723 -22.7548
   -22.7252 -22.7234 -22.7215 -22.6892 -22.6744 -22.6309 -22.6106 -22.5841
   -22.4401 -22.4072 -22.3328 -22.1513 -22.1336 -22.1166 -22.0776 -22.0072
    -3.7563  -3.0191  -2.9982  -2.7429  -2.4498  -2.4379  -2.3957  -2.3889
    -2.3776  -2.3583  -2.3159  -2.3014  -2.2801  -2.2421  -2.2395  -2.1858
    -2.1640  -2.1630  -2.1504  -2.1383  -2.1236  -2.1078  -2.0763  -2.0655
    -2.0506  -2.0419  -2.0023  -1.9866  -1.9088  -1.8693  -1.8484  -1.8349
    -1.8165  -1.7410  -1.5463  -1.0638  -0.8750  -0.4917  -0.4322  -0.2222
    -0.0029   0.4863   0.5667   0.6717   0.9885   1.1234   1.2868   1.4262
     1.6485   1.9569   2.0789   2.1858   2.3402   2.5425   2.7828

          k =-0.0827 0.1023 0.0000 ( 40048 PWs)   bands (ev):

   -42.7466 -42.7199 -42.7182 -42.6915 -42.2147 -42.1857 -22.7756 -22.7725
   -22.7393 -22.7236 -22.7233 -22.6859 -22.6804 -22.6331 -22.6094 -22.5803
   -22.4215 -22.3887 -22.3510 -22.1523 -22.1325 -22.1190 -22.0755 -21.9879
    -3.6100  -3.2183  -2.8215  -2.6934  -2.4428  -2.4045  -2.3927  -2.3660
    -2.3486  -2.3218  -2.3125  -2.2969  -2.2741  -2.2223  -2.2105  -2.1998
    -2.1540  -2.1447  -2.1428  -2.1367  -2.1113  -2.1072  -2.0787  -2.0575
    -2.0353  -2.0220  -1.9949  -1.9751  -1.8935  -1.8840  -1.8585  -1.8058
    -1.7471  -1.6629  -1.3875  -1.3138  -0.9947  -0.5076  -0.3978  -0.3219
    -0.1369   0.2769   0.3568   0.5203   0.7442   1.1068   1.2068   1.3623
     1.6195   2.0003   2.0900   2.1964   2.3190   2.5908   2.6768

          k =-0.0827-0.0585 0.0000 ( 40042 PWs)   bands (ev):

   -42.7470 -42.7194 -42.7186 -42.6911 -42.2152 -42.1852 -22.7786 -22.7767
   -22.7453 -22.7236 -22.7226 -22.6847 -22.6826 -22.6338 -22.6091 -22.5790
   -22.4152 -22.3824 -22.3572 -22.1526 -22.1321 -22.1199 -22.0748 -21.9812
    -3.4566  -3.3906  -2.7552  -2.6759  -2.4438  -2.4043  -2.3952  -2.3368
    -2.3300  -2.3232  -2.2977  -2.2967  -2.2885  -2.2191  -2.2016  -2.1779
    -2.1497  -2.1451  -2.1380  -2.1286  -2.1244  -2.0963  -2.0874  -2.0482
    -2.0289  -2.0095  -1.9914  -1.9666  -1.9113  -1.8875  -1.8599  -1.7933
    -1.7445  -1.4214  -1.4118  -1.3657  -1.2561  -0.3754  -0.3678  -0.3198
    -0.1956   0.1543   0.1890   0.4994   0.6491   1.1020   1.1754   1.3392
     1.6099   1.9671   2.1149   2.2031   2.3561   2.5007   2.7011

     the Fermi energy is     0.8365 ev

!    total energy              =   -1248.96412251 Ry
     estimated scf accuracy    <       0.00000808 Ry
     smearing contrib. (-TS)   =      -0.05419743 Ry
     internal energy E=F+TS    =   -1248.90992508 Ry

     The total energy is F=E-TS. E is the sum of the following terms:
     one-electron contribution =   -7586.36603338 Ry
     hartree contribution      =    3861.48719194 Ry
     xc contribution           =    -386.32395297 Ry
     ewald contribution        =    2862.29286627 Ry
     electric field correction =       0.00000306 Ry

     convergence has been achieved in  15 iterations

     negative rho (up, down):  1.310E-04 0.000E+00

     Forces acting on atoms (cartesian axes, Ry/au):

     atom    1 type  1   force =     0.00000279   -0.00001909    0.01301540
     atom    2 type  1   force =    -0.00000647    0.00001369    0.01302531
     atom    3 type  2   force =    -0.00000412   -0.00000403   -0.00189875
     atom    4 type  2   force =    -0.00000706   -0.00000740   -0.00190033
     atom    5 type  1   force =     0.00001052    0.00000084    0.00234463
     atom    6 type  1   force =    -0.00000481    0.00000963    0.00235312
     atom    7 type  2   force =     0.00000329    0.00000159   -0.01227003
     atom    8 type  2   force =     0.00000304    0.00000094   -0.01226976
     atom    9 type  1   force =    -0.00001539    0.00000997   -0.00153033
     atom   10 type  1   force =     0.00001694   -0.00000931   -0.00152609
     atom   11 type  2   force =    -0.00000382    0.00000322    0.00032789
     atom   12 type  2   force =     0.00000508   -0.00000006    0.00032894

     Total force =     0.025755     Total SCF correction =     0.009994
     SCF correction compared to forces is large: reduce conv_thr to get better values

     Writing output data file ./Cu2Y2/Cu2Y2_beef.save/

     init_run     :    148.89s CPU    149.65s WALL (       1 calls)
     electrons    :   3379.56s CPU   3400.89s WALL (       1 calls)
     forces       :     71.72s CPU     72.01s WALL (       1 calls)

     Called by init_run:
     wfcinit      :    135.59s CPU    136.12s WALL (       1 calls)
     potinit      :      8.75s CPU      8.85s WALL (       1 calls)
     hinit0       :      2.79s CPU      2.81s WALL (       1 calls)

     Called by electrons:
     c_bands      :   2960.19s CPU   2972.97s WALL (      15 calls)
     sum_band     :    370.89s CPU    374.96s WALL (      15 calls)
     v_of_rho     :     34.27s CPU     35.97s WALL (      16 calls)
     newd         :     20.92s CPU     23.51s WALL (      16 calls)
     mix_rho      :      0.91s CPU      0.94s WALL (      15 calls)
     vdW_kernel   :      6.02s CPU      6.03s WALL (       1 calls)

     Called by c_bands:
     init_us_2    :     13.47s CPU     13.61s WALL (    2368 calls)
     cegterg      :   2925.36s CPU   2936.44s WALL (    1110 calls)

     Called by *egterg:
     cdiaghg      :     93.05s CPU     93.23s WALL (    5890 calls)
     h_psi        :   1602.60s CPU   1610.98s WALL (    5964 calls)
     s_psi        :    504.81s CPU    505.74s WALL (    5964 calls)
     g_psi        :      1.18s CPU      1.20s WALL (    4780 calls)

     Called by h_psi:
     h_psi:calbec :    553.48s CPU    555.02s WALL (    5964 calls)
     vloc_psi     :    534.34s CPU    540.17s WALL (    5964 calls)
     add_vuspsi   :    509.27s CPU    510.22s WALL (    5964 calls)

     General routines
     calbec       :    830.74s CPU    832.96s WALL (    7370 calls)
     fft          :     22.92s CPU     23.79s WALL (    1067 calls)
     ffts         :      0.09s CPU      0.10s WALL (      31 calls)
     fftw         :    601.66s CPU    608.23s WALL (  522012 calls)
     interpolate  :      0.41s CPU      0.42s WALL (      16 calls)

     Parallel routines
     fft_scatt_xy :     51.54s CPU     51.91s WALL (  523110 calls)
     fft_scatt_yz :    164.66s CPU    167.19s WALL (  523110 calls)

     PWSCF        :      1h 0m CPU      1h 1m WALL


   This run was terminated on:   4:22:33  11Jul2022            

=------------------------------------------------------------------------------=
   JOB DONE.
=------------------------------------------------------------------------------=
