
     Program PWSCF v.6.6 starts on  9Jul2022 at 23:43:19 

     This program is part of the open-source Quantum ESPRESSO suite
     for quantum simulation of materials; please cite
         "P. Giannozzi et al., J. Phys.:Condens. Matter 21 395502 (2009);
         "P. Giannozzi et al., J. Phys.:Condens. Matter 29 465901 (2017);
          URL http://www.quantum-espresso.org", 
     in publications or presentations arising from this work. More details at
     http://www.quantum-espresso.org/quote

     Parallel version (MPI), running on    37 processors

     MPI processes distributed on     1 nodes
     R & G space division:  proc/nbgrp/npool/nimage =      37
     Fft bands division:     nmany     =       1
     Reading input from Cu2Zn2.in
Warning: card &CELL ignored
Warning: card / ignored

     Current dimensions of program PWSCF are:
     Max number of different atomic species (ntypx) = 10
     Max number of k-points (npk) =  40000
     Max angular momentum in pseudopotentials (lmaxx) =  3
     Presently stress not available with electric field and gates

     Message from routine cell_base_init:
     DEPRECATED: use true lattice parameter, not A to a.u. conversion factor
     file Cu.pbe-dn-rrkjus_psl.1.0.0.UPF: wavefunction(s)  3D renormalized
     file Zn.pbe-dnl-rrkjus_psl.1.0.0.UPF: wavefunction(s)  3D renormalized

     **************************************************************************
     Initializing libbeef V0.1.2 with the BEEF-vdW functional.
     Citation: Wellendorff et al., PRB 85, 235149 (2012).
     **************************************************************************


     IMPORTANT: XC functional enforced from input :
     Exchange-correlation= BEEF-VDW
                           (   1   4  43  14   2   0   0)
     Any further DFT definition will be discarded
     Please, verify this is what you really want


     Subspace diagonalization in iterative solution of the eigenvalue problem:
     a serial algorithm will be used

     Found symmetry operation: I + ( -0.5000 -0.5000  0.0000)
     This is a supercell, fractional translations are disabled

     Parallelization info
     --------------------
     sticks:   dense  smooth     PW     G-vecs:    dense   smooth      PW
     Min         103      41     12                23773     6013     928
     Max         104      42     14                23798     6032     937
     Sum        3845    1547    449               880215   222823   34505



     bravais-lattice index     =            0
     lattice parameter (alat)  =       1.8897  a.u.
     unit-cell volume          =    4026.8856 (a.u.)^3
     number of atoms/cell      =           12
     number of atomic types    =            2
     number of electrons       =       138.00
     number of Kohn-Sham states=           83
     kinetic-energy cutoff     =      55.1240  Ry
     charge density cutoff     =     551.2396  Ry
     convergence threshold     =      1.0E-05
     mixing beta               =       0.1000
     number of iterations used =           10  plain     mixing
     Exchange-correlation= BEEF-VDW
                           (   1   4  43  14   2   0   0)

     celldm(1)=   1.889726  celldm(2)=   0.000000  celldm(3)=   0.000000
     celldm(4)=   0.000000  celldm(5)=   0.000000  celldm(6)=   0.000000

     crystal axes: (cart. coord. in units of alat)
               a(1) = (   5.215996   0.000000   0.000000 )  
               a(2) = (   2.252879   4.704376   0.000000 )  
               a(3) = (   0.000000   0.000000  24.318316 )  

     reciprocal axes: (cart. coord. in units 2 pi/alat)
               b(1) = (  0.191718 -0.091812  0.000000 )  
               b(2) = (  0.000000  0.212568  0.000000 )  
               b(3) = (  0.000000  0.000000  0.041121 )  


     PseudoPot. # 1 for Cu read from file:
     ../pseudo/Cu.pbe-dn-rrkjus_psl.1.0.0.UPF
     MD5 check sum: 8469560995d0c2df1ffe68c099c04a63
     Pseudo is Ultrasoft + core correction, Zval = 11.0
     Generated using "atomic" code by A. Dal Corso v.6.3
     Using radial grid of 1199 points,  6 beta functions with: 
                l(1) =   0
                l(2) =   0
                l(3) =   1
                l(4) =   1
                l(5) =   2
                l(6) =   2
     Q(r) pseudized with 0 coefficients 


     PseudoPot. # 2 for Zn read from file:
     ../pseudo/Zn.pbe-dnl-rrkjus_psl.1.0.0.UPF
     MD5 check sum: 7f56cabf9682ed8c977c2f7d0c5985c5
     Pseudo is Ultrasoft + core correction, Zval = 12.0
     Generated using "atomic" code by A. Dal Corso v.6.2.2
     Using radial grid of 1201 points,  6 beta functions with: 
                l(1) =   0
                l(2) =   0
                l(3) =   1
                l(4) =   1
                l(5) =   2
                l(6) =   2
     Q(r) pseudized with 0 coefficients 


     atomic species   valence    mass     pseudopotential
        Cu            11.00    63.54600     Cu( 1.00)
        Zn            12.00    65.38000     Zn( 1.00)

     No symmetry found



   Cartesian axes

     site n.     atom                  positions (alat units)
         1           Cu  tau(   1) = (   0.0000000   0.0000000  10.0000000  )
         2           Cu  tau(   2) = (   3.7344376   2.3521882  10.0000000  )
         3           Zn  tau(   3) = (   2.6079982   0.0000000  10.0000000  )
         4           Zn  tau(   4) = (   1.1264393   2.3521882  10.0000000  )
         5           Cu  tau(   5) = (   5.2159965   3.2853690  12.1591579  )
         6           Cu  tau(   6) = (   1.4815589   0.9331808  12.1591579  )
         7           Zn  tau(   7) = (   2.6079982   3.2853690  12.1591579  )
         8           Zn  tau(   8) = (   4.0895572   0.9331808  12.1591579  )
         9           Cu  tau(   9) = (   2.9552641   1.8614179  14.2996905  )
        10           Cu  tau(  10) = (   6.6896932   4.2136016  14.2996844  )
        11           Zn  tau(  11) = (   5.5758048   1.8693152  14.4827848  )
        12           Zn  tau(  12) = (   4.0942454   4.2215048  14.4827853  )

     number of k points=    74  Fermi-Dirac smearing, width (Ry)=  0.0100
                       cart. coord. in units 2pi/alat
        k(    1) = (   0.0000000   0.0000000   0.0000000), wk =   0.0138889
        k(    2) = (   0.0000000   0.0177140   0.0000000), wk =   0.0277778
        k(    3) = (   0.0000000   0.0354280   0.0000000), wk =   0.0277778
        k(    4) = (   0.0000000   0.0531420   0.0000000), wk =   0.0277778
        k(    5) = (   0.0000000   0.0708560   0.0000000), wk =   0.0277778
        k(    6) = (   0.0000000   0.0885700   0.0000000), wk =   0.0277778
        k(    7) = (   0.0000000  -0.1062840   0.0000000), wk =   0.0138889
        k(    8) = (   0.0159765  -0.0076510   0.0000000), wk =   0.0277778
        k(    9) = (   0.0159765   0.0100630   0.0000000), wk =   0.0277778
        k(   10) = (   0.0159765   0.0277770   0.0000000), wk =   0.0277778
        k(   11) = (   0.0159765   0.0454910   0.0000000), wk =   0.0277778
        k(   12) = (   0.0159765   0.0632050   0.0000000), wk =   0.0277778
        k(   13) = (   0.0159765   0.0809190   0.0000000), wk =   0.0277778
        k(   14) = (   0.0159765  -0.1139350   0.0000000), wk =   0.0277778
        k(   15) = (   0.0159765  -0.0962210   0.0000000), wk =   0.0277778
        k(   16) = (   0.0159765  -0.0785070   0.0000000), wk =   0.0277778
        k(   17) = (   0.0159765  -0.0607930   0.0000000), wk =   0.0277778
        k(   18) = (   0.0159765  -0.0430790   0.0000000), wk =   0.0277778
        k(   19) = (   0.0159765  -0.0253650   0.0000000), wk =   0.0277778
        k(   20) = (   0.0319530  -0.0153020   0.0000000), wk =   0.0277778
        k(   21) = (   0.0319530   0.0024120   0.0000000), wk =   0.0277778
        k(   22) = (   0.0319530   0.0201260   0.0000000), wk =   0.0277778
        k(   23) = (   0.0319530   0.0378400   0.0000000), wk =   0.0277778
        k(   24) = (   0.0319530   0.0555540   0.0000000), wk =   0.0277778
        k(   25) = (   0.0319530   0.0732680   0.0000000), wk =   0.0277778
        k(   26) = (   0.0319530  -0.1215860   0.0000000), wk =   0.0277778
        k(   27) = (   0.0319530  -0.1038720   0.0000000), wk =   0.0277778
        k(   28) = (   0.0319530  -0.0861580   0.0000000), wk =   0.0277778
        k(   29) = (   0.0319530  -0.0684440   0.0000000), wk =   0.0277778
        k(   30) = (   0.0319530  -0.0507300   0.0000000), wk =   0.0277778
        k(   31) = (   0.0319530  -0.0330160   0.0000000), wk =   0.0277778
        k(   32) = (   0.0479295  -0.0229530   0.0000000), wk =   0.0277778
        k(   33) = (   0.0479295  -0.0052390   0.0000000), wk =   0.0277778
        k(   34) = (   0.0479295   0.0124751   0.0000000), wk =   0.0277778
        k(   35) = (   0.0479295   0.0301891   0.0000000), wk =   0.0277778
        k(   36) = (   0.0479295   0.0479031   0.0000000), wk =   0.0277778
        k(   37) = (   0.0479295   0.0656171   0.0000000), wk =   0.0277778
        k(   38) = (   0.0479295  -0.1292370   0.0000000), wk =   0.0277778
        k(   39) = (   0.0479295  -0.1115230   0.0000000), wk =   0.0277778
        k(   40) = (   0.0479295  -0.0938090   0.0000000), wk =   0.0277778
        k(   41) = (   0.0479295  -0.0760950   0.0000000), wk =   0.0277778
        k(   42) = (   0.0479295  -0.0583810   0.0000000), wk =   0.0277778
        k(   43) = (   0.0479295  -0.0406670   0.0000000), wk =   0.0277778
        k(   44) = (   0.0639060  -0.0306039   0.0000000), wk =   0.0277778
        k(   45) = (   0.0639060  -0.0128899   0.0000000), wk =   0.0277778
        k(   46) = (   0.0639060   0.0048241   0.0000000), wk =   0.0277778
        k(   47) = (   0.0639060   0.0225381   0.0000000), wk =   0.0277778
        k(   48) = (   0.0639060   0.0402521   0.0000000), wk =   0.0277778
        k(   49) = (   0.0639060   0.0579661   0.0000000), wk =   0.0277778
        k(   50) = (   0.0639060  -0.1368880   0.0000000), wk =   0.0277778
        k(   51) = (   0.0639060  -0.1191740   0.0000000), wk =   0.0277778
        k(   52) = (   0.0639060  -0.1014600   0.0000000), wk =   0.0277778
        k(   53) = (   0.0639060  -0.0837460   0.0000000), wk =   0.0277778
        k(   54) = (   0.0639060  -0.0660319   0.0000000), wk =   0.0277778
        k(   55) = (   0.0639060  -0.0483179   0.0000000), wk =   0.0277778
        k(   56) = (   0.0798825  -0.0382549   0.0000000), wk =   0.0277778
        k(   57) = (   0.0798825  -0.0205409   0.0000000), wk =   0.0277778
        k(   58) = (   0.0798825  -0.0028269   0.0000000), wk =   0.0277778
        k(   59) = (   0.0798825   0.0148871   0.0000000), wk =   0.0277778
        k(   60) = (   0.0798825   0.0326011   0.0000000), wk =   0.0277778
        k(   61) = (   0.0798825   0.0503151   0.0000000), wk =   0.0277778
        k(   62) = (   0.0798825  -0.1445389   0.0000000), wk =   0.0277778
        k(   63) = (   0.0798825  -0.1268249   0.0000000), wk =   0.0277778
        k(   64) = (   0.0798825  -0.1091109   0.0000000), wk =   0.0277778
        k(   65) = (   0.0798825  -0.0913969   0.0000000), wk =   0.0277778
        k(   66) = (   0.0798825  -0.0736829   0.0000000), wk =   0.0277778
        k(   67) = (   0.0798825  -0.0559689   0.0000000), wk =   0.0277778
        k(   68) = (  -0.0958590   0.0459059   0.0000000), wk =   0.0138889
        k(   69) = (  -0.0958590   0.0636199   0.0000000), wk =   0.0277778
        k(   70) = (  -0.0958590   0.0813339   0.0000000), wk =   0.0277778
        k(   71) = (  -0.0958590   0.0990479   0.0000000), wk =   0.0277778
        k(   72) = (  -0.0958590   0.1167619   0.0000000), wk =   0.0277778
        k(   73) = (  -0.0958590   0.1344759   0.0000000), wk =   0.0277778
        k(   74) = (  -0.0958590  -0.0603781   0.0000000), wk =   0.0138889

     Dense  grid:   880215 G-vectors     FFT dimensions: (  75,  75, 360)

     Smooth grid:   222823 G-vectors     FFT dimensions: (  48,  48, 225)

     Estimated max dynamical RAM per process >     167.03 MB

     Estimated total dynamical RAM >       6.04 GB

     Initial potential from superposition of free atoms

     starting charge  137.97627, renormalised to  138.00000

     negative rho (up, down):  2.248E-04 0.000E+00


     %%%%%%%%%%%%%%%%%%%%%%%%%%%%%%%%%%%%%%%%%%%%%%%%%%%%%%%%%%%%%%%%%%%%%%%%
     %                                                                      %
     % You are using vdW-DF, which was implemented by the Thonhauser group. %
     % Please cite the following two papers that made this development      %
     % possible and the two reviews that describe the various versions:     %
     %                                                                      %
     %   T. Thonhauser et al., PRL 115, 136402 (2015).                      %
     %   T. Thonhauser et al., PRB 76, 125112 (2007).                       %
     %   K. Berland et al., Rep. Prog. Phys. 78, 066501 (2015).             %
     %   D.C. Langreth et al., J. Phys.: Condens. Matter 21, 084203 (2009). %
     %                                                                      %
     %                                                                      %
     % If you are calculating the stress with vdW-DF, please also cite:     %
     %                                                                      %
     %   R. Sabatini et al., J. Phys.: Condens. Matter 24, 424209 (2012).   %
     %                                                                      %
     %%%%%%%%%%%%%%%%%%%%%%%%%%%%%%%%%%%%%%%%%%%%%%%%%%%%%%%%%%%%%%%%%%%%%%%%



     Adding external electric field

     Computed dipole along edir(3) : 
        Dipole                0.0011 Ry au,          0.0029 Debye
        Dipole field          0.0000 Ry au, 

        Potential amp.       -0.0003 Ry
        Total length         44.8061 bohr

     Starting wfcs are  108 randomized atomic wfcs

     total cpu time spent up to now is      101.1 secs

     Self-consistent Calculation

     iteration #  1     ecut=    55.12 Ry     beta= 0.10
     Davidson diagonalization with overlap
     ethr =  1.00E-02,  avg # of iterations =  3.1

     Threshold (ethr) on eigenvalues was too large:
     Diagonalizing with lowered threshold

     Davidson diagonalization with overlap
     ethr =  1.86E-04,  avg # of iterations =  7.0

     negative rho (up, down):  2.220E-04 0.000E+00

     Adding external electric field

     Computed dipole along edir(3) : 
        Dipole                0.0208 Ry au,          0.0527 Debye
        Dipole field          0.0001 Ry au, 

        Potential amp.       -0.0058 Ry
        Total length         44.8061 bohr


     total cpu time spent up to now is      410.3 secs

     total energy              =   -1641.96504180 Ry
     estimated scf accuracy    <       0.28329002 Ry

     iteration #  2     ecut=    55.12 Ry     beta= 0.10
     Davidson diagonalization with overlap
     ethr =  2.05E-04,  avg # of iterations =  2.2

     negative rho (up, down):  2.178E-04 0.000E+00

     Adding external electric field

     Computed dipole along edir(3) : 
        Dipole               -0.0363 Ry au,         -0.0923 Debye
        Dipole field         -0.0001 Ry au, 

        Potential amp.        0.0102 Ry
        Total length         44.8061 bohr


     total cpu time spent up to now is      526.8 secs

     total energy              =   -1641.94867367 Ry
     estimated scf accuracy    <       0.10304867 Ry

     iteration #  3     ecut=    55.12 Ry     beta= 0.10
     Davidson diagonalization with overlap
     c_bands:  1 eigenvalues not converged
     ethr =  7.47E-05,  avg # of iterations =  8.4

     negative rho (up, down):  2.134E-04 0.000E+00

     Adding external electric field

     Computed dipole along edir(3) : 
        Dipole                0.0358 Ry au,          0.0909 Debye
        Dipole field          0.0001 Ry au, 

        Potential amp.       -0.0100 Ry
        Total length         44.8061 bohr


     total cpu time spent up to now is      665.4 secs

     total energy              =   -1641.95488272 Ry
     estimated scf accuracy    <       0.03686960 Ry

     iteration #  4     ecut=    55.12 Ry     beta= 0.10
     Davidson diagonalization with overlap
     c_bands:  1 eigenvalues not converged
     c_bands:  1 eigenvalues not converged
     c_bands:  1 eigenvalues not converged
     ethr =  2.67E-05,  avg # of iterations =  7.8

     negative rho (up, down):  2.082E-04 0.000E+00

     Adding external electric field

     Computed dipole along edir(3) : 
        Dipole                0.0064 Ry au,          0.0162 Debye
        Dipole field          0.0000 Ry au, 

        Potential amp.       -0.0018 Ry
        Total length         44.8061 bohr


     total cpu time spent up to now is      798.7 secs

     total energy              =   -1641.95504918 Ry
     estimated scf accuracy    <       0.02121309 Ry

     iteration #  5     ecut=    55.12 Ry     beta= 0.10
     Davidson diagonalization with overlap
     c_bands:  2 eigenvalues not converged
     c_bands:  2 eigenvalues not converged
     ethr =  1.54E-05,  avg # of iterations =  3.0

     negative rho (up, down):  2.092E-04 0.000E+00

     Adding external electric field

     Computed dipole along edir(3) : 
        Dipole                0.0108 Ry au,          0.0274 Debye
        Dipole field          0.0000 Ry au, 

        Potential amp.       -0.0030 Ry
        Total length         44.8061 bohr


     total cpu time spent up to now is      915.5 secs

     total energy              =   -1641.95539572 Ry
     estimated scf accuracy    <       0.00747204 Ry

     iteration #  6     ecut=    55.12 Ry     beta= 0.10
     Davidson diagonalization with overlap
     c_bands:  1 eigenvalues not converged
     ethr =  5.41E-06,  avg # of iterations = 11.8

     negative rho (up, down):  2.099E-04 0.000E+00

     Adding external electric field

     Computed dipole along edir(3) : 
        Dipole                0.0150 Ry au,          0.0380 Debye
        Dipole field          0.0000 Ry au, 

        Potential amp.       -0.0042 Ry
        Total length         44.8061 bohr


     total cpu time spent up to now is     1072.9 secs

     total energy              =   -1641.95635177 Ry
     estimated scf accuracy    <       0.00182171 Ry

     iteration #  7     ecut=    55.12 Ry     beta= 0.10
     Davidson diagonalization with overlap
     ethr =  1.32E-06,  avg # of iterations =  3.1

     negative rho (up, down):  2.153E-04 0.000E+00

     Adding external electric field

     Computed dipole along edir(3) : 
        Dipole                0.0151 Ry au,          0.0385 Debye
        Dipole field          0.0000 Ry au, 

        Potential amp.       -0.0042 Ry
        Total length         44.8061 bohr


     total cpu time spent up to now is     1213.1 secs

     total energy              =   -1641.95679363 Ry
     estimated scf accuracy    <       0.00072504 Ry

     iteration #  8     ecut=    55.12 Ry     beta= 0.10
     Davidson diagonalization with overlap
     ethr =  5.25E-07,  avg # of iterations =  2.5

     negative rho (up, down):  2.119E-04 0.000E+00

     Adding external electric field

     Computed dipole along edir(3) : 
        Dipole                0.0151 Ry au,          0.0383 Debye
        Dipole field          0.0000 Ry au, 

        Potential amp.       -0.0042 Ry
        Total length         44.8061 bohr


     total cpu time spent up to now is     1370.4 secs

     total energy              =   -1641.95687063 Ry
     estimated scf accuracy    <       0.00018500 Ry

     iteration #  9     ecut=    55.12 Ry     beta= 0.10
     Davidson diagonalization with overlap
     ethr =  1.34E-07,  avg # of iterations =  2.1

     negative rho (up, down):  2.113E-04 0.000E+00

     Adding external electric field

     Computed dipole along edir(3) : 
        Dipole                0.0144 Ry au,          0.0365 Debye
        Dipole field          0.0000 Ry au, 

        Potential amp.       -0.0040 Ry
        Total length         44.8061 bohr


     total cpu time spent up to now is     1532.0 secs

     total energy              =   -1641.95689988 Ry
     estimated scf accuracy    <       0.00009509 Ry

     iteration # 10     ecut=    55.12 Ry     beta= 0.10
     Davidson diagonalization with overlap
     ethr =  6.89E-08,  avg # of iterations =  2.7

     negative rho (up, down):  1.890E-04 0.000E+00

     Adding external electric field

     Computed dipole along edir(3) : 
        Dipole                0.0221 Ry au,          0.0562 Debye
        Dipole field          0.0001 Ry au, 

        Potential amp.       -0.0062 Ry
        Total length         44.8061 bohr


     total cpu time spent up to now is     1658.4 secs

     End of self-consistent calculation

          k = 0.0000 0.0000 0.0000 ( 27943 PWs)   bands (ev):

    -9.5632  -8.3313  -8.2961  -8.2627  -8.2264  -8.1669  -8.0857  -8.0004
    -7.9848  -7.9553  -7.9422  -7.8674  -7.8305  -7.7973  -7.7688  -7.7131
    -7.6878  -7.6870  -7.6075  -7.6062  -7.5779  -7.5314  -7.5185  -7.4505
    -7.4348  -7.3999  -7.3886  -7.3605  -7.3177  -7.3099  -7.1843  -7.1196
    -5.2002  -4.7671  -4.3625  -4.2181  -4.0293  -3.7617  -3.7320  -3.7042
    -3.6639  -3.5923  -3.5262  -3.5141  -3.3535  -3.3204  -3.1916  -3.1811
    -3.1336  -3.1133  -3.0984  -3.0637  -3.0253  -2.8990  -2.8730  -2.8121
    -2.7937  -2.7651  -2.7319  -2.7270  -2.6546  -2.5416  -2.4801  -1.5548
    -1.4835  -1.3375  -1.1240  -0.9787  -0.9544  -0.7379  -0.5082   0.0658
     1.0857   1.3455   1.9103   2.0955   2.5276   2.8512   3.5300   3.5443
     3.5807   3.9100   4.0004

          k = 0.0000 0.0177 0.0000 ( 27873 PWs)   bands (ev):

    -9.5150  -8.3219  -8.2838  -8.2541  -8.2154  -8.1453  -8.0803  -7.9874
    -7.9868  -7.9580  -7.9314  -7.8594  -7.8233  -7.7991  -7.7622  -7.7217
    -7.6943  -7.6818  -7.6070  -7.6032  -7.5765  -7.5307  -7.5186  -7.4528
    -7.4410  -7.4083  -7.3946  -7.3667  -7.3236  -7.3163  -7.1951  -7.0920
    -5.1822  -4.8573  -4.3929  -4.3100  -4.0218  -3.7790  -3.7143  -3.7106
    -3.6560  -3.5893  -3.5543  -3.4787  -3.3532  -3.3445  -3.2009  -3.1849
    -3.1316  -3.1140  -3.0943  -3.0699  -3.0263  -2.9128  -2.8919  -2.8498
    -2.7819  -2.7809  -2.7632  -2.7555  -2.6722  -2.5078  -2.5003  -2.0097
    -1.6305  -1.3774  -1.1743  -1.0693  -0.8277  -0.5081  -0.2048   0.0743
     1.1414   1.6004   2.0843   2.1151   2.5647   2.8967   2.9960   3.5521
     3.8294   4.0918   4.1711

          k = 0.0000 0.0354 0.0000 ( 27865 PWs)   bands (ev):

    -9.3719  -8.2949  -8.2489  -8.2293  -8.1879  -8.0930  -8.0555  -7.9946
    -7.9614  -7.9462  -7.9063  -7.8373  -7.8068  -7.8032  -7.7458  -7.7443
    -7.7101  -7.6644  -7.6060  -7.5964  -7.5718  -7.5290  -7.5194  -7.4608
    -7.4571  -7.4312  -7.4119  -7.3850  -7.3432  -7.3347  -7.2278  -7.0051
    -5.1586  -5.1306  -4.5923  -4.4065  -4.0033  -3.8075  -3.7469  -3.6717
    -3.6345  -3.5972  -3.5626  -3.4451  -3.4038  -3.3485  -3.2370  -3.1774
    -3.1583  -3.1255  -3.0967  -3.0496  -3.0306  -2.9546  -2.9429  -2.9088
    -2.8504  -2.8153  -2.8136  -2.8116  -2.7159  -2.5951  -2.4835  -2.3979
    -1.8350  -1.7404  -1.4969  -0.8447  -0.7798  -0.1143  -0.0196   0.3009
     1.4747   1.9522   2.0778   2.3591   2.7396   3.0298   3.4059   3.6598
     3.8978   4.4945   4.6112

          k = 0.0000 0.0531 0.0000 ( 27849 PWs)   bands (ev):

    -9.1391  -8.2540  -8.1958  -8.1903  -8.1514  -8.0596  -8.0057  -7.9829
    -7.9663  -7.8837  -7.8752  -7.8165  -7.7958  -7.7957  -7.7800  -7.7170
    -7.7135  -7.6378  -7.6041  -7.5881  -7.5643  -7.5272  -7.5228  -7.4898
    -7.4651  -7.4619  -7.4383  -7.4133  -7.3803  -7.3624  -7.2817  -6.8460
    -5.6829  -5.0536  -4.8273  -4.5094  -3.9924  -3.8294  -3.8070  -3.6526
    -3.6336  -3.5936  -3.5506  -3.4436  -3.4256  -3.3351  -3.2843  -3.2125
    -3.1994  -3.1278  -3.1103  -3.0442  -3.0418  -3.0090  -3.0022  -2.9756
    -2.9473  -2.9272  -2.8740  -2.8514  -2.7709  -2.7563  -2.6727  -2.3726
    -2.2509  -1.8450  -1.6113  -0.7628  -0.5037  -0.1646  -0.0173   0.4626
     1.9069   2.3334   2.6116   2.6902   2.9128   3.2426   3.6518   3.9640
     4.2842   4.5446   4.7287

          k = 0.0000 0.0709 0.0000 ( 27834 PWs)   bands (ev):

    -8.8307  -8.2076  -8.1406  -8.1303  -8.1130  -8.0304  -8.0207  -7.9744
    -7.9325  -7.8651  -7.8320  -7.8104  -7.8044  -7.7586  -7.7507  -7.6941
    -7.6819  -7.6125  -7.5942  -7.5798  -7.5574  -7.5366  -7.5267  -7.5248
    -7.4907  -7.4759  -7.4682  -7.4437  -7.4357  -7.3934  -7.3540  -6.5988
    -6.2973  -5.0710  -4.9696  -4.6650  -4.0127  -3.8742  -3.8156  -3.7035
    -3.6815  -3.5408  -3.5243  -3.4183  -3.4086  -3.3425  -3.3420  -3.2762
    -3.2426  -3.1609  -3.1549  -3.1181  -3.0830  -3.0460  -3.0209  -3.0155
    -2.9988  -2.9896  -2.9218  -2.8738  -2.8644  -2.8447  -2.8278  -2.6644
    -2.0607  -1.8657  -1.6957  -0.7935  -0.5023  -0.3960   0.0399   1.0750
     1.9894   2.3992   2.6640   3.2129   3.4437   3.5855   4.2813   4.3242
     4.8661   4.9308   5.2397

          k = 0.0000 0.0886 0.0000 ( 27833 PWs)   bands (ev):

    -8.4890  -8.1788  -8.0868  -8.0805  -8.0578  -8.0359  -7.9911  -7.9859
    -7.9608  -7.8897  -7.8638  -7.7914  -7.7284  -7.7211  -7.6794  -7.6538
    -7.6426  -7.6064  -7.5805  -7.5733  -7.5688  -7.5505  -7.5502  -7.5362
    -7.5181  -7.5092  -7.4890  -7.4759  -7.4668  -7.4328  -7.3955  -6.8646
    -6.2593  -5.4201  -4.9032  -4.7945  -4.0218  -3.9270  -3.7994  -3.7810
    -3.6819  -3.5584  -3.4557  -3.4280  -3.3934  -3.3931  -3.3311  -3.3038
    -3.2336  -3.2131  -3.2040  -3.1853  -3.1069  -3.0679  -3.0543  -3.0364
    -3.0206  -3.0144  -2.9757  -2.9527  -2.9295  -2.8840  -2.8652  -2.7748
    -1.8485  -1.8268  -1.7505  -1.1254  -0.6208  -0.4969   0.5721   1.5219
     1.9052   1.9176   2.7954   3.7938   4.2434   4.2680   4.5092   4.7597
     4.7850   5.2395   5.3012

          k = 0.0000-0.1063 0.0000 ( 27832 PWs)   bands (ev):

    -8.2405  -8.2405  -8.0623  -8.0623  -8.0172  -8.0171  -8.0024  -8.0024
    -7.9270  -7.9270  -7.8492  -7.8491  -7.6903  -7.6903  -7.6373  -7.6372
    -7.5978  -7.5977  -7.5906  -7.5906  -7.5724  -7.5723  -7.5500  -7.5500
    -7.5311  -7.5311  -7.5002  -7.5002  -7.4702  -7.4702  -7.2541  -7.2541
    -5.8481  -5.8481  -4.8580  -4.8580  -3.9821  -3.9821  -3.8097  -3.8097
    -3.6208  -3.6208  -3.4393  -3.4393  -3.3993  -3.3993  -3.2997  -3.2997
    -3.2336  -3.2336  -3.1706  -3.1706  -3.1530  -3.1529  -3.0707  -3.0707
    -3.0270  -3.0270  -2.9734  -2.9734  -2.9220  -2.9220  -2.8330  -2.8330
    -1.8127  -1.8127  -1.5064  -1.5063  -0.5766  -0.5766   1.1839   1.1839
     1.7929   1.7929   3.5262   3.5262   4.2808   4.2809   4.9362   4.9362
     5.2456   5.2459   5.2926

          k = 0.0160-0.0077 0.0000 ( 27873 PWs)   bands (ev):

    -9.5150  -8.3219  -8.2838  -8.2541  -8.2154  -8.1453  -8.0803  -7.9874
    -7.9868  -7.9580  -7.9314  -7.8594  -7.8233  -7.7991  -7.7622  -7.7217
    -7.6943  -7.6818  -7.6070  -7.6032  -7.5765  -7.5307  -7.5186  -7.4528
    -7.4410  -7.4083  -7.3946  -7.3667  -7.3236  -7.3163  -7.1951  -7.0920
    -5.1822  -4.8573  -4.3929  -4.3100  -4.0218  -3.7790  -3.7143  -3.7106
    -3.6560  -3.5893  -3.5543  -3.4787  -3.3532  -3.3445  -3.2009  -3.1849
    -3.1316  -3.1140  -3.0943  -3.0699  -3.0263  -2.9128  -2.8919  -2.8498
    -2.7819  -2.7809  -2.7632  -2.7555  -2.6722  -2.5078  -2.5003  -2.0097
    -1.6305  -1.3774  -1.1743  -1.0693  -0.8277  -0.5081  -0.2048   0.0743
     1.1414   1.6004   2.0843   2.1151   2.5647   2.8967   2.9960   3.5520
     3.8290   4.0918   4.1710

          k = 0.0160 0.0101 0.0000 ( 27873 PWs)   bands (ev):

    -9.5101  -8.3213  -8.2924  -8.2582  -8.2128  -8.1561  -8.0781  -7.9967
    -7.9826  -7.9562  -7.9354  -7.8631  -7.8180  -7.7966  -7.7694  -7.7100
    -7.6865  -7.6857  -7.6067  -7.6055  -7.5787  -7.5286  -7.5128  -7.4632
    -7.4319  -7.4113  -7.3882  -7.3581  -7.3101  -7.3096  -7.1856  -7.0829
    -5.1855  -4.7597  -4.3692  -4.2099  -4.0682  -3.8474  -3.8233  -3.7118
    -3.6839  -3.6245  -3.5427  -3.5297  -3.3635  -3.3516  -3.2321  -3.1457
    -3.1432  -3.1003  -3.0739  -3.0678  -3.0209  -2.9349  -2.9186  -2.8822
    -2.7681  -2.7465  -2.7407  -2.7265  -2.6555  -2.5181  -2.5010  -1.8216
    -1.7529  -1.5776  -1.0778  -0.9711  -0.7408  -0.5016  -0.4182  -0.2387
     1.3113   1.5784   2.2242   2.2262   2.3164   2.9110   3.3294   3.5369
     3.7761   3.8533   4.4160

          k = 0.0160 0.0278 0.0000 ( 27871 PWs)   bands (ev):

    -9.4098  -8.3030  -8.2767  -8.2457  -8.1904  -8.1296  -8.0629  -7.9835
    -7.9794  -7.9590  -7.9197  -7.8515  -7.8002  -7.7979  -7.7635  -7.7165
    -7.6927  -7.6779  -7.6036  -7.6034  -7.5778  -7.5255  -7.5082  -7.4751
    -7.4358  -7.4266  -7.3940  -7.3624  -7.3159  -7.3122  -7.1979  -7.0169
    -5.1595  -4.8873  -4.4202  -4.3076  -4.1162  -3.8915  -3.8629  -3.7150
    -3.6836  -3.6469  -3.5869  -3.5135  -3.3964  -3.3736  -3.2615  -3.1562
    -3.1289  -3.1212  -3.0959  -3.0438  -3.0264  -2.9731  -2.9608  -2.9259
    -2.7946  -2.7790  -2.7538  -2.7521  -2.6728  -2.5365  -2.4535  -2.2945
    -2.0208  -1.4744  -1.2384  -0.9196  -0.7508  -0.5765  -0.3597   0.2478
     1.5289   1.7151   1.9680   2.3981   2.8810   3.0045   3.3558   3.6978
     3.9347   4.0437   4.2784

          k = 0.0160 0.0455 0.0000 ( 27856 PWs)   bands (ev):

    -9.2178  -8.2697  -8.2390  -8.2180  -8.1560  -8.0882  -8.0216  -7.9902
    -7.9636  -7.9350  -7.8929  -7.8282  -7.8013  -7.7845  -7.7461  -7.7401
    -7.7021  -7.6592  -7.6018  -7.5952  -7.5728  -7.5222  -7.5064  -7.4863
    -7.4528  -7.4484  -7.4112  -7.3798  -7.3342  -7.3327  -7.2321  -6.8835
    -5.3376  -5.1191  -4.5875  -4.3994  -4.1730  -3.8848  -3.8585  -3.7240
    -3.6741  -3.6560  -3.6185  -3.4999  -3.4429  -3.3775  -3.2969  -3.1971
    -3.1812  -3.1584  -3.1127  -3.0497  -3.0456  -2.9981  -2.9867  -2.9601
    -2.8890  -2.8319  -2.8150  -2.8029  -2.7144  -2.6779  -2.5501  -2.3335
    -2.1471  -2.0634  -1.1252  -0.9102  -0.5543  -0.4643  -0.0672   0.2530
     1.4694   1.8946   2.4100   2.8741   3.2257   3.2449   3.7558   3.9172
     4.1974   4.4667   4.5352

          k = 0.0160 0.0632 0.0000 ( 27847 PWs)   bands (ev):

    -8.9433  -8.2266  -8.1847  -8.1782  -8.1183  -8.0545  -8.0027  -7.9710
    -7.9497  -7.8712  -7.8699  -7.8124  -7.7913  -7.7860  -7.7740  -7.7181
    -7.6924  -7.6317  -7.6009  -7.5846  -7.5640  -7.5207  -7.5121  -7.4978
    -7.4792  -7.4687  -7.4371  -7.4074  -7.3732  -7.3615  -7.2880  -6.6688
    -5.9616  -5.0943  -4.8207  -4.4883  -4.2104  -3.8872  -3.8617  -3.7358
    -3.7264  -3.6111  -3.6078  -3.4943  -3.4576  -3.3765  -3.3274  -3.3250
    -3.2472  -3.1616  -3.1362  -3.0998  -3.0657  -3.0090  -3.0025  -2.9855
    -2.9828  -2.9261  -2.8817  -2.8507  -2.7828  -2.7681  -2.6626  -2.5049
    -2.2528  -2.1162  -1.1422  -1.0910  -0.3346  -0.1457   0.0256   0.3430
     1.3026   2.3162   2.9179   3.1918   3.3149   3.7750   3.7831   4.2164
     4.7201   4.7905   4.8355

          k = 0.0160 0.0809 0.0000 ( 27816 PWs)   bands (ev):

    -8.6114  -8.1852  -8.1307  -8.1210  -8.0835  -8.0214  -8.0209  -7.9819
    -7.9108  -7.8812  -7.8296  -7.8013  -7.7931  -7.7514  -7.7446  -7.6808
    -7.6740  -7.6075  -7.5924  -7.5760  -7.5565  -7.5322  -7.5258  -7.5187
    -7.4946  -7.4862  -7.4683  -7.4331  -7.4298  -7.3842  -7.3610  -6.5868
    -6.3681  -5.1816  -5.1082  -4.5719  -4.1798  -3.9045  -3.8888  -3.7767
    -3.7283  -3.5842  -3.5414  -3.4968  -3.4287  -3.4274  -3.3635  -3.3444
    -3.2832  -3.1801  -3.1742  -3.1552  -3.1016  -3.0539  -3.0381  -2.9966
    -2.9954  -2.9539  -2.9223  -2.8788  -2.8648  -2.8303  -2.8252  -2.7047
    -2.2715  -1.9189  -1.2122  -1.1492  -0.8540   0.1915   0.3617   1.0569
     1.1526   2.2362   2.8698   3.2893   3.6753   4.3040   4.6078   4.8523
     5.0069   5.1515   5.2082

          k = 0.0160-0.1139 0.0000 ( 27802 PWs)   bands (ev):

    -8.3016  -8.1876  -8.0824  -8.0668  -8.0420  -8.0370  -7.9923  -7.9817
    -7.9544  -7.9143  -7.8429  -7.8009  -7.7227  -7.7142  -7.6682  -7.6474
    -7.6406  -7.6057  -7.5855  -7.5684  -7.5642  -7.5522  -7.5459  -7.5393
    -7.5168  -7.5139  -7.4939  -7.4845  -7.4608  -7.4268  -7.3152  -7.0961
    -6.0015  -5.6307  -5.1291  -4.6454  -4.1044  -3.9550  -3.8755  -3.7823
    -3.6798  -3.5808  -3.5100  -3.4625  -3.4327  -3.3740  -3.3613  -3.3468
    -3.2634  -3.2083  -3.1985  -3.1959  -3.0984  -3.0784  -3.0589  -3.0288
    -3.0188  -2.9957  -2.9734  -2.9678  -2.9022  -2.8876  -2.8579  -2.7892
    -2.2998  -1.6714  -1.3204  -1.2687  -1.1037   0.2734   0.8934   1.0960
     1.5341   1.9135   3.0297   3.9882   4.0552   4.3652   4.5217   4.8893
     5.0476   5.0865   5.5659

          k = 0.0160-0.0962 0.0000 ( 27801 PWs)   bands (ev):

    -8.3361  -8.1673  -8.0685  -8.0580  -8.0180  -8.0171  -8.0076  -7.9928
    -7.9381  -7.9144  -7.8873  -7.8084  -7.6894  -7.6859  -7.6420  -7.6356
    -7.6023  -7.5975  -7.5946  -7.5860  -7.5753  -7.5679  -7.5545  -7.5438
    -7.5332  -7.5308  -7.5044  -7.5006  -7.4909  -7.4479  -7.3634  -7.0354
    -6.0755  -5.6388  -5.0717  -4.7350  -4.0567  -3.9577  -3.7888  -3.7641
    -3.6301  -3.6042  -3.4940  -3.3933  -3.3878  -3.3734  -3.2972  -3.2874
    -3.2516  -3.2104  -3.1858  -3.1636  -3.1559  -3.1432  -3.0880  -3.0663
    -3.0497  -2.9996  -2.9954  -2.9695  -2.9321  -2.9108  -2.8331  -2.8214
    -2.3309  -1.6671  -1.4945  -1.1473  -1.0583   0.3380   0.9078   0.9249
     1.6432   2.5971   3.3344   3.8098   3.8438   4.1987   4.2944   4.7069
     4.9323   5.0029   5.5363

          k = 0.0160-0.0785 0.0000 ( 27806 PWs)   bands (ev):

    -8.6448  -8.1745  -8.0971  -8.0899  -8.0652  -8.0355  -7.9985  -7.9786
    -7.9673  -7.8759  -7.8711  -7.7886  -7.7327  -7.7223  -7.6899  -7.6594
    -7.6412  -7.6123  -7.5789  -7.5786  -7.5718  -7.5535  -7.5483  -7.5329
    -7.5206  -7.5119  -7.4970  -7.4809  -7.4508  -7.4322  -7.4142  -6.5479
    -6.4561  -5.3889  -4.8613  -4.8493  -3.9996  -3.9010  -3.7593  -3.6823
    -3.6707  -3.5292  -3.4613  -3.3706  -3.3605  -3.3344  -3.3048  -3.2534
    -3.2117  -3.2021  -3.1878  -3.1663  -3.1266  -3.0833  -3.0684  -3.0426
    -3.0242  -2.9991  -2.9859  -2.9496  -2.9449  -2.8984  -2.8442  -2.7498
    -2.3584  -1.9394  -1.4816  -0.9865  -0.7461   0.2137   0.5464   0.8604
     2.3505   2.5798   3.0490   3.0733   3.7202   4.2258   4.2752   4.4939
     4.6647   4.7672   5.1355

          k = 0.0160-0.0608 0.0000 ( 27847 PWs)   bands (ev):

    -8.9726  -8.2215  -8.1471  -8.1382  -8.1331  -8.0342  -8.0212  -7.9693
    -7.9519  -7.8557  -7.8335  -7.8174  -7.8120  -7.7637  -7.7548  -7.7101
    -7.6796  -7.6186  -7.5960  -7.5785  -7.5589  -7.5454  -7.5301  -7.5281
    -7.4873  -7.4761  -7.4549  -7.4418  -7.4406  -7.3946  -7.3489  -6.7438
    -5.9748  -5.1930  -4.9687  -4.6294  -3.8941  -3.8510  -3.7869  -3.6720
    -3.5748  -3.4932  -3.4830  -3.4112  -3.3549  -3.3323  -3.3108  -3.2540
    -3.1848  -3.1346  -3.1192  -3.0893  -3.0540  -3.0438  -3.0422  -2.9968
    -2.9879  -2.9708  -2.9234  -2.8670  -2.8555  -2.8496  -2.8282  -2.5709
    -2.3559  -2.1498  -1.4840  -0.9061  -0.2357  -0.2208   0.5687   0.7508
     1.9049   2.4506   2.7872   3.0447   3.3898   3.4526   3.9732   4.0203
     4.2717   4.6884   4.7116

          k = 0.0160-0.0431 0.0000 ( 27890 PWs)   bands (ev):

    -9.2406  -8.2688  -8.2018  -8.1967  -8.1704  -8.0582  -8.0098  -8.0077
    -7.9640  -7.8902  -7.8802  -7.8170  -7.8015  -7.8002  -7.7835  -7.7241
    -7.7151  -7.6417  -7.6066  -7.5868  -7.5654  -7.5346  -7.5282  -7.4928
    -7.4507  -7.4495  -7.4348  -7.4165  -7.3884  -7.3626  -7.2781  -6.9355
    -5.4526  -5.0713  -4.9313  -4.4880  -3.9041  -3.7810  -3.7598  -3.6604
    -3.5407  -3.5282  -3.4957  -3.4437  -3.3735  -3.3328  -3.2623  -3.2529
    -3.1528  -3.0992  -3.0969  -3.0719  -3.0441  -2.9906  -2.9615  -2.9277
    -2.9118  -2.8818  -2.8773  -2.8316  -2.7761  -2.7010  -2.6462  -2.3640
    -2.3098  -2.0548  -1.4379  -0.8783  -0.6205   0.2532   0.4718   0.5290
     1.4448   2.1253   2.3328   2.3458   3.0647   3.1323   3.8155   3.9195
     4.0806   4.3884   4.4369

          k = 0.0160-0.0254 0.0000 ( 27869 PWs)   bands (ev):

    -9.4242  -8.3039  -8.2523  -8.2333  -8.1995  -8.0925  -8.0725  -7.9963
    -7.9609  -7.9500  -7.9111  -7.8407  -7.8148  -7.8038  -7.7481  -7.7434
    -7.7122  -7.6664  -7.6076  -7.5956  -7.5721  -7.5316  -7.5244  -7.4619
    -7.4468  -7.4214  -7.4119  -7.3869  -7.3499  -7.3348  -7.2261  -7.0458
    -5.1442  -5.0886  -4.6023  -4.4066  -3.9675  -3.7516  -3.7031  -3.6923
    -3.6065  -3.5468  -3.5217  -3.4210  -3.3876  -3.3454  -3.2297  -3.2017
    -3.1289  -3.1140  -3.1063  -3.0808  -3.0350  -2.9275  -2.8972  -2.8562
    -2.8374  -2.8296  -2.8174  -2.8065  -2.7176  -2.5704  -2.4261  -2.2726
    -2.1876  -1.5097  -1.2077  -1.0533  -0.8735   0.1056   0.1870   0.2494
     1.2726   1.9376   2.0156   2.0666   2.5730   2.9681   3.1299   3.6661
     4.0455   4.2532   4.7651

          k = 0.0320-0.0153 0.0000 ( 27865 PWs)   bands (ev):

    -9.3719  -8.2949  -8.2489  -8.2293  -8.1879  -8.0930  -8.0555  -7.9946
    -7.9614  -7.9462  -7.9063  -7.8373  -7.8068  -7.8032  -7.7458  -7.7443
    -7.7101  -7.6644  -7.6060  -7.5964  -7.5718  -7.5290  -7.5194  -7.4608
    -7.4571  -7.4312  -7.4119  -7.3850  -7.3432  -7.3347  -7.2278  -7.0051
    -5.1586  -5.1306  -4.5923  -4.4065  -4.0033  -3.8075  -3.7469  -3.6717
    -3.6345  -3.5972  -3.5626  -3.4451  -3.4038  -3.3485  -3.2370  -3.1774
    -3.1583  -3.1255  -3.0967  -3.0496  -3.0306  -2.9546  -2.9429  -2.9088
    -2.8504  -2.8153  -2.8136  -2.8116  -2.7159  -2.5951  -2.4835  -2.3979
    -1.8350  -1.7404  -1.4969  -0.8447  -0.7798  -0.1143  -0.0196   0.3009
     1.4747   1.9522   2.0778   2.3591   2.7395   3.0298   3.4059   3.6598
     3.8978   4.4945   4.6113

          k = 0.0320 0.0024 0.0000 ( 27871 PWs)   bands (ev):

    -9.4098  -8.3030  -8.2767  -8.2457  -8.1904  -8.1296  -8.0629  -7.9835
    -7.9794  -7.9590  -7.9197  -7.8515  -7.8002  -7.7979  -7.7635  -7.7165
    -7.6927  -7.6779  -7.6036  -7.6034  -7.5778  -7.5255  -7.5082  -7.4751
    -7.4358  -7.4266  -7.3940  -7.3624  -7.3159  -7.3122  -7.1979  -7.0169
    -5.1595  -4.8873  -4.4202  -4.3076  -4.1162  -3.8915  -3.8629  -3.7150
    -3.6836  -3.6469  -3.5869  -3.5135  -3.3964  -3.3736  -3.2615  -3.1562
    -3.1289  -3.1212  -3.0959  -3.0438  -3.0264  -2.9731  -2.9608  -2.9259
    -2.7946  -2.7790  -2.7538  -2.7521  -2.6728  -2.5365  -2.4535  -2.2945
    -2.0208  -1.4744  -1.2384  -0.9196  -0.7508  -0.5765  -0.3597   0.2478
     1.5289   1.7151   1.9680   2.3981   2.8810   3.0045   3.3558   3.6978
     3.9348   4.0437   4.2784

          k = 0.0320 0.0201 0.0000 ( 27890 PWs)   bands (ev):

    -9.3536  -8.2940  -8.2817  -8.2454  -8.1762  -8.1340  -8.0564  -7.9857
    -7.9766  -7.9585  -7.9168  -7.8511  -7.7949  -7.7804  -7.7707  -7.7018
    -7.6850  -7.6803  -7.6052  -7.6006  -7.5821  -7.5212  -7.4986  -7.4919
    -7.4327  -7.4243  -7.3873  -7.3513  -7.3090  -7.2984  -7.1888  -6.9730
    -5.1698  -4.7376  -4.3866  -4.2465  -4.1901  -4.1608  -3.9107  -3.7746
    -3.6979  -3.6914  -3.5824  -3.5646  -3.4299  -3.4042  -3.2816  -3.1762
    -3.1527  -3.1061  -3.1009  -3.0708  -3.0339  -2.9985  -2.9692  -2.9376
    -2.7803  -2.7624  -2.7348  -2.7235  -2.6583  -2.5177  -2.5141  -2.3202
    -2.2384  -1.6076  -1.1074  -0.9668  -0.9233  -0.7755   0.0289   0.2410
     1.2828   1.8964   2.2561   2.4937   2.7633   3.1065   3.2385   3.7814
     4.3335   4.4017   4.4155

          k = 0.0320 0.0378 0.0000 ( 27869 PWs)   bands (ev):

    -9.2058  -8.2703  -8.2629  -8.2291  -8.1472  -8.1117  -8.0350  -7.9767
    -7.9649  -7.9616  -7.8989  -7.8373  -7.7964  -7.7644  -7.7572  -7.7081
    -7.6883  -7.6715  -7.5985  -7.5980  -7.5819  -7.5167  -7.5054  -7.4931
    -7.4441  -7.4270  -7.3928  -7.3545  -7.3151  -7.3036  -7.2016  -6.8636
    -5.1917  -4.9745  -4.4612  -4.3652  -4.3309  -4.0499  -3.9493  -3.8176
    -3.7420  -3.6837  -3.6232  -3.5622  -3.4676  -3.4318  -3.3140  -3.2551
    -3.1879  -3.1518  -3.1176  -3.0972  -3.0391  -3.0049  -2.9708  -2.9390
    -2.8431  -2.7995  -2.7538  -2.7437  -2.6764  -2.5894  -2.5883  -2.4871
    -2.3077  -1.6274  -1.4406  -1.3181  -0.5461  -0.3898   0.0221   0.5611
     0.9665   1.9957   2.2102   3.0704   3.0781   3.5186   3.7212   3.9443
     4.3976   4.4514   4.5201

          k = 0.0320 0.0556 0.0000 ( 27837 PWs)   bands (ev):

    -8.9737  -8.2356  -8.2230  -8.1988  -8.1123  -8.0772  -7.9909  -7.9844
    -7.9677  -7.9178  -7.8757  -7.8167  -7.7979  -7.7605  -7.7451  -7.7331
    -7.6845  -7.6525  -7.5971  -7.5850  -7.5751  -7.5144  -7.5139  -7.4962
    -7.4529  -7.4444  -7.4094  -7.3723  -7.3333  -7.3284  -7.2371  -6.6767
    -5.5621  -5.2675  -4.6226  -4.4028  -4.3702  -3.9941  -3.9463  -3.8306
    -3.7797  -3.6571  -3.6555  -3.5606  -3.4899  -3.4473  -3.3898  -3.3499
    -3.2153  -3.1867  -3.1423  -3.1259  -3.0530  -3.0137  -2.9770  -2.9569
    -2.9409  -2.8492  -2.8466  -2.7855  -2.7432  -2.7160  -2.5938  -2.5613
    -2.1930  -2.1845  -1.6380  -0.7906  -0.1852  -0.1635   0.0984   0.3752
     0.6952   2.0931   2.9198   3.3135   3.4925   3.8530   3.8661   4.2001
     4.4185   4.6535   4.7566

          k = 0.0320 0.0733 0.0000 ( 27823 PWs)   bands (ev):

    -8.6755  -8.1941  -8.1693  -8.1584  -8.0794  -8.0420  -8.0002  -7.9785
    -7.9232  -7.8711  -7.8548  -7.8025  -7.7902  -7.7756  -7.7685  -7.7139
    -7.6693  -7.6253  -7.5992  -7.5712  -7.5640  -7.5188  -7.5169  -7.5054
    -7.4723  -7.4579  -7.4329  -7.3980  -7.3712  -7.3575  -7.2951  -6.4120
    -6.2138  -5.3858  -4.9273  -4.4098  -4.3398  -4.0438  -3.9494  -3.8049
    -3.7814  -3.6510  -3.6099  -3.5698  -3.4923  -3.4795  -3.4437  -3.3611
    -3.2672  -3.1846  -3.1723  -3.1496  -3.0850  -3.0672  -3.0141  -2.9983
    -2.9616  -2.9046  -2.8915  -2.8342  -2.8012  -2.7671  -2.6512  -2.5916
    -2.5569  -2.0660  -1.6940  -0.5734  -0.2648   0.1132   0.2640   0.5024
     0.8872   2.2318   2.7605   3.5527   3.7940   3.8437   4.3447   4.5439
     4.9731   5.0690   5.4294

          k = 0.0320-0.1216 0.0000 ( 27807 PWs)   bands (ev):

    -8.3592  -8.1577  -8.1174  -8.1117  -8.0525  -8.0226  -8.0075  -7.9927
    -7.9002  -7.8930  -7.8255  -7.7927  -7.7852  -7.7404  -7.7381  -7.6734
    -7.6593  -7.6082  -7.5900  -7.5679  -7.5582  -7.5329  -7.5313  -7.5142
    -7.4979  -7.4771  -7.4666  -7.4231  -7.4195  -7.3682  -7.3281  -6.8075
    -6.1070  -5.4582  -5.3556  -4.4701  -4.2750  -4.0185  -3.9984  -3.7631
    -3.7476  -3.6123  -3.5805  -3.5431  -3.4880  -3.4679  -3.4227  -3.3445
    -3.2958  -3.2128  -3.1757  -3.1669  -3.1164  -3.1113  -3.0408  -3.0147
    -2.9690  -2.9259  -2.9219  -2.8729  -2.8677  -2.8202  -2.8184  -2.7191
    -2.5972  -2.0108  -1.5667  -1.0416  -0.2306   0.3278   0.8442   0.8810
     1.1844   1.9720   2.8696   3.5612   3.9116   4.0927   4.6547   4.9828
     5.0294   5.1238   5.5020

          k = 0.0320-0.1039 0.0000 ( 27767 PWs)   bands (ev):

    -8.2015  -8.1524  -8.0767  -8.0579  -8.0386  -8.0222  -7.9944  -7.9749
    -7.9494  -7.9398  -7.8157  -7.8121  -7.7171  -7.6998  -7.6601  -7.6419
    -7.6376  -7.6107  -7.5914  -7.5684  -7.5661  -7.5460  -7.5424  -7.5394
    -7.5229  -7.5215  -7.5051  -7.4837  -7.4587  -7.4159  -7.2340  -7.1139
    -5.8935  -5.8138  -5.3323  -4.5755  -4.2738  -3.9907  -3.8694  -3.7441
    -3.6685  -3.5953  -3.5699  -3.4585  -3.4479  -3.4039  -3.3739  -3.3272
    -3.2869  -3.2222  -3.1855  -3.1822  -3.1141  -3.0963  -3.0572  -3.0339
    -3.0149  -2.9794  -2.9785  -2.9638  -2.8917  -2.8916  -2.8500  -2.7894
    -2.6086  -2.0208  -1.4465  -1.2747  -0.1875   0.2449   1.1452   1.4556
     1.4648   1.8577   3.4785   3.5015   3.7313   3.9340   4.4603   4.5454
     5.2877   5.3023   5.5209

          k = 0.0320-0.0862 0.0000 ( 27809 PWs)   bands (ev):

    -8.4159  -8.1273  -8.0739  -8.0567  -8.0185  -8.0182  -8.0075  -7.9844
    -7.9434  -7.9138  -7.9051  -7.7804  -7.6854  -7.6767  -7.6491  -7.6374
    -7.6091  -7.6026  -7.5964  -7.5813  -7.5741  -7.5659  -7.5553  -7.5380
    -7.5344  -7.5340  -7.5130  -7.5092  -7.4959  -7.4400  -7.3960  -6.7025
    -6.2285  -5.8014  -5.0134  -4.7146  -4.2303  -3.9175  -3.7356  -3.7027
    -3.6331  -3.5743  -3.5262  -3.3756  -3.3616  -3.3431  -3.2949  -3.2773
    -3.2568  -3.2270  -3.1895  -3.1571  -3.1318  -3.1313  -3.0861  -3.0742
    -3.0511  -3.0050  -2.9831  -2.9648  -2.9320  -2.9209  -2.8253  -2.8183
    -2.6096  -2.0446  -1.7622  -0.8628  -0.1249   0.2099   0.6427   1.4129
     2.1516   2.5258   2.8843   3.4919   3.6407   4.0112   4.4114   4.5446
     4.8200   4.9766   5.0548

          k = 0.0320-0.0684 0.0000 ( 27841 PWs)   bands (ev):

    -8.7299  -8.1729  -8.1074  -8.0916  -8.0682  -8.0354  -8.0022  -7.9738
    -7.9716  -7.8816  -7.8613  -7.7884  -7.7348  -7.7218  -7.6963  -7.6627
    -7.6383  -7.6187  -7.5829  -7.5827  -7.5678  -7.5557  -7.5475  -7.5320
    -7.5189  -7.5159  -7.5044  -7.4858  -7.4423  -7.4304  -7.4109  -6.5600
    -6.1959  -5.6627  -4.8564  -4.7428  -4.0850  -3.8108  -3.7485  -3.6924
    -3.5731  -3.4728  -3.4671  -3.3480  -3.3408  -3.3252  -3.2955  -3.2570
    -3.2028  -3.1911  -3.1880  -3.1347  -3.0997  -3.0789  -3.0762  -3.0478
    -3.0038  -2.9817  -2.9625  -2.9482  -2.9434  -2.9068  -2.8268  -2.7797
    -2.5246  -2.0553  -2.0021  -0.3531  -0.0995   0.1395   0.2272   1.1679
     1.9666   2.8544   2.9055   3.4241   3.6084   3.7709   4.0996   4.1883
     4.3535   4.5966   4.9699

          k = 0.0320-0.0507 0.0000 ( 27857 PWs)   bands (ev):

    -9.0213  -8.2261  -8.1494  -8.1437  -8.1378  -8.0348  -8.0216  -7.9675
    -7.9601  -7.8529  -7.8339  -7.8202  -7.8142  -7.7656  -7.7563  -7.7160
    -7.6783  -7.6214  -7.5968  -7.5772  -7.5595  -7.5495  -7.5317  -7.5294
    -7.4840  -7.4770  -7.4546  -7.4451  -7.4328  -7.3943  -7.3471  -6.7933
    -5.7636  -5.3561  -4.9788  -4.5887  -3.9051  -3.8142  -3.7327  -3.7006
    -3.5112  -3.4521  -3.4272  -3.4250  -3.3537  -3.3269  -3.3267  -3.2919
    -3.1423  -3.1130  -3.1051  -3.0866  -3.0709  -3.0642  -3.0530  -2.9827
    -2.9291  -2.9244  -2.9235  -2.8708  -2.8449  -2.8290  -2.7689  -2.7331
    -2.2414  -2.1809  -1.9625  -0.3696  -0.2233   0.1173   0.3661   0.7265
     1.7903   2.3545   2.7684   2.9141   3.3218   3.4723   3.9619   4.0755
     4.4548   4.5254   4.6504

          k = 0.0320-0.0330 0.0000 ( 27890 PWs)   bands (ev):

    -9.2406  -8.2688  -8.2018  -8.1967  -8.1704  -8.0582  -8.0098  -8.0077
    -7.9640  -7.8902  -7.8802  -7.8170  -7.8015  -7.8002  -7.7835  -7.7241
    -7.7151  -7.6417  -7.6066  -7.5868  -7.5654  -7.5346  -7.5282  -7.4928
    -7.4507  -7.4495  -7.4348  -7.4165  -7.3884  -7.3626  -7.2781  -6.9355
    -5.4526  -5.0713  -4.9313  -4.4880  -3.9041  -3.7810  -3.7598  -3.6604
    -3.5407  -3.5282  -3.4957  -3.4437  -3.3735  -3.3328  -3.2623  -3.2529
    -3.1528  -3.0992  -3.0969  -3.0719  -3.0441  -2.9906  -2.9615  -2.9277
    -2.9118  -2.8818  -2.8773  -2.8316  -2.7761  -2.7010  -2.6462  -2.3640
    -2.3098  -2.0548  -1.4379  -0.8783  -0.6205   0.2532   0.4718   0.5290
     1.4448   2.1253   2.3328   2.3458   3.0647   3.1323   3.8155   3.9195
     4.0806   4.3884   4.4370

          k = 0.0479-0.0230 0.0000 ( 27849 PWs)   bands (ev):

    -9.1391  -8.2540  -8.1958  -8.1903  -8.1514  -8.0596  -8.0057  -7.9829
    -7.9663  -7.8837  -7.8752  -7.8165  -7.7958  -7.7957  -7.7800  -7.7170
    -7.7135  -7.6378  -7.6041  -7.5881  -7.5643  -7.5272  -7.5228  -7.4898
    -7.4651  -7.4619  -7.4383  -7.4133  -7.3803  -7.3624  -7.2817  -6.8460
    -5.6829  -5.0536  -4.8273  -4.5094  -3.9924  -3.8294  -3.8070  -3.6526
    -3.6336  -3.5936  -3.5506  -3.4436  -3.4256  -3.3351  -3.2843  -3.2125
    -3.1994  -3.1278  -3.1103  -3.0442  -3.0418  -3.0090  -3.0022  -2.9756
    -2.9473  -2.9272  -2.8740  -2.8514  -2.7709  -2.7563  -2.6727  -2.3726
    -2.2509  -1.8450  -1.6113  -0.7628  -0.5037  -0.1646  -0.0173   0.4626
     1.9069   2.3334   2.6116   2.6902   2.9128   3.2426   3.6518   3.9640
     4.2842   4.5446   4.7287

          k = 0.0479-0.0052 0.0000 ( 27856 PWs)   bands (ev):

    -9.2178  -8.2697  -8.2390  -8.2180  -8.1560  -8.0882  -8.0216  -7.9902
    -7.9636  -7.9350  -7.8929  -7.8282  -7.8013  -7.7845  -7.7461  -7.7401
    -7.7021  -7.6592  -7.6018  -7.5952  -7.5728  -7.5222  -7.5064  -7.4863
    -7.4528  -7.4484  -7.4112  -7.3798  -7.3342  -7.3327  -7.2321  -6.8835
    -5.3376  -5.1191  -4.5875  -4.3994  -4.1730  -3.8848  -3.8585  -3.7240
    -3.6741  -3.6560  -3.6185  -3.4999  -3.4429  -3.3775  -3.2969  -3.1971
    -3.1812  -3.1584  -3.1127  -3.0497  -3.0456  -2.9981  -2.9867  -2.9601
    -2.8890  -2.8319  -2.8150  -2.8029  -2.7144  -2.6779  -2.5501  -2.3335
    -2.1471  -2.0634  -1.1252  -0.9102  -0.5543  -0.4643  -0.0672   0.2530
     1.4694   1.8946   2.4100   2.8741   3.2257   3.2449   3.7558   3.9172
     4.1974   4.4666   4.5352

          k = 0.0479 0.0125 0.0000 ( 27869 PWs)   bands (ev):

    -9.2058  -8.2703  -8.2629  -8.2291  -8.1472  -8.1117  -8.0350  -7.9767
    -7.9649  -7.9616  -7.8989  -7.8373  -7.7964  -7.7644  -7.7572  -7.7081
    -7.6883  -7.6715  -7.5985  -7.5980  -7.5819  -7.5167  -7.5054  -7.4931
    -7.4441  -7.4270  -7.3928  -7.3545  -7.3151  -7.3036  -7.2016  -6.8636
    -5.1917  -4.9745  -4.4612  -4.3652  -4.3309  -4.0499  -3.9493  -3.8176
    -3.7420  -3.6837  -3.6232  -3.5622  -3.4676  -3.4318  -3.3140  -3.2551
    -3.1879  -3.1518  -3.1176  -3.0972  -3.0391  -3.0049  -2.9708  -2.9390
    -2.8431  -2.7995  -2.7538  -2.7437  -2.6764  -2.5894  -2.5883  -2.4871
    -2.3077  -1.6274  -1.4406  -1.3181  -0.5461  -0.3898   0.0221   0.5611
     0.9665   1.9957   2.2102   3.0704   3.0781   3.5186   3.7212   3.9443
     4.3975   4.4514   4.5201

          k = 0.0479 0.0302 0.0000 ( 27874 PWs)   bands (ev):

    -9.1048  -8.2641  -8.2591  -8.2230  -8.1273  -8.1124  -8.0311  -7.9686
    -7.9684  -7.9615  -7.8922  -7.8347  -7.7933  -7.7699  -7.7272  -7.6915
    -7.6820  -7.6732  -7.5987  -7.5943  -7.5857  -7.5196  -7.5112  -7.4865
    -7.4427  -7.4143  -7.3858  -7.3417  -7.3080  -7.2944  -7.1915  -6.7804
    -5.3216  -4.7007  -4.4970  -4.4942  -4.4096  -4.1699  -4.0369  -3.8767
    -3.8026  -3.6976  -3.6276  -3.6014  -3.5050  -3.4863  -3.3478  -3.3382
    -3.2124  -3.1800  -3.1369  -3.1144  -3.0362  -3.0216  -2.9612  -2.9192
    -2.8320  -2.8027  -2.7894  -2.7420  -2.7162  -2.6628  -2.5588  -2.5183
    -2.3212  -1.7956  -1.6177  -1.2183  -0.8752  -0.3825   0.5333   0.6388
     0.9087   1.8107   2.6672   2.9797   3.1931   3.7049   3.7151   4.0640
     4.5327   4.6262   4.8006

          k = 0.0479 0.0479 0.0000 ( 27827 PWs)   bands (ev):

    -8.9223  -8.2413  -8.2386  -8.2004  -8.1018  -8.0892  -8.0106  -7.9691
    -7.9648  -7.9461  -7.8767  -7.8213  -7.7955  -7.7605  -7.7183  -7.7004
    -7.6778  -7.6643  -7.5922  -7.5909  -7.5789  -7.5240  -7.5080  -7.4888
    -7.4389  -7.4174  -7.3909  -7.3450  -7.3141  -7.3048  -7.2039  -6.6238
    -5.5227  -5.1305  -4.5033  -4.4971  -4.3646  -4.1522  -4.1057  -3.8916
    -3.8581  -3.6931  -3.6562  -3.6117  -3.5347  -3.5250  -3.4609  -3.3739
    -3.2301  -3.2210  -3.1571  -3.1306  -3.0533  -3.0404  -2.9589  -2.9577
    -2.9079  -2.8206  -2.7796  -2.7787  -2.7311  -2.7262  -2.6786  -2.5208
    -2.3371  -1.9031  -1.7518  -1.3865  -0.3335  -0.0927   0.1949   0.4986
     0.9120   2.3061   2.9080   3.2786   3.2889   3.5628   4.0695   4.2716
     4.8027   4.8458   5.1900

          k = 0.0479 0.0656 0.0000 ( 27811 PWs)   bands (ev):

    -8.6752  -8.2097  -8.1981  -8.1652  -8.0725  -8.0555  -7.9795  -7.9734
    -7.9679  -7.8996  -7.8642  -7.8060  -7.7924  -7.7496  -7.7374  -7.7303
    -7.6669  -7.6460  -7.5937  -7.5783  -7.5654  -7.5110  -7.5108  -7.4948
    -7.4356  -7.4347  -7.4050  -7.3637  -7.3331  -7.3312  -7.2406  -6.4059
    -5.7698  -5.7176  -4.6915  -4.4519  -4.3159  -4.2422  -4.0023  -3.8887
    -3.8704  -3.6794  -3.6675  -3.6299  -3.5527  -3.5414  -3.5331  -3.3922
    -3.2668  -3.2098  -3.1911  -3.1578  -3.1036  -3.0530  -3.0089  -2.9781
    -2.9320  -2.8684  -2.8639  -2.7780  -2.7728  -2.7563  -2.7162  -2.5638
    -2.3586  -2.2451  -1.8108  -0.8655  -0.0784  -0.0679   0.3208   0.4226
     0.8864   2.6902   3.0957   3.1229   3.4119   3.7222   4.3964   4.5754
     5.1019   5.2073   5.7902

          k = 0.0479-0.1292 0.0000 ( 27823 PWs)   bands (ev):

    -8.4025  -8.1729  -8.1466  -8.1236  -8.0425  -8.0190  -8.0015  -7.9886
    -7.9026  -7.8779  -7.8388  -7.7949  -7.7929  -7.7700  -7.7634  -7.7034
    -7.6601  -7.6200  -7.6004  -7.5728  -7.5529  -7.5200  -7.5031  -7.5017
    -7.4604  -7.4377  -7.4243  -7.3810  -7.3746  -7.3204  -7.3011  -6.4019
    -6.2393  -5.7412  -5.0487  -4.5053  -4.3277  -4.1575  -4.0518  -3.8185
    -3.7958  -3.6716  -3.6472  -3.6202  -3.5520  -3.5501  -3.5129  -3.3790
    -3.2899  -3.2237  -3.1810  -3.1800  -3.1366  -3.0918  -3.0275  -3.0270
    -2.9495  -2.9020  -2.8790  -2.8225  -2.8151  -2.7675  -2.7535  -2.6421
    -2.5793  -2.3719  -1.6043  -0.6778  -0.2399  -0.1092   0.8158   0.8303
     1.2998   2.3798   2.8789   2.9269   3.9548   4.0603   4.5504   4.9733
     5.0829   5.3777   5.4871

          k = 0.0479-0.1115 0.0000 ( 27754 PWs)   bands (ev):

    -8.1716  -8.1363  -8.1032  -8.0961  -8.0275  -8.0239  -8.0080  -7.9900
    -7.9154  -7.8812  -7.8171  -7.7876  -7.7850  -7.7329  -7.7256  -7.6622
    -7.6567  -7.6156  -7.5871  -7.5721  -7.5553  -7.5309  -7.5303  -7.5139
    -7.4926  -7.4711  -7.4683  -7.4156  -7.4150  -7.3741  -7.1300  -6.9435
    -6.2533  -5.4858  -5.4570  -4.5828  -4.4171  -4.0596  -3.9820  -3.7406
    -3.7377  -3.6465  -3.6185  -3.5505  -3.5179  -3.5154  -3.4638  -3.3483
    -3.2929  -3.2483  -3.1828  -3.1561  -3.1289  -3.1282  -3.0428  -3.0401
    -2.9595  -2.9408  -2.9017  -2.8695  -2.8658  -2.8216  -2.8116  -2.7522
    -2.7217  -2.3799  -1.3050  -1.1383  -0.3471   0.6919   0.9152   1.3939
     1.7428   2.0849   2.8050   2.9482   3.3692   4.4921   4.5759   4.8276
     5.0694   5.4622   5.5071

          k = 0.0479-0.0938 0.0000 ( 27784 PWs)   bands (ev):

    -8.2133  -8.0880  -8.0716  -8.0472  -8.0406  -8.0097  -7.9919  -7.9738
    -7.9583  -7.9468  -7.8269  -7.7866  -7.7139  -7.6837  -7.6575  -7.6419
    -7.6386  -7.6130  -7.5964  -7.5743  -7.5676  -7.5400  -7.5371  -7.5363
    -7.5285  -7.5263  -7.5145  -7.4835  -7.4587  -7.4089  -7.2923  -6.7674
    -6.2707  -5.9149  -5.0886  -4.5700  -4.5635  -3.9947  -3.8094  -3.7225
    -3.6452  -3.6091  -3.5935  -3.4492  -3.4492  -3.4333  -3.3891  -3.3140
    -3.2936  -3.2728  -3.1758  -3.1353  -3.0983  -3.0958  -3.0569  -3.0478
    -3.0092  -2.9856  -2.9821  -2.9446  -2.8945  -2.8930  -2.8640  -2.7835
    -2.7339  -2.3772  -1.5108  -0.9079  -0.3933   0.8512   1.1393   1.7733
     2.0351   2.0798   2.6403   2.7798   3.6043   3.8744   4.3375   4.9895
     5.1322   5.3553   5.5760

          k = 0.0479-0.0761 0.0000 ( 27804 PWs)   bands (ev):

    -8.4462  -8.1147  -8.0760  -8.0569  -8.0187  -8.0186  -8.0067  -7.9811
    -7.9433  -7.9248  -7.9016  -7.7711  -7.6829  -7.6690  -7.6554  -7.6391
    -7.6125  -7.6065  -7.5958  -7.5792  -7.5729  -7.5650  -7.5560  -7.5378
    -7.5358  -7.5282  -7.5239  -7.5111  -7.4961  -7.4430  -7.3963  -6.3889
    -6.2820  -6.1199  -4.8588  -4.7179  -4.3635  -3.8985  -3.7279  -3.6662
    -3.6332  -3.5391  -3.5364  -3.3659  -3.3527  -3.3331  -3.3222  -3.2950
    -3.2582  -3.2255  -3.1816  -3.1541  -3.1224  -3.1046  -3.0827  -3.0787
    -3.0473  -2.9810  -2.9788  -2.9544  -2.9325  -2.9317  -2.8582  -2.8107
    -2.6480  -2.3227  -1.7940  -0.4727  -0.3143   0.5588   0.7044   1.3806
     2.5490   2.6219   2.8128   2.9565   3.0730   3.9210   4.7149   4.7716
     4.8706   4.9893   5.1820

          k = 0.0479-0.0584 0.0000 ( 27841 PWs)   bands (ev):

    -8.7299  -8.1729  -8.1074  -8.0916  -8.0682  -8.0354  -8.0022  -7.9738
    -7.9716  -7.8816  -7.8613  -7.7884  -7.7348  -7.7218  -7.6963  -7.6627
    -7.6383  -7.6187  -7.5829  -7.5827  -7.5678  -7.5557  -7.5475  -7.5320
    -7.5189  -7.5159  -7.5044  -7.4858  -7.4423  -7.4304  -7.4109  -6.5600
    -6.1959  -5.6627  -4.8564  -4.7428  -4.0850  -3.8108  -3.7485  -3.6924
    -3.5731  -3.4728  -3.4671  -3.3480  -3.3408  -3.3252  -3.2955  -3.2570
    -3.2028  -3.1911  -3.1880  -3.1347  -3.0997  -3.0789  -3.0762  -3.0478
    -3.0038  -2.9817  -2.9625  -2.9482  -2.9434  -2.9068  -2.8268  -2.7797
    -2.5246  -2.0553  -2.0021  -0.3531  -0.0995   0.1395   0.2272   1.1679
     1.9666   2.8544   2.9055   3.4241   3.6084   3.7709   4.0996   4.1883
     4.3536   4.5970   5.3230

          k = 0.0479-0.0407 0.0000 ( 27847 PWs)   bands (ev):

    -8.9726  -8.2215  -8.1471  -8.1382  -8.1331  -8.0342  -8.0212  -7.9693
    -7.9519  -7.8557  -7.8335  -7.8174  -7.8120  -7.7637  -7.7548  -7.7101
    -7.6796  -7.6186  -7.5960  -7.5785  -7.5589  -7.5454  -7.5301  -7.5281
    -7.4873  -7.4761  -7.4549  -7.4418  -7.4406  -7.3946  -7.3489  -6.7438
    -5.9748  -5.1930  -4.9687  -4.6294  -3.8941  -3.8510  -3.7869  -3.6720
    -3.5748  -3.4932  -3.4830  -3.4112  -3.3549  -3.3323  -3.3108  -3.2540
    -3.1848  -3.1346  -3.1192  -3.0893  -3.0540  -3.0438  -3.0422  -2.9968
    -2.9879  -2.9708  -2.9234  -2.8670  -2.8555  -2.8496  -2.8282  -2.5709
    -2.3559  -2.1498  -1.4840  -0.9061  -0.2357  -0.2208   0.5687   0.7508
     1.9049   2.4506   2.7872   3.0447   3.3898   3.4526   3.9732   4.0203
     4.2720   4.6883   4.7115

          k = 0.0639-0.0306 0.0000 ( 27834 PWs)   bands (ev):

    -8.8307  -8.2076  -8.1406  -8.1303  -8.1130  -8.0304  -8.0207  -7.9744
    -7.9325  -7.8651  -7.8320  -7.8104  -7.8044  -7.7586  -7.7507  -7.6941
    -7.6819  -7.6125  -7.5942  -7.5798  -7.5574  -7.5366  -7.5267  -7.5248
    -7.4907  -7.4759  -7.4682  -7.4437  -7.4357  -7.3934  -7.3540  -6.5988
    -6.2973  -5.0710  -4.9696  -4.6650  -4.0127  -3.8742  -3.8156  -3.7035
    -3.6815  -3.5408  -3.5243  -3.4183  -3.4086  -3.3425  -3.3420  -3.2763
    -3.2426  -3.1609  -3.1549  -3.1181  -3.0830  -3.0460  -3.0209  -3.0155
    -2.9988  -2.9896  -2.9218  -2.8738  -2.8644  -2.8447  -2.8278  -2.6644
    -2.0607  -1.8657  -1.6957  -0.7935  -0.5023  -0.3960   0.0399   1.0750
     1.9894   2.3992   2.6640   3.2129   3.4437   3.5855   4.2814   4.3243
     4.8660   4.9308   5.2386

          k = 0.0639-0.0129 0.0000 ( 27847 PWs)   bands (ev):

    -8.9433  -8.2266  -8.1847  -8.1782  -8.1183  -8.0545  -8.0027  -7.9710
    -7.9497  -7.8712  -7.8699  -7.8124  -7.7913  -7.7860  -7.7740  -7.7181
    -7.6924  -7.6317  -7.6009  -7.5846  -7.5640  -7.5207  -7.5121  -7.4978
    -7.4792  -7.4687  -7.4371  -7.4074  -7.3732  -7.3615  -7.2880  -6.6688
    -5.9616  -5.0943  -4.8207  -4.4883  -4.2104  -3.8872  -3.8617  -3.7358
    -3.7264  -3.6111  -3.6078  -3.4943  -3.4576  -3.3765  -3.3274  -3.3250
    -3.2472  -3.1616  -3.1362  -3.0998  -3.0657  -3.0090  -3.0025  -2.9855
    -2.9828  -2.9261  -2.8817  -2.8507  -2.7828  -2.7681  -2.6626  -2.5049
    -2.2528  -2.1162  -1.1422  -1.0910  -0.3346  -0.1457   0.0256   0.3430
     1.3026   2.3162   2.9179   3.1918   3.3149   3.7750   3.7832   4.2162
     4.7203   4.7905   4.8355

          k = 0.0639 0.0048 0.0000 ( 27837 PWs)   bands (ev):

    -8.9737  -8.2356  -8.2230  -8.1988  -8.1123  -8.0772  -7.9909  -7.9844
    -7.9677  -7.9178  -7.8757  -7.8167  -7.7979  -7.7605  -7.7451  -7.7331
    -7.6845  -7.6525  -7.5971  -7.5850  -7.5751  -7.5144  -7.5139  -7.4962
    -7.4529  -7.4444  -7.4094  -7.3723  -7.3333  -7.3284  -7.2371  -6.6767
    -5.5621  -5.2675  -4.6226  -4.4028  -4.3702  -3.9941  -3.9463  -3.8306
    -3.7797  -3.6571  -3.6555  -3.5606  -3.4899  -3.4473  -3.3898  -3.3499
    -3.2153  -3.1867  -3.1423  -3.1259  -3.0530  -3.0137  -2.9770  -2.9569
    -2.9409  -2.8492  -2.8466  -2.7855  -2.7432  -2.7160  -2.5938  -2.5613
    -2.1930  -2.1845  -1.6380  -0.7906  -0.1852  -0.1635   0.0984   0.3752
     0.6952   2.0931   2.9198   3.3135   3.4925   3.8530   3.8661   4.2001
     4.4185   4.6535   4.7566

          k = 0.0639 0.0225 0.0000 ( 27827 PWs)   bands (ev):

    -8.9223  -8.2413  -8.2386  -8.2004  -8.1018  -8.0892  -8.0106  -7.9691
    -7.9648  -7.9461  -7.8767  -7.8213  -7.7955  -7.7605  -7.7183  -7.7004
    -7.6778  -7.6643  -7.5922  -7.5909  -7.5789  -7.5240  -7.5080  -7.4888
    -7.4389  -7.4174  -7.3909  -7.3450  -7.3141  -7.3048  -7.2039  -6.6238
    -5.5227  -5.1305  -4.5033  -4.4971  -4.3645  -4.1522  -4.1057  -3.8916
    -3.8581  -3.6931  -3.6562  -3.6117  -3.5347  -3.5250  -3.4609  -3.3739
    -3.2301  -3.2210  -3.1571  -3.1306  -3.0533  -3.0404  -2.9589  -2.9577
    -2.9079  -2.8206  -2.7796  -2.7787  -2.7311  -2.7262  -2.6786  -2.5208
    -2.3371  -1.9031  -1.7518  -1.3865  -0.3335  -0.0927   0.1949   0.4986
     0.9120   2.3061   2.9080   3.2786   3.2889   3.5628   4.0695   4.2719
     4.8027   4.8458   5.1900

          k = 0.0639 0.0403 0.0000 ( 27832 PWs)   bands (ev):

    -8.7976  -8.2355  -8.2347  -8.1864  -8.1010  -8.0691  -8.0092  -7.9644
    -7.9605  -7.9478  -7.8720  -7.8190  -7.7925  -7.7624  -7.6947  -7.6850
    -7.6749  -7.6662  -7.5994  -7.5884  -7.5717  -7.5172  -7.5044  -7.4876
    -7.4257  -7.4055  -7.3834  -7.3317  -7.3069  -7.3012  -7.1920  -6.5121
    -5.8084  -4.7804  -4.6532  -4.5207  -4.4304  -4.3238  -4.1657  -3.9171
    -3.9065  -3.7122  -3.6647  -3.6459  -3.5876  -3.5812  -3.5364  -3.4046
    -3.2652  -3.2460  -3.1718  -3.1239  -3.1195  -3.0344  -3.0090  -2.9509
    -2.8861  -2.8297  -2.8120  -2.7743  -2.7524  -2.7071  -2.6687  -2.5170
    -2.5106  -1.8971  -1.6143  -1.4070  -0.8434  -0.2057   0.1360   1.0872
     1.0877   2.3659   2.9708   3.0522   3.5989   3.7847   4.4390   4.5180
     4.9319   4.9685   5.0543

          k = 0.0639 0.0580 0.0000 ( 27830 PWs)   bands (ev):

    -8.6204  -8.2210  -8.2035  -8.1611  -8.0844  -8.0445  -7.9848  -7.9684
    -7.9626  -7.9237  -7.8641  -7.8066  -7.7957  -7.7499  -7.7126  -7.6992
    -7.6692  -7.6583  -7.5954  -7.5879  -7.5590  -7.5066  -7.4884  -7.4824
    -7.4153  -7.4096  -7.3869  -7.3364  -7.3155  -7.3128  -7.2044  -6.4163
    -5.9743  -5.2935  -4.6331  -4.5273  -4.3516  -4.3369  -4.1344  -3.9646
    -3.9105  -3.7127  -3.6928  -3.6719  -3.6187  -3.6158  -3.5870  -3.4216
    -3.2929  -3.2488  -3.1951  -3.1797  -3.1367  -3.0514  -3.0347  -2.9552
    -2.9011  -2.8529  -2.8469  -2.8225  -2.7621  -2.7198  -2.6848  -2.5750
    -2.5247  -1.8340  -1.7737  -1.4191  -0.4943  -0.3457   0.4696   0.4721
     1.6431   2.5901   2.6211   3.6066   3.8152   4.0017   4.2321   4.7009
     5.2201   5.5108   5.5302

          k = 0.0639-0.1369 0.0000 ( 27824 PWs)   bands (ev):

    -8.4292  -8.1972  -8.1552  -8.1273  -8.0505  -8.0181  -7.9818  -7.9754
    -7.9350  -7.8786  -7.8626  -7.8021  -7.7820  -7.7559  -7.7390  -7.7261
    -7.6664  -7.6413  -7.5924  -7.5886  -7.5461  -7.5128  -7.4919  -7.4540
    -7.4222  -7.4108  -7.3829  -7.3471  -7.3447  -7.3044  -7.2425  -6.5142
    -5.9139  -5.8027  -4.8173  -4.7568  -4.2450  -4.2141  -4.0680  -3.9539
    -3.8708  -3.7222  -3.6999  -3.6756  -3.6294  -3.6173  -3.5844  -3.4108
    -3.3103  -3.2275  -3.2254  -3.2112  -3.1469  -3.0662  -3.0443  -3.0073
    -2.9390  -2.8814  -2.8553  -2.8275  -2.7873  -2.7525  -2.7209  -2.5787
    -2.5644  -2.2746  -1.5690  -0.9273  -0.6959  -0.1529   0.4486   0.9051
     1.9055   2.3488   3.0025   3.0818   3.9179   4.1243   4.4988   5.0555
     5.2961   5.3588   5.5944

          k = 0.0639-0.1192 0.0000 ( 27799 PWs)   bands (ev):

    -8.2619  -8.1644  -8.1170  -8.0870  -8.0208  -8.0144  -7.9929  -7.9759
    -7.8837  -7.8748  -7.8256  -7.8012  -7.7938  -7.7834  -7.7520  -7.6940
    -7.6642  -7.6171  -7.6027  -7.5822  -7.5394  -7.5205  -7.5002  -7.4900
    -7.4512  -7.4215  -7.4178  -7.3804  -7.3740  -7.3046  -7.1026  -6.6502
    -6.5024  -5.4479  -5.1232  -4.9606  -4.2656  -4.1281  -4.0688  -3.8007
    -3.7890  -3.7090  -3.6698  -3.6671  -3.5955  -3.5894  -3.5449  -3.3805
    -3.3095  -3.2414  -3.2219  -3.1881  -3.1278  -3.0939  -3.0745  -3.0347
    -2.9475  -2.9163  -2.8625  -2.8388  -2.8234  -2.7985  -2.7625  -2.6371
    -2.5880  -2.5613  -1.2800  -0.8248  -0.7422  -0.1551   1.3574   1.4235
     1.9534   2.1757   2.3552   3.1929   3.7307   4.0102   4.5120   4.9852
     5.1557   5.3069   5.5108

          k = 0.0639-0.1015 0.0000 ( 27784 PWs)   bands (ev):

    -8.1298  -8.1221  -8.0951  -8.0773  -8.0370  -8.0156  -8.0098  -7.9771
    -7.9210  -7.8770  -7.8093  -7.7876  -7.7863  -7.7310  -7.7180  -7.6588
    -7.6560  -7.6212  -7.5857  -7.5764  -7.5525  -7.5299  -7.5276  -7.5147
    -7.4902  -7.4702  -7.4695  -7.4143  -7.4119  -7.3767  -6.9890  -6.7979
    -6.6778  -5.5329  -5.1224  -4.9463  -4.4045  -4.0765  -3.9345  -3.7227
    -3.7223  -3.6707  -3.6229  -3.5814  -3.5287  -3.5272  -3.4776  -3.3437
    -3.2962  -3.2731  -3.1799  -3.1507  -3.1350  -3.0978  -3.0701  -3.0428
    -2.9588  -2.9512  -2.8952  -2.8696  -2.8564  -2.8469  -2.8095  -2.7844
    -2.7214  -2.5134  -1.1705  -0.9097  -0.8759   0.7327   1.6910   1.8472
     1.9198   2.1911   2.2025   2.3503   3.7185   3.9203   4.7644   4.8887
     4.9011   5.1883   5.7195

          k = 0.0639-0.0837 0.0000 ( 27784 PWs)   bands (ev):

    -8.2133  -8.0880  -8.0716  -8.0472  -8.0406  -8.0097  -7.9919  -7.9738
    -7.9583  -7.9468  -7.8269  -7.7866  -7.7139  -7.6837  -7.6575  -7.6419
    -7.6386  -7.6130  -7.5964  -7.5743  -7.5676  -7.5400  -7.5371  -7.5363
    -7.5285  -7.5263  -7.5145  -7.4835  -7.4587  -7.4089  -7.2923  -6.7674
    -6.2707  -5.9149  -5.0886  -4.5700  -4.5635  -3.9947  -3.8094  -3.7225
    -3.6452  -3.6091  -3.5935  -3.4492  -3.4492  -3.4333  -3.3891  -3.3140
    -3.2936  -3.2728  -3.1758  -3.1353  -3.0983  -3.0958  -3.0569  -3.0478
    -3.0092  -2.9856  -2.9821  -2.9446  -2.8945  -2.8930  -2.8640  -2.7835
    -2.7339  -2.3772  -1.5108  -0.9079  -0.3933   0.8512   1.1393   1.7733
     2.0350   2.0798   2.6403   2.7798   3.6043   3.8744   4.3376   4.9895
     5.1322   5.3552   5.5760

          k = 0.0639-0.0660 0.0000 ( 27809 PWs)   bands (ev):

    -8.4159  -8.1273  -8.0739  -8.0567  -8.0185  -8.0182  -8.0075  -7.9844
    -7.9434  -7.9138  -7.9051  -7.7804  -7.6854  -7.6767  -7.6491  -7.6374
    -7.6091  -7.6026  -7.5964  -7.5813  -7.5741  -7.5659  -7.5553  -7.5380
    -7.5344  -7.5340  -7.5130  -7.5092  -7.4959  -7.4400  -7.3960  -6.7025
    -6.2285  -5.8014  -5.0134  -4.7146  -4.2303  -3.9175  -3.7356  -3.7027
    -3.6331  -3.5743  -3.5262  -3.3756  -3.3616  -3.3431  -3.2949  -3.2773
    -3.2568  -3.2270  -3.1895  -3.1571  -3.1318  -3.1313  -3.0861  -3.0742
    -3.0511  -3.0050  -2.9831  -2.9648  -2.9320  -2.9209  -2.8253  -2.8183
    -2.6096  -2.0446  -1.7622  -0.8628  -0.1249   0.2099   0.6427   1.4129
     2.1516   2.5258   2.8843   3.4919   3.6407   4.0112   4.4114   4.5446
     4.8201   4.9768   5.0548

          k = 0.0639-0.0483 0.0000 ( 27806 PWs)   bands (ev):

    -8.6448  -8.1745  -8.0971  -8.0899  -8.0652  -8.0355  -7.9985  -7.9786
    -7.9673  -7.8759  -7.8711  -7.7886  -7.7327  -7.7223  -7.6899  -7.6594
    -7.6412  -7.6123  -7.5789  -7.5786  -7.5718  -7.5535  -7.5483  -7.5329
    -7.5206  -7.5119  -7.4970  -7.4809  -7.4508  -7.4322  -7.4142  -6.5479
    -6.4561  -5.3889  -4.8613  -4.8493  -3.9996  -3.9010  -3.7593  -3.6823
    -3.6707  -3.5292  -3.4613  -3.3706  -3.3605  -3.3344  -3.3048  -3.2534
    -3.2117  -3.2021  -3.1878  -3.1663  -3.1266  -3.0833  -3.0684  -3.0426
    -3.0242  -2.9991  -2.9859  -2.9496  -2.9449  -2.8984  -2.8442  -2.7498
    -2.3584  -1.9394  -1.4816  -0.9865  -0.7461   0.2137   0.5464   0.8604
     2.3505   2.5798   3.0490   3.0733   3.7202   4.2258   4.2752   4.4939
     4.6647   4.7672   5.1356

          k = 0.0799-0.0383 0.0000 ( 27833 PWs)   bands (ev):

    -8.4890  -8.1788  -8.0868  -8.0805  -8.0578  -8.0359  -7.9911  -7.9859
    -7.9608  -7.8897  -7.8638  -7.7914  -7.7284  -7.7211  -7.6794  -7.6538
    -7.6426  -7.6064  -7.5805  -7.5733  -7.5688  -7.5505  -7.5502  -7.5362
    -7.5181  -7.5092  -7.4890  -7.4759  -7.4668  -7.4328  -7.3955  -6.8646
    -6.2593  -5.4201  -4.9032  -4.7945  -4.0218  -3.9270  -3.7994  -3.7810
    -3.6819  -3.5584  -3.4557  -3.4280  -3.3934  -3.3931  -3.3311  -3.3038
    -3.2336  -3.2131  -3.2040  -3.1853  -3.1069  -3.0679  -3.0543  -3.0364
    -3.0206  -3.0144  -2.9757  -2.9527  -2.9295  -2.8840  -2.8652  -2.7748
    -1.8485  -1.8268  -1.7505  -1.1254  -0.6208  -0.4969   0.5721   1.5219
     1.9052   1.9176   2.7954   3.7938   4.2434   4.2681   4.5092   4.7600
     4.7850   5.2392   5.3014

          k = 0.0799-0.0205 0.0000 ( 27816 PWs)   bands (ev):

    -8.6114  -8.1852  -8.1307  -8.1210  -8.0835  -8.0214  -8.0209  -7.9819
    -7.9108  -7.8812  -7.8296  -7.8013  -7.7931  -7.7514  -7.7446  -7.6808
    -7.6740  -7.6075  -7.5924  -7.5760  -7.5565  -7.5322  -7.5258  -7.5187
    -7.4946  -7.4862  -7.4683  -7.4331  -7.4298  -7.3842  -7.3610  -6.5868
    -6.3681  -5.1816  -5.1082  -4.5719  -4.1798  -3.9045  -3.8888  -3.7767
    -3.7283  -3.5842  -3.5414  -3.4968  -3.4287  -3.4274  -3.3635  -3.3444
    -3.2832  -3.1801  -3.1742  -3.1552  -3.1016  -3.0539  -3.0381  -2.9966
    -2.9954  -2.9539  -2.9223  -2.8788  -2.8648  -2.8303  -2.8252  -2.7047
    -2.2715  -1.9189  -1.2122  -1.1492  -0.8540   0.1915   0.3617   1.0569
     1.1526   2.2362   2.8698   3.2893   3.6753   4.3040   4.6077   4.8523
     5.0069   5.1515   5.2082

          k = 0.0799-0.0028 0.0000 ( 27823 PWs)   bands (ev):

    -8.6755  -8.1941  -8.1693  -8.1584  -8.0794  -8.0420  -8.0002  -7.9785
    -7.9232  -7.8711  -7.8548  -7.8025  -7.7902  -7.7756  -7.7685  -7.7139
    -7.6693  -7.6253  -7.5992  -7.5712  -7.5640  -7.5188  -7.5169  -7.5054
    -7.4723  -7.4579  -7.4329  -7.3980  -7.3712  -7.3575  -7.2951  -6.4120
    -6.2138  -5.3858  -4.9273  -4.4098  -4.3398  -4.0438  -3.9494  -3.8049
    -3.7814  -3.6510  -3.6099  -3.5698  -3.4923  -3.4795  -3.4437  -3.3611
    -3.2672  -3.1846  -3.1723  -3.1496  -3.0850  -3.0672  -3.0141  -2.9983
    -2.9616  -2.9046  -2.8915  -2.8342  -2.8012  -2.7671  -2.6512  -2.5916
    -2.5569  -2.0660  -1.6940  -0.5734  -0.2648   0.1132   0.2640   0.5024
     0.8872   2.2318   2.7605   3.5528   3.7940   3.8437   4.3447   4.5438
     4.9735   5.0690   5.4295

          k = 0.0799 0.0149 0.0000 ( 27811 PWs)   bands (ev):

    -8.6752  -8.2097  -8.1981  -8.1652  -8.0725  -8.0555  -7.9795  -7.9734
    -7.9679  -7.8996  -7.8642  -7.8060  -7.7924  -7.7496  -7.7374  -7.7303
    -7.6669  -7.6460  -7.5937  -7.5783  -7.5654  -7.5110  -7.5108  -7.4948
    -7.4356  -7.4347  -7.4050  -7.3637  -7.3331  -7.3312  -7.2406  -6.4059
    -5.7698  -5.7176  -4.6915  -4.4519  -4.3159  -4.2422  -4.0023  -3.8887
    -3.8704  -3.6794  -3.6675  -3.6299  -3.5527  -3.5414  -3.5331  -3.3922
    -3.2668  -3.2098  -3.1911  -3.1578  -3.1036  -3.0530  -3.0089  -2.9781
    -2.9320  -2.8684  -2.8639  -2.7780  -2.7728  -2.7563  -2.7162  -2.5638
    -2.3586  -2.2451  -1.8108  -0.8655  -0.0784  -0.0679   0.3208   0.4226
     0.8864   2.6902   3.0957   3.1229   3.4119   3.7222   4.3964   4.5754
     5.1020   5.2072   5.7901

          k = 0.0799 0.0326 0.0000 ( 27830 PWs)   bands (ev):

    -8.6204  -8.2210  -8.2035  -8.1611  -8.0844  -8.0445  -7.9848  -7.9684
    -7.9626  -7.9237  -7.8641  -7.8066  -7.7957  -7.7499  -7.7126  -7.6992
    -7.6692  -7.6583  -7.5954  -7.5879  -7.5590  -7.5066  -7.4884  -7.4824
    -7.4153  -7.4096  -7.3869  -7.3364  -7.3155  -7.3128  -7.2044  -6.4163
    -5.9743  -5.2935  -4.6331  -4.5273  -4.3516  -4.3369  -4.1344  -3.9646
    -3.9105  -3.7127  -3.6928  -3.6719  -3.6187  -3.6158  -3.5870  -3.4216
    -3.2929  -3.2488  -3.1951  -3.1797  -3.1367  -3.0514  -3.0347  -2.9552
    -2.9011  -2.8529  -2.8469  -2.8225  -2.7621  -2.7198  -2.6848  -2.5750
    -2.5247  -1.8340  -1.7737  -1.4191  -0.4943  -0.3457   0.4696   0.4721
     1.6431   2.5901   2.6211   3.6066   3.8152   4.0017   4.2320   4.7009
     5.2201   5.5108   5.5302

          k = 0.0799 0.0503 0.0000 ( 27828 PWs)   bands (ev):

    -8.5344  -8.2225  -8.1842  -8.1503  -8.0887  -8.0338  -7.9760  -7.9663
    -7.9547  -7.9069  -7.8650  -7.8056  -7.7924  -7.7508  -7.7172  -7.6828
    -7.6672  -7.6611  -7.6077  -7.5846  -7.5497  -7.5063  -7.4848  -7.4188
    -7.4010  -7.4005  -7.3801  -7.3244  -7.3150  -7.3060  -7.1914  -6.6004
    -5.9353  -4.9676  -4.8976  -4.6095  -4.4375  -4.2977  -4.1877  -3.9806
    -3.9197  -3.7497  -3.7293  -3.6874  -3.6696  -3.6619  -3.6134  -3.4386
    -3.3186  -3.2709  -3.2390  -3.1968  -3.1316  -3.1060  -3.0274  -2.9483
    -2.8975  -2.8620  -2.8509  -2.8265  -2.7609  -2.6984  -2.6753  -2.6651
    -2.5166  -1.6621  -1.6081  -1.5192  -0.8268  -0.8139   0.7350   1.0203
     1.2670   2.1911   3.3425   3.8421   4.0012   4.2777   4.8230   4.9188
     5.1690   5.3453   5.6092

          k = 0.0799-0.1445 0.0000 ( 27840 PWs)   bands (ev):

    -8.4431  -8.2131  -8.1516  -8.1330  -8.0725  -8.0234  -7.9709  -7.9593
    -7.9508  -7.8624  -7.8576  -7.7974  -7.7946  -7.7555  -7.7404  -7.6999
    -7.6674  -7.6547  -7.6046  -7.5858  -7.5411  -7.5090  -7.4851  -7.4110
    -7.3940  -7.3909  -7.3392  -7.3288  -7.3179  -7.2728  -7.2043  -6.8259
    -5.6947  -5.3922  -5.1425  -4.5498  -4.2951  -4.2171  -4.1846  -4.0294
    -3.8916  -3.7832  -3.7590  -3.6876  -3.6796  -3.6688  -3.6183  -3.4331
    -3.3365  -3.2653  -3.2643  -3.2080  -3.1418  -3.1177  -3.0264  -2.9720
    -2.9352  -2.8662  -2.8496  -2.8333  -2.7706  -2.7109  -2.6917  -2.6693
    -2.5257  -1.8746  -1.4789  -1.4312  -1.0363  -0.3590   0.4297   1.1004
     1.8570   1.9202   3.3836   3.7421   4.2644   4.4845   4.9033   4.9902
     5.1143   5.2397   5.6330

          k = 0.0799-0.1268 0.0000 ( 27856 PWs)   bands (ev):

    -8.3547  -8.1933  -8.1283  -8.1100  -8.0393  -8.0028  -7.9860  -7.9745
    -7.9076  -7.8636  -7.8209  -7.8045  -7.8021  -7.7762  -7.7416  -7.7208
    -7.6691  -7.6395  -7.5940  -7.5923  -7.5374  -7.5136  -7.4904  -7.4417
    -7.4156  -7.3979  -7.3697  -7.3531  -7.3397  -7.2430  -7.0795  -6.9369
    -5.9653  -5.3903  -5.2963  -4.7831  -4.1867  -4.1384  -4.1272  -3.9718
    -3.8406  -3.7698  -3.7512  -3.6798  -3.6517  -3.6449  -3.5973  -3.4111
    -3.3296  -3.2595  -3.2344  -3.2234  -3.1252  -3.1182  -3.0343  -3.0282
    -2.9414  -2.8915  -2.8473  -2.8406  -2.7927  -2.7461  -2.7229  -2.6392
    -2.5645  -2.2836  -1.2495  -1.1417  -0.9480  -0.1794   0.4426   1.4681
     1.7151   2.6662   3.0375   3.2087   3.4569   4.5204   4.8150   4.8613
     5.1694   5.6255   5.8189

          k = 0.0799-0.1091 0.0000 ( 27799 PWs)   bands (ev):

    -8.2619  -8.1644  -8.1170  -8.0870  -8.0208  -8.0144  -7.9929  -7.9759
    -7.8837  -7.8748  -7.8256  -7.8012  -7.7938  -7.7834  -7.7520  -7.6940
    -7.6642  -7.6171  -7.6027  -7.5822  -7.5394  -7.5205  -7.5002  -7.4900
    -7.4512  -7.4215  -7.4178  -7.3804  -7.3740  -7.3046  -7.1026  -6.6502
    -6.5024  -5.4479  -5.1232  -4.9606  -4.2656  -4.1281  -4.0688  -3.8007
    -3.7890  -3.7090  -3.6698  -3.6671  -3.5955  -3.5894  -3.5449  -3.3805
    -3.3095  -3.2414  -3.2219  -3.1881  -3.1278  -3.0939  -3.0745  -3.0347
    -2.9475  -2.9163  -2.8625  -2.8388  -2.8234  -2.7985  -2.7625  -2.6371
    -2.5880  -2.5613  -1.2800  -0.8248  -0.7422  -0.1551   1.3574   1.4235
     1.9534   2.1757   2.3552   3.1929   3.7307   4.0102   4.5120   4.9852
     5.1557   5.3069   5.5108

          k = 0.0799-0.0914 0.0000 ( 27754 PWs)   bands (ev):

    -8.1716  -8.1363  -8.1032  -8.0961  -8.0275  -8.0239  -8.0080  -7.9900
    -7.9154  -7.8812  -7.8171  -7.7876  -7.7850  -7.7329  -7.7256  -7.6622
    -7.6567  -7.6156  -7.5871  -7.5721  -7.5553  -7.5309  -7.5303  -7.5139
    -7.4926  -7.4711  -7.4683  -7.4156  -7.4150  -7.3741  -7.1300  -6.9435
    -6.2533  -5.4858  -5.4570  -4.5828  -4.4171  -4.0596  -3.9820  -3.7406
    -3.7377  -3.6465  -3.6185  -3.5505  -3.5179  -3.5154  -3.4638  -3.3483
    -3.2929  -3.2483  -3.1828  -3.1561  -3.1289  -3.1282  -3.0428  -3.0401
    -2.9595  -2.9408  -2.9017  -2.8695  -2.8658  -2.8216  -2.8116  -2.7522
    -2.7217  -2.3799  -1.3050  -1.1383  -0.3471   0.6919   0.9152   1.3939
     1.7428   2.0849   2.8050   2.9482   3.3692   4.4921   4.5759   4.8276
     5.0694   5.4622   5.5071

          k = 0.0799-0.0737 0.0000 ( 27767 PWs)   bands (ev):

    -8.2015  -8.1524  -8.0767  -8.0579  -8.0386  -8.0222  -7.9944  -7.9749
    -7.9494  -7.9398  -7.8157  -7.8121  -7.7171  -7.6998  -7.6601  -7.6419
    -7.6376  -7.6107  -7.5914  -7.5684  -7.5661  -7.5460  -7.5424  -7.5394
    -7.5229  -7.5215  -7.5051  -7.4837  -7.4587  -7.4159  -7.2340  -7.1139
    -5.8935  -5.8138  -5.3323  -4.5755  -4.2738  -3.9907  -3.8694  -3.7441
    -3.6685  -3.5953  -3.5699  -3.4585  -3.4479  -3.4039  -3.3739  -3.3272
    -3.2869  -3.2222  -3.1855  -3.1822  -3.1141  -3.0963  -3.0572  -3.0339
    -3.0149  -2.9794  -2.9785  -2.9638  -2.8917  -2.8916  -2.8500  -2.7894
    -2.6086  -2.0208  -1.4465  -1.2747  -0.1875   0.2449   1.1452   1.4556
     1.4648   1.8577   3.4785   3.5015   3.7313   3.9340   4.4603   4.5454
     5.2876   5.3023   5.5207

          k = 0.0799-0.0560 0.0000 ( 27801 PWs)   bands (ev):

    -8.3361  -8.1673  -8.0685  -8.0580  -8.0180  -8.0171  -8.0076  -7.9928
    -7.9381  -7.9144  -7.8873  -7.8084  -7.6894  -7.6859  -7.6420  -7.6356
    -7.6023  -7.5975  -7.5946  -7.5860  -7.5753  -7.5679  -7.5545  -7.5438
    -7.5332  -7.5308  -7.5044  -7.5006  -7.4909  -7.4479  -7.3634  -7.0354
    -6.0755  -5.6388  -5.0717  -4.7350  -4.0567  -3.9577  -3.7888  -3.7641
    -3.6301  -3.6042  -3.4940  -3.3933  -3.3878  -3.3734  -3.2972  -3.2874
    -3.2516  -3.2104  -3.1858  -3.1636  -3.1559  -3.1432  -3.0880  -3.0663
    -3.0497  -2.9996  -2.9954  -2.9695  -2.9321  -2.9108  -2.8331  -2.8214
    -2.3309  -1.6671  -1.4945  -1.1473  -1.0583   0.3380   0.9078   0.9249
     1.6432   2.5971   3.3344   3.8098   3.8437   4.1987   4.2942   4.7069
     4.9324   5.0029   5.5359

          k =-0.0959 0.0459 0.0000 ( 27832 PWs)   bands (ev):

    -8.2405  -8.2405  -8.0623  -8.0623  -8.0172  -8.0171  -8.0024  -8.0024
    -7.9270  -7.9270  -7.8491  -7.8491  -7.6903  -7.6903  -7.6373  -7.6372
    -7.5978  -7.5977  -7.5906  -7.5906  -7.5724  -7.5724  -7.5500  -7.5500
    -7.5311  -7.5311  -7.5002  -7.5002  -7.4702  -7.4702  -7.2541  -7.2541
    -5.8481  -5.8481  -4.8580  -4.8580  -3.9821  -3.9821  -3.8097  -3.8097
    -3.6208  -3.6208  -3.4393  -3.4393  -3.3993  -3.3993  -3.2997  -3.2997
    -3.2336  -3.2336  -3.1706  -3.1706  -3.1530  -3.1529  -3.0707  -3.0707
    -3.0270  -3.0270  -2.9734  -2.9734  -2.9220  -2.9220  -2.8330  -2.8330
    -1.8127  -1.8127  -1.5064  -1.5063  -0.5766  -0.5766   1.1839   1.1839
     1.7929   1.7929   3.5262   3.5262   4.2808   4.2811   4.9362   4.9370
     5.2456   5.2550   5.2927

          k =-0.0959 0.0636 0.0000 ( 27802 PWs)   bands (ev):

    -8.3016  -8.1876  -8.0824  -8.0668  -8.0420  -8.0370  -7.9923  -7.9817
    -7.9544  -7.9143  -7.8429  -7.8009  -7.7227  -7.7142  -7.6682  -7.6474
    -7.6406  -7.6057  -7.5855  -7.5684  -7.5642  -7.5522  -7.5459  -7.5393
    -7.5168  -7.5139  -7.4939  -7.4845  -7.4608  -7.4268  -7.3152  -7.0961
    -6.0015  -5.6307  -5.1291  -4.6454  -4.1044  -3.9550  -3.8755  -3.7823
    -3.6798  -3.5808  -3.5100  -3.4625  -3.4327  -3.3740  -3.3613  -3.3468
    -3.2634  -3.2083  -3.1985  -3.1959  -3.0984  -3.0784  -3.0589  -3.0288
    -3.0188  -2.9957  -2.9734  -2.9678  -2.9022  -2.8876  -2.8579  -2.7892
    -2.2998  -1.6714  -1.3204  -1.2687  -1.1037   0.2734   0.8934   1.0960
     1.5341   1.9135   3.0297   3.9882   4.0552   4.3652   4.5217   4.8893
     5.0476   5.0865   5.5662

          k =-0.0959 0.0813 0.0000 ( 27807 PWs)   bands (ev):

    -8.3592  -8.1577  -8.1174  -8.1117  -8.0525  -8.0226  -8.0075  -7.9927
    -7.9002  -7.8930  -7.8255  -7.7927  -7.7852  -7.7404  -7.7381  -7.6734
    -7.6593  -7.6082  -7.5900  -7.5679  -7.5582  -7.5329  -7.5313  -7.5142
    -7.4979  -7.4771  -7.4666  -7.4231  -7.4195  -7.3682  -7.3281  -6.8075
    -6.1070  -5.4582  -5.3556  -4.4701  -4.2750  -4.0185  -3.9984  -3.7631
    -3.7476  -3.6123  -3.5805  -3.5431  -3.4880  -3.4679  -3.4227  -3.3445
    -3.2958  -3.2128  -3.1757  -3.1669  -3.1164  -3.1113  -3.0408  -3.0147
    -2.9690  -2.9259  -2.9219  -2.8729  -2.8677  -2.8202  -2.8184  -2.7191
    -2.5972  -2.0108  -1.5667  -1.0416  -0.2306   0.3278   0.8442   0.8810
     1.1844   1.9720   2.8696   3.5612   3.9116   4.0927   4.6546   4.9829
     5.0294   5.1238   5.5020

          k =-0.0959 0.0990 0.0000 ( 27823 PWs)   bands (ev):

    -8.4025  -8.1729  -8.1466  -8.1236  -8.0425  -8.0190  -8.0015  -7.9886
    -7.9026  -7.8779  -7.8388  -7.7949  -7.7929  -7.7700  -7.7634  -7.7034
    -7.6601  -7.6200  -7.6004  -7.5728  -7.5529  -7.5200  -7.5031  -7.5017
    -7.4604  -7.4377  -7.4243  -7.3810  -7.3746  -7.3204  -7.3011  -6.4019
    -6.2393  -5.7412  -5.0487  -4.5053  -4.3277  -4.1575  -4.0518  -3.8185
    -3.7958  -3.6716  -3.6472  -3.6202  -3.5520  -3.5501  -3.5129  -3.3790
    -3.2899  -3.2237  -3.1810  -3.1800  -3.1366  -3.0918  -3.0275  -3.0270
    -2.9495  -2.9020  -2.8790  -2.8225  -2.8151  -2.7675  -2.7535  -2.6421
    -2.5793  -2.3719  -1.6043  -0.6778  -0.2399  -0.1092   0.8158   0.8303
     1.2998   2.3798   2.8789   2.9269   3.9548   4.0603   4.5505   4.9730
     5.0831   5.3778   5.4871

          k =-0.0959 0.1168 0.0000 ( 27824 PWs)   bands (ev):

    -8.4292  -8.1972  -8.1552  -8.1273  -8.0505  -8.0181  -7.9818  -7.9754
    -7.9350  -7.8786  -7.8626  -7.8021  -7.7820  -7.7559  -7.7390  -7.7261
    -7.6664  -7.6413  -7.5924  -7.5886  -7.5461  -7.5128  -7.4919  -7.4540
    -7.4222  -7.4108  -7.3829  -7.3471  -7.3447  -7.3044  -7.2425  -6.5142
    -5.9139  -5.8027  -4.8173  -4.7568  -4.2450  -4.2141  -4.0680  -3.9539
    -3.8708  -3.7222  -3.6999  -3.6756  -3.6294  -3.6173  -3.5844  -3.4108
    -3.3103  -3.2275  -3.2254  -3.2112  -3.1469  -3.0662  -3.0443  -3.0073
    -2.9390  -2.8814  -2.8553  -2.8275  -2.7873  -2.7525  -2.7209  -2.5787
    -2.5644  -2.2746  -1.5691  -0.9273  -0.6959  -0.1529   0.4486   0.9051
     1.9055   2.3488   3.0025   3.0818   3.9179   4.1243   4.4988   5.0552
     5.2961   5.3588   5.5943

          k =-0.0959 0.1345 0.0000 ( 27840 PWs)   bands (ev):

    -8.4431  -8.2131  -8.1516  -8.1330  -8.0725  -8.0234  -7.9709  -7.9593
    -7.9508  -7.8624  -7.8576  -7.7974  -7.7946  -7.7555  -7.7404  -7.6999
    -7.6674  -7.6547  -7.6046  -7.5858  -7.5411  -7.5090  -7.4851  -7.4110
    -7.3940  -7.3909  -7.3392  -7.3288  -7.3179  -7.2728  -7.2043  -6.8259
    -5.6947  -5.3922  -5.1425  -4.5497  -4.2951  -4.2171  -4.1846  -4.0294
    -3.8916  -3.7832  -3.7590  -3.6876  -3.6796  -3.6688  -3.6183  -3.4331
    -3.3365  -3.2653  -3.2643  -3.2080  -3.1418  -3.1177  -3.0264  -2.9720
    -2.9352  -2.8662  -2.8496  -2.8333  -2.7706  -2.7109  -2.6917  -2.6693
    -2.5257  -1.8746  -1.4789  -1.4312  -1.0363  -0.3590   0.4297   1.1004
     1.8570   1.9202   3.3836   3.7422   4.2644   4.4845   4.9033   4.9903
     5.1145   5.2401   5.6334

          k =-0.0959-0.0604 0.0000 ( 27852 PWs)   bands (ev):

    -8.4475  -8.2186  -8.1488  -8.1355  -8.0830  -8.0269  -7.9671  -7.9600
    -7.9525  -7.8650  -7.8165  -7.7997  -7.7925  -7.7785  -7.7453  -7.6822
    -7.6643  -7.6592  -7.6137  -7.5833  -7.5392  -7.5079  -7.4825  -7.3992
    -7.3881  -7.3786  -7.3238  -7.3218  -7.3057  -7.1994  -7.1911  -7.0099
    -5.5551  -5.3564  -5.0331  -4.5921  -4.4335  -4.2109  -4.2074  -4.0074
    -3.8829  -3.8344  -3.7729  -3.6958  -3.6947  -3.6862  -3.6266  -3.4399
    -3.3521  -3.2803  -3.2768  -3.2059  -3.1440  -3.1346  -3.0232  -2.9491
    -2.9380  -2.8588  -2.8529  -2.8316  -2.7645  -2.6990  -2.6936  -2.6793
    -2.5165  -1.6053  -1.5561  -1.3774  -1.2207  -0.8216   0.9871   1.3039
     1.3126   1.5455   4.2522   4.3227   4.3955   4.5627   4.6893   4.8114
     4.9922   5.1612   5.4860

     the Fermi energy is    -0.3400 ev

!    total energy              =   -1641.95691454 Ry
     estimated scf accuracy    <       0.00000762 Ry
     smearing contrib. (-TS)   =      -0.01948275 Ry
     internal energy E=F+TS    =   -1641.93743179 Ry

     The total energy is F=E-TS. E is the sum of the following terms:
     one-electron contribution =  -11969.86024881 Ry
     hartree contribution      =    6127.43048539 Ry
     xc contribution           =    -566.54995606 Ry
     ewald contribution        =    4767.04228617 Ry
     electric field correction =       0.00000153 Ry

     convergence has been achieved in  10 iterations

     negative rho (up, down):  1.890E-04 0.000E+00

     Forces acting on atoms (cartesian axes, Ry/au):

     atom    1 type  1   force =     0.00152702    0.00095545    0.00019037
     atom    2 type  1   force =     0.00151353    0.00095362    0.00018636
     atom    3 type  2   force =    -0.00008208   -0.00005101   -0.01824397
     atom    4 type  2   force =    -0.00007208   -0.00005154   -0.01821215
     atom    5 type  1   force =    -0.00241952   -0.00150825    0.00941720
     atom    6 type  1   force =    -0.00239746   -0.00151957    0.00940340
     atom    7 type  2   force =     0.00279467    0.00176614    0.00317541
     atom    8 type  2   force =     0.00278904    0.00175901    0.00317111
     atom    9 type  1   force =     0.00054166    0.00033277    0.00125234
     atom   10 type  1   force =     0.00054251    0.00034124    0.00125744
     atom   11 type  2   force =    -0.00237214   -0.00148911    0.00419657
     atom   12 type  2   force =    -0.00236515   -0.00148876    0.00420592

     Total force =     0.031003     Total SCF correction =     0.014569
     SCF correction compared to forces is large: reduce conv_thr to get better values

     Writing output data file ./Cu2Zn2/Cu2Zn2_beef.save/

     init_run     :     89.47s CPU     94.12s WALL (       1 calls)
     electrons    :   1536.33s CPU   1557.53s WALL (       1 calls)
     forces       :     40.70s CPU     40.95s WALL (       1 calls)

     Called by init_run:
     wfcinit      :     61.92s CPU     66.45s WALL (       1 calls)
     potinit      :     21.19s CPU     21.22s WALL (       1 calls)
     hinit0       :      4.16s CPU      4.16s WALL (       1 calls)

     Called by electrons:
     c_bands      :   1354.48s CPU   1372.27s WALL (      11 calls)
     sum_band     :    164.41s CPU    166.41s WALL (      11 calls)
     v_of_rho     :     28.80s CPU     29.38s WALL (      11 calls)
     newd         :      8.50s CPU      9.24s WALL (      11 calls)
     mix_rho      :      0.30s CPU      0.30s WALL (      11 calls)
     vdW_kernel   :     10.30s CPU     10.30s WALL (       1 calls)

     Called by c_bands:
     init_us_2    :      4.79s CPU      4.83s WALL (    1776 calls)
     cegterg      :   1338.66s CPU   1354.86s WALL (     814 calls)

     Called by *egterg:
     cdiaghg      :     88.34s CPU     88.48s WALL (    4711 calls)
     h_psi        :    686.35s CPU    704.48s WALL (    4859 calls)
     s_psi        :    100.38s CPU    100.65s WALL (    4859 calls)
     g_psi        :      0.72s CPU      0.73s WALL (    3971 calls)

     Called by h_psi:
     h_psi:calbec :    256.04s CPU    257.54s WALL (    4859 calls)
     vloc_psi     :    323.37s CPU    339.64s WALL (    4859 calls)
     add_vuspsi   :    105.25s CPU    105.57s WALL (    4859 calls)

     General routines
     calbec       :    389.52s CPU    391.51s WALL (    5969 calls)
     fft          :     16.73s CPU     17.06s WALL (     753 calls)
     ffts         :      0.19s CPU      0.19s WALL (      22 calls)
     fftw         :    355.65s CPU    372.36s WALL (  392800 calls)
     interpolate  :      0.41s CPU      0.42s WALL (      11 calls)

     Parallel routines
     fft_scatt_xy :     21.90s CPU     22.15s WALL (  393575 calls)
     fft_scatt_yz :    171.23s CPU    185.38s WALL (  393575 calls)

     PWSCF        :  30m 4.17s CPU  31m12.73s WALL


   This run was terminated on:   0:14:32  10Jul2022            

=------------------------------------------------------------------------------=
   JOB DONE.
=------------------------------------------------------------------------------=
