
     Program PWSCF v.6.6 starts on 10Jul2022 at 13: 9:54 

     This program is part of the open-source Quantum ESPRESSO suite
     for quantum simulation of materials; please cite
         "P. Giannozzi et al., J. Phys.:Condens. Matter 21 395502 (2009);
         "P. Giannozzi et al., J. Phys.:Condens. Matter 29 465901 (2017);
          URL http://www.quantum-espresso.org", 
     in publications or presentations arising from this work. More details at
     http://www.quantum-espresso.org/quote

     Parallel version (MPI), running on    37 processors

     MPI processes distributed on     1 nodes
     R & G space division:  proc/nbgrp/npool/nimage =      37
     Fft bands division:     nmany     =       1
     Reading input from Cu2Zr2.in
Warning: card &CELL ignored
Warning: card / ignored

     Current dimensions of program PWSCF are:
     Max number of different atomic species (ntypx) = 10
     Max number of k-points (npk) =  40000
     Max angular momentum in pseudopotentials (lmaxx) =  3
     Presently stress not available with electric field and gates

     Message from routine cell_base_init:
     DEPRECATED: use true lattice parameter, not A to a.u. conversion factor
     file Cu.pbe-dn-rrkjus_psl.1.0.0.UPF: wavefunction(s)  3D renormalized
     file Zr.pbe-spn-rrkjus_psl.1.0.0.UPF: wavefunction(s)  4S renormalized

     **************************************************************************
     Initializing libbeef V0.1.2 with the BEEF-vdW functional.
     Citation: Wellendorff et al., PRB 85, 235149 (2012).
     **************************************************************************


     IMPORTANT: XC functional enforced from input :
     Exchange-correlation= BEEF-VDW
                           (   1   4  43  14   2   0   0)
     Any further DFT definition will be discarded
     Please, verify this is what you really want


     Subspace diagonalization in iterative solution of the eigenvalue problem:
     a serial algorithm will be used

     Found symmetry operation: I + ( -0.5000  0.5000  0.0000)
     This is a supercell, fractional translations are disabled

     Parallelization info
     --------------------
     sticks:   dense  smooth     PW     G-vecs:    dense   smooth      PW
     Min         128      51     14                29866     7551    1126
     Max         129      52     15                29883     7574    1151
     Sum        4771    1913    541              1105451   279793   42037



     bravais-lattice index     =            0
     lattice parameter (alat)  =       1.8897  a.u.
     unit-cell volume          =    5058.4277 (a.u.)^3
     number of atoms/cell      =           12
     number of atomic types    =            2
     number of electrons       =       138.00
     number of Kohn-Sham states=           83
     kinetic-energy cutoff     =      55.1240  Ry
     charge density cutoff     =     551.2396  Ry
     convergence threshold     =      1.0E-05
     mixing beta               =       0.1000
     number of iterations used =           10  plain     mixing
     Exchange-correlation= BEEF-VDW
                           (   1   4  43  14   2   0   0)

     celldm(1)=   1.889726  celldm(2)=   0.000000  celldm(3)=   0.000000
     celldm(4)=   0.000000  celldm(5)=   0.000000  celldm(6)=   0.000000

     crystal axes: (cart. coord. in units of alat)
               a(1) = (   5.682414   0.000000   0.000000 )  
               a(2) = (   1.907147   5.352814   0.000000 )  
               a(3) = (   0.000000   0.000000  24.643592 )  

     reciprocal axes: (cart. coord. in units 2 pi/alat)
               b(1) = (  0.175982 -0.062700  0.000000 )  
               b(2) = (  0.000000  0.186818  0.000000 )  
               b(3) = (  0.000000  0.000000  0.040579 )  


     PseudoPot. # 1 for Cu read from file:
     ../pseudo/Cu.pbe-dn-rrkjus_psl.1.0.0.UPF
     MD5 check sum: 8469560995d0c2df1ffe68c099c04a63
     Pseudo is Ultrasoft + core correction, Zval = 11.0
     Generated using "atomic" code by A. Dal Corso v.6.3
     Using radial grid of 1199 points,  6 beta functions with: 
                l(1) =   0
                l(2) =   0
                l(3) =   1
                l(4) =   1
                l(5) =   2
                l(6) =   2
     Q(r) pseudized with 0 coefficients 


     PseudoPot. # 2 for Zr read from file:
     ../pseudo/Zr.pbe-spn-rrkjus_psl.1.0.0.UPF
     MD5 check sum: 3d17ee99aa1707c2ccb6b09ed65e51a1
     Pseudo is Ultrasoft + core correction, Zval = 12.0
     Generated using "atomic" code by A. Dal Corso v.6.2.2
     Using radial grid of 1225 points,  6 beta functions with: 
                l(1) =   0
                l(2) =   0
                l(3) =   1
                l(4) =   1
                l(5) =   2
                l(6) =   2
     Q(r) pseudized with 0 coefficients 


     atomic species   valence    mass     pseudopotential
        Cu            11.00    63.54600     Cu( 1.00)
        Zr            12.00    91.22400     Zr( 1.00)

     No symmetry found



   Cartesian axes

     site n.     atom                  positions (alat units)
         1           Cu  tau(   1) = (   0.0000000   0.0000000  10.0000000  )
         2           Cu  tau(   2) = (   3.7947805   2.6764068  10.0000000  )
         3           Zr  tau(   3) = (   2.8412068   0.0000000  10.0000000  )
         4           Zr  tau(   4) = (   0.9535737   2.6764068  10.0000000  )
         5           Cu  tau(   5) = (   5.6824137   4.0077287  12.3217958  )
         6           Cu  tau(   6) = (   1.8876332   1.3313219  12.3217958  )
         7           Zr  tau(   7) = (   2.8412068   4.0077287  12.3217958  )
         8           Zr  tau(   8) = (   4.7288400   1.3313219  12.3217958  )
         9           Cu  tau(   9) = (   3.7751487   2.6625519  14.5544670  )
        10           Cu  tau(  10) = (   7.5698862   5.3389456  14.5544586  )
        11           Zr  tau(  11) = (   6.6179996   2.6637083  14.5985903  )
        12           Zr  tau(  12) = (   4.7303503   5.3401276  14.5985871  )

     number of k points=    74  Fermi-Dirac smearing, width (Ry)=  0.0100
                       cart. coord. in units 2pi/alat
        k(    1) = (   0.0000000   0.0000000   0.0000000), wk =   0.0138889
        k(    2) = (   0.0000000   0.0155681   0.0000000), wk =   0.0277778
        k(    3) = (   0.0000000   0.0311363   0.0000000), wk =   0.0277778
        k(    4) = (   0.0000000   0.0467044   0.0000000), wk =   0.0277778
        k(    5) = (   0.0000000   0.0622725   0.0000000), wk =   0.0277778
        k(    6) = (   0.0000000   0.0778407   0.0000000), wk =   0.0277778
        k(    7) = (   0.0000000  -0.0934088   0.0000000), wk =   0.0138889
        k(    8) = (   0.0146651  -0.0052250   0.0000000), wk =   0.0277778
        k(    9) = (   0.0146651   0.0103431   0.0000000), wk =   0.0277778
        k(   10) = (   0.0146651   0.0259113   0.0000000), wk =   0.0277778
        k(   11) = (   0.0146651   0.0414794   0.0000000), wk =   0.0277778
        k(   12) = (   0.0146651   0.0570475   0.0000000), wk =   0.0277778
        k(   13) = (   0.0146651   0.0726157   0.0000000), wk =   0.0277778
        k(   14) = (   0.0146651  -0.0986338   0.0000000), wk =   0.0277778
        k(   15) = (   0.0146651  -0.0830657   0.0000000), wk =   0.0277778
        k(   16) = (   0.0146651  -0.0674976   0.0000000), wk =   0.0277778
        k(   17) = (   0.0146651  -0.0519294   0.0000000), wk =   0.0277778
        k(   18) = (   0.0146651  -0.0363613   0.0000000), wk =   0.0277778
        k(   19) = (   0.0146651  -0.0207932   0.0000000), wk =   0.0277778
        k(   20) = (   0.0293303  -0.0104500   0.0000000), wk =   0.0277778
        k(   21) = (   0.0293303   0.0051181   0.0000000), wk =   0.0277778
        k(   22) = (   0.0293303   0.0206862   0.0000000), wk =   0.0277778
        k(   23) = (   0.0293303   0.0362544   0.0000000), wk =   0.0277778
        k(   24) = (   0.0293303   0.0518225   0.0000000), wk =   0.0277778
        k(   25) = (   0.0293303   0.0673906   0.0000000), wk =   0.0277778
        k(   26) = (   0.0293303  -0.1038589   0.0000000), wk =   0.0277778
        k(   27) = (   0.0293303  -0.0882907   0.0000000), wk =   0.0277778
        k(   28) = (   0.0293303  -0.0727226   0.0000000), wk =   0.0277778
        k(   29) = (   0.0293303  -0.0571544   0.0000000), wk =   0.0277778
        k(   30) = (   0.0293303  -0.0415863   0.0000000), wk =   0.0277778
        k(   31) = (   0.0293303  -0.0260182   0.0000000), wk =   0.0277778
        k(   32) = (   0.0439954  -0.0156751   0.0000000), wk =   0.0277778
        k(   33) = (   0.0439954  -0.0001069   0.0000000), wk =   0.0277778
        k(   34) = (   0.0439954   0.0154612   0.0000000), wk =   0.0277778
        k(   35) = (   0.0439954   0.0310293   0.0000000), wk =   0.0277778
        k(   36) = (   0.0439954   0.0465975   0.0000000), wk =   0.0277778
        k(   37) = (   0.0439954   0.0621656   0.0000000), wk =   0.0277778
        k(   38) = (   0.0439954  -0.1090839   0.0000000), wk =   0.0277778
        k(   39) = (   0.0439954  -0.0935157   0.0000000), wk =   0.0277778
        k(   40) = (   0.0439954  -0.0779476   0.0000000), wk =   0.0277778
        k(   41) = (   0.0439954  -0.0623795   0.0000000), wk =   0.0277778
        k(   42) = (   0.0439954  -0.0468113   0.0000000), wk =   0.0277778
        k(   43) = (   0.0439954  -0.0312432   0.0000000), wk =   0.0277778
        k(   44) = (   0.0586605  -0.0209001   0.0000000), wk =   0.0277778
        k(   45) = (   0.0586605  -0.0053319   0.0000000), wk =   0.0277778
        k(   46) = (   0.0586605   0.0102362   0.0000000), wk =   0.0277778
        k(   47) = (   0.0586605   0.0258043   0.0000000), wk =   0.0277778
        k(   48) = (   0.0586605   0.0413725   0.0000000), wk =   0.0277778
        k(   49) = (   0.0586605   0.0569406   0.0000000), wk =   0.0277778
        k(   50) = (   0.0586605  -0.1143089   0.0000000), wk =   0.0277778
        k(   51) = (   0.0586605  -0.0987408   0.0000000), wk =   0.0277778
        k(   52) = (   0.0586605  -0.0831726   0.0000000), wk =   0.0277778
        k(   53) = (   0.0586605  -0.0676045   0.0000000), wk =   0.0277778
        k(   54) = (   0.0586605  -0.0520363   0.0000000), wk =   0.0277778
        k(   55) = (   0.0586605  -0.0364682   0.0000000), wk =   0.0277778
        k(   56) = (   0.0733256  -0.0261251   0.0000000), wk =   0.0277778
        k(   57) = (   0.0733256  -0.0105570   0.0000000), wk =   0.0277778
        k(   58) = (   0.0733256   0.0050112   0.0000000), wk =   0.0277778
        k(   59) = (   0.0733256   0.0205793   0.0000000), wk =   0.0277778
        k(   60) = (   0.0733256   0.0361474   0.0000000), wk =   0.0277778
        k(   61) = (   0.0733256   0.0517156   0.0000000), wk =   0.0277778
        k(   62) = (   0.0733256  -0.1195339   0.0000000), wk =   0.0277778
        k(   63) = (   0.0733256  -0.1039658   0.0000000), wk =   0.0277778
        k(   64) = (   0.0733256  -0.0883976   0.0000000), wk =   0.0277778
        k(   65) = (   0.0733256  -0.0728295   0.0000000), wk =   0.0277778
        k(   66) = (   0.0733256  -0.0572614   0.0000000), wk =   0.0277778
        k(   67) = (   0.0733256  -0.0416932   0.0000000), wk =   0.0277778
        k(   68) = (  -0.0879908   0.0313501   0.0000000), wk =   0.0138889
        k(   69) = (  -0.0879908   0.0469183   0.0000000), wk =   0.0277778
        k(   70) = (  -0.0879908   0.0624864   0.0000000), wk =   0.0277778
        k(   71) = (  -0.0879908   0.0780545   0.0000000), wk =   0.0277778
        k(   72) = (  -0.0879908   0.0936227   0.0000000), wk =   0.0277778
        k(   73) = (  -0.0879908   0.1091908   0.0000000), wk =   0.0277778
        k(   74) = (  -0.0879908  -0.0620587   0.0000000), wk =   0.0138889

     Dense  grid:  1105451 G-vectors     FFT dimensions: (  81,  81, 360)

     Smooth grid:   279793 G-vectors     FFT dimensions: (  54,  54, 225)

     Estimated max dynamical RAM per process >     208.38 MB

     Estimated total dynamical RAM >       7.53 GB

     Initial potential from superposition of free atoms

     starting charge  137.98571, renormalised to  138.00000

     negative rho (up, down):  3.185E-04 0.000E+00


     %%%%%%%%%%%%%%%%%%%%%%%%%%%%%%%%%%%%%%%%%%%%%%%%%%%%%%%%%%%%%%%%%%%%%%%%
     %                                                                      %
     % You are using vdW-DF, which was implemented by the Thonhauser group. %
     % Please cite the following two papers that made this development      %
     % possible and the two reviews that describe the various versions:     %
     %                                                                      %
     %   T. Thonhauser et al., PRL 115, 136402 (2015).                      %
     %   T. Thonhauser et al., PRB 76, 125112 (2007).                       %
     %   K. Berland et al., Rep. Prog. Phys. 78, 066501 (2015).             %
     %   D.C. Langreth et al., J. Phys.: Condens. Matter 21, 084203 (2009). %
     %                                                                      %
     %                                                                      %
     % If you are calculating the stress with vdW-DF, please also cite:     %
     %                                                                      %
     %   R. Sabatini et al., J. Phys.: Condens. Matter 24, 424209 (2012).   %
     %                                                                      %
     %%%%%%%%%%%%%%%%%%%%%%%%%%%%%%%%%%%%%%%%%%%%%%%%%%%%%%%%%%%%%%%%%%%%%%%%



     Adding external electric field

     Computed dipole along edir(3) : 
        Dipole                0.0002 Ry au,          0.0004 Debye
        Dipole field          0.0000 Ry au, 

        Potential amp.       -0.0000 Ry
        Total length         45.4054 bohr

     Starting wfcs are  132 randomized atomic wfcs

     total cpu time spent up to now is      114.3 secs

     Self-consistent Calculation

     iteration #  1     ecut=    55.12 Ry     beta= 0.10
     Davidson diagonalization with overlap
     ethr =  1.00E-02,  avg # of iterations =  2.0

     negative rho (up, down):  2.540E-04 0.000E+00

     Adding external electric field

     Computed dipole along edir(3) : 
        Dipole               -0.0807 Ry au,         -0.2050 Debye
        Dipole field         -0.0002 Ry au, 

        Potential amp.        0.0182 Ry
        Total length         45.4054 bohr


     total cpu time spent up to now is      289.2 secs

     total energy              =   -1343.93672778 Ry
     estimated scf accuracy    <       2.99350822 Ry

     iteration #  2     ecut=    55.12 Ry     beta= 0.10
     Davidson diagonalization with overlap
     ethr =  2.17E-03,  avg # of iterations =  2.1

     negative rho (up, down):  2.499E-04 0.000E+00

     Adding external electric field

     Computed dipole along edir(3) : 
        Dipole                0.3562 Ry au,          0.9053 Debye
        Dipole field          0.0009 Ry au, 

        Potential amp.       -0.0803 Ry
        Total length         45.4054 bohr


     total cpu time spent up to now is      457.7 secs

     total energy              =   -1344.12569962 Ry
     estimated scf accuracy    <       0.87531743 Ry

     iteration #  3     ecut=    55.12 Ry     beta= 0.10
     Davidson diagonalization with overlap
     ethr =  6.34E-04,  avg # of iterations =  3.3

     negative rho (up, down):  2.590E-04 0.000E+00

     Adding external electric field

     Computed dipole along edir(3) : 
        Dipole               -0.0272 Ry au,         -0.0691 Debye
        Dipole field         -0.0001 Ry au, 

        Potential amp.        0.0061 Ry
        Total length         45.4054 bohr


     total cpu time spent up to now is      631.8 secs

     total energy              =   -1344.09568157 Ry
     estimated scf accuracy    <       5.68103002 Ry

     iteration #  4     ecut=    55.12 Ry     beta= 0.10
     Davidson diagonalization with overlap
     ethr =  6.34E-04,  avg # of iterations =  1.6

     negative rho (up, down):  2.649E-04 0.000E+00

     Adding external electric field

     Computed dipole along edir(3) : 
        Dipole                0.0021 Ry au,          0.0052 Debye
        Dipole field          0.0000 Ry au, 

        Potential amp.       -0.0005 Ry
        Total length         45.4054 bohr


     total cpu time spent up to now is      788.3 secs

     total energy              =   -1344.13760579 Ry
     estimated scf accuracy    <       0.26596042 Ry

     iteration #  5     ecut=    55.12 Ry     beta= 0.10
     Davidson diagonalization with overlap
     ethr =  1.93E-04,  avg # of iterations =  4.1

     negative rho (up, down):  2.759E-04 0.000E+00

     Adding external electric field

     Computed dipole along edir(3) : 
        Dipole                0.0296 Ry au,          0.0753 Debye
        Dipole field          0.0001 Ry au, 

        Potential amp.       -0.0067 Ry
        Total length         45.4054 bohr


     total cpu time spent up to now is      963.2 secs

     total energy              =   -1344.14024257 Ry
     estimated scf accuracy    <       0.07440220 Ry

     iteration #  6     ecut=    55.12 Ry     beta= 0.10
     Davidson diagonalization with overlap
     ethr =  5.39E-05,  avg # of iterations =  9.0

     negative rho (up, down):  2.716E-04 0.000E+00

     Adding external electric field

     Computed dipole along edir(3) : 
        Dipole                0.0148 Ry au,          0.0377 Debye
        Dipole field          0.0000 Ry au, 

        Potential amp.       -0.0033 Ry
        Total length         45.4054 bohr


     total cpu time spent up to now is     1193.2 secs

     total energy              =   -1344.14647342 Ry
     estimated scf accuracy    <       0.03813275 Ry

     iteration #  7     ecut=    55.12 Ry     beta= 0.10
     Davidson diagonalization with overlap
     ethr =  2.76E-05,  avg # of iterations =  2.3

     negative rho (up, down):  2.995E-04 0.000E+00

     Adding external electric field

     Computed dipole along edir(3) : 
        Dipole                0.0263 Ry au,          0.0668 Debye
        Dipole field          0.0001 Ry au, 

        Potential amp.       -0.0059 Ry
        Total length         45.4054 bohr


     total cpu time spent up to now is     1367.7 secs

     total energy              =   -1344.14858085 Ry
     estimated scf accuracy    <       0.01950220 Ry

     iteration #  8     ecut=    55.12 Ry     beta= 0.10
     Davidson diagonalization with overlap
     ethr =  1.41E-05,  avg # of iterations =  3.6

     negative rho (up, down):  2.964E-04 0.000E+00

     Adding external electric field

     Computed dipole along edir(3) : 
        Dipole                0.0160 Ry au,          0.0407 Debye
        Dipole field          0.0000 Ry au, 

        Potential amp.       -0.0036 Ry
        Total length         45.4054 bohr


     total cpu time spent up to now is     1563.8 secs

     total energy              =   -1344.15138481 Ry
     estimated scf accuracy    <       0.00512936 Ry

     iteration #  9     ecut=    55.12 Ry     beta= 0.10
     Davidson diagonalization with overlap
     c_bands:  1 eigenvalues not converged
     ethr =  3.72E-06,  avg # of iterations =  4.6

     negative rho (up, down):  3.103E-04 0.000E+00

     Adding external electric field

     Computed dipole along edir(3) : 
        Dipole                0.0179 Ry au,          0.0454 Debye
        Dipole field          0.0000 Ry au, 

        Potential amp.       -0.0040 Ry
        Total length         45.4054 bohr


     total cpu time spent up to now is     1740.1 secs

     total energy              =   -1344.15195671 Ry
     estimated scf accuracy    <       0.00201751 Ry

     iteration # 10     ecut=    55.12 Ry     beta= 0.10
     Davidson diagonalization with overlap
     c_bands:  1 eigenvalues not converged
     c_bands:  1 eigenvalues not converged
     ethr =  1.46E-06,  avg # of iterations =  8.7

     negative rho (up, down):  3.177E-04 0.000E+00

     Adding external electric field

     Computed dipole along edir(3) : 
        Dipole                0.0163 Ry au,          0.0414 Debye
        Dipole field          0.0000 Ry au, 

        Potential amp.       -0.0037 Ry
        Total length         45.4054 bohr


     total cpu time spent up to now is     2019.3 secs

     total energy              =   -1344.15216067 Ry
     estimated scf accuracy    <       0.01005409 Ry

     iteration # 11     ecut=    55.12 Ry     beta= 0.10
     Davidson diagonalization with overlap
     c_bands:  1 eigenvalues not converged
     ethr =  1.46E-06,  avg # of iterations =  3.4

     negative rho (up, down):  3.176E-04 0.000E+00

     Adding external electric field

     Computed dipole along edir(3) : 
        Dipole                0.0185 Ry au,          0.0471 Debye
        Dipole field          0.0000 Ry au, 

        Potential amp.       -0.0042 Ry
        Total length         45.4054 bohr


     total cpu time spent up to now is     2198.9 secs

     total energy              =   -1344.15225578 Ry
     estimated scf accuracy    <       0.00167439 Ry

     iteration # 12     ecut=    55.12 Ry     beta= 0.10
     Davidson diagonalization with overlap
     ethr =  1.21E-06,  avg # of iterations =  2.8

     negative rho (up, down):  3.187E-04 0.000E+00

     Adding external electric field

     Computed dipole along edir(3) : 
        Dipole                0.0176 Ry au,          0.0448 Debye
        Dipole field          0.0000 Ry au, 

        Potential amp.       -0.0040 Ry
        Total length         45.4054 bohr


     total cpu time spent up to now is     2373.4 secs

     total energy              =   -1344.15242239 Ry
     estimated scf accuracy    <       0.00013779 Ry

     iteration # 13     ecut=    55.12 Ry     beta= 0.10
     Davidson diagonalization with overlap
     c_bands:  1 eigenvalues not converged
     ethr =  9.98E-08,  avg # of iterations =  6.9

     negative rho (up, down):  3.176E-04 0.000E+00

     Adding external electric field

     Computed dipole along edir(3) : 
        Dipole                0.0191 Ry au,          0.0485 Debye
        Dipole field          0.0000 Ry au, 

        Potential amp.       -0.0043 Ry
        Total length         45.4054 bohr


     total cpu time spent up to now is     2579.0 secs

     total energy              =   -1344.15244297 Ry
     estimated scf accuracy    <       0.00005588 Ry

     iteration # 14     ecut=    55.12 Ry     beta= 0.10
     Davidson diagonalization with overlap
     ethr =  4.05E-08,  avg # of iterations =  2.2

     negative rho (up, down):  3.292E-04 0.000E+00

     Adding external electric field

     Computed dipole along edir(3) : 
        Dipole                0.0054 Ry au,          0.0137 Debye
        Dipole field          0.0000 Ry au, 

        Potential amp.       -0.0012 Ry
        Total length         45.4054 bohr


     total cpu time spent up to now is     2756.9 secs

     End of self-consistent calculation

          k = 0.0000 0.0000 0.0000 ( 34997 PWs)   bands (ev):

   -48.6773 -48.6632 -48.6428 -48.6285 -48.2531 -48.2193 -26.7462 -26.7221
   -26.7206 -26.7050 -26.6994 -26.6733 -26.6662 -26.6456 -26.6277 -26.5922
   -26.4427 -26.3148 -26.3077 -26.2116 -26.1835 -26.1427 -26.1365 -26.0309
    -5.5238  -4.0735  -3.4968  -3.4157  -3.3315  -2.9602  -2.9248  -2.8942
    -2.8858  -2.8497  -2.7919  -2.6788  -2.6190  -2.4136  -2.3975  -2.3948
    -2.3798  -2.3682  -2.2958  -2.2686  -2.2661  -2.2473  -2.2253  -2.0975
    -2.0474  -1.9878  -1.9862  -1.9673  -1.8833  -1.7986  -1.7561  -1.7010
    -1.3514  -1.1845  -1.1310  -1.0572   0.0178   0.3270   0.3312   0.5721
     0.5983   0.7416   0.8541   1.1688   1.2451   1.5986   1.6093   1.6254
     1.7250   1.8166   1.8970   1.9823   2.1526   2.2045   2.8896   2.9361
     2.9878   3.0442   3.1064

          k = 0.0000 0.0156 0.0000 ( 35011 PWs)   bands (ev):

   -48.6767 -48.6626 -48.6434 -48.6291 -48.2526 -48.2199 -26.7452 -26.7227
   -26.7210 -26.6986 -26.6930 -26.6753 -26.6645 -26.6448 -26.6280 -26.5934
   -26.4359 -26.3218 -26.3148 -26.2103 -26.1829 -26.1438 -26.1374 -26.0382
    -5.4784  -4.0317  -3.4641  -3.4024  -3.3102  -2.9414  -2.9084  -2.8911
    -2.8835  -2.8389  -2.7643  -2.6616  -2.6078  -2.4100  -2.3919  -2.3887
    -2.3739  -2.3599  -2.2944  -2.2725  -2.2640  -2.2442  -2.2194  -2.0970
    -2.0476  -2.0102  -1.9962  -1.9545  -1.8866  -1.7998  -1.7641  -1.7106
    -1.3502  -1.2482  -1.1973  -1.0826   0.0339   0.3016   0.3882   0.5735
     0.5754   0.7478   0.8411   1.1668   1.2426   1.4606   1.5746   1.6036
     1.6837   1.7789   1.8320   1.8899   2.1657   2.3456   2.7616   2.8239
     2.8520   3.0514   3.0671

          k = 0.0000 0.0311 0.0000 ( 34978 PWs)   bands (ev):

   -48.6750 -48.6609 -48.6451 -48.6308 -48.2509 -48.2216 -26.7422 -26.7241
   -26.7220 -26.6807 -26.6799 -26.6742 -26.6599 -26.6430 -26.6289 -26.5967
   -26.4159 -26.3422 -26.3352 -26.2064 -26.1810 -26.1468 -26.1403 -26.0595
    -5.3444  -3.9100  -3.3783  -3.3696  -3.2518  -2.8928  -2.8872  -2.8615
    -2.8525  -2.8078  -2.7096  -2.6121  -2.5642  -2.3998  -2.3773  -2.3712
    -2.3553  -2.3366  -2.2925  -2.2824  -2.2610  -2.2361  -2.1989  -2.0995
    -2.0542  -2.0387  -2.0204  -1.9531  -1.8942  -1.8020  -1.7953  -1.7413
    -1.4329  -1.3450  -1.3429  -1.1417   0.1002   0.2117   0.4912   0.5064
     0.5671   0.7677   0.8151   1.1432   1.1597   1.1940   1.3439   1.5904
     1.6490   1.7251   1.7288   1.7815   2.1829   2.4685   2.4936   2.5342
     2.7119   2.9731   3.0814

          k = 0.0000 0.0467 0.0000 ( 34982 PWs)   bands (ev):

   -48.6722 -48.6581 -48.6478 -48.6336 -48.2482 -48.2243 -26.7375 -26.7256
   -26.7234 -26.6879 -26.6532 -26.6502 -26.6444 -26.6408 -26.6302 -26.6020
   -26.3841 -26.3745 -26.3676 -26.2004 -26.1779 -26.1518 -26.1447 -26.0932
    -5.1283  -3.7203  -3.3974  -3.2236  -3.1728  -2.8702  -2.8086  -2.8027
    -2.7895  -2.7610  -2.6657  -2.5368  -2.4772  -2.3841  -2.3573  -2.3479
    -2.3254  -2.3034  -2.3028  -2.2884  -2.2568  -2.2221  -2.1630  -2.1123
    -2.0924  -2.0558  -2.0354  -1.9697  -1.9064  -1.8775  -1.8013  -1.8010
    -1.6683  -1.4662  -1.3327  -1.2350   0.0654   0.2082   0.3648   0.5243
     0.5291   0.7805   0.8020   0.8325   1.0463   1.1024   1.1267   1.5416
     1.5537   1.6941   1.7069   1.7461   2.0923   2.1979   2.2943   2.5156
     2.6085   2.8752   3.1723

          k = 0.0000 0.0623 0.0000 ( 34934 PWs)   bands (ev):

   -48.6686 -48.6545 -48.6514 -48.6372 -48.2447 -48.2278 -26.7317 -26.7263
   -26.7250 -26.6964 -26.6454 -26.6393 -26.6314 -26.6114 -26.6086 -26.6047
   -26.4161 -26.4093 -26.3424 -26.1928 -26.1736 -26.1584 -26.1501 -26.1368
    -4.8419  -3.5330  -3.4883  -3.0994  -3.0445  -2.8081  -2.7533  -2.7115
    -2.7090  -2.6996  -2.6358  -2.4453  -2.3883  -2.3631  -2.3436  -2.3260
    -2.3211  -2.2947  -2.2937  -2.2724  -2.2371  -2.1981  -2.1426  -2.1245
    -2.1189  -2.0868  -2.0375  -2.0245  -1.9896  -1.9290  -1.9056  -1.8456
    -1.7926  -1.5106  -1.3703  -1.3168  -0.1072   0.1842   0.3228   0.3719
     0.4274   0.6417   0.7127   0.8076   0.9195   1.0715   1.0913   1.4037
     1.5029   1.6465   1.6530   1.6855   1.8900   2.1661   2.2374   2.3663
     2.5624   2.8399   3.1555

          k = 0.0000 0.0778 0.0000 ( 34965 PWs)   bands (ev):

   -48.6645 -48.6555 -48.6503 -48.6413 -48.2406 -48.2318 -26.7284 -26.7265
   -26.7224 -26.7054 -26.6385 -26.6378 -26.6309 -26.6167 -26.5649 -26.5585
   -26.4640 -26.4573 -26.2935 -26.1873 -26.1841 -26.1683 -26.1663 -26.1562
    -4.5035  -3.7981  -3.2621  -3.0649  -2.8628  -2.7386  -2.7011  -2.6701
    -2.6428  -2.6163  -2.5940  -2.3725  -2.3542  -2.3483  -2.3467  -2.3306
    -2.3102  -2.3042  -2.2870  -2.2543  -2.2111  -2.1853  -2.1605  -2.1463
    -2.1444  -2.0843  -2.0657  -2.0535  -2.0201  -2.0043  -1.9647  -1.9616
    -1.7642  -1.5413  -1.4698  -1.3233  -0.2232   0.0322   0.1054   0.2873
     0.5075   0.5642   0.6195   0.7493   0.9443   1.0710   1.1576   1.2937
     1.4244   1.4977   1.5123   1.5604   2.0257   2.1210   2.2675   2.2843
     2.5181   2.8544   2.8920

          k = 0.0000-0.0934 0.0000 ( 34976 PWs)   bands (ev):

   -48.6600 -48.6600 -48.6458 -48.6458 -48.2362 -48.2362 -26.7276 -26.7276
   -26.7143 -26.7143 -26.6369 -26.6369 -26.6250 -26.6249 -26.5148 -26.5148
   -26.5082 -26.5082 -26.2406 -26.2406 -26.1751 -26.1751 -26.1625 -26.1624
    -4.1413  -4.1413  -3.1098  -3.1098  -2.7402  -2.7402  -2.6667  -2.6667
    -2.6117  -2.6117  -2.4803  -2.4803  -2.3585  -2.3585  -2.3181  -2.3181
    -2.3016  -2.3016  -2.2444  -2.2444  -2.2196  -2.2196  -2.1669  -2.1669
    -2.1105  -2.1105  -2.0620  -2.0620  -2.0272  -2.0271  -1.9961  -1.9961
    -1.6864  -1.6864  -1.3857  -1.3857  -0.1790  -0.1790   0.1515   0.1515
     0.5588   0.5588   0.6490   0.6490   1.0289   1.0289   1.2250   1.2250
     1.4017   1.4017   1.4736   1.4736   2.1819   2.1819   2.1858   2.1859
     2.6523   2.6524   2.9239

          k = 0.0147-0.0052 0.0000 ( 35011 PWs)   bands (ev):

   -48.6767 -48.6626 -48.6434 -48.6291 -48.2526 -48.2199 -26.7452 -26.7227
   -26.7210 -26.6986 -26.6930 -26.6753 -26.6645 -26.6448 -26.6280 -26.5934
   -26.4359 -26.3218 -26.3148 -26.2103 -26.1829 -26.1438 -26.1374 -26.0382
    -5.4784  -4.0317  -3.4641  -3.4024  -3.3102  -2.9414  -2.9084  -2.8911
    -2.8835  -2.8389  -2.7643  -2.6616  -2.6078  -2.4100  -2.3919  -2.3887
    -2.3739  -2.3599  -2.2944  -2.2725  -2.2640  -2.2442  -2.2194  -2.0970
    -2.0476  -2.0102  -1.9962  -1.9545  -1.8866  -1.7998  -1.7641  -1.7106
    -1.3502  -1.2482  -1.1973  -1.0826   0.0339   0.3016   0.3882   0.5735
     0.5754   0.7478   0.8411   1.1668   1.2426   1.4606   1.5746   1.6036
     1.6837   1.7789   1.8320   1.8899   2.1657   2.3456   2.7615   2.8239
     2.8520   3.0513   3.0671

          k = 0.0147 0.0103 0.0000 ( 34995 PWs)   bands (ev):

   -48.6772 -48.6632 -48.6429 -48.6286 -48.2532 -48.2192 -26.7451 -26.7272
   -26.7185 -26.7055 -26.6998 -26.6777 -26.6628 -26.6394 -26.6318 -26.5933
   -26.4425 -26.3148 -26.3077 -26.2095 -26.1838 -26.1439 -26.1372 -26.0311
    -5.4632  -4.0160  -3.4561  -3.3887  -3.2955  -2.9445  -2.9109  -2.8790
    -2.8721  -2.8303  -2.7619  -2.6623  -2.6062  -2.3955  -2.3939  -2.3860
    -2.3697  -2.3603  -2.2966  -2.2657  -2.2611  -2.2306  -2.2178  -2.0886
    -2.0487  -1.9963  -1.9911  -1.9694  -1.8830  -1.8039  -1.7504  -1.7064
    -1.3428  -1.1842  -1.1262  -1.0578  -0.1603   0.1609   0.2801   0.4909
     0.5105   0.7128   0.8165   1.2282   1.2943   1.3396   1.5204   1.5517
     1.6634   1.6925   1.8665   1.8933   2.2792   2.3670   2.8113   2.9019
     2.9227   3.0361   3.2362

          k = 0.0147 0.0259 0.0000 ( 35004 PWs)   bands (ev):

   -48.6766 -48.6625 -48.6435 -48.6292 -48.2527 -48.2197 -26.7431 -26.7316
   -26.7168 -26.6996 -26.6938 -26.6823 -26.6588 -26.6358 -26.6343 -26.5956
   -26.4355 -26.3217 -26.3147 -26.2063 -26.1832 -26.1461 -26.1388 -26.0386
    -5.3587  -3.9192  -3.3871  -3.3576  -3.2419  -2.9112  -2.8808  -2.8600
    -2.8541  -2.8012  -2.7178  -2.6298  -2.5758  -2.3856  -2.3752  -2.3721
    -2.3542  -2.3437  -2.2970  -2.2650  -2.2573  -2.2137  -2.2022  -2.0843
    -2.0471  -2.0177  -2.0115  -1.9609  -1.8871  -1.8086  -1.7549  -1.7206
    -1.3327  -1.2688  -1.1827  -1.0905  -0.2316  -0.0061   0.2500   0.4100
     0.4230   0.7049   0.7820   1.0615   1.2393   1.2923   1.3606   1.5146
     1.5654   1.6236   1.7364   1.8853   2.3683   2.5264   2.6760   2.6842
     2.6931   2.9602   3.2178

          k = 0.0147 0.0415 0.0000 ( 34973 PWs)   bands (ev):

   -48.6748 -48.6607 -48.6453 -48.6310 -48.2511 -48.2213 -26.7396 -26.7348
   -26.7158 -26.6885 -26.6813 -26.6752 -26.6535 -26.6395 -26.6300 -26.5999
   -26.4155 -26.3420 -26.3351 -26.2009 -26.1813 -26.1504 -26.1419 -26.0601
    -5.1699  -3.7509  -3.3522  -3.2680  -3.1636  -2.8442  -2.8350  -2.8226
    -2.8116  -2.7560  -2.6760  -2.5684  -2.5011  -2.3711  -2.3525  -2.3508
    -2.3269  -2.3118  -2.2997  -2.2707  -2.2554  -2.1941  -2.1695  -2.0954
    -2.0596  -2.0381  -2.0337  -1.9619  -1.9007  -1.8091  -1.7896  -1.7553
    -1.5067  -1.3189  -1.2976  -1.1759  -0.1852  -0.1500   0.2250   0.3156
     0.3338   0.7263   0.7324   0.7589   1.1320   1.1927   1.2545   1.4089
     1.4294   1.6229   1.6649   1.8735   2.2800   2.4427   2.4550   2.5049
     2.6127   2.8534   3.2442

          k = 0.0147 0.0570 0.0000 ( 34973 PWs)   bands (ev):

   -48.6720 -48.6579 -48.6480 -48.6338 -48.2484 -48.2240 -26.7389 -26.7322
   -26.7154 -26.6956 -26.6518 -26.6485 -26.6454 -26.6412 -26.6268 -26.6060
   -26.3836 -26.3741 -26.3673 -26.1940 -26.1780 -26.1565 -26.1462 -26.0939
    -4.9066  -3.5321  -3.4424  -3.1155  -3.0832  -2.7785  -2.7643  -2.7526
    -2.7388  -2.7034  -2.6461  -2.4870  -2.4153  -2.3591  -2.3351  -2.3246
    -2.3070  -2.2947  -2.2817  -2.2732  -2.2433  -2.1707  -2.1257  -2.1199
    -2.0985  -2.0648  -2.0270  -1.9770  -1.9233  -1.8958  -1.8227  -1.7992
    -1.7417  -1.3838  -1.3266  -1.3107  -0.3448   0.0069   0.1208   0.1898
     0.2608   0.4659   0.7494   0.7816   0.9673   1.1047   1.2442   1.2598
     1.3054   1.5604   1.7391   1.8187   1.9524   2.2302   2.3633   2.5066
     2.5749   2.8140   3.2068

          k = 0.0147 0.0726 0.0000 ( 34957 PWs)   bands (ev):

   -48.6684 -48.6542 -48.6516 -48.6374 -48.2450 -48.2274 -26.7397 -26.7252
   -26.7155 -26.7034 -26.6486 -26.6365 -26.6253 -26.6142 -26.6118 -26.6057
   -26.4155 -26.4088 -26.3418 -26.1861 -26.1735 -26.1641 -26.1514 -26.1375
    -4.5848  -3.6648  -3.3029  -3.0294  -2.9523  -2.7096  -2.7072  -2.6735
    -2.6592  -2.6360  -2.6202  -2.3987  -2.3780  -2.3581  -2.3374  -2.3084
    -2.2952  -2.2929  -2.2709  -2.2548  -2.2172  -2.1618  -2.1433  -2.1248
    -2.0871  -2.0746  -2.0452  -2.0373  -1.9970  -1.9532  -1.9419  -1.8829
    -1.7672  -1.5319  -1.3855  -1.3455  -0.4073  -0.0611   0.0336   0.1960
     0.2430   0.3365   0.7478   0.8494   0.9305   1.0803   1.1127   1.2194
     1.2307   1.5193   1.6351   1.7111   1.9561   2.0376   2.3243   2.4570
     2.5590   2.8418   2.9778

          k = 0.0147-0.0986 0.0000 ( 34948 PWs)   bands (ev):

   -48.6642 -48.6558 -48.6500 -48.6416 -48.2409 -48.2315 -26.7392 -26.7167
   -26.7162 -26.7110 -26.6504 -26.6289 -26.6268 -26.6191 -26.5663 -26.5594
   -26.4631 -26.4567 -26.2929 -26.1879 -26.1776 -26.1727 -26.1677 -26.1571
    -4.2284  -3.9867  -3.1263  -3.0394  -2.8187  -2.6797  -2.6688  -2.6446
    -2.6156  -2.5984  -2.5338  -2.4094  -2.3777  -2.3530  -2.3169  -2.3040
    -2.2946  -2.2866  -2.2806  -2.2417  -2.2126  -2.1989  -2.1634  -2.1595
    -2.1167  -2.0676  -2.0593  -2.0521  -2.0243  -2.0234  -1.9926  -1.9872
    -1.6971  -1.6836  -1.4479  -1.3405  -0.2940  -0.1842  -0.1109   0.2949
     0.3310   0.3964   0.7449   0.8705   0.9850   1.0634   1.1313   1.1625
     1.1960   1.4583   1.5708   1.6147   2.0024   2.0731   2.3041   2.3393
     2.6347   2.7140   2.8806

          k = 0.0147-0.0831 0.0000 ( 34976 PWs)   bands (ev):

   -48.6602 -48.6598 -48.6461 -48.6456 -48.2365 -48.2359 -26.7374 -26.7208
   -26.7147 -26.7073 -26.6518 -26.6343 -26.6209 -26.6202 -26.5159 -26.5137
   -26.5090 -26.5074 -26.2413 -26.2399 -26.1817 -26.1694 -26.1629 -26.1614
    -4.3472  -3.8741  -3.1553  -3.0524  -2.7884  -2.7520  -2.6726  -2.6610
    -2.6082  -2.5850  -2.5284  -2.4223  -2.3767  -2.3424  -2.3342  -2.3153
    -2.2989  -2.2898  -2.2723  -2.2406  -2.2106  -2.2096  -2.1740  -2.1724
    -2.1545  -2.1159  -2.0837  -2.0703  -2.0567  -2.0134  -2.0061  -1.9685
    -1.7707  -1.5637  -1.5315  -1.3158  -0.1716  -0.1457  -0.0120   0.3788
     0.4619   0.5432   0.7673   0.7892   0.9841   1.0571   1.2327   1.2450
     1.2601   1.3843   1.6073   1.6286   2.1005   2.1198   2.1362   2.3321
     2.5479   2.7674   2.8646

          k = 0.0147-0.0675 0.0000 ( 34953 PWs)   bands (ev):

   -48.6647 -48.6554 -48.6506 -48.6411 -48.2403 -48.2321 -26.7346 -26.7279
   -26.7153 -26.6976 -26.6525 -26.6433 -26.6205 -26.6130 -26.5637 -26.5577
   -26.4648 -26.4578 -26.2941 -26.1904 -26.1865 -26.1684 -26.1617 -26.1548
    -4.6966  -3.5765  -3.3694  -3.0698  -2.9251  -2.8493  -2.7246  -2.6936
    -2.6666  -2.6324  -2.5865  -2.3892  -2.3790  -2.3556  -2.3553  -2.3271
    -2.3169  -2.2902  -2.2831  -2.2703  -2.2233  -2.2226  -2.1726  -2.1379
    -2.1355  -2.1262  -2.1120  -2.0591  -2.0075  -2.0003  -1.9456  -1.9317
    -1.7933  -1.6157  -1.3830  -1.3285  -0.0646   0.0433   0.3673   0.5052
     0.6054   0.6508   0.6530   0.8480   0.9440   1.0564   1.1804   1.3639
     1.4094   1.5359   1.7056   1.7528   1.9689   2.0165   2.2465   2.2535
     2.5621   2.8330   2.9635

          k = 0.0147-0.0519 0.0000 ( 34966 PWs)   bands (ev):

   -48.6688 -48.6547 -48.6513 -48.6370 -48.2444 -48.2280 -26.7343 -26.7313
   -26.7158 -26.6884 -26.6527 -26.6519 -26.6212 -26.6100 -26.6059 -26.6039
   -26.4166 -26.4096 -26.3429 -26.1981 -26.1735 -26.1550 -26.1486 -26.1363
    -5.0019  -3.6106  -3.4014  -3.1378  -3.1209  -2.9119  -2.7812  -2.7522
    -2.7446  -2.7260  -2.6104  -2.4807  -2.4484  -2.4070  -2.3385  -2.3301
    -2.3292  -2.3137  -2.2882  -2.2794  -2.2481  -2.2456  -2.1571  -2.1324
    -2.1177  -2.0871  -2.0443  -2.0094  -1.9962  -1.9060  -1.8832  -1.8130
    -1.7989  -1.6052  -1.3474  -1.2746   0.1845   0.2690   0.5164   0.6481
     0.7183   0.7511   0.7906   0.8985   0.9858   1.0022   1.0633   1.4869
     1.5277   1.7731   1.7896   1.8521   1.9159   1.9432   2.1779   2.4343
     2.6407   2.8688   3.0595

          k = 0.0147-0.0364 0.0000 ( 34980 PWs)   bands (ev):

   -48.6724 -48.6583 -48.6477 -48.6334 -48.2480 -48.2244 -26.7396 -26.7276
   -26.7169 -26.6807 -26.6589 -26.6519 -26.6493 -26.6436 -26.6227 -26.5999
   -26.3845 -26.3747 -26.3677 -26.2044 -26.1776 -26.1496 -26.1433 -26.0928
    -5.2420  -3.8192  -3.3645  -3.2894  -3.2185  -2.9262  -2.8383  -2.8304
    -2.8094  -2.7926  -2.6544  -2.5649  -2.5438  -2.4165  -2.3616  -2.3540
    -2.3447  -2.3189  -2.3060  -2.2826  -2.2561  -2.2531  -2.1914  -2.1090
    -2.0883  -2.0447  -2.0429  -1.9707  -1.8940  -1.8751  -1.7992  -1.7899
    -1.6101  -1.5259  -1.3561  -1.1968   0.3750   0.4008   0.4522   0.7075
     0.7591   0.8088   0.8350   0.9636   1.0459   1.1838   1.2365   1.5536
     1.5788   1.6939   1.7758   1.8957   2.0079   2.2303   2.2848   2.6445
     2.6562   2.9090   2.9315

          k = 0.0147-0.0208 0.0000 ( 35015 PWs)   bands (ev):

   -48.6751 -48.6610 -48.6451 -48.6308 -48.2508 -48.2217 -26.7433 -26.7241
   -26.7191 -26.6795 -26.6761 -26.6738 -26.6633 -26.6493 -26.6250 -26.5956
   -26.4161 -26.3423 -26.3353 -26.2085 -26.1808 -26.1458 -26.1395 -26.0593
    -5.4035  -3.9643  -3.4075  -3.3877  -3.2821  -2.9125  -2.9040  -2.8733
    -2.8666  -2.8258  -2.7188  -2.6278  -2.5908  -2.4171  -2.3798  -2.3778
    -2.3656  -2.3452  -2.2893  -2.2860  -2.2610  -2.2521  -2.2116  -2.1026
    -2.0538  -2.0387  -2.0126  -1.9516  -1.8910  -1.7992  -1.7986  -1.7361
    -1.3890  -1.3780  -1.3555  -1.1325   0.2258   0.3955   0.5743   0.5762
     0.6586   0.8033   0.8385   1.0547   1.1576   1.3900   1.5818   1.6048
     1.6494   1.6592   1.6968   1.9280   2.0809   2.4583   2.4913   2.6171
     2.8074   2.9488   3.0144

          k = 0.0293-0.0105 0.0000 ( 34978 PWs)   bands (ev):

   -48.6750 -48.6609 -48.6451 -48.6308 -48.2509 -48.2216 -26.7422 -26.7241
   -26.7220 -26.6807 -26.6799 -26.6742 -26.6599 -26.6430 -26.6289 -26.5967
   -26.4159 -26.3422 -26.3352 -26.2064 -26.1810 -26.1468 -26.1403 -26.0595
    -5.3444  -3.9100  -3.3783  -3.3696  -3.2518  -2.8928  -2.8872  -2.8615
    -2.8525  -2.8078  -2.7096  -2.6121  -2.5642  -2.3998  -2.3773  -2.3712
    -2.3553  -2.3366  -2.2925  -2.2824  -2.2610  -2.2361  -2.1989  -2.0995
    -2.0542  -2.0387  -2.0204  -1.9531  -1.8942  -1.8020  -1.7953  -1.7413
    -1.4329  -1.3450  -1.3429  -1.1417   0.1002   0.2117   0.4912   0.5064
     0.5671   0.7677   0.8151   1.1431   1.1597   1.1940   1.3439   1.5904
     1.6490   1.7251   1.7288   1.7815   2.1829   2.4685   2.4936   2.5342
     2.7119   2.9732   3.0812

          k = 0.0293 0.0051 0.0000 ( 35004 PWs)   bands (ev):

   -48.6766 -48.6625 -48.6435 -48.6292 -48.2527 -48.2197 -26.7431 -26.7316
   -26.7168 -26.6996 -26.6938 -26.6823 -26.6588 -26.6358 -26.6343 -26.5956
   -26.4355 -26.3217 -26.3147 -26.2063 -26.1832 -26.1461 -26.1388 -26.0386
    -5.3587  -3.9192  -3.3871  -3.3576  -3.2419  -2.9112  -2.8808  -2.8600
    -2.8541  -2.8012  -2.7178  -2.6298  -2.5758  -2.3856  -2.3752  -2.3721
    -2.3542  -2.3437  -2.2970  -2.2650  -2.2573  -2.2137  -2.2022  -2.0843
    -2.0471  -2.0177  -2.0115  -1.9609  -1.8871  -1.8086  -1.7549  -1.7206
    -1.3327  -1.2688  -1.1827  -1.0905  -0.2316  -0.0061   0.2500   0.4100
     0.4230   0.7049   0.7820   1.0615   1.2393   1.2923   1.3606   1.5146
     1.5654   1.6236   1.7364   1.8853   2.3683   2.5264   2.6760   2.6842
     2.6931   2.9602   3.2180

          k = 0.0293 0.0207 0.0000 ( 34991 PWs)   bands (ev):

   -48.6770 -48.6629 -48.6430 -48.6287 -48.2534 -48.2190 -26.7426 -26.7379
   -26.7124 -26.7069 -26.7008 -26.6855 -26.6564 -26.6425 -26.6267 -26.5966
   -26.4420 -26.3147 -26.3077 -26.2039 -26.1842 -26.1474 -26.1388 -26.0317
    -5.2844  -3.8476  -3.3472  -3.3124  -3.1913  -2.9036  -2.8669  -2.8350
    -2.8318  -2.7739  -2.6790  -2.6157  -2.5690  -2.3833  -2.3601  -2.3444
    -2.3409  -2.3376  -2.2989  -2.2528  -2.2493  -2.1968  -2.1884  -2.0653
    -2.0537  -2.0170  -2.0073  -1.9759  -1.8813  -1.8171  -1.7398  -1.7194
    -1.3202  -1.1829  -1.1135  -1.0586  -0.5261  -0.2279   0.0724   0.2563
     0.3154   0.6631   0.7366   0.8535   1.1701   1.2616   1.2856   1.4284
     1.5629   1.6070   1.6227   1.9315   2.5278   2.5677   2.6137   2.7366
     2.8466   2.8637   3.0516

          k = 0.0293 0.0363 0.0000 ( 34986 PWs)   bands (ev):

   -48.6763 -48.6622 -48.6437 -48.6294 -48.2530 -48.2194 -26.7450 -26.7379
   -26.7090 -26.7014 -26.6950 -26.6899 -26.6544 -26.6471 -26.6206 -26.5998
   -26.4350 -26.3215 -26.3146 -26.1998 -26.1836 -26.1508 -26.1404 -26.0394
    -5.1252  -3.7026  -3.2773  -3.2622  -3.1123  -2.8606  -2.8223  -2.8008
    -2.7980  -2.7301  -2.6365  -2.5722  -2.5167  -2.3734  -2.3411  -2.3184
    -2.3141  -2.3117  -2.2996  -2.2475  -2.2463  -2.1737  -2.1630  -2.0747
    -2.0405  -2.0336  -2.0334  -1.9751  -1.8857  -1.8215  -1.7512  -1.7315
    -1.3224  -1.3099  -1.1568  -1.1105  -0.5546  -0.4344  -0.0371   0.0994
     0.2217   0.5776   0.6506   0.7015   1.0844   1.0861   1.1978   1.2955
     1.4640   1.5695   1.6684   1.9538   2.3856   2.5162   2.5662   2.6576
     2.6829   2.7714   3.1064

          k = 0.0293 0.0518 0.0000 ( 34974 PWs)   bands (ev):

   -48.6745 -48.6604 -48.6454 -48.6312 -48.2514 -48.2210 -26.7485 -26.7332
   -26.7066 -26.6954 -26.6833 -26.6764 -26.6572 -26.6450 -26.6164 -26.6047
   -26.4149 -26.3417 -26.3349 -26.1941 -26.1815 -26.1561 -26.1433 -26.0609
    -4.8891  -3.5016  -3.3163  -3.1505  -3.0244  -2.7855  -2.7529  -2.7471
    -2.7468  -2.6779  -2.6137  -2.5061  -2.4352  -2.3630  -2.3193  -2.3157
    -2.2906  -2.2796  -2.2710  -2.2509  -2.2411  -2.1398  -2.1355  -2.1002
    -2.0705  -2.0530  -2.0248  -1.9831  -1.9025  -1.8138  -1.7942  -1.7743
    -1.6164  -1.3214  -1.2639  -1.2271  -0.5838  -0.3776  -0.1348  -0.0722
     0.1571   0.3372   0.6727   0.6949   0.9375   1.0217   1.1021   1.1780
     1.3825   1.4785   1.7386   1.9176   2.1646   2.2653   2.3190   2.6453
     2.7441   2.7494   3.0139

          k = 0.0293 0.0674 0.0000 ( 34951 PWs)   bands (ev):

   -48.6717 -48.6576 -48.6482 -48.6340 -48.2487 -48.2236 -26.7501 -26.7265
   -26.7057 -26.7010 -26.6612 -26.6537 -26.6465 -26.6394 -26.6165 -26.6086
   -26.3829 -26.3736 -26.3669 -26.1874 -26.1778 -26.1628 -26.1474 -26.0947
    -4.5893  -3.4843  -3.2784  -3.0337  -2.9516  -2.7019  -2.6871  -2.6723
    -2.6587  -2.6302  -2.5939  -2.4301  -2.3877  -2.3607  -2.3330  -2.2955
    -2.2676  -2.2657  -2.2610  -2.2384  -2.2202  -2.1398  -2.1239  -2.0954
    -2.0913  -2.0582  -2.0308  -1.9974  -1.9477  -1.9297  -1.8547  -1.8059
    -1.7823  -1.4878  -1.4003  -1.2863  -0.5966  -0.2582  -0.2521  -0.1434
     0.1008   0.2623   0.7254   0.7284   0.8927   0.9843   1.0413   1.0984
     1.3553   1.3680   1.7513   1.8158   2.0039   2.0649   2.2625   2.5284
     2.7742   2.7903   3.0149

          k = 0.0293-0.1039 0.0000 ( 34934 PWs)   bands (ev):

   -48.6681 -48.6540 -48.6518 -48.6376 -48.2453 -48.2271 -26.7498 -26.7182
   -26.7099 -26.7029 -26.6642 -26.6328 -26.6233 -26.6140 -26.6097 -26.6061
   -26.4149 -26.4083 -26.3412 -26.1803 -26.1726 -26.1705 -26.1523 -26.1383
    -4.2463  -3.7722  -3.0906  -2.9391  -2.9242  -2.6519  -2.6148  -2.6052
    -2.6030  -2.5773  -2.5582  -2.3958  -2.3727  -2.3667  -2.3264  -2.2797
    -2.2722  -2.2636  -2.2584  -2.2432  -2.2076  -2.1761  -2.1497  -2.1227
    -2.1038  -2.0553  -2.0502  -2.0326  -2.0191  -1.9891  -1.9650  -1.9297
    -1.7055  -1.6945  -1.5373  -1.2936  -0.4511  -0.4152  -0.3139   0.0717
     0.1124   0.3513   0.7876   0.7986   0.9437   0.9872   1.0377   1.0774
     1.2260   1.3894   1.7047   1.7343   1.9389   2.0435   2.3269   2.3776
     2.7516   2.7749   2.7801

          k = 0.0293-0.0883 0.0000 ( 34927 PWs)   bands (ev):

   -48.6640 -48.6560 -48.6498 -48.6418 -48.2412 -48.2312 -26.7476 -26.7167
   -26.7089 -26.7033 -26.6658 -26.6319 -26.6256 -26.6093 -26.5676 -26.5602
   -26.4624 -26.4561 -26.2923 -26.1885 -26.1787 -26.1731 -26.1664 -26.1576
    -4.1223  -3.8909  -2.9975  -2.9912  -2.9081  -2.6334  -2.6286  -2.6237
    -2.5739  -2.5257  -2.4722  -2.4425  -2.3997  -2.3482  -2.3353  -2.2900
    -2.2749  -2.2667  -2.2459  -2.2364  -2.2303  -2.2145  -2.1765  -2.1580
    -2.1426  -2.1372  -2.1019  -2.0699  -2.0578  -2.0221  -1.9992  -1.9831
    -1.7820  -1.6568  -1.5298  -1.3073  -0.5184  -0.2257  -0.1460   0.1411
     0.3184   0.5086   0.8421   0.8779   1.0238   1.0311   1.1117   1.1298
     1.1474   1.3914   1.7256   1.7344   1.9782   2.0739   2.2264   2.4368
     2.5405   2.7368   2.7849

          k = 0.0293-0.0727 0.0000 ( 34930 PWs)   bands (ev):

   -48.6604 -48.6596 -48.6463 -48.6454 -48.2368 -48.2357 -26.7439 -26.7236
   -26.7043 -26.6991 -26.6659 -26.6409 -26.6182 -26.6106 -26.5168 -26.5130
   -26.5095 -26.5068 -26.2418 -26.2394 -26.1868 -26.1662 -26.1631 -26.1598
    -4.4766  -3.5718  -3.1816  -3.0048  -2.9484  -2.7563  -2.6787  -2.6589
    -2.6145  -2.5538  -2.4997  -2.3991  -2.3853  -2.3735  -2.3237  -2.3054
    -2.2909  -2.2808  -2.2636  -2.2558  -2.2476  -2.2096  -2.1981  -2.1947
    -2.1729  -2.1392  -2.1275  -2.0848  -2.0676  -2.0213  -2.0108  -1.9445
    -1.7981  -1.7050  -1.3728  -1.3364  -0.4307   0.0069   0.2211   0.2740
     0.4711   0.6504   0.8638   0.9745   0.9872   1.0732   1.2027   1.2474
     1.3126   1.3568   1.7880   1.8040   2.0107   2.0836   2.1168   2.4835
     2.5030   2.7590   2.7943

          k = 0.0293-0.0572 0.0000 ( 34950 PWs)   bands (ev):

   -48.6648 -48.6552 -48.6507 -48.6410 -48.2402 -48.2323 -26.7390 -26.7300
   -26.7067 -26.6900 -26.6641 -26.6491 -26.6134 -26.6112 -26.5631 -26.5572
   -26.4653 -26.4581 -26.2945 -26.1942 -26.1861 -26.1685 -26.1597 -26.1534
    -4.7960  -3.4278  -3.3677  -3.0703  -2.9914  -2.9604  -2.7371  -2.7087
    -2.6879  -2.6457  -2.5147  -2.4222  -2.4211  -2.4053  -2.3586  -2.3209
    -2.2953  -2.2914  -2.2771  -2.2719  -2.2575  -2.2316  -2.1655  -2.1566
    -2.1500  -2.1294  -2.1242  -2.0645  -2.0198  -1.9915  -1.9370  -1.9143
    -1.8002  -1.6953  -1.3572  -1.2902  -0.1523   0.3114   0.4603   0.5514
     0.6042   0.7435   0.7645   1.0367   1.0534   1.1327   1.1803   1.2625
     1.3624   1.6592   1.7324   1.9192   1.9339   2.0278   2.2666   2.2894
     2.5543   2.8317   2.8826

          k = 0.0293-0.0416 0.0000 ( 34959 PWs)   bands (ev):

   -48.6689 -48.6548 -48.6512 -48.6369 -48.2444 -48.2281 -26.7354 -26.7334
   -26.7109 -26.6835 -26.6595 -26.6553 -26.6174 -26.6095 -26.6049 -26.6038
   -26.4168 -26.4097 -26.3431 -26.2002 -26.1734 -26.1540 -26.1477 -26.1361
    -5.0562  -3.6530  -3.3333  -3.1508  -3.1489  -2.9677  -2.7908  -2.7681
    -2.7578  -2.7339  -2.5666  -2.5120  -2.4935  -2.4246  -2.3415  -2.3317
    -2.3244  -2.3218  -2.2946  -2.2748  -2.2610  -2.2464  -2.1767  -2.1282
    -2.1142  -2.0832  -2.0488  -2.0064  -2.0003  -1.8977  -1.8757  -1.7994
    -1.7976  -1.6414  -1.3623  -1.2445   0.1903   0.5117   0.6024   0.6443
     0.6627   0.8010   0.8752   0.9575   1.0339   1.1124   1.2820   1.3426
     1.3548   1.7914   1.8124   1.9919   2.0028   2.0210   2.0548   2.4827
     2.6969   2.8808   2.8892

          k = 0.0293-0.0260 0.0000 ( 34980 PWs)   bands (ev):

   -48.6724 -48.6583 -48.6477 -48.6334 -48.2480 -48.2244 -26.7396 -26.7276
   -26.7169 -26.6807 -26.6589 -26.6519 -26.6493 -26.6436 -26.6227 -26.5999
   -26.3845 -26.3747 -26.3677 -26.2044 -26.1776 -26.1496 -26.1433 -26.0928
    -5.2420  -3.8192  -3.3645  -3.2894  -3.2185  -2.9262  -2.8383  -2.8304
    -2.8094  -2.7926  -2.6544  -2.5649  -2.5438  -2.4165  -2.3616  -2.3540
    -2.3447  -2.3189  -2.3060  -2.2826  -2.2561  -2.2531  -2.1914  -2.1090
    -2.0883  -2.0447  -2.0429  -1.9707  -1.8940  -1.8751  -1.7992  -1.7899
    -1.6101  -1.5259  -1.3561  -1.1968   0.3750   0.4008   0.4522   0.7075
     0.7591   0.8088   0.8350   0.9636   1.0459   1.1838   1.2365   1.5536
     1.5788   1.6939   1.7758   1.8957   2.0080   2.2303   2.2848   2.6445
     2.6562   2.9088   2.9314

          k = 0.0440-0.0157 0.0000 ( 34982 PWs)   bands (ev):

   -48.6722 -48.6581 -48.6478 -48.6336 -48.2482 -48.2243 -26.7375 -26.7256
   -26.7234 -26.6879 -26.6532 -26.6502 -26.6444 -26.6408 -26.6302 -26.6020
   -26.3841 -26.3745 -26.3676 -26.2004 -26.1779 -26.1518 -26.1447 -26.0932
    -5.1283  -3.7203  -3.3974  -3.2236  -3.1728  -2.8702  -2.8086  -2.8027
    -2.7895  -2.7610  -2.6657  -2.5368  -2.4772  -2.3841  -2.3573  -2.3479
    -2.3254  -2.3034  -2.3028  -2.2884  -2.2568  -2.2221  -2.1630  -2.1123
    -2.0924  -2.0558  -2.0354  -1.9697  -1.9064  -1.8775  -1.8013  -1.8010
    -1.6683  -1.4662  -1.3327  -1.2350   0.0654   0.2082   0.3648   0.5243
     0.5291   0.7805   0.8020   0.8325   1.0463   1.1024   1.1267   1.5416
     1.5537   1.6941   1.7069   1.7461   2.0922   2.1979   2.2943   2.5156
     2.6085   2.8751   3.1725

          k = 0.0440-0.0001 0.0000 ( 34973 PWs)   bands (ev):

   -48.6748 -48.6607 -48.6453 -48.6310 -48.2511 -48.2213 -26.7396 -26.7348
   -26.7158 -26.6885 -26.6813 -26.6752 -26.6535 -26.6395 -26.6300 -26.5999
   -26.4155 -26.3420 -26.3351 -26.2009 -26.1813 -26.1504 -26.1419 -26.0601
    -5.1699  -3.7509  -3.3522  -3.2680  -3.1636  -2.8442  -2.8350  -2.8226
    -2.8116  -2.7560  -2.6760  -2.5684  -2.5011  -2.3711  -2.3525  -2.3508
    -2.3269  -2.3118  -2.2997  -2.2707  -2.2554  -2.1941  -2.1695  -2.0954
    -2.0596  -2.0381  -2.0337  -1.9619  -1.9007  -1.8091  -1.7896  -1.7553
    -1.5067  -1.3189  -1.2976  -1.1759  -0.1852  -0.1500   0.2250   0.3156
     0.3338   0.7263   0.7324   0.7589   1.1320   1.1927   1.2545   1.4089
     1.4294   1.6229   1.6649   1.8735   2.2800   2.4427   2.4550   2.5048
     2.6127   2.8533   3.2442

          k = 0.0440 0.0155 0.0000 ( 34986 PWs)   bands (ev):

   -48.6763 -48.6622 -48.6437 -48.6294 -48.2530 -48.2194 -26.7450 -26.7379
   -26.7090 -26.7014 -26.6950 -26.6899 -26.6544 -26.6471 -26.6206 -26.5998
   -26.4350 -26.3215 -26.3146 -26.1998 -26.1836 -26.1508 -26.1404 -26.0394
    -5.1252  -3.7026  -3.2773  -3.2622  -3.1123  -2.8606  -2.8223  -2.8008
    -2.7980  -2.7301  -2.6365  -2.5722  -2.5167  -2.3734  -2.3411  -2.3184
    -2.3141  -2.3117  -2.2996  -2.2475  -2.2463  -2.1737  -2.1630  -2.0747
    -2.0405  -2.0336  -2.0334  -1.9751  -1.8857  -1.8215  -1.7512  -1.7315
    -1.3224  -1.3099  -1.1568  -1.1105  -0.5546  -0.4344  -0.0371   0.0994
     0.2217   0.5776   0.6506   0.7015   1.0844   1.0861   1.1978   1.2955
     1.4640   1.5695   1.6685   1.9539   2.3856   2.5162   2.5661   2.6577
     2.6829   2.7715   3.1063

          k = 0.0440 0.0310 0.0000 ( 34991 PWs)   bands (ev):

   -48.6768 -48.6626 -48.6432 -48.6289 -48.2537 -48.2186 -26.7517 -26.7361
   -26.7091 -26.7033 -26.7021 -26.6924 -26.6603 -26.6480 -26.6133 -26.6015
   -26.4414 -26.3145 -26.3075 -26.1970 -26.1845 -26.1531 -26.1404 -26.0326
    -4.9968  -3.5817  -3.2227  -3.2012  -3.0302  -2.8407  -2.7948  -2.7683
    -2.7660  -2.6874  -2.5657  -2.5480  -2.5127  -2.3664  -2.3210  -2.3021
    -2.3010  -2.2978  -2.2702  -2.2387  -2.2297  -2.1667  -2.1317  -2.0655
    -2.0398  -2.0387  -2.0369  -1.9848  -1.8763  -1.8328  -1.7526  -1.7167
    -1.3163  -1.1808  -1.1147  -1.0395  -0.9257  -0.6452  -0.2326  -0.1153
     0.1256   0.3521   0.5945   0.6490   0.9369   0.9415   1.1191   1.1798
     1.2619   1.6702   1.7220   2.0203   2.1981   2.5345   2.6529   2.7432
     2.7492   2.8044   2.8162

          k = 0.0440 0.0466 0.0000 ( 34933 PWs)   bands (ev):

   -48.6760 -48.6619 -48.6439 -48.6296 -48.2533 -48.2191 -26.7565 -26.7321
   -26.7038 -26.6995 -26.6965 -26.6948 -26.6674 -26.6455 -26.6106 -26.6027
   -26.4343 -26.3214 -26.3144 -26.1931 -26.1835 -26.1570 -26.1418 -26.0403
    -4.7910  -3.4033  -3.1799  -3.1709  -2.9350  -2.7803  -2.7418  -2.7209
    -2.7199  -2.6362  -2.5400  -2.5007  -2.4477  -2.3559  -2.3074  -2.3024
    -2.2792  -2.2643  -2.2359  -2.2349  -2.2190  -2.1419  -2.1071  -2.0845
    -2.0601  -2.0500  -2.0268  -1.9891  -1.8802  -1.8330  -1.7726  -1.7273
    -1.4428  -1.3719  -1.1855  -1.0915  -0.7924  -0.7577  -0.3611  -0.3313
     0.0437   0.1630   0.5646   0.6232   0.7988   0.8373   1.0332   1.0632
     1.1314   1.6746   1.7564   1.9595   2.1229   2.3450   2.4205   2.6225
     2.7350   2.7758   2.9346

          k = 0.0440 0.0622 0.0000 ( 34936 PWs)   bands (ev):

   -48.6742 -48.6601 -48.6456 -48.6314 -48.2517 -48.2207 -26.7589 -26.7262
   -26.7019 -26.6945 -26.6852 -26.6775 -26.6732 -26.6415 -26.6148 -26.6008
   -26.4142 -26.3415 -26.3346 -26.1883 -26.1808 -26.1623 -26.1445 -26.0617
    -4.5189  -3.2791  -3.1975  -3.1245  -2.8462  -2.6912  -2.6676  -2.6634
    -2.6499  -2.5874  -2.5283  -2.4415  -2.3934  -2.3524  -2.3207  -2.2886
    -2.2653  -2.2271  -2.2266  -2.2181  -2.2109  -2.1206  -2.1060  -2.1001
    -2.0748  -2.0516  -2.0317  -1.9952  -1.8988  -1.8207  -1.8089  -1.8036
    -1.7369  -1.5003  -1.3934  -1.1586  -0.7166  -0.5469  -0.5253  -0.4558
    -0.0836   0.1803   0.5508   0.6427   0.7564   0.8023   0.9739   0.9793
     1.0983   1.5898   1.7841   1.8088   2.0878   2.1838   2.2035   2.6352
     2.6383   2.7719   2.9332

          k = 0.0440-0.1091 0.0000 ( 34949 PWs)   bands (ev):

   -48.6715 -48.6573 -48.6484 -48.6342 -48.2490 -48.2233 -26.7588 -26.7186
   -26.7070 -26.6929 -26.6771 -26.6554 -26.6474 -26.6365 -26.6219 -26.5995
   -26.3824 -26.3733 -26.3666 -26.1831 -26.1764 -26.1687 -26.1482 -26.0954
    -4.1976  -3.5154  -3.1021  -3.0122  -2.7855  -2.6194  -2.5937  -2.5816
    -2.5667  -2.5539  -2.5156  -2.3984  -2.3879  -2.3541  -2.3334  -2.2757
    -2.2492  -2.2380  -2.2172  -2.2152  -2.2044  -2.1573  -2.1246  -2.0876
    -2.0696  -2.0526  -2.0491  -2.0218  -2.0105  -1.9305  -1.8978  -1.8373
    -1.7249  -1.6763  -1.6457  -1.2209  -0.7475  -0.5379  -0.4963  -0.2318
    -0.1235   0.3067   0.5413   0.7169   0.8304   0.8469   0.9528   0.9578
     1.1450   1.4768   1.7307   1.8085   1.9383   2.1332   2.2592   2.4826
     2.5609   2.7411   2.9603

          k = 0.0440-0.0935 0.0000 ( 34955 PWs)   bands (ev):

   -48.6680 -48.6538 -48.6520 -48.6378 -48.2455 -48.2269 -26.7565 -26.7128
   -26.7098 -26.6929 -26.6789 -26.6306 -26.6300 -26.6154 -26.6077 -26.5999
   -26.4145 -26.4079 -26.3407 -26.1775 -26.1755 -26.1709 -26.1528 -26.1388
    -3.8528  -3.8420  -3.1125  -2.9142  -2.7940  -2.5896  -2.5666  -2.5470
    -2.5112  -2.5091  -2.4654  -2.4205  -2.3797  -2.3656  -2.2987  -2.2714
    -2.2629  -2.2519  -2.2437  -2.2392  -2.2226  -2.1997  -2.1543  -2.1479
    -2.1253  -2.1045  -2.0685  -2.0493  -2.0299  -2.0195  -1.9906  -1.9683
    -1.7940  -1.7500  -1.5328  -1.2805  -0.8811  -0.3996  -0.2719  -0.0790
     0.0528   0.4765   0.5597   0.8410   0.9529   0.9595   0.9859   1.0123
     1.2473   1.3363   1.7381   1.8806   1.9666   2.1134   2.3136   2.3620
     2.4881   2.5115   2.8882

          k = 0.0440-0.0779 0.0000 ( 34923 PWs)   bands (ev):

   -48.6639 -48.6561 -48.6497 -48.6419 -48.2413 -48.2310 -26.7521 -26.7188
   -26.7008 -26.6950 -26.6781 -26.6378 -26.6240 -26.6026 -26.5683 -26.5606
   -26.4621 -26.4557 -26.2920 -26.1889 -26.1824 -26.1714 -26.1648 -26.1579
    -4.1931  -3.5264  -3.1571  -2.9431  -2.9142  -2.6224  -2.6090  -2.5697
    -2.5545  -2.4615  -2.4308  -2.4124  -2.4057  -2.3889  -2.3401  -2.2762
    -2.2686  -2.2530  -2.2441  -2.2435  -2.2323  -2.2283  -2.2150  -2.1906
    -2.1778  -2.1539  -2.1397  -2.0978  -2.0893  -2.0307  -2.0044  -1.9695
    -1.8040  -1.7772  -1.3419  -1.3292  -0.8428  -0.1830   0.0388   0.0488
     0.2823   0.6199   0.6527   0.9779   1.0592   1.0746   1.1069   1.1687
     1.1864   1.3359   1.8124   1.9178   2.0921   2.1168   2.1730   2.3268
     2.4583   2.5185   2.7525

          k = 0.0440-0.0624 0.0000 ( 34913 PWs)   bands (ev):

   -48.6605 -48.6596 -48.6463 -48.6453 -48.2368 -48.2356 -26.7461 -26.7247
   -26.6996 -26.6938 -26.6733 -26.6444 -26.6174 -26.6070 -26.5171 -26.5127
   -26.5097 -26.5066 -26.2419 -26.2393 -26.1888 -26.1654 -26.1632 -26.1589
    -4.5207  -3.3404  -3.1896  -3.1405  -2.9769  -2.7547  -2.6816  -2.6587
    -2.6194  -2.5583  -2.4282  -2.4164  -2.3883  -2.3833  -2.3139  -2.2988
    -2.2900  -2.2811  -2.2762  -2.2679  -2.2604  -2.2478  -2.2031  -2.1950
    -2.1799  -2.1449  -2.1291  -2.0915  -2.0728  -2.0302  -2.0134  -1.9363
    -1.8026  -1.7526  -1.3541  -1.2930  -0.5424   0.0901   0.2360   0.3396
     0.4418   0.7065   0.8309   1.0340   1.0782   1.0929   1.2000   1.2501
     1.3126   1.4061   1.7467   1.8929   2.0629   2.1401   2.2022   2.3698
     2.5530   2.5969   2.7228

          k = 0.0440-0.0468 0.0000 ( 34950 PWs)   bands (ev):

   -48.6648 -48.6552 -48.6507 -48.6410 -48.2402 -48.2323 -26.7390 -26.7300
   -26.7067 -26.6900 -26.6641 -26.6491 -26.6134 -26.6112 -26.5631 -26.5572
   -26.4653 -26.4581 -26.2945 -26.1942 -26.1861 -26.1685 -26.1597 -26.1534
    -4.7960  -3.4278  -3.3677  -3.0703  -2.9914  -2.9604  -2.7371  -2.7087
    -2.6879  -2.6457  -2.5147  -2.4222  -2.4211  -2.4053  -2.3586  -2.3209
    -2.2953  -2.2914  -2.2771  -2.2719  -2.2575  -2.2316  -2.1655  -2.1566
    -2.1500  -2.1294  -2.1242  -2.0645  -2.0198  -1.9915  -1.9370  -1.9143
    -1.8002  -1.6953  -1.3572  -1.2902  -0.1523   0.3114   0.4603   0.5514
     0.6042   0.7435   0.7645   1.0367   1.0534   1.1327   1.1803   1.2625
     1.3625   1.6591   1.7324   1.9191   1.9339   2.0277   2.2666   2.2894
     2.5543   2.8317   2.8828

          k = 0.0440-0.0312 0.0000 ( 34966 PWs)   bands (ev):

   -48.6688 -48.6547 -48.6513 -48.6370 -48.2444 -48.2280 -26.7343 -26.7313
   -26.7158 -26.6884 -26.6527 -26.6519 -26.6212 -26.6100 -26.6059 -26.6039
   -26.4166 -26.4096 -26.3429 -26.1981 -26.1735 -26.1550 -26.1486 -26.1363
    -5.0019  -3.6106  -3.4014  -3.1378  -3.1209  -2.9119  -2.7812  -2.7522
    -2.7446  -2.7260  -2.6104  -2.4807  -2.4484  -2.4070  -2.3385  -2.3301
    -2.3292  -2.3137  -2.2882  -2.2794  -2.2481  -2.2456  -2.1571  -2.1324
    -2.1177  -2.0871  -2.0443  -2.0094  -1.9962  -1.9060  -1.8832  -1.8130
    -1.7989  -1.6052  -1.3474  -1.2746   0.1845   0.2690   0.5164   0.6481
     0.7183   0.7511   0.7906   0.8985   0.9858   1.0022   1.0633   1.4869
     1.5277   1.7731   1.7896   1.8521   1.9159   1.9432   2.1779   2.4343
     2.6407   2.8689   3.0588

          k = 0.0587-0.0209 0.0000 ( 34934 PWs)   bands (ev):

   -48.6686 -48.6545 -48.6514 -48.6372 -48.2447 -48.2278 -26.7317 -26.7263
   -26.7250 -26.6964 -26.6454 -26.6393 -26.6314 -26.6114 -26.6086 -26.6047
   -26.4161 -26.4093 -26.3424 -26.1928 -26.1736 -26.1584 -26.1501 -26.1368
    -4.8419  -3.5330  -3.4883  -3.0994  -3.0445  -2.8081  -2.7533  -2.7115
    -2.7090  -2.6996  -2.6358  -2.4453  -2.3883  -2.3631  -2.3436  -2.3260
    -2.3211  -2.2947  -2.2937  -2.2724  -2.2371  -2.1981  -2.1426  -2.1245
    -2.1189  -2.0868  -2.0375  -2.0245  -1.9896  -1.9290  -1.9056  -1.8456
    -1.7926  -1.5106  -1.3703  -1.3168  -0.1072   0.1842   0.3228   0.3719
     0.4274   0.6417   0.7127   0.8076   0.9195   1.0715   1.0913   1.4037
     1.5029   1.6465   1.6530   1.6855   1.8900   2.1661   2.2374   2.3663
     2.5624   2.8399   3.1553

          k = 0.0587-0.0053 0.0000 ( 34973 PWs)   bands (ev):

   -48.6720 -48.6579 -48.6480 -48.6338 -48.2484 -48.2240 -26.7389 -26.7322
   -26.7154 -26.6956 -26.6518 -26.6485 -26.6454 -26.6412 -26.6268 -26.6060
   -26.3836 -26.3741 -26.3673 -26.1940 -26.1780 -26.1565 -26.1462 -26.0939
    -4.9066  -3.5321  -3.4424  -3.1155  -3.0832  -2.7785  -2.7643  -2.7526
    -2.7388  -2.7034  -2.6461  -2.4870  -2.4153  -2.3591  -2.3351  -2.3246
    -2.3070  -2.2947  -2.2817  -2.2732  -2.2433  -2.1707  -2.1256  -2.1199
    -2.0985  -2.0648  -2.0270  -1.9770  -1.9233  -1.8958  -1.8227  -1.7992
    -1.7417  -1.3838  -1.3266  -1.3107  -0.3448   0.0069   0.1208   0.1898
     0.2608   0.4659   0.7494   0.7816   0.9673   1.1047   1.2442   1.2598
     1.3054   1.5604   1.7391   1.8187   1.9524   2.2302   2.3633   2.5066
     2.5749   2.8140   3.2066

          k = 0.0587 0.0102 0.0000 ( 34974 PWs)   bands (ev):

   -48.6745 -48.6604 -48.6454 -48.6312 -48.2514 -48.2210 -26.7485 -26.7332
   -26.7066 -26.6954 -26.6833 -26.6764 -26.6572 -26.6450 -26.6164 -26.6047
   -26.4149 -26.3417 -26.3349 -26.1941 -26.1815 -26.1561 -26.1433 -26.0609
    -4.8891  -3.5016  -3.3163  -3.1505  -3.0244  -2.7855  -2.7529  -2.7471
    -2.7468  -2.6779  -2.6137  -2.5061  -2.4352  -2.3630  -2.3193  -2.3157
    -2.2906  -2.2796  -2.2710  -2.2509  -2.2411  -2.1398  -2.1355  -2.1002
    -2.0705  -2.0530  -2.0248  -1.9831  -1.9025  -1.8138  -1.7942  -1.7743
    -1.6164  -1.3214  -1.2639  -1.2271  -0.5838  -0.3776  -0.1348  -0.0722
     0.1571   0.3372   0.6727   0.6949   0.9375   1.0217   1.1021   1.1780
     1.3825   1.4785   1.7386   1.9176   2.1646   2.2653   2.3190   2.6454
     2.7441   2.7494   3.0139

          k = 0.0587 0.0258 0.0000 ( 34933 PWs)   bands (ev):

   -48.6760 -48.6619 -48.6439 -48.6296 -48.2533 -48.2191 -26.7565 -26.7321
   -26.7038 -26.6995 -26.6965 -26.6948 -26.6674 -26.6455 -26.6106 -26.6027
   -26.4343 -26.3214 -26.3144 -26.1931 -26.1835 -26.1570 -26.1418 -26.0403
    -4.7910  -3.4033  -3.1799  -3.1709  -2.9350  -2.7803  -2.7418  -2.7209
    -2.7199  -2.6362  -2.5400  -2.5007  -2.4477  -2.3559  -2.3074  -2.3024
    -2.2792  -2.2643  -2.2359  -2.2349  -2.2190  -2.1419  -2.1071  -2.0845
    -2.0601  -2.0500  -2.0268  -1.9891  -1.8802  -1.8330  -1.7726  -1.7273
    -1.4428  -1.3719  -1.1855  -1.0915  -0.7924  -0.7577  -0.3611  -0.3313
     0.0437   0.1630   0.5646   0.6232   0.7988   0.8373   1.0332   1.0632
     1.1314   1.6746   1.7565   1.9595   2.1229   2.3450   2.4206   2.6225
     2.7350   2.7758   2.9346

          k = 0.0587 0.0414 0.0000 ( 34919 PWs)   bands (ev):

   -48.6765 -48.6623 -48.6434 -48.6292 -48.2540 -48.2183 -26.7622 -26.7291
   -26.7113 -26.7032 -26.6989 -26.6910 -26.6765 -26.6447 -26.6118 -26.5977
   -26.4408 -26.3144 -26.3074 -26.1913 -26.1838 -26.1593 -26.1416 -26.0335
    -4.6177  -3.2527  -3.1957  -3.0808  -2.8318  -2.7370  -2.7106  -2.6904
    -2.6772  -2.5874  -2.4733  -2.4570  -2.4504  -2.3418  -2.3036  -2.2858
    -2.2623  -2.2497  -2.2257  -2.2086  -2.1797  -2.1358  -2.0895  -2.0772
    -2.0696  -2.0508  -2.0269  -1.9860  -1.8680  -1.8481  -1.7809  -1.7072
    -1.4845  -1.2869  -1.1880  -1.1490  -0.9765  -0.8106  -0.5796  -0.5292
    -0.0774   0.0290   0.4667   0.5715   0.6281   0.7153   0.8881   0.9570
     0.9841   1.7461   1.7993   1.8292   2.1256   2.3034   2.4570   2.5752
     2.5872   2.7018   2.7765

          k = 0.0587 0.0569 0.0000 ( 34930 PWs)   bands (ev):

   -48.6758 -48.6616 -48.6440 -48.6298 -48.2535 -48.2187 -26.7653 -26.7243
   -26.7056 -26.7014 -26.6971 -26.6866 -26.6836 -26.6427 -26.6162 -26.5938
   -26.4338 -26.3212 -26.3142 -26.1889 -26.1822 -26.1628 -26.1428 -26.0410
    -4.3788  -3.2384  -3.0905  -3.0742  -2.7326  -2.6689  -2.6572  -2.6367
    -2.6223  -2.5421  -2.4504  -2.4331  -2.3950  -2.3326  -2.3057  -2.2894
    -2.2550  -2.2138  -2.2086  -2.1989  -2.1530  -2.1157  -2.1096  -2.0850
    -2.0633  -2.0463  -2.0289  -1.9854  -1.8725  -1.8429  -1.7985  -1.7269
    -1.6301  -1.6262  -1.2804  -1.0387  -0.8828  -0.8157  -0.7367  -0.6321
    -0.2412   0.0854   0.3779   0.5485   0.5619   0.6727   0.7602   0.9036
     0.9223   1.6836   1.7489   1.7928   2.0848   2.1812   2.3964   2.4303
     2.5616   2.7316   2.7660

          k = 0.0587-0.1143 0.0000 ( 34931 PWs)   bands (ev):

   -48.6741 -48.6599 -48.6458 -48.6316 -48.2519 -48.2204 -26.7657 -26.7178
   -26.7049 -26.6884 -26.6877 -26.6837 -26.6782 -26.6395 -26.6219 -26.5922
   -26.4138 -26.3413 -26.3344 -26.1857 -26.1790 -26.1672 -26.1452 -26.0624
    -4.0886  -3.2957  -3.2503  -2.9216  -2.6520  -2.6023  -2.5823  -2.5725
    -2.5585  -2.5078  -2.4420  -2.3969  -2.3948  -2.3400  -2.3121  -2.2877
    -2.2457  -2.2052  -2.2036  -2.1838  -2.1588  -2.1347  -2.0954  -2.0882
    -2.0728  -2.0460  -2.0362  -1.9970  -1.9270  -1.8944  -1.8170  -1.7889
    -1.7856  -1.7438  -1.5418  -1.1026  -1.0183  -0.6736  -0.5841  -0.5771
    -0.2965   0.2367   0.3120   0.6100   0.6247   0.7084   0.7636   0.8812
     0.9044   1.6180   1.7258   1.8137   1.8977   2.2357   2.2957   2.3232
     2.6138   2.6881   2.7580

          k = 0.0587-0.0987 0.0000 ( 34931 PWs)   bands (ev):

   -48.6714 -48.6572 -48.6485 -48.6343 -48.2492 -48.2231 -26.7634 -26.7103
   -26.7091 -26.6901 -26.6848 -26.6563 -26.6479 -26.6352 -26.6279 -26.5932
   -26.3821 -26.3731 -26.3664 -26.1816 -26.1747 -26.1722 -26.1486 -26.0958
    -3.7684  -3.5319  -3.3687  -2.8421  -2.6135  -2.5439  -2.5335  -2.5257
    -2.5041  -2.4911  -2.4449  -2.4250  -2.3632  -2.3608  -2.3162  -2.2848
    -2.2381  -2.2220  -2.2193  -2.1956  -2.1715  -2.1653  -2.1207  -2.1178
    -2.1055  -2.0814  -2.0517  -2.0379  -2.0323  -1.9365  -1.9273  -1.8505
    -1.8226  -1.7998  -1.5710  -1.2128  -1.1758  -0.5866  -0.3638  -0.2794
    -0.2376   0.3073   0.4063   0.7203   0.7980   0.8073   0.8922   0.8935
     0.9547   1.5911   1.6454   1.9028   1.9441   2.2487   2.2584   2.2949
     2.4550   2.4705   2.8374

          k = 0.0587-0.0832 0.0000 ( 34952 PWs)   bands (ev):

   -48.6679 -48.6537 -48.6520 -48.6379 -48.2456 -48.2268 -26.7588 -26.7139
   -26.7040 -26.6882 -26.6871 -26.6334 -26.6299 -26.6159 -26.6078 -26.5966
   -26.4144 -26.4078 -26.3406 -26.1774 -26.1768 -26.1699 -26.1529 -26.1391
    -3.8662  -3.4737  -3.4223  -2.8485  -2.7081  -2.5670  -2.5568  -2.5319
    -2.4762  -2.4455  -2.4197  -2.4156  -2.4149  -2.3221  -2.3002  -2.2939
    -2.2881  -2.2364  -2.2344  -2.2315  -2.2301  -2.2082  -2.1965  -2.1556
    -2.1394  -2.1112  -2.0934  -2.0769  -2.0523  -2.0277  -1.9969  -1.9677
    -1.8218  -1.8093  -1.2926  -1.2898  -1.2334  -0.4055  -0.1497  -0.1337
     0.0361   0.4178   0.5365   0.8821   0.9177   0.9670   0.9720   1.0162
     1.1599   1.3981   1.7372   2.0519   2.1369   2.1741   2.2038   2.2534
     2.2918   2.3815   2.8238

          k = 0.0587-0.0676 0.0000 ( 34923 PWs)   bands (ev):

   -48.6639 -48.6561 -48.6497 -48.6419 -48.2413 -48.2310 -26.7521 -26.7188
   -26.7008 -26.6950 -26.6781 -26.6378 -26.6240 -26.6026 -26.5683 -26.5606
   -26.4621 -26.4557 -26.2920 -26.1889 -26.1824 -26.1714 -26.1648 -26.1579
    -4.1931  -3.5264  -3.1571  -2.9431  -2.9142  -2.6224  -2.6090  -2.5697
    -2.5545  -2.4615  -2.4308  -2.4124  -2.4057  -2.3889  -2.3401  -2.2762
    -2.2686  -2.2530  -2.2441  -2.2436  -2.2323  -2.2283  -2.2150  -2.1906
    -2.1778  -2.1539  -2.1397  -2.0978  -2.0893  -2.0307  -2.0044  -1.9695
    -1.8040  -1.7772  -1.3419  -1.3292  -0.8428  -0.1830   0.0388   0.0488
     0.2823   0.6199   0.6527   0.9779   1.0592   1.0746   1.1069   1.1687
     1.1864   1.3359   1.8124   1.9178   2.0921   2.1168   2.1730   2.3268
     2.4583   2.5185   2.7525

          k = 0.0587-0.0520 0.0000 ( 34930 PWs)   bands (ev):

   -48.6604 -48.6596 -48.6463 -48.6454 -48.2368 -48.2357 -26.7439 -26.7236
   -26.7043 -26.6991 -26.6659 -26.6409 -26.6182 -26.6106 -26.5168 -26.5130
   -26.5095 -26.5068 -26.2418 -26.2394 -26.1868 -26.1662 -26.1631 -26.1598
    -4.4766  -3.5718  -3.1816  -3.0048  -2.9484  -2.7563  -2.6787  -2.6589
    -2.6145  -2.5538  -2.4997  -2.3991  -2.3853  -2.3735  -2.3237  -2.3054
    -2.2909  -2.2808  -2.2636  -2.2558  -2.2476  -2.2096  -2.1981  -2.1947
    -2.1729  -2.1392  -2.1275  -2.0848  -2.0676  -2.0213  -2.0108  -1.9445
    -1.7981  -1.7050  -1.3728  -1.3364  -0.4307   0.0069   0.2211   0.2740
     0.4711   0.6504   0.8638   0.9745   0.9872   1.0732   1.2027   1.2474
     1.3126   1.3568   1.7880   1.8040   2.0107   2.0836   2.1168   2.4835
     2.5030   2.7590   2.7943

          k = 0.0587-0.0365 0.0000 ( 34953 PWs)   bands (ev):

   -48.6647 -48.6554 -48.6506 -48.6411 -48.2403 -48.2321 -26.7346 -26.7279
   -26.7153 -26.6976 -26.6525 -26.6433 -26.6205 -26.6130 -26.5637 -26.5577
   -26.4648 -26.4578 -26.2941 -26.1904 -26.1865 -26.1684 -26.1617 -26.1548
    -4.6966  -3.5765  -3.3694  -3.0698  -2.9251  -2.8493  -2.7246  -2.6936
    -2.6666  -2.6324  -2.5865  -2.3892  -2.3790  -2.3556  -2.3553  -2.3271
    -2.3169  -2.2902  -2.2831  -2.2703  -2.2233  -2.2226  -2.1726  -2.1379
    -2.1355  -2.1262  -2.1120  -2.0591  -2.0075  -2.0003  -1.9456  -1.9317
    -1.7933  -1.6157  -1.3830  -1.3285  -0.0646   0.0433   0.3673   0.5052
     0.6054   0.6508   0.6530   0.8480   0.9440   1.0564   1.1804   1.3639
     1.4094   1.5359   1.7056   1.7528   1.9689   2.0165   2.2465   2.2535
     2.5621   2.8330   2.9633

          k = 0.0733-0.0261 0.0000 ( 34965 PWs)   bands (ev):

   -48.6645 -48.6555 -48.6503 -48.6413 -48.2406 -48.2318 -26.7284 -26.7265
   -26.7224 -26.7054 -26.6385 -26.6378 -26.6309 -26.6167 -26.5649 -26.5585
   -26.4640 -26.4573 -26.2935 -26.1873 -26.1841 -26.1683 -26.1663 -26.1562
    -4.5035  -3.7981  -3.2621  -3.0649  -2.8628  -2.7386  -2.7011  -2.6701
    -2.6428  -2.6163  -2.5940  -2.3725  -2.3542  -2.3483  -2.3467  -2.3306
    -2.3102  -2.3042  -2.2870  -2.2543  -2.2111  -2.1853  -2.1605  -2.1463
    -2.1444  -2.0843  -2.0657  -2.0535  -2.0201  -2.0043  -1.9647  -1.9616
    -1.7642  -1.5413  -1.4698  -1.3233  -0.2232   0.0322   0.1054   0.2873
     0.5075   0.5642   0.6195   0.7493   0.9443   1.0710   1.1576   1.2938
     1.4244   1.4977   1.5123   1.5604   2.0257   2.1210   2.2675   2.2843
     2.5181   2.8544   2.8919

          k = 0.0733-0.0106 0.0000 ( 34957 PWs)   bands (ev):

   -48.6684 -48.6542 -48.6516 -48.6374 -48.2450 -48.2274 -26.7397 -26.7252
   -26.7155 -26.7034 -26.6486 -26.6365 -26.6253 -26.6142 -26.6118 -26.6057
   -26.4155 -26.4088 -26.3418 -26.1861 -26.1735 -26.1641 -26.1514 -26.1375
    -4.5848  -3.6648  -3.3029  -3.0294  -2.9523  -2.7096  -2.7072  -2.6735
    -2.6592  -2.6360  -2.6202  -2.3987  -2.3780  -2.3581  -2.3374  -2.3084
    -2.2952  -2.2929  -2.2709  -2.2548  -2.2172  -2.1618  -2.1433  -2.1248
    -2.0871  -2.0746  -2.0452  -2.0373  -1.9970  -1.9532  -1.9419  -1.8829
    -1.7672  -1.5319  -1.3855  -1.3455  -0.4073  -0.0611   0.0336   0.1960
     0.2430   0.3365   0.7478   0.8494   0.9305   1.0803   1.1127   1.2194
     1.2307   1.5193   1.6351   1.7111   1.9561   2.0376   2.3242   2.4570
     2.5589   2.8418   2.9778

          k = 0.0733 0.0050 0.0000 ( 34951 PWs)   bands (ev):

   -48.6717 -48.6576 -48.6482 -48.6340 -48.2487 -48.2236 -26.7501 -26.7265
   -26.7057 -26.7010 -26.6612 -26.6537 -26.6465 -26.6394 -26.6165 -26.6086
   -26.3829 -26.3736 -26.3669 -26.1874 -26.1778 -26.1628 -26.1474 -26.0947
    -4.5893  -3.4843  -3.2784  -3.0337  -2.9516  -2.7019  -2.6871  -2.6723
    -2.6587  -2.6302  -2.5939  -2.4301  -2.3877  -2.3607  -2.3330  -2.2955
    -2.2676  -2.2657  -2.2610  -2.2384  -2.2202  -2.1398  -2.1239  -2.0954
    -2.0913  -2.0582  -2.0308  -1.9974  -1.9477  -1.9297  -1.8547  -1.8059
    -1.7823  -1.4878  -1.4003  -1.2863  -0.5966  -0.2582  -0.2521  -0.1434
     0.1008   0.2623   0.7254   0.7284   0.8927   0.9843   1.0413   1.0984
     1.3553   1.3680   1.7513   1.8158   2.0039   2.0649   2.2626   2.5283
     2.7742   2.7903   3.0150

          k = 0.0733 0.0206 0.0000 ( 34936 PWs)   bands (ev):

   -48.6742 -48.6601 -48.6456 -48.6314 -48.2517 -48.2207 -26.7589 -26.7262
   -26.7019 -26.6945 -26.6852 -26.6775 -26.6732 -26.6415 -26.6148 -26.6008
   -26.4142 -26.3415 -26.3346 -26.1883 -26.1808 -26.1623 -26.1445 -26.0617
    -4.5189  -3.2791  -3.1975  -3.1245  -2.8462  -2.6912  -2.6676  -2.6634
    -2.6499  -2.5874  -2.5283  -2.4415  -2.3934  -2.3524  -2.3207  -2.2886
    -2.2653  -2.2271  -2.2266  -2.2181  -2.2109  -2.1206  -2.1060  -2.1001
    -2.0748  -2.0516  -2.0317  -1.9952  -1.8988  -1.8207  -1.8089  -1.8036
    -1.7369  -1.5003  -1.3934  -1.1586  -0.7166  -0.5469  -0.5253  -0.4558
    -0.0836   0.1803   0.5508   0.6427   0.7564   0.8023   0.9739   0.9793
     1.0983   1.5898   1.7841   1.8088   2.0878   2.1838   2.2035   2.6351
     2.6383   2.7719   2.9328

          k = 0.0733 0.0361 0.0000 ( 34930 PWs)   bands (ev):

   -48.6758 -48.6616 -48.6440 -48.6298 -48.2535 -48.2187 -26.7653 -26.7243
   -26.7056 -26.7014 -26.6971 -26.6866 -26.6836 -26.6427 -26.6162 -26.5938
   -26.4338 -26.3212 -26.3142 -26.1889 -26.1822 -26.1628 -26.1428 -26.0410
    -4.3788  -3.2384  -3.0905  -3.0742  -2.7326  -2.6689  -2.6572  -2.6367
    -2.6223  -2.5421  -2.4504  -2.4331  -2.3950  -2.3326  -2.3057  -2.2895
    -2.2550  -2.2138  -2.2086  -2.1989  -2.1530  -2.1157  -2.1096  -2.0851
    -2.0633  -2.0463  -2.0289  -1.9854  -1.8725  -1.8429  -1.7985  -1.7269
    -1.6301  -1.6262  -1.2804  -1.0387  -0.8828  -0.8157  -0.7367  -0.6321
    -0.2412   0.0854   0.3779   0.5485   0.5619   0.6727   0.7602   0.9036
     0.9223   1.6836   1.7489   1.7929   2.0848   2.1812   2.3964   2.4303
     2.5616   2.7316   2.7660

          k = 0.0733 0.0517 0.0000 ( 34958 PWs)   bands (ev):

   -48.6763 -48.6621 -48.6435 -48.6293 -48.2542 -48.2180 -26.7690 -26.7207
   -26.7129 -26.7040 -26.7019 -26.6918 -26.6812 -26.6428 -26.6189 -26.5894
   -26.4403 -26.3143 -26.3073 -26.1887 -26.1819 -26.1642 -26.1424 -26.0341
    -4.1777  -3.3694  -2.9856  -2.9456  -2.6408  -2.6282  -2.6266  -2.6190
    -2.5660  -2.5060  -2.4137  -2.4029  -2.3872  -2.3139  -2.3080  -2.2932
    -2.2463  -2.1952  -2.1855  -2.1809  -2.1146  -2.1125  -2.1100  -2.0791
    -2.0525  -2.0377  -2.0247  -1.9771  -1.8734  -1.8599  -1.8083  -1.7520
    -1.7021  -1.5611  -1.2437  -1.1544  -1.0387  -0.8928  -0.7444  -0.6791
    -0.3748   0.0727   0.2316   0.3818   0.5158   0.5373   0.6089   0.8562
     0.8581   1.5528   1.7501   1.7891   2.1061   2.2136   2.3193   2.3932
     2.4165   2.7366   2.7674

          k = 0.0733-0.1195 0.0000 ( 34976 PWs)   bands (ev):

   -48.6757 -48.6615 -48.6441 -48.6299 -48.2537 -48.2186 -26.7700 -26.7157
   -26.7068 -26.7035 -26.6977 -26.6970 -26.6786 -26.6416 -26.6222 -26.5877
   -26.4335 -26.3212 -26.3141 -26.1876 -26.1804 -26.1663 -26.1433 -26.0415
    -3.9291  -3.5108  -3.0358  -2.8509  -2.6062  -2.5883  -2.5825  -2.5371
    -2.5074  -2.4826  -2.4051  -2.4025  -2.3949  -2.3296  -2.2924  -2.2863
    -2.2447  -2.1903  -2.1814  -2.1569  -2.1279  -2.1041  -2.0958  -2.0644
    -2.0537  -2.0355  -2.0292  -1.9835  -1.8685  -1.8638  -1.8216  -1.8172
    -1.7854  -1.7233  -1.3633  -1.2024  -1.0191  -0.8667  -0.7924  -0.5664
    -0.4260   0.1399   0.1984   0.3941   0.4528   0.5257   0.6139   0.8353
     0.8376   1.4971   1.7579   1.7835   2.0116   2.1642   2.2434   2.3615
     2.5424   2.7196   2.7225

          k = 0.0733-0.1040 0.0000 ( 34930 PWs)   bands (ev):

   -48.6740 -48.6598 -48.6458 -48.6317 -48.2520 -48.2203 -26.7680 -26.7115
   -26.7060 -26.6971 -26.6878 -26.6798 -26.6782 -26.6389 -26.6254 -26.5890
   -26.4136 -26.3413 -26.3343 -26.1851 -26.1779 -26.1690 -26.1454 -26.0626
    -3.6644  -3.6358  -3.2393  -2.8154  -2.5689  -2.5511  -2.5429  -2.4893
    -2.4855  -2.4794  -2.4619  -2.3988  -2.3916  -2.3440  -2.2924  -2.2892
    -2.2399  -2.2059  -2.1988  -2.1622  -2.1434  -2.1043  -2.0894  -2.0868
    -2.0824  -2.0412  -2.0300  -2.0225  -1.9917  -1.8895  -1.8603  -1.8174
    -1.8061  -1.7105  -1.6091  -1.2740  -1.0901  -0.7340  -0.6043  -0.4505
    -0.3729   0.1537   0.3315   0.5728   0.5984   0.6037   0.6843   0.8484
     0.8555   1.5366   1.8225   1.8230   1.8595   2.1230   2.2661   2.3306
     2.5938   2.6043   2.7643

          k = 0.0733-0.0884 0.0000 ( 34931 PWs)   bands (ev):

   -48.6714 -48.6572 -48.6485 -48.6343 -48.2492 -48.2231 -26.7634 -26.7103
   -26.7091 -26.6901 -26.6848 -26.6563 -26.6479 -26.6352 -26.6279 -26.5932
   -26.3821 -26.3731 -26.3664 -26.1816 -26.1747 -26.1722 -26.1486 -26.0958
    -3.7684  -3.5319  -3.3687  -2.8421  -2.6135  -2.5439  -2.5335  -2.5257
    -2.5041  -2.4911  -2.4449  -2.4250  -2.3632  -2.3608  -2.3162  -2.2848
    -2.2381  -2.2220  -2.2193  -2.1956  -2.1715  -2.1653  -2.1207  -2.1178
    -2.1055  -2.0814  -2.0517  -2.0379  -2.0323  -1.9365  -1.9273  -1.8505
    -1.8226  -1.7998  -1.5710  -1.2128  -1.1758  -0.5866  -0.3638  -0.2794
    -0.2376   0.3073   0.4063   0.7203   0.7980   0.8073   0.8922   0.8935
     0.9547   1.5911   1.6454   1.9028   1.9441   2.2487   2.2584   2.2949
     2.4550   2.4706   2.8374

          k = 0.0733-0.0728 0.0000 ( 34955 PWs)   bands (ev):

   -48.6680 -48.6538 -48.6520 -48.6378 -48.2455 -48.2269 -26.7565 -26.7128
   -26.7098 -26.6929 -26.6789 -26.6306 -26.6300 -26.6154 -26.6077 -26.5999
   -26.4145 -26.4079 -26.3407 -26.1775 -26.1755 -26.1709 -26.1528 -26.1388
    -3.8528  -3.8420  -3.1125  -2.9142  -2.7940  -2.5896  -2.5666  -2.5470
    -2.5112  -2.5091  -2.4654  -2.4205  -2.3797  -2.3656  -2.2987  -2.2714
    -2.2629  -2.2519  -2.2437  -2.2392  -2.2226  -2.1997  -2.1543  -2.1479
    -2.1253  -2.1045  -2.0685  -2.0493  -2.0299  -2.0195  -1.9906  -1.9683
    -1.7940  -1.7500  -1.5328  -1.2805  -0.8811  -0.3996  -0.2719  -0.0790
     0.0528   0.4765   0.5597   0.8410   0.9529   0.9595   0.9859   1.0123
     1.2473   1.3363   1.7381   1.8806   1.9666   2.1134   2.3136   2.3619
     2.4881   2.5115   2.8882

          k = 0.0733-0.0573 0.0000 ( 34927 PWs)   bands (ev):

   -48.6640 -48.6560 -48.6498 -48.6418 -48.2412 -48.2312 -26.7476 -26.7167
   -26.7089 -26.7033 -26.6658 -26.6319 -26.6256 -26.6093 -26.5676 -26.5602
   -26.4624 -26.4561 -26.2923 -26.1885 -26.1787 -26.1731 -26.1664 -26.1576
    -4.1223  -3.8909  -2.9975  -2.9912  -2.9081  -2.6334  -2.6286  -2.6237
    -2.5739  -2.5257  -2.4722  -2.4425  -2.3997  -2.3482  -2.3353  -2.2900
    -2.2749  -2.2667  -2.2459  -2.2364  -2.2303  -2.2145  -2.1765  -2.1580
    -2.1426  -2.1372  -2.1019  -2.0699  -2.0578  -2.0221  -1.9992  -1.9831
    -1.7820  -1.6568  -1.5298  -1.3073  -0.5184  -0.2257  -0.1460   0.1411
     0.3184   0.5086   0.8421   0.8779   1.0238   1.0311   1.1117   1.1298
     1.1474   1.3914   1.7256   1.7344   1.9782   2.0739   2.2264   2.4368
     2.5405   2.7368   2.7849

          k = 0.0733-0.0417 0.0000 ( 34976 PWs)   bands (ev):

   -48.6602 -48.6598 -48.6461 -48.6456 -48.2365 -48.2359 -26.7374 -26.7208
   -26.7147 -26.7073 -26.6518 -26.6343 -26.6209 -26.6202 -26.5159 -26.5137
   -26.5090 -26.5074 -26.2413 -26.2399 -26.1817 -26.1694 -26.1629 -26.1614
    -4.3472  -3.8741  -3.1553  -3.0524  -2.7884  -2.7520  -2.6726  -2.6610
    -2.6082  -2.5850  -2.5284  -2.4223  -2.3767  -2.3424  -2.3342  -2.3153
    -2.2989  -2.2898  -2.2723  -2.2406  -2.2106  -2.2096  -2.1740  -2.1724
    -2.1545  -2.1159  -2.0837  -2.0703  -2.0567  -2.0134  -2.0061  -1.9685
    -1.7707  -1.5637  -1.5315  -1.3158  -0.1716  -0.1457  -0.0120   0.3788
     0.4619   0.5432   0.7673   0.7892   0.9841   1.0571   1.2327   1.2450
     1.2601   1.3843   1.6073   1.6286   2.1005   2.1198   2.1362   2.3321
     2.5479   2.7674   2.8646

          k =-0.0880 0.0314 0.0000 ( 34976 PWs)   bands (ev):

   -48.6600 -48.6600 -48.6458 -48.6458 -48.2362 -48.2362 -26.7276 -26.7276
   -26.7143 -26.7143 -26.6369 -26.6369 -26.6250 -26.6249 -26.5148 -26.5148
   -26.5082 -26.5082 -26.2406 -26.2406 -26.1751 -26.1751 -26.1625 -26.1624
    -4.1413  -4.1413  -3.1098  -3.1098  -2.7402  -2.7402  -2.6667  -2.6667
    -2.6117  -2.6117  -2.4803  -2.4803  -2.3585  -2.3585  -2.3181  -2.3181
    -2.3016  -2.3016  -2.2444  -2.2444  -2.2196  -2.2196  -2.1669  -2.1669
    -2.1105  -2.1105  -2.0620  -2.0620  -2.0272  -2.0271  -1.9961  -1.9961
    -1.6864  -1.6864  -1.3857  -1.3857  -0.1790  -0.1790   0.1515   0.1515
     0.5588   0.5588   0.6490   0.6490   1.0289   1.0289   1.2250   1.2250
     1.4017   1.4017   1.4736   1.4736   2.1819   2.1819   2.1858   2.1859
     2.6524   2.6524   2.9238

          k =-0.0880 0.0469 0.0000 ( 34948 PWs)   bands (ev):

   -48.6642 -48.6558 -48.6500 -48.6416 -48.2409 -48.2315 -26.7392 -26.7167
   -26.7162 -26.7110 -26.6504 -26.6289 -26.6268 -26.6191 -26.5663 -26.5594
   -26.4631 -26.4567 -26.2929 -26.1879 -26.1776 -26.1727 -26.1677 -26.1571
    -4.2284  -3.9867  -3.1263  -3.0394  -2.8187  -2.6797  -2.6688  -2.6446
    -2.6156  -2.5984  -2.5338  -2.4094  -2.3777  -2.3530  -2.3169  -2.3040
    -2.2946  -2.2866  -2.2806  -2.2417  -2.2126  -2.1989  -2.1634  -2.1595
    -2.1167  -2.0676  -2.0593  -2.0521  -2.0243  -2.0234  -1.9926  -1.9872
    -1.6971  -1.6836  -1.4479  -1.3405  -0.2940  -0.1842  -0.1109   0.2949
     0.3310   0.3964   0.7449   0.8705   0.9850   1.0634   1.1313   1.1625
     1.1960   1.4583   1.5708   1.6148   2.0024   2.0731   2.3041   2.3396
     2.6347   2.7140   2.8805

          k =-0.0880 0.0625 0.0000 ( 34934 PWs)   bands (ev):

   -48.6681 -48.6540 -48.6518 -48.6376 -48.2453 -48.2271 -26.7498 -26.7182
   -26.7099 -26.7029 -26.6642 -26.6328 -26.6233 -26.6140 -26.6097 -26.6061
   -26.4149 -26.4083 -26.3412 -26.1803 -26.1727 -26.1705 -26.1523 -26.1383
    -4.2463  -3.7722  -3.0906  -2.9391  -2.9242  -2.6519  -2.6148  -2.6052
    -2.6030  -2.5773  -2.5582  -2.3958  -2.3727  -2.3667  -2.3264  -2.2797
    -2.2722  -2.2636  -2.2584  -2.2432  -2.2076  -2.1761  -2.1497  -2.1227
    -2.1038  -2.0553  -2.0502  -2.0326  -2.0191  -1.9891  -1.9650  -1.9297
    -1.7055  -1.6945  -1.5373  -1.2936  -0.4511  -0.4152  -0.3139   0.0717
     0.1124   0.3513   0.7876   0.7986   0.9437   0.9872   1.0377   1.0774
     1.2260   1.3894   1.7047   1.7343   1.9389   2.0435   2.3269   2.3776
     2.7516   2.7748   2.7803

          k =-0.0880 0.0781 0.0000 ( 34949 PWs)   bands (ev):

   -48.6715 -48.6573 -48.6484 -48.6342 -48.2490 -48.2233 -26.7588 -26.7186
   -26.7070 -26.6929 -26.6771 -26.6554 -26.6474 -26.6365 -26.6219 -26.5995
   -26.3824 -26.3733 -26.3666 -26.1831 -26.1764 -26.1687 -26.1482 -26.0954
    -4.1976  -3.5154  -3.1021  -3.0122  -2.7855  -2.6194  -2.5937  -2.5816
    -2.5667  -2.5539  -2.5156  -2.3984  -2.3879  -2.3541  -2.3334  -2.2757
    -2.2492  -2.2380  -2.2172  -2.2152  -2.2044  -2.1573  -2.1246  -2.0876
    -2.0696  -2.0526  -2.0491  -2.0218  -2.0105  -1.9305  -1.8978  -1.8373
    -1.7249  -1.6763  -1.6457  -1.2209  -0.7475  -0.5379  -0.4963  -0.2318
    -0.1235   0.3067   0.5413   0.7169   0.8304   0.8469   0.9528   0.9578
     1.1450   1.4768   1.7307   1.8085   1.9383   2.1332   2.2592   2.4826
     2.5609   2.7411   2.9603

          k =-0.0880 0.0936 0.0000 ( 34931 PWs)   bands (ev):

   -48.6741 -48.6599 -48.6458 -48.6316 -48.2519 -48.2204 -26.7657 -26.7178
   -26.7049 -26.6884 -26.6877 -26.6837 -26.6782 -26.6395 -26.6219 -26.5922
   -26.4138 -26.3413 -26.3344 -26.1857 -26.1790 -26.1672 -26.1452 -26.0624
    -4.0886  -3.2957  -3.2503  -2.9216  -2.6520  -2.6023  -2.5823  -2.5725
    -2.5585  -2.5078  -2.4420  -2.3969  -2.3948  -2.3400  -2.3121  -2.2877
    -2.2457  -2.2052  -2.2036  -2.1838  -2.1588  -2.1347  -2.0954  -2.0882
    -2.0728  -2.0460  -2.0362  -1.9970  -1.9270  -1.8944  -1.8170  -1.7889
    -1.7856  -1.7438  -1.5418  -1.1026  -1.0183  -0.6736  -0.5841  -0.5771
    -0.2965   0.2367   0.3120   0.6100   0.6247   0.7084   0.7636   0.8812
     0.9044   1.6180   1.7257   1.8137   1.8977   2.2357   2.2957   2.3232
     2.6138   2.6881   2.7580

          k =-0.0880 0.1092 0.0000 ( 34976 PWs)   bands (ev):

   -48.6757 -48.6615 -48.6441 -48.6299 -48.2537 -48.2186 -26.7700 -26.7157
   -26.7068 -26.7035 -26.6977 -26.6970 -26.6786 -26.6416 -26.6222 -26.5877
   -26.4335 -26.3212 -26.3141 -26.1876 -26.1804 -26.1663 -26.1433 -26.0415
    -3.9291  -3.5108  -3.0358  -2.8509  -2.6062  -2.5883  -2.5825  -2.5371
    -2.5074  -2.4826  -2.4051  -2.4025  -2.3949  -2.3296  -2.2924  -2.2863
    -2.2447  -2.1903  -2.1814  -2.1569  -2.1279  -2.1041  -2.0958  -2.0644
    -2.0537  -2.0355  -2.0292  -1.9835  -1.8685  -1.8638  -1.8216  -1.8172
    -1.7854  -1.7233  -1.3633  -1.2024  -1.0191  -0.8667  -0.7924  -0.5664
    -0.4260   0.1399   0.1984   0.3941   0.4528   0.5257   0.6139   0.8353
     0.8376   1.4971   1.7579   1.7835   2.0116   2.1642   2.2434   2.3612
     2.5423   2.7196   2.7225

          k =-0.0880-0.0621 0.0000 ( 34990 PWs)   bands (ev):

   -48.6762 -48.6620 -48.6436 -48.6294 -48.2543 -48.2179 -26.7714 -26.7142
   -26.7135 -26.7043 -26.7030 -26.7008 -26.6767 -26.6423 -26.6224 -26.5862
   -26.4402 -26.3143 -26.3072 -26.1882 -26.1808 -26.1660 -26.1427 -26.0343
    -3.7560  -3.7036  -2.9490  -2.8257  -2.6074  -2.5929  -2.5887  -2.4760
    -2.4757  -2.4623  -2.4467  -2.4101  -2.3852  -2.3241  -2.2873  -2.2743
    -2.2474  -2.1812  -2.1690  -2.1441  -2.1165  -2.1104  -2.0846  -2.0385
    -2.0381  -2.0327  -2.0247  -1.9710  -1.9167  -1.8615  -1.8567  -1.8211
    -1.7008  -1.6757  -1.2765  -1.2666  -1.1514  -0.8486  -0.8242  -0.5512
    -0.4834   0.0710   0.2451   0.2589   0.2834   0.4942   0.5809   0.8145
     0.8236   1.4492   1.7277   1.7536   2.0576   2.2490   2.2698   2.3390
     2.3604   2.7608   2.7678

     the Fermi energy is     0.9524 ev

!    total energy              =   -1344.15244635 Ry
     estimated scf accuracy    <       0.00000955 Ry
     smearing contrib. (-TS)   =      -0.07323978 Ry
     internal energy E=F+TS    =   -1344.07920657 Ry

     The total energy is F=E-TS. E is the sum of the following terms:
     one-electron contribution =   -9461.29827378 Ry
     hartree contribution      =    4797.69577825 Ry
     xc contribution           =    -386.77357216 Ry
     ewald contribution        =    3706.29686105 Ry
     electric field correction =       0.00000007 Ry

     convergence has been achieved in  14 iterations

     negative rho (up, down):  3.292E-04 0.000E+00

     Forces acting on atoms (cartesian axes, Ry/au):

     atom    1 type  1   force =     0.00009843    0.00006139    0.00414280
     atom    2 type  1   force =     0.00008700    0.00006218    0.00415957
     atom    3 type  2   force =    -0.00024229   -0.00017434    0.00717886
     atom    4 type  2   force =    -0.00024424   -0.00016653    0.00718283
     atom    5 type  1   force =     0.00001139    0.00001953   -0.00333858
     atom    6 type  1   force =     0.00000605   -0.00000510   -0.00333465
     atom    7 type  2   force =     0.00004964    0.00003379   -0.01029652
     atom    8 type  2   force =     0.00005368    0.00003794   -0.01030142
     atom    9 type  1   force =     0.00010575    0.00007140    0.00168167
     atom   10 type  1   force =     0.00013949    0.00010563    0.00166514
     atom   11 type  2   force =    -0.00003189   -0.00001985    0.00062840
     atom   12 type  2   force =    -0.00003302   -0.00002604    0.00063190

     Total force =     0.019459     Total SCF correction =     0.017918
     SCF correction compared to forces is large: reduce conv_thr to get better values

     Writing output data file ./Cu2Zr2/Cu2Zr2_beef.save/

     init_run     :    111.49s CPU    112.05s WALL (       1 calls)
     electrons    :   2630.69s CPU   2642.79s WALL (       1 calls)
     forces       :     56.32s CPU     56.53s WALL (       1 calls)

     Called by init_run:
     wfcinit      :     99.79s CPU    100.11s WALL (       1 calls)
     potinit      :      7.87s CPU      7.94s WALL (       1 calls)
     hinit0       :      2.09s CPU      2.10s WALL (       1 calls)

     Called by electrons:
     c_bands      :   2322.72s CPU   2329.14s WALL (      14 calls)
     sum_band     :    278.16s CPU    280.97s WALL (      14 calls)
     v_of_rho     :     21.12s CPU     22.09s WALL (      15 calls)
     newd         :     15.52s CPU     17.46s WALL (      15 calls)
     mix_rho      :      0.56s CPU      0.57s WALL (      14 calls)
     vdW_kernel   :      5.69s CPU      5.70s WALL (       1 calls)

     Called by c_bands:
     init_us_2    :     10.86s CPU     10.90s WALL (    2220 calls)
     cegterg      :   2296.98s CPU   2302.22s WALL (    1036 calls)

     Called by *egterg:
     cdiaghg      :     89.31s CPU     89.36s WALL (    5220 calls)
     h_psi        :   1210.80s CPU   1215.63s WALL (    5294 calls)
     s_psi        :    422.10s CPU    422.18s WALL (    5294 calls)
     g_psi        :      0.93s CPU      0.94s WALL (    4184 calls)

     Called by h_psi:
     h_psi:calbec :    425.06s CPU    425.60s WALL (    5294 calls)
     vloc_psi     :    350.85s CPU    355.06s WALL (    5294 calls)
     add_vuspsi   :    430.12s CPU    430.18s WALL (    5294 calls)

     General routines
     calbec       :    647.11s CPU    647.96s WALL (    6626 calls)
     fft          :     11.89s CPU     12.25s WALL (    1004 calls)
     ffts         :      0.05s CPU      0.05s WALL (      29 calls)
     fftw         :    403.20s CPU    408.23s WALL (  507876 calls)
     interpolate  :      0.20s CPU      0.21s WALL (      15 calls)

     Parallel routines
     fft_scatt_xy :     34.36s CPU     34.74s WALL (  508909 calls)
     fft_scatt_yz :     61.70s CPU     62.66s WALL (  508909 calls)

     PWSCF        :  46m50.21s CPU  47m22.00s WALL


   This run was terminated on:  13:57:16  10Jul2022            

=------------------------------------------------------------------------------=
   JOB DONE.
=------------------------------------------------------------------------------=
