
     Program PWSCF v.6.6 starts on 28Jun2022 at  8:49:56 

     This program is part of the open-source Quantum ESPRESSO suite
     for quantum simulation of materials; please cite
         "P. Giannozzi et al., J. Phys.:Condens. Matter 21 395502 (2009);
         "P. Giannozzi et al., J. Phys.:Condens. Matter 29 465901 (2017);
          URL http://www.quantum-espresso.org", 
     in publications or presentations arising from this work. More details at
     http://www.quantum-espresso.org/quote

     Parallel version (MPI), running on    37 processors

     MPI processes distributed on     1 nodes
     R & G space division:  proc/nbgrp/npool/nimage =      37
     Fft bands division:     nmany     =       1
     Reading input from Fe2Ag2.in
Warning: card &CELL ignored
Warning: card / ignored

     Current dimensions of program PWSCF are:
     Max number of different atomic species (ntypx) = 10
     Max number of k-points (npk) =  40000
     Max angular momentum in pseudopotentials (lmaxx) =  3
     Presently stress not available with electric field and gates

     Message from routine cell_base_init:
     DEPRECATED: use true lattice parameter, not A to a.u. conversion factor
     file Fe.pbe-n-rrkjus_psl.1.0.0.UPF: wavefunction(s)  3D renormalized

     **************************************************************************
     Initializing libbeef V0.1.2 with the BEEF-vdW functional.
     Citation: Wellendorff et al., PRB 85, 235149 (2012).
     **************************************************************************


     IMPORTANT: XC functional enforced from input :
     Exchange-correlation= BEEF-VDW
                           (   1   4  43  14   2   0   0)
     Any further DFT definition will be discarded
     Please, verify this is what you really want


     Subspace diagonalization in iterative solution of the eigenvalue problem:
     a serial algorithm will be used


     Parallelization info
     --------------------
     sticks:   dense  smooth     PW     G-vecs:    dense   smooth      PW
     Min         114      46     13                26662     6752    1055
     Max         115      47     14                26689     6763    1072
     Sum        4247    1713    499               987125   249963   39309



     bravais-lattice index     =            0
     lattice parameter (alat)  =       1.8897  a.u.
     unit-cell volume          =    4518.8934 (a.u.)^3
     number of atoms/cell      =           12
     number of atomic types    =            2
     number of electrons       =       114.00
     number of Kohn-Sham states=           68
     kinetic-energy cutoff     =      55.1240  Ry
     charge density cutoff     =     551.2396  Ry
     convergence threshold     =      1.0E-05
     mixing beta               =       0.1000
     number of iterations used =           10  plain     mixing
     Exchange-correlation= BEEF-VDW
                           (   1   4  43  14   2   0   0)

     celldm(1)=   1.889726  celldm(2)=   0.000000  celldm(3)=   0.000000
     celldm(4)=   0.000000  celldm(5)=   0.000000  celldm(6)=   0.000000

     crystal axes: (cart. coord. in units of alat)
               a(1) = (   5.504435   0.000000   0.000000 )  
               a(2) = (  -2.752217   4.950221   0.000000 )  
               a(3) = (   0.000000   0.000000  24.575267 )  

     reciprocal axes: (cart. coord. in units 2 pi/alat)
               b(1) = (  0.181672  0.101006 -0.000000 )  
               b(2) = (  0.000000  0.202011  0.000000 )  
               b(3) = (  0.000000 -0.000000  0.040691 )  


     PseudoPot. # 1 for Fe read from file:
     ../pseudo/Fe.pbe-n-rrkjus_psl.1.0.0.UPF
     MD5 check sum: e37eda618788e2416bb099156d582190
     Pseudo is Ultrasoft + core correction, Zval =  8.0
     Generated using "atomic" code by A. Dal Corso v.6.5
     Using radial grid of 1191 points,  6 beta functions with: 
                l(1) =   0
                l(2) =   0
                l(3) =   1
                l(4) =   1
                l(5) =   2
                l(6) =   2
     Q(r) pseudized with 0 coefficients 


     PseudoPot. # 2 for Ag read from file:
     ../pseudo/Ag.pbe-n-rrkjus_psl.1.0.0.UPF
     MD5 check sum: d841cbfac2b0861aec33b46768a516bf
     Pseudo is Ultrasoft + core correction, Zval = 11.0
     Generated using "atomic" code by A. Dal Corso v.6.2.2
     Using radial grid of 1237 points,  6 beta functions with: 
                l(1) =   0
                l(2) =   0
                l(3) =   1
                l(4) =   1
                l(5) =   2
                l(6) =   2
     Q(r) pseudized with 0 coefficients 


     atomic species   valence    mass     pseudopotential
        Fe             8.00    55.84500     Fe( 1.00)
        Ag            11.00   107.86820     Ag( 1.00)

     Starting magnetic structure 
     atomic species   magnetization
        Fe           0.750
        Ag           0.000

     No symmetry found



   Cartesian axes

     site n.     atom                  positions (alat units)
         1           Fe  tau(   1) = (   0.0000000   0.0000000  10.0000000  )
         2           Fe  tau(   2) = (   2.7522174   0.0000000  10.0000000  )
         3           Ag  tau(   3) = (   1.3761087   2.4751104  10.0000000  )
         4           Ag  tau(   4) = (  -1.3761087   2.4751104  10.0000000  )
         5           Fe  tau(   5) = (   2.7522174   1.5301742  12.2876336  )
         6           Fe  tau(   6) = (   0.0000000   1.5301742  12.2876336  )
         7           Ag  tau(   7) = (  -1.3761087   4.0052847  12.2876336  )
         8           Ag  tau(   8) = (   1.3761087   4.0052847  12.2876336  )
         9           Fe  tau(   9) = (   0.0001035   2.8751519  14.3742521  )
        10           Fe  tau(  10) = (   2.7523222   2.8751015  14.3742135  )
        11           Ag  tau(  11) = (   4.1283073   0.4868724  14.7083508  )
        12           Ag  tau(  12) = (   1.3762755   0.4868699  14.7083502  )

     number of k points=    74  Fermi-Dirac smearing, width (Ry)=  0.0100
                       cart. coord. in units 2pi/alat
        k(    1) = (   0.0000000   0.0000000   0.0000000), wk =   0.0069444
        k(    2) = (   0.0000000   0.0168343   0.0000000), wk =   0.0138889
        k(    3) = (   0.0000000   0.0336685   0.0000000), wk =   0.0138889
        k(    4) = (   0.0000000   0.0505028   0.0000000), wk =   0.0138889
        k(    5) = (   0.0000000   0.0673371   0.0000000), wk =   0.0138889
        k(    6) = (   0.0000000   0.0841713   0.0000000), wk =   0.0138889
        k(    7) = (   0.0000000  -0.1010056   0.0000000), wk =   0.0069444
        k(    8) = (   0.0151393   0.0084171   0.0000000), wk =   0.0138889
        k(    9) = (   0.0151393   0.0252514   0.0000000), wk =   0.0138889
        k(   10) = (   0.0151393   0.0420857   0.0000000), wk =   0.0138889
        k(   11) = (   0.0151393   0.0589199   0.0000000), wk =   0.0138889
        k(   12) = (   0.0151393   0.0757542   0.0000000), wk =   0.0138889
        k(   13) = (   0.0151393   0.0925885   0.0000000), wk =   0.0138889
        k(   14) = (   0.0151393  -0.0925885   0.0000000), wk =   0.0138889
        k(   15) = (   0.0151393  -0.0757542   0.0000000), wk =   0.0138889
        k(   16) = (   0.0151393  -0.0589199   0.0000000), wk =   0.0138889
        k(   17) = (   0.0151393  -0.0420857   0.0000000), wk =   0.0138889
        k(   18) = (   0.0151393  -0.0252514   0.0000000), wk =   0.0138889
        k(   19) = (   0.0151393  -0.0084171   0.0000000), wk =   0.0138889
        k(   20) = (   0.0302786   0.0168343   0.0000000), wk =   0.0138889
        k(   21) = (   0.0302786   0.0336685   0.0000000), wk =   0.0138889
        k(   22) = (   0.0302786   0.0505028   0.0000000), wk =   0.0138889
        k(   23) = (   0.0302786   0.0673371   0.0000000), wk =   0.0138889
        k(   24) = (   0.0302786   0.0841713   0.0000000), wk =   0.0138889
        k(   25) = (   0.0302786   0.1010056   0.0000000), wk =   0.0138889
        k(   26) = (   0.0302786  -0.0841713   0.0000000), wk =   0.0138889
        k(   27) = (   0.0302786  -0.0673371   0.0000000), wk =   0.0138889
        k(   28) = (   0.0302786  -0.0505028   0.0000000), wk =   0.0138889
        k(   29) = (   0.0302786  -0.0336685   0.0000000), wk =   0.0138889
        k(   30) = (   0.0302786  -0.0168343   0.0000000), wk =   0.0138889
        k(   31) = (   0.0302786  -0.0000000   0.0000000), wk =   0.0138889
        k(   32) = (   0.0454179   0.0252514   0.0000000), wk =   0.0138889
        k(   33) = (   0.0454179   0.0420857   0.0000000), wk =   0.0138889
        k(   34) = (   0.0454179   0.0589199   0.0000000), wk =   0.0138889
        k(   35) = (   0.0454179   0.0757542   0.0000000), wk =   0.0138889
        k(   36) = (   0.0454179   0.0925885   0.0000000), wk =   0.0138889
        k(   37) = (   0.0454179   0.1094227   0.0000000), wk =   0.0138889
        k(   38) = (   0.0454179  -0.0757542   0.0000000), wk =   0.0138889
        k(   39) = (   0.0454179  -0.0589199   0.0000000), wk =   0.0138889
        k(   40) = (   0.0454179  -0.0420857   0.0000000), wk =   0.0138889
        k(   41) = (   0.0454179  -0.0252514   0.0000000), wk =   0.0138889
        k(   42) = (   0.0454179  -0.0084171   0.0000000), wk =   0.0138889
        k(   43) = (   0.0454179   0.0084171   0.0000000), wk =   0.0138889
        k(   44) = (   0.0605572   0.0336685   0.0000000), wk =   0.0138889
        k(   45) = (   0.0605572   0.0505028   0.0000000), wk =   0.0138889
        k(   46) = (   0.0605572   0.0673371   0.0000000), wk =   0.0138889
        k(   47) = (   0.0605572   0.0841713   0.0000000), wk =   0.0138889
        k(   48) = (   0.0605572   0.1010056   0.0000000), wk =   0.0138889
        k(   49) = (   0.0605572   0.1178399   0.0000000), wk =   0.0138889
        k(   50) = (   0.0605572  -0.0673371   0.0000000), wk =   0.0138889
        k(   51) = (   0.0605572  -0.0505028   0.0000000), wk =   0.0138889
        k(   52) = (   0.0605572  -0.0336685   0.0000000), wk =   0.0138889
        k(   53) = (   0.0605572  -0.0168343   0.0000000), wk =   0.0138889
        k(   54) = (   0.0605572  -0.0000000   0.0000000), wk =   0.0138889
        k(   55) = (   0.0605572   0.0168343   0.0000000), wk =   0.0138889
        k(   56) = (   0.0756965   0.0420857   0.0000000), wk =   0.0138889
        k(   57) = (   0.0756965   0.0589199   0.0000000), wk =   0.0138889
        k(   58) = (   0.0756965   0.0757542   0.0000000), wk =   0.0138889
        k(   59) = (   0.0756965   0.0925885   0.0000000), wk =   0.0138889
        k(   60) = (   0.0756965   0.1094227   0.0000000), wk =   0.0138889
        k(   61) = (   0.0756965   0.1262570   0.0000000), wk =   0.0138889
        k(   62) = (   0.0756965  -0.0589199   0.0000000), wk =   0.0138889
        k(   63) = (   0.0756965  -0.0420857   0.0000000), wk =   0.0138889
        k(   64) = (   0.0756965  -0.0252514   0.0000000), wk =   0.0138889
        k(   65) = (   0.0756965  -0.0084171   0.0000000), wk =   0.0138889
        k(   66) = (   0.0756965   0.0084171   0.0000000), wk =   0.0138889
        k(   67) = (   0.0756965   0.0252514   0.0000000), wk =   0.0138889
        k(   68) = (  -0.0908358  -0.0505028   0.0000000), wk =   0.0069444
        k(   69) = (  -0.0908358  -0.0336685   0.0000000), wk =   0.0138889
        k(   70) = (  -0.0908358  -0.0168343   0.0000000), wk =   0.0138889
        k(   71) = (  -0.0908358   0.0000000   0.0000000), wk =   0.0138889
        k(   72) = (  -0.0908358   0.0168343   0.0000000), wk =   0.0138889
        k(   73) = (  -0.0908358   0.0336685   0.0000000), wk =   0.0138889
        k(   74) = (  -0.0908358  -0.1515084   0.0000000), wk =   0.0069444

     Dense  grid:   987125 G-vectors     FFT dimensions: (  80,  80, 360)

     Smooth grid:   249963 G-vectors     FFT dimensions: (  50,  54, 225)

     Estimated max dynamical RAM per process >     249.74 MB

     Estimated total dynamical RAM >       9.02 GB
     Generating pointlists ...
     new r_m :   1.0240 (alat units)  1.9351 (a.u.) for type    1
     new r_m :   1.1315 (alat units)  2.1383 (a.u.) for type    2

     Initial potential from superposition of free atoms

     starting charge  113.99447, renormalised to  114.00000


     %%%%%%%%%%%%%%%%%%%%%%%%%%%%%%%%%%%%%%%%%%%%%%%%%%%%%%%%%%%%%%%%%%%%%%%%
     %                                                                      %
     % You are using vdW-DF, which was implemented by the Thonhauser group. %
     % Please cite the following two papers that made this development      %
     % possible and the two reviews that describe the various versions:     %
     %                                                                      %
     %   T. Thonhauser et al., PRL 115, 136402 (2015).                      %
     %   T. Thonhauser et al., PRB 76, 125112 (2007).                       %
     %   K. Berland et al., Rep. Prog. Phys. 78, 066501 (2015).             %
     %   D.C. Langreth et al., J. Phys.: Condens. Matter 21, 084203 (2009). %
     %                                                                      %
     %                                                                      %
     % If you are calculating the stress with vdW-DF, please also cite:     %
     %                                                                      %
     %   R. Sabatini et al., J. Phys.: Condens. Matter 24, 424209 (2012).   %
     %                                                                      %
     %%%%%%%%%%%%%%%%%%%%%%%%%%%%%%%%%%%%%%%%%%%%%%%%%%%%%%%%%%%%%%%%%%%%%%%%



     Adding external electric field

     Computed dipole along edir(3) : 
        Dipole               -0.0002 Ry au,         -0.0004 Debye
        Dipole field         -0.0000 Ry au, 

        Potential amp.        0.0000 Ry
        Total length         45.2795 bohr


     Adding external electric field

     Computed dipole along edir(3) : 
        Dipole               -0.0002 Ry au,         -0.0004 Debye
        Dipole field         -0.0000 Ry au, 

        Potential amp.        0.0000 Ry
        Total length         45.2795 bohr

     Starting wfcs are  108 randomized atomic wfcs

     total cpu time spent up to now is      183.6 secs

     Self-consistent Calculation

     iteration #  1     ecut=    55.12 Ry     beta= 0.10
     Davidson diagonalization with overlap
     ethr =  1.00E-02,  avg # of iterations =  2.0

     Adding external electric field

     Computed dipole along edir(3) : 
        Dipole               -0.3896 Ry au,         -0.9903 Debye
        Dipole field         -0.0011 Ry au, 

        Potential amp.        0.0981 Ry
        Total length         45.2795 bohr


     Adding external electric field

     Computed dipole along edir(3) : 
        Dipole               -0.3896 Ry au,         -0.9903 Debye
        Dipole field         -0.0011 Ry au, 

        Potential amp.        0.0981 Ry
        Total length         45.2795 bohr


     total cpu time spent up to now is      591.8 secs

     total energy              =    -884.56958167 Ry
     estimated scf accuracy    <       1.45529160 Ry

     total magnetization       =    21.05 Bohr mag/cell
     absolute magnetization    =    21.13 Bohr mag/cell

     iteration #  2     ecut=    55.12 Ry     beta= 0.10
     Davidson diagonalization with overlap
     ethr =  1.28E-03,  avg # of iterations =  5.2

     Adding external electric field

     Computed dipole along edir(3) : 
        Dipole                0.1240 Ry au,          0.3152 Debye
        Dipole field          0.0003 Ry au, 

        Potential amp.       -0.0312 Ry
        Total length         45.2795 bohr


     Adding external electric field

     Computed dipole along edir(3) : 
        Dipole                0.1240 Ry au,          0.3152 Debye
        Dipole field          0.0003 Ry au, 

        Potential amp.       -0.0312 Ry
        Total length         45.2795 bohr


     total cpu time spent up to now is      940.9 secs

     total energy              =    -885.57886672 Ry
     estimated scf accuracy    <      21.75114667 Ry

     total magnetization       =    20.82 Bohr mag/cell
     absolute magnetization    =    21.06 Bohr mag/cell

     iteration #  3     ecut=    55.12 Ry     beta= 0.10
     Davidson diagonalization with overlap
     ethr =  1.28E-03,  avg # of iterations =  1.6

     Adding external electric field

     Computed dipole along edir(3) : 
        Dipole               -0.0051 Ry au,         -0.0130 Debye
        Dipole field         -0.0000 Ry au, 

        Potential amp.        0.0013 Ry
        Total length         45.2795 bohr


     Adding external electric field

     Computed dipole along edir(3) : 
        Dipole               -0.0051 Ry au,         -0.0130 Debye
        Dipole field         -0.0000 Ry au, 

        Potential amp.        0.0013 Ry
        Total length         45.2795 bohr


     total cpu time spent up to now is     1078.8 secs

     total energy              =    -886.11568547 Ry
     estimated scf accuracy    <       3.21564828 Ry

     total magnetization       =    20.99 Bohr mag/cell
     absolute magnetization    =    21.45 Bohr mag/cell

     iteration #  4     ecut=    55.12 Ry     beta= 0.10
     Davidson diagonalization with overlap
     ethr =  1.28E-03,  avg # of iterations =  1.0

     Adding external electric field

     Computed dipole along edir(3) : 
        Dipole                0.0535 Ry au,          0.1360 Debye
        Dipole field          0.0001 Ry au, 

        Potential amp.       -0.0135 Ry
        Total length         45.2795 bohr


     Adding external electric field

     Computed dipole along edir(3) : 
        Dipole                0.0535 Ry au,          0.1360 Debye
        Dipole field          0.0001 Ry au, 

        Potential amp.       -0.0135 Ry
        Total length         45.2795 bohr


     total cpu time spent up to now is     1239.8 secs

     total energy              =    -885.63056339 Ry
     estimated scf accuracy    <       0.32734663 Ry

     total magnetization       =    21.11 Bohr mag/cell
     absolute magnetization    =    21.52 Bohr mag/cell

     iteration #  5     ecut=    55.12 Ry     beta= 0.10
     Davidson diagonalization with overlap
     ethr =  2.87E-04,  avg # of iterations =  2.2

     Adding external electric field

     Computed dipole along edir(3) : 
        Dipole                0.0219 Ry au,          0.0558 Debye
        Dipole field          0.0001 Ry au, 

        Potential amp.       -0.0055 Ry
        Total length         45.2795 bohr


     Adding external electric field

     Computed dipole along edir(3) : 
        Dipole                0.0219 Ry au,          0.0558 Debye
        Dipole field          0.0001 Ry au, 

        Potential amp.       -0.0055 Ry
        Total length         45.2795 bohr


     total cpu time spent up to now is     1385.1 secs

     total energy              =    -885.90457072 Ry
     estimated scf accuracy    <       0.20961596 Ry

     total magnetization       =    20.75 Bohr mag/cell
     absolute magnetization    =    21.19 Bohr mag/cell

     iteration #  6     ecut=    55.12 Ry     beta= 0.10
     Davidson diagonalization with overlap
     ethr =  1.84E-04,  avg # of iterations =  2.8

     Adding external electric field

     Computed dipole along edir(3) : 
        Dipole                0.0014 Ry au,          0.0037 Debye
        Dipole field          0.0000 Ry au, 

        Potential amp.       -0.0004 Ry
        Total length         45.2795 bohr


     Adding external electric field

     Computed dipole along edir(3) : 
        Dipole                0.0014 Ry au,          0.0037 Debye
        Dipole field          0.0000 Ry au, 

        Potential amp.       -0.0004 Ry
        Total length         45.2795 bohr


     total cpu time spent up to now is     1601.3 secs

     total energy              =    -887.36404298 Ry
     estimated scf accuracy    <       0.10242036 Ry

     total magnetization       =    20.05 Bohr mag/cell
     absolute magnetization    =    20.60 Bohr mag/cell

     iteration #  7     ecut=    55.12 Ry     beta= 0.10
     Davidson diagonalization with overlap
     ethr =  8.98E-05,  avg # of iterations =  3.5

     Adding external electric field

     Computed dipole along edir(3) : 
        Dipole               -0.0351 Ry au,         -0.0893 Debye
        Dipole field         -0.0001 Ry au, 

        Potential amp.        0.0088 Ry
        Total length         45.2795 bohr


     Adding external electric field

     Computed dipole along edir(3) : 
        Dipole               -0.0351 Ry au,         -0.0893 Debye
        Dipole field         -0.0001 Ry au, 

        Potential amp.        0.0088 Ry
        Total length         45.2795 bohr


     total cpu time spent up to now is     1784.2 secs

     total energy              =    -891.22180176 Ry
     estimated scf accuracy    <       0.05733276 Ry

     total magnetization       =    19.60 Bohr mag/cell
     absolute magnetization    =    20.26 Bohr mag/cell

     iteration #  8     ecut=    55.12 Ry     beta= 0.10
     Davidson diagonalization with overlap
     ethr =  5.03E-05,  avg # of iterations =  6.3

     Adding external electric field

     Computed dipole along edir(3) : 
        Dipole               -0.0271 Ry au,         -0.0690 Debye
        Dipole field         -0.0001 Ry au, 

        Potential amp.        0.0068 Ry
        Total length         45.2795 bohr


     Adding external electric field

     Computed dipole along edir(3) : 
        Dipole               -0.0271 Ry au,         -0.0690 Debye
        Dipole field         -0.0001 Ry au, 

        Potential amp.        0.0068 Ry
        Total length         45.2795 bohr


     total cpu time spent up to now is     1970.1 secs

     total energy              =    -890.93225272 Ry
     estimated scf accuracy    <       0.01902991 Ry

     total magnetization       =    18.69 Bohr mag/cell
     absolute magnetization    =    19.70 Bohr mag/cell

     iteration #  9     ecut=    55.12 Ry     beta= 0.10
     Davidson diagonalization with overlap
     ethr =  1.67E-05,  avg # of iterations =  4.2

     Adding external electric field

     Computed dipole along edir(3) : 
        Dipole                0.0022 Ry au,          0.0056 Debye
        Dipole field          0.0000 Ry au, 

        Potential amp.       -0.0006 Ry
        Total length         45.2795 bohr


     Adding external electric field

     Computed dipole along edir(3) : 
        Dipole                0.0022 Ry au,          0.0056 Debye
        Dipole field          0.0000 Ry au, 

        Potential amp.       -0.0006 Ry
        Total length         45.2795 bohr


     total cpu time spent up to now is     2163.9 secs

     total energy              =    -891.09355021 Ry
     estimated scf accuracy    <       0.01237990 Ry

     total magnetization       =    18.55 Bohr mag/cell
     absolute magnetization    =    19.63 Bohr mag/cell

     iteration # 10     ecut=    55.12 Ry     beta= 0.10
     Davidson diagonalization with overlap
     c_bands:  1 eigenvalues not converged
     ethr =  1.09E-05,  avg # of iterations =  3.9

     Adding external electric field

     Computed dipole along edir(3) : 
        Dipole               -0.0031 Ry au,         -0.0079 Debye
        Dipole field         -0.0000 Ry au, 

        Potential amp.        0.0008 Ry
        Total length         45.2795 bohr


     Adding external electric field

     Computed dipole along edir(3) : 
        Dipole               -0.0031 Ry au,         -0.0079 Debye
        Dipole field         -0.0000 Ry au, 

        Potential amp.        0.0008 Ry
        Total length         45.2795 bohr


     total cpu time spent up to now is     2364.1 secs

     total energy              =    -890.83905422 Ry
     estimated scf accuracy    <       0.00970371 Ry

     total magnetization       =    18.21 Bohr mag/cell
     absolute magnetization    =    19.45 Bohr mag/cell

     iteration # 11     ecut=    55.12 Ry     beta= 0.10
     Davidson diagonalization with overlap
     ethr =  8.51E-06,  avg # of iterations =  1.8

     Adding external electric field

     Computed dipole along edir(3) : 
        Dipole               -0.0297 Ry au,         -0.0755 Debye
        Dipole field         -0.0001 Ry au, 

        Potential amp.        0.0075 Ry
        Total length         45.2795 bohr


     Adding external electric field

     Computed dipole along edir(3) : 
        Dipole               -0.0297 Ry au,         -0.0755 Debye
        Dipole field         -0.0001 Ry au, 

        Potential amp.        0.0075 Ry
        Total length         45.2795 bohr


     total cpu time spent up to now is     2541.7 secs

     total energy              =    -890.44317482 Ry
     estimated scf accuracy    <       0.00542330 Ry

     total magnetization       =    18.10 Bohr mag/cell
     absolute magnetization    =    19.41 Bohr mag/cell

     iteration # 12     ecut=    55.12 Ry     beta= 0.10
     Davidson diagonalization with overlap
     c_bands:  1 eigenvalues not converged
     ethr =  4.76E-06,  avg # of iterations =  4.3

     Adding external electric field

     Computed dipole along edir(3) : 
        Dipole               -0.0239 Ry au,         -0.0608 Debye
        Dipole field         -0.0001 Ry au, 

        Potential amp.        0.0060 Ry
        Total length         45.2795 bohr


     Adding external electric field

     Computed dipole along edir(3) : 
        Dipole               -0.0239 Ry au,         -0.0608 Debye
        Dipole field         -0.0001 Ry au, 

        Potential amp.        0.0060 Ry
        Total length         45.2795 bohr


     total cpu time spent up to now is     2748.2 secs

     total energy              =    -889.89359765 Ry
     estimated scf accuracy    <       0.00315224 Ry

     total magnetization       =    18.09 Bohr mag/cell
     absolute magnetization    =    19.43 Bohr mag/cell

     iteration # 13     ecut=    55.12 Ry     beta= 0.10
     Davidson diagonalization with overlap
     ethr =  2.77E-06,  avg # of iterations =  1.9

     Adding external electric field

     Computed dipole along edir(3) : 
        Dipole               -0.0267 Ry au,         -0.0679 Debye
        Dipole field         -0.0001 Ry au, 

        Potential amp.        0.0067 Ry
        Total length         45.2795 bohr


     Adding external electric field

     Computed dipole along edir(3) : 
        Dipole               -0.0267 Ry au,         -0.0679 Debye
        Dipole field         -0.0001 Ry au, 

        Potential amp.        0.0067 Ry
        Total length         45.2795 bohr


     total cpu time spent up to now is     2932.9 secs

     total energy              =    -889.44640338 Ry
     estimated scf accuracy    <       0.00346479 Ry

     total magnetization       =    18.04 Bohr mag/cell
     absolute magnetization    =    19.41 Bohr mag/cell

     iteration # 14     ecut=    55.12 Ry     beta= 0.10
     Davidson diagonalization with overlap
     ethr =  2.77E-06,  avg # of iterations =  1.9

     Adding external electric field

     Computed dipole along edir(3) : 
        Dipole               -0.0203 Ry au,         -0.0515 Debye
        Dipole field         -0.0001 Ry au, 

        Potential amp.        0.0051 Ry
        Total length         45.2795 bohr


     Adding external electric field

     Computed dipole along edir(3) : 
        Dipole               -0.0203 Ry au,         -0.0515 Debye
        Dipole field         -0.0001 Ry au, 

        Potential amp.        0.0051 Ry
        Total length         45.2795 bohr


     total cpu time spent up to now is     3164.6 secs

     total energy              =    -889.02191109 Ry
     estimated scf accuracy    <       0.00107979 Ry

     total magnetization       =    17.99 Bohr mag/cell
     absolute magnetization    =    19.41 Bohr mag/cell

     iteration # 15     ecut=    55.12 Ry     beta= 0.10
     Davidson diagonalization with overlap
     c_bands:  1 eigenvalues not converged
     ethr =  9.47E-07,  avg # of iterations =  6.9

     Adding external electric field

     Computed dipole along edir(3) : 
        Dipole               -0.0187 Ry au,         -0.0474 Debye
        Dipole field         -0.0001 Ry au, 

        Potential amp.        0.0047 Ry
        Total length         45.2795 bohr


     Adding external electric field

     Computed dipole along edir(3) : 
        Dipole               -0.0187 Ry au,         -0.0474 Debye
        Dipole field         -0.0001 Ry au, 

        Potential amp.        0.0047 Ry
        Total length         45.2795 bohr


     total cpu time spent up to now is     3406.9 secs

     total energy              =    -888.55087547 Ry
     estimated scf accuracy    <       0.00039852 Ry

     total magnetization       =    17.92 Bohr mag/cell
     absolute magnetization    =    19.41 Bohr mag/cell

     iteration # 16     ecut=    55.12 Ry     beta= 0.10
     Davidson diagonalization with overlap
     ethr =  3.50E-07,  avg # of iterations =  2.3

     Adding external electric field

     Computed dipole along edir(3) : 
        Dipole               -0.0196 Ry au,         -0.0499 Debye
        Dipole field         -0.0001 Ry au, 

        Potential amp.        0.0049 Ry
        Total length         45.2795 bohr


     Adding external electric field

     Computed dipole along edir(3) : 
        Dipole               -0.0196 Ry au,         -0.0499 Debye
        Dipole field         -0.0001 Ry au, 

        Potential amp.        0.0049 Ry
        Total length         45.2795 bohr


     total cpu time spent up to now is     3594.0 secs

     total energy              =    -888.05006299 Ry
     estimated scf accuracy    <       0.00010686 Ry

     total magnetization       =    17.91 Bohr mag/cell
     absolute magnetization    =    19.42 Bohr mag/cell

     iteration # 17     ecut=    55.12 Ry     beta= 0.10
     Davidson diagonalization with overlap
     c_bands:  1 eigenvalues not converged
     ethr =  9.37E-08,  avg # of iterations =  5.7

     Adding external electric field

     Computed dipole along edir(3) : 
        Dipole               -0.0203 Ry au,         -0.0516 Debye
        Dipole field         -0.0001 Ry au, 

        Potential amp.        0.0051 Ry
        Total length         45.2795 bohr


     Adding external electric field

     Computed dipole along edir(3) : 
        Dipole               -0.0203 Ry au,         -0.0516 Debye
        Dipole field         -0.0001 Ry au, 

        Potential amp.        0.0051 Ry
        Total length         45.2795 bohr


     total cpu time spent up to now is     3860.0 secs

     total energy              =    -887.63267841 Ry
     estimated scf accuracy    <       0.00011881 Ry

     total magnetization       =    17.90 Bohr mag/cell
     absolute magnetization    =    19.43 Bohr mag/cell

     iteration # 18     ecut=    55.12 Ry     beta= 0.10
     Davidson diagonalization with overlap
     ethr =  9.37E-08,  avg # of iterations =  1.8

     Adding external electric field

     Computed dipole along edir(3) : 
        Dipole               -0.0196 Ry au,         -0.0499 Debye
        Dipole field         -0.0001 Ry au, 

        Potential amp.        0.0049 Ry
        Total length         45.2795 bohr


     Adding external electric field

     Computed dipole along edir(3) : 
        Dipole               -0.0196 Ry au,         -0.0499 Debye
        Dipole field         -0.0001 Ry au, 

        Potential amp.        0.0049 Ry
        Total length         45.2795 bohr


     total cpu time spent up to now is     4033.7 secs

     total energy              =    -887.34347958 Ry
     estimated scf accuracy    <       0.00013788 Ry

     total magnetization       =    17.89 Bohr mag/cell
     absolute magnetization    =    19.43 Bohr mag/cell

     iteration # 19     ecut=    55.12 Ry     beta= 0.10
     Davidson diagonalization with overlap
     ethr =  9.37E-08,  avg # of iterations =  2.0

     Adding external electric field

     Computed dipole along edir(3) : 
        Dipole               -0.0193 Ry au,         -0.0491 Debye
        Dipole field         -0.0001 Ry au, 

        Potential amp.        0.0049 Ry
        Total length         45.2795 bohr


     Adding external electric field

     Computed dipole along edir(3) : 
        Dipole               -0.0193 Ry au,         -0.0491 Debye
        Dipole field         -0.0001 Ry au, 

        Potential amp.        0.0049 Ry
        Total length         45.2795 bohr


     total cpu time spent up to now is     4420.8 secs

     total energy              =    -886.96031181 Ry
     estimated scf accuracy    <       0.00003516 Ry

     total magnetization       =    17.88 Bohr mag/cell
     absolute magnetization    =    19.43 Bohr mag/cell

     iteration # 20     ecut=    55.12 Ry     beta= 0.10
     Davidson diagonalization with overlap
     ethr =  3.08E-08,  avg # of iterations =  6.7

     Adding external electric field

     Computed dipole along edir(3) : 
        Dipole               -0.0200 Ry au,         -0.0508 Debye
        Dipole field         -0.0001 Ry au, 

        Potential amp.        0.0050 Ry
        Total length         45.2795 bohr


     Adding external electric field

     Computed dipole along edir(3) : 
        Dipole               -0.0200 Ry au,         -0.0508 Debye
        Dipole field         -0.0001 Ry au, 

        Potential amp.        0.0050 Ry
        Total length         45.2795 bohr


     total cpu time spent up to now is     4659.5 secs

     total energy              =    -886.69446505 Ry
     estimated scf accuracy    <       0.00002771 Ry

     total magnetization       =    17.88 Bohr mag/cell
     absolute magnetization    =    19.44 Bohr mag/cell

     iteration # 21     ecut=    55.12 Ry     beta= 0.10
     Davidson diagonalization with overlap
     ethr =  2.43E-08,  avg # of iterations =  1.8

     Adding external electric field

     Computed dipole along edir(3) : 
        Dipole               -0.0204 Ry au,         -0.0520 Debye
        Dipole field         -0.0001 Ry au, 

        Potential amp.        0.0051 Ry
        Total length         45.2795 bohr


     Adding external electric field

     Computed dipole along edir(3) : 
        Dipole               -0.0204 Ry au,         -0.0520 Debye
        Dipole field         -0.0001 Ry au, 

        Potential amp.        0.0051 Ry
        Total length         45.2795 bohr


     total cpu time spent up to now is     4841.0 secs

     total energy              =    -886.40360481 Ry
     estimated scf accuracy    <       0.00002334 Ry

     total magnetization       =    17.87 Bohr mag/cell
     absolute magnetization    =    19.44 Bohr mag/cell

     iteration # 22     ecut=    55.12 Ry     beta= 0.10
     Davidson diagonalization with overlap
     ethr =  2.05E-08,  avg # of iterations =  2.0

     Adding external electric field

     Computed dipole along edir(3) : 
        Dipole               -0.0204 Ry au,         -0.0518 Debye
        Dipole field         -0.0001 Ry au, 

        Potential amp.        0.0051 Ry
        Total length         45.2795 bohr


     Adding external electric field

     Computed dipole along edir(3) : 
        Dipole               -0.0204 Ry au,         -0.0518 Debye
        Dipole field         -0.0001 Ry au, 

        Potential amp.        0.0051 Ry
        Total length         45.2795 bohr


     total cpu time spent up to now is     5025.4 secs

     total energy              =    -886.14386838 Ry
     estimated scf accuracy    <       0.00001338 Ry

     total magnetization       =    17.87 Bohr mag/cell
     absolute magnetization    =    19.45 Bohr mag/cell

     iteration # 23     ecut=    55.12 Ry     beta= 0.10
     Davidson diagonalization with overlap
     ethr =  1.17E-08,  avg # of iterations =  5.4

     Adding external electric field

     Computed dipole along edir(3) : 
        Dipole               -0.0203 Ry au,         -0.0517 Debye
        Dipole field         -0.0001 Ry au, 

        Potential amp.        0.0051 Ry
        Total length         45.2795 bohr


     Adding external electric field

     Computed dipole along edir(3) : 
        Dipole               -0.0203 Ry au,         -0.0517 Debye
        Dipole field         -0.0001 Ry au, 

        Potential amp.        0.0051 Ry
        Total length         45.2795 bohr


     total cpu time spent up to now is     5249.9 secs

     total energy              =    -885.95012360 Ry
     estimated scf accuracy    <       0.00001046 Ry

     total magnetization       =    17.87 Bohr mag/cell
     absolute magnetization    =    19.45 Bohr mag/cell

     iteration # 24     ecut=    55.12 Ry     beta= 0.10
     Davidson diagonalization with overlap
     ethr =  9.17E-09,  avg # of iterations =  3.5

     Adding external electric field

     Computed dipole along edir(3) : 
        Dipole               -0.0195 Ry au,         -0.0496 Debye
        Dipole field         -0.0001 Ry au, 

        Potential amp.        0.0049 Ry
        Total length         45.2795 bohr


     Adding external electric field

     Computed dipole along edir(3) : 
        Dipole               -0.0195 Ry au,         -0.0496 Debye
        Dipole field         -0.0001 Ry au, 

        Potential amp.        0.0049 Ry
        Total length         45.2795 bohr


     Magnetic moment per site:
     atom:    1    charge:    6.2496    magn:    2.9956    constr:    0.0000
     atom:    2    charge:    6.2485    magn:    2.9966    constr:    0.0000
     atom:    3    charge:    9.4380    magn:    0.0221    constr:    0.0000
     atom:    4    charge:    9.4380    magn:    0.0221    constr:    0.0000
     atom:    5    charge:    6.3006    magn:    2.8916    constr:    0.0000
     atom:    6    charge:    6.2999    magn:    2.8922    constr:    0.0000
     atom:    7    charge:    9.4862    magn:    0.0158    constr:    0.0000
     atom:    8    charge:    9.4862    magn:    0.0158    constr:    0.0000
     atom:    9    charge:    6.2899    magn:    2.9299    constr:    0.0000
     atom:   10    charge:    6.2906    magn:    2.9294    constr:    0.0000
     atom:   11    charge:    9.4203    magn:    0.0165    constr:    0.0000
     atom:   12    charge:    9.4203    magn:    0.0165    constr:    0.0000

     total cpu time spent up to now is     5408.8 secs

     End of self-consistent calculation

     Number of k-points >= 100: set verbosity='high' to print the bands.

     the Fermi energy is    -0.0373 ev

!    total energy              =    -884.68295438 Ry
     estimated scf accuracy    <       0.00000695 Ry
     smearing contrib. (-TS)   =      -0.05955292 Ry
     internal energy E=F+TS    =    -884.62340146 Ry

     The total energy is F=E-TS. E is the sum of the following terms:
     one-electron contribution =   -6982.45562693 Ry
     hartree contribution      =    3577.04003042 Ry
     xc contribution           =    -331.81913368 Ry
     ewald contribution        =    2852.61132767 Ry
     electric field correction =       0.00000106 Ry

     total magnetization       =    17.86 Bohr mag/cell
     absolute magnetization    =    19.46 Bohr mag/cell

     convergence has been achieved in  24 iterations

     Forces acting on atoms (cartesian axes, Ry/au):

     atom    1 type  1   force =     0.00000248    0.01087428    0.01941375
     atom    2 type  1   force =     0.00000056    0.01082886    0.01939113
     atom    3 type  2   force =    -0.00002268   -0.01198492   -0.01949228
     atom    4 type  2   force =     0.00002013   -0.01198430   -0.01949090
     atom    5 type  1   force =     0.00000134   -0.00879417    0.00063937
     atom    6 type  1   force =    -0.00000153   -0.00865916    0.00079914
     atom    7 type  2   force =     0.00007435    0.01012375   -0.00299004
     atom    8 type  2   force =    -0.00007070    0.01012278   -0.00299010
     atom    9 type  1   force =    -0.00000359    0.00029596    0.00075327
     atom   10 type  1   force =    -0.00000138    0.00037092    0.00085453
     atom   11 type  2   force =     0.00007710   -0.00059631    0.00155510
     atom   12 type  2   force =    -0.00007610   -0.00059768    0.00155704

     Total force =     0.049182     Total SCF correction =     0.001738

     Writing output data file ./Fe2Ag2/Fe2Ag2_beef.save/

     init_run     :    175.33s CPU    176.12s WALL (       1 calls)
     electrons    :   5193.11s CPU   5226.13s WALL (       1 calls)
     forces       :     40.34s CPU     40.60s WALL (       1 calls)

     Called by init_run:
     wfcinit      :    135.79s CPU    136.37s WALL (       1 calls)
     potinit      :     30.95s CPU     31.07s WALL (       1 calls)
     hinit0       :      5.50s CPU      5.51s WALL (       1 calls)

     Called by electrons:
     c_bands      :   4542.01s CPU   4565.04s WALL (      24 calls)
     sum_band     :    588.53s CPU    594.03s WALL (      24 calls)
     v_of_rho     :     60.84s CPU     62.54s WALL (      25 calls)
     newd         :     29.57s CPU     31.53s WALL (      25 calls)
     mix_rho      :      1.38s CPU      1.43s WALL (      24 calls)
     vdW_kernel   :     13.08s CPU     13.08s WALL (       1 calls)

     Called by c_bands:
     init_us_2    :     22.70s CPU     22.83s WALL (    7400 calls)
     cegterg      :   4473.15s CPU   4494.95s WALL (    3552 calls)

     Called by *egterg:
     cdiaghg      :    167.58s CPU    167.74s WALL (   15491 calls)
     h_psi        :   2979.64s CPU   3000.53s WALL (   15639 calls)
     s_psi        :    602.49s CPU    602.78s WALL (   15639 calls)
     g_psi        :      2.16s CPU      2.18s WALL (   11939 calls)

     Called by h_psi:
     h_psi:calbec :    685.45s CPU    687.96s WALL (   15639 calls)
     vloc_psi     :   1661.72s CPU   1679.68s WALL (   15639 calls)
     add_vuspsi   :    625.83s CPU    626.24s WALL (   15639 calls)

     General routines
     calbec       :    991.70s CPU    995.45s WALL (   19783 calls)
     fft          :     38.88s CPU     39.73s WALL (    2302 calls)
     ffts         :      0.53s CPU      0.54s WALL (      98 calls)
     fftw         :   1847.71s CPU   1867.45s WALL ( 1361420 calls)
     interpolate  :      1.21s CPU      1.23s WALL (      50 calls)

     Parallel routines
     fft_scatt_xy :     89.05s CPU     90.04s WALL ( 1363820 calls)
     fft_scatt_yz :    976.25s CPU    986.87s WALL ( 1363820 calls)

     PWSCF        :      1h33m CPU      1h35m WALL


   This run was terminated on:  10:24:58  28Jun2022            

=------------------------------------------------------------------------------=
   JOB DONE.
=------------------------------------------------------------------------------=
