
     Program PWSCF v.6.6 starts on 28Jun2022 at  2:30:46 

     This program is part of the open-source Quantum ESPRESSO suite
     for quantum simulation of materials; please cite
         "P. Giannozzi et al., J. Phys.:Condens. Matter 21 395502 (2009);
         "P. Giannozzi et al., J. Phys.:Condens. Matter 29 465901 (2017);
          URL http://www.quantum-espresso.org", 
     in publications or presentations arising from this work. More details at
     http://www.quantum-espresso.org/quote

     Parallel version (MPI), running on    37 processors

     MPI processes distributed on     1 nodes
     R & G space division:  proc/nbgrp/npool/nimage =      37
     Fft bands division:     nmany     =       1
     Reading input from Fe2La2.in
Warning: card &CELL ignored
Warning: card / ignored

     Current dimensions of program PWSCF are:
     Max number of different atomic species (ntypx) = 10
     Max number of k-points (npk) =  40000
     Max angular momentum in pseudopotentials (lmaxx) =  3
     Presently stress not available with electric field and gates

     Message from routine cell_base_init:
     DEPRECATED: use true lattice parameter, not A to a.u. conversion factor
     file Fe.pbe-n-rrkjus_psl.1.0.0.UPF: wavefunction(s)  3D renormalized
     file La.pbe-spfn-rrkjus_psl.1.0.0.UPF: wavefunction(s)  4F renormalized

     **************************************************************************
     Initializing libbeef V0.1.2 with the BEEF-vdW functional.
     Citation: Wellendorff et al., PRB 85, 235149 (2012).
     **************************************************************************


     IMPORTANT: XC functional enforced from input :
     Exchange-correlation= BEEF-VDW
                           (   1   4  43  14   2   0   0)
     Any further DFT definition will be discarded
     Please, verify this is what you really want


     Subspace diagonalization in iterative solution of the eigenvalue problem:
     a serial algorithm will be used


     Parallelization info
     --------------------
     sticks:   dense  smooth     PW     G-vecs:    dense   smooth      PW
     Min         155      62     17                36791     9306    1373
     Max         156      63     19                36810     9319    1378
     Sum        5759    2301    645              1361613   344449   50875



     bravais-lattice index     =            0
     lattice parameter (alat)  =       1.8897  a.u.
     unit-cell volume          =    6231.8350 (a.u.)^3
     number of atoms/cell      =           12
     number of atomic types    =            2
     number of electrons       =       114.00
     number of Kohn-Sham states=           68
     kinetic-energy cutoff     =      55.1240  Ry
     charge density cutoff     =     551.2396  Ry
     convergence threshold     =      1.0E-05
     mixing beta               =       0.1000
     number of iterations used =           10  plain     mixing
     Exchange-correlation= BEEF-VDW
                           (   1   4  43  14   2   0   0)

     celldm(1)=   1.889726  celldm(2)=   0.000000  celldm(3)=   0.000000
     celldm(4)=   0.000000  celldm(5)=   0.000000  celldm(6)=   0.000000

     crystal axes: (cart. coord. in units of alat)
               a(1) = (   6.247670   0.000000   0.000000 )  
               a(2) = (   2.089026   5.888068   0.000000 )  
               a(3) = (   0.000000   0.000000  25.103168 )  

     reciprocal axes: (cart. coord. in units 2 pi/alat)
               b(1) = (  0.160060 -0.056788  0.000000 )  
               b(2) = (  0.000000  0.169835  0.000000 )  
               b(3) = (  0.000000  0.000000  0.039836 )  


     PseudoPot. # 1 for Fe read from file:
     ../pseudo/Fe.pbe-n-rrkjus_psl.1.0.0.UPF
     MD5 check sum: e37eda618788e2416bb099156d582190
     Pseudo is Ultrasoft + core correction, Zval =  8.0
     Generated using "atomic" code by A. Dal Corso v.6.5
     Using radial grid of 1191 points,  6 beta functions with: 
                l(1) =   0
                l(2) =   0
                l(3) =   1
                l(4) =   1
                l(5) =   2
                l(6) =   2
     Q(r) pseudized with 0 coefficients 


     PseudoPot. # 2 for La read from file:
     ../pseudo/La.pbe-spfn-rrkjus_psl.1.0.0.UPF
     MD5 check sum: e3bc141c2ecb461b8d0a035ce9ac970e
     Pseudo is Ultrasoft + core correction, Zval = 11.0
     Generated using "atomic" code by A. Dal Corso v.6.2.2
     Using radial grid of 1253 points,  8 beta functions with: 
                l(1) =   0
                l(2) =   0
                l(3) =   1
                l(4) =   1
                l(5) =   2
                l(6) =   2
                l(7) =   3
                l(8) =   3
     Q(r) pseudized with 0 coefficients 


     atomic species   valence    mass     pseudopotential
        Fe             8.00    55.84500     Fe( 1.00)
        La            11.00   138.90547     La( 1.00)

     Starting magnetic structure 
     atomic species   magnetization
        Fe           0.750
        La           0.000

     No symmetry found



   Cartesian axes

     site n.     atom                  positions (alat units)
         1           Fe  tau(   1) = (   0.0000000   0.0000000  10.0000000  )
         2           Fe  tau(   2) = (   4.1683480   2.9440339  10.0000000  )
         3           La  tau(   3) = (   3.1238348   0.0000000  10.0000000  )
         4           La  tau(   4) = (   1.0445132   2.9440339  10.0000000  )
         5           Fe  tau(   5) = (   6.2476695   4.4126237  12.5515838  )
         6           Fe  tau(   6) = (   2.0793215   1.4685897  12.5515838  )
         7           La  tau(   7) = (   3.1238348   4.4126237  12.5515838  )
         8           La  tau(   8) = (   5.2031563   1.4685897  12.5515838  )
         9           Fe  tau(   9) = (   4.1585223   2.9371349  14.7298191  )
        10           Fe  tau(  10) = (   8.3226112   5.8780735  14.7296614  )
        11           La  tau(  11) = (   7.2856021   2.9388768  15.1567511  )
        12           La  tau(  12) = (   5.2058219   5.8836013  15.1567422  )

     number of k points=    74  Fermi-Dirac smearing, width (Ry)=  0.0100
                       cart. coord. in units 2pi/alat
        k(    1) = (   0.0000000   0.0000000   0.0000000), wk =   0.0069444
        k(    2) = (   0.0000000   0.0141529   0.0000000), wk =   0.0138889
        k(    3) = (   0.0000000   0.0283058   0.0000000), wk =   0.0138889
        k(    4) = (   0.0000000   0.0424587   0.0000000), wk =   0.0138889
        k(    5) = (   0.0000000   0.0566117   0.0000000), wk =   0.0138889
        k(    6) = (   0.0000000   0.0707646   0.0000000), wk =   0.0138889
        k(    7) = (   0.0000000  -0.0849175   0.0000000), wk =   0.0069444
        k(    8) = (   0.0133383  -0.0047323   0.0000000), wk =   0.0138889
        k(    9) = (   0.0133383   0.0094206   0.0000000), wk =   0.0138889
        k(   10) = (   0.0133383   0.0235735   0.0000000), wk =   0.0138889
        k(   11) = (   0.0133383   0.0377265   0.0000000), wk =   0.0138889
        k(   12) = (   0.0133383   0.0518794   0.0000000), wk =   0.0138889
        k(   13) = (   0.0133383   0.0660323   0.0000000), wk =   0.0138889
        k(   14) = (   0.0133383  -0.0896498   0.0000000), wk =   0.0138889
        k(   15) = (   0.0133383  -0.0754969   0.0000000), wk =   0.0138889
        k(   16) = (   0.0133383  -0.0613440   0.0000000), wk =   0.0138889
        k(   17) = (   0.0133383  -0.0471910   0.0000000), wk =   0.0138889
        k(   18) = (   0.0133383  -0.0330381   0.0000000), wk =   0.0138889
        k(   19) = (   0.0133383  -0.0188852   0.0000000), wk =   0.0138889
        k(   20) = (   0.0266766  -0.0094646   0.0000000), wk =   0.0138889
        k(   21) = (   0.0266766   0.0046883   0.0000000), wk =   0.0138889
        k(   22) = (   0.0266766   0.0188412   0.0000000), wk =   0.0138889
        k(   23) = (   0.0266766   0.0329942   0.0000000), wk =   0.0138889
        k(   24) = (   0.0266766   0.0471471   0.0000000), wk =   0.0138889
        k(   25) = (   0.0266766   0.0613000   0.0000000), wk =   0.0138889
        k(   26) = (   0.0266766  -0.0943821   0.0000000), wk =   0.0138889
        k(   27) = (   0.0266766  -0.0802292   0.0000000), wk =   0.0138889
        k(   28) = (   0.0266766  -0.0660763   0.0000000), wk =   0.0138889
        k(   29) = (   0.0266766  -0.0519233   0.0000000), wk =   0.0138889
        k(   30) = (   0.0266766  -0.0377704   0.0000000), wk =   0.0138889
        k(   31) = (   0.0266766  -0.0236175   0.0000000), wk =   0.0138889
        k(   32) = (   0.0400149  -0.0141969   0.0000000), wk =   0.0138889
        k(   33) = (   0.0400149  -0.0000440   0.0000000), wk =   0.0138889
        k(   34) = (   0.0400149   0.0141090   0.0000000), wk =   0.0138889
        k(   35) = (   0.0400149   0.0282619   0.0000000), wk =   0.0138889
        k(   36) = (   0.0400149   0.0424148   0.0000000), wk =   0.0138889
        k(   37) = (   0.0400149   0.0565677   0.0000000), wk =   0.0138889
        k(   38) = (   0.0400149  -0.0991144   0.0000000), wk =   0.0138889
        k(   39) = (   0.0400149  -0.0849615   0.0000000), wk =   0.0138889
        k(   40) = (   0.0400149  -0.0708085   0.0000000), wk =   0.0138889
        k(   41) = (   0.0400149  -0.0566556   0.0000000), wk =   0.0138889
        k(   42) = (   0.0400149  -0.0425027   0.0000000), wk =   0.0138889
        k(   43) = (   0.0400149  -0.0283498   0.0000000), wk =   0.0138889
        k(   44) = (   0.0533532  -0.0189292   0.0000000), wk =   0.0138889
        k(   45) = (   0.0533532  -0.0047763   0.0000000), wk =   0.0138889
        k(   46) = (   0.0533532   0.0093767   0.0000000), wk =   0.0138889
        k(   47) = (   0.0533532   0.0235296   0.0000000), wk =   0.0138889
        k(   48) = (   0.0533532   0.0376825   0.0000000), wk =   0.0138889
        k(   49) = (   0.0533532   0.0518354   0.0000000), wk =   0.0138889
        k(   50) = (   0.0533532  -0.1038467   0.0000000), wk =   0.0138889
        k(   51) = (   0.0533532  -0.0896938   0.0000000), wk =   0.0138889
        k(   52) = (   0.0533532  -0.0755408   0.0000000), wk =   0.0138889
        k(   53) = (   0.0533532  -0.0613879   0.0000000), wk =   0.0138889
        k(   54) = (   0.0533532  -0.0472350   0.0000000), wk =   0.0138889
        k(   55) = (   0.0533532  -0.0330821   0.0000000), wk =   0.0138889
        k(   56) = (   0.0666915  -0.0236615   0.0000000), wk =   0.0138889
        k(   57) = (   0.0666915  -0.0095086   0.0000000), wk =   0.0138889
        k(   58) = (   0.0666915   0.0046444   0.0000000), wk =   0.0138889
        k(   59) = (   0.0666915   0.0187973   0.0000000), wk =   0.0138889
        k(   60) = (   0.0666915   0.0329502   0.0000000), wk =   0.0138889
        k(   61) = (   0.0666915   0.0471031   0.0000000), wk =   0.0138889
        k(   62) = (   0.0666915  -0.1085790   0.0000000), wk =   0.0138889
        k(   63) = (   0.0666915  -0.0944261   0.0000000), wk =   0.0138889
        k(   64) = (   0.0666915  -0.0802731   0.0000000), wk =   0.0138889
        k(   65) = (   0.0666915  -0.0661202   0.0000000), wk =   0.0138889
        k(   66) = (   0.0666915  -0.0519673   0.0000000), wk =   0.0138889
        k(   67) = (   0.0666915  -0.0378144   0.0000000), wk =   0.0138889
        k(   68) = (  -0.0800298   0.0283938   0.0000000), wk =   0.0069444
        k(   69) = (  -0.0800298   0.0425467   0.0000000), wk =   0.0138889
        k(   70) = (  -0.0800298   0.0566996   0.0000000), wk =   0.0138889
        k(   71) = (  -0.0800298   0.0708525   0.0000000), wk =   0.0138889
        k(   72) = (  -0.0800298   0.0850054   0.0000000), wk =   0.0138889
        k(   73) = (  -0.0800298   0.0991583   0.0000000), wk =   0.0138889
        k(   74) = (  -0.0800298  -0.0565237   0.0000000), wk =   0.0069444

     Dense  grid:  1361613 G-vectors     FFT dimensions: (  90,  90, 360)

     Smooth grid:   344449 G-vectors     FFT dimensions: (  60,  60, 225)

     Estimated max dynamical RAM per process >     556.18 MB

     Estimated total dynamical RAM >      20.10 GB
     Generating pointlists ...
     new r_m :   1.1661 (alat units)  2.2037 (a.u.) for type    1
     new r_m :   1.1661 (alat units)  2.2037 (a.u.) for type    2

     Initial potential from superposition of free atoms

     starting charge  113.81813, renormalised to  114.00000


     %%%%%%%%%%%%%%%%%%%%%%%%%%%%%%%%%%%%%%%%%%%%%%%%%%%%%%%%%%%%%%%%%%%%%%%%
     %                                                                      %
     % You are using vdW-DF, which was implemented by the Thonhauser group. %
     % Please cite the following two papers that made this development      %
     % possible and the two reviews that describe the various versions:     %
     %                                                                      %
     %   T. Thonhauser et al., PRL 115, 136402 (2015).                      %
     %   T. Thonhauser et al., PRB 76, 125112 (2007).                       %
     %   K. Berland et al., Rep. Prog. Phys. 78, 066501 (2015).             %
     %   D.C. Langreth et al., J. Phys.: Condens. Matter 21, 084203 (2009). %
     %                                                                      %
     %                                                                      %
     % If you are calculating the stress with vdW-DF, please also cite:     %
     %                                                                      %
     %   R. Sabatini et al., J. Phys.: Condens. Matter 24, 424209 (2012).   %
     %                                                                      %
     %%%%%%%%%%%%%%%%%%%%%%%%%%%%%%%%%%%%%%%%%%%%%%%%%%%%%%%%%%%%%%%%%%%%%%%%



     Adding external electric field

     Computed dipole along edir(3) : 
        Dipole                0.0198 Ry au,          0.0503 Debye
        Dipole field          0.0000 Ry au, 

        Potential amp.       -0.0037 Ry
        Total length         46.2522 bohr


     Adding external electric field

     Computed dipole along edir(3) : 
        Dipole                0.0198 Ry au,          0.0503 Debye
        Dipole field          0.0000 Ry au, 

        Potential amp.       -0.0037 Ry
        Total length         46.2522 bohr

     Starting wfcs are  174 randomized atomic wfcs

     total cpu time spent up to now is      530.4 secs

     Self-consistent Calculation

     iteration #  1     ecut=    55.12 Ry     beta= 0.10
     Davidson diagonalization with overlap
     ethr =  1.00E-02,  avg # of iterations =  2.0

     Adding external electric field

     Computed dipole along edir(3) : 
        Dipole               -1.1219 Ry au,         -2.8517 Debye
        Dipole field         -0.0023 Ry au, 

        Potential amp.        0.2093 Ry
        Total length         46.2522 bohr


     Adding external electric field

     Computed dipole along edir(3) : 
        Dipole               -1.1219 Ry au,         -2.8517 Debye
        Dipole field         -0.0023 Ry au, 

        Potential amp.        0.2093 Ry
        Total length         46.2522 bohr


     total cpu time spent up to now is      994.5 secs

     total energy              =   -1137.37104566 Ry
     estimated scf accuracy    <      10.25680311 Ry

     total magnetization       =    20.38 Bohr mag/cell
     absolute magnetization    =    22.26 Bohr mag/cell

     iteration #  2     ecut=    55.12 Ry     beta= 0.10
     Davidson diagonalization with overlap
     ethr =  9.00E-03,  avg # of iterations =  3.4

     Adding external electric field

     Computed dipole along edir(3) : 
        Dipole                0.5971 Ry au,          1.5176 Debye
        Dipole field          0.0012 Ry au, 

        Potential amp.       -0.1114 Ry
        Total length         46.2522 bohr


     Adding external electric field

     Computed dipole along edir(3) : 
        Dipole                0.5971 Ry au,          1.5176 Debye
        Dipole field          0.0012 Ry au, 

        Potential amp.       -0.1114 Ry
        Total length         46.2522 bohr


     total cpu time spent up to now is     1490.4 secs

     total energy              =   -1138.88485735 Ry
     estimated scf accuracy    <      40.09299414 Ry

     total magnetization       =    18.20 Bohr mag/cell
     absolute magnetization    =    22.54 Bohr mag/cell

     iteration #  3     ecut=    55.12 Ry     beta= 0.10
     Davidson diagonalization with overlap
     ethr =  9.00E-03,  avg # of iterations =  1.7

     Adding external electric field

     Computed dipole along edir(3) : 
        Dipole                0.1170 Ry au,          0.2974 Debye
        Dipole field          0.0002 Ry au, 

        Potential amp.       -0.0218 Ry
        Total length         46.2522 bohr


     Adding external electric field

     Computed dipole along edir(3) : 
        Dipole                0.1170 Ry au,          0.2974 Debye
        Dipole field          0.0002 Ry au, 

        Potential amp.       -0.0218 Ry
        Total length         46.2522 bohr


     total cpu time spent up to now is     1924.7 secs

     total energy              =   -1139.35279136 Ry
     estimated scf accuracy    <      11.15795076 Ry

     total magnetization       =    17.60 Bohr mag/cell
     absolute magnetization    =    21.66 Bohr mag/cell

     iteration #  4     ecut=    55.12 Ry     beta= 0.10
     Davidson diagonalization with overlap
     ethr =  9.00E-03,  avg # of iterations =  1.0

     Adding external electric field

     Computed dipole along edir(3) : 
        Dipole                0.2808 Ry au,          0.7137 Debye
        Dipole field          0.0006 Ry au, 

        Potential amp.       -0.0524 Ry
        Total length         46.2522 bohr


     Adding external electric field

     Computed dipole along edir(3) : 
        Dipole                0.2808 Ry au,          0.7137 Debye
        Dipole field          0.0006 Ry au, 

        Potential amp.       -0.0524 Ry
        Total length         46.2522 bohr


     total cpu time spent up to now is     2330.6 secs

     total energy              =   -1139.49091840 Ry
     estimated scf accuracy    <       1.77653953 Ry

     total magnetization       =    18.32 Bohr mag/cell
     absolute magnetization    =    22.21 Bohr mag/cell

     iteration #  5     ecut=    55.12 Ry     beta= 0.10
     Davidson diagonalization with overlap
     ethr =  1.56E-03,  avg # of iterations =  2.8

     Adding external electric field

     Computed dipole along edir(3) : 
        Dipole                0.0628 Ry au,          0.1596 Debye
        Dipole field          0.0001 Ry au, 

        Potential amp.       -0.0117 Ry
        Total length         46.2522 bohr


     Adding external electric field

     Computed dipole along edir(3) : 
        Dipole                0.0628 Ry au,          0.1596 Debye
        Dipole field          0.0001 Ry au, 

        Potential amp.       -0.0117 Ry
        Total length         46.2522 bohr


     total cpu time spent up to now is     2811.9 secs

     total energy              =   -1138.93601463 Ry
     estimated scf accuracy    <       3.25666486 Ry

     total magnetization       =    17.63 Bohr mag/cell
     absolute magnetization    =    21.92 Bohr mag/cell

     iteration #  6     ecut=    55.12 Ry     beta= 0.10
     Davidson diagonalization with overlap
     ethr =  1.56E-03,  avg # of iterations =  2.4

     Adding external electric field

     Computed dipole along edir(3) : 
        Dipole                0.1953 Ry au,          0.4965 Debye
        Dipole field          0.0004 Ry au, 

        Potential amp.       -0.0364 Ry
        Total length         46.2522 bohr


     Adding external electric field

     Computed dipole along edir(3) : 
        Dipole                0.1953 Ry au,          0.4965 Debye
        Dipole field          0.0004 Ry au, 

        Potential amp.       -0.0364 Ry
        Total length         46.2522 bohr


     total cpu time spent up to now is     3262.6 secs

     total energy              =   -1139.20399830 Ry
     estimated scf accuracy    <       3.25123245 Ry

     total magnetization       =    16.82 Bohr mag/cell
     absolute magnetization    =    21.41 Bohr mag/cell

     iteration #  7     ecut=    55.12 Ry     beta= 0.10
     Davidson diagonalization with overlap
     ethr =  1.56E-03,  avg # of iterations =  1.3

     Adding external electric field

     Computed dipole along edir(3) : 
        Dipole                0.2019 Ry au,          0.5131 Debye
        Dipole field          0.0004 Ry au, 

        Potential amp.       -0.0377 Ry
        Total length         46.2522 bohr


     Adding external electric field

     Computed dipole along edir(3) : 
        Dipole                0.2019 Ry au,          0.5131 Debye
        Dipole field          0.0004 Ry au, 

        Potential amp.       -0.0377 Ry
        Total length         46.2522 bohr


     total cpu time spent up to now is     3672.0 secs

     total energy              =   -1140.74079926 Ry
     estimated scf accuracy    <       0.95374468 Ry

     total magnetization       =    16.37 Bohr mag/cell
     absolute magnetization    =    21.38 Bohr mag/cell

     iteration #  8     ecut=    55.12 Ry     beta= 0.10
     Davidson diagonalization with overlap
     ethr =  8.37E-04,  avg # of iterations =  2.1

     Adding external electric field

     Computed dipole along edir(3) : 
        Dipole                0.3061 Ry au,          0.7780 Debye
        Dipole field          0.0006 Ry au, 

        Potential amp.       -0.0571 Ry
        Total length         46.2522 bohr


     Adding external electric field

     Computed dipole along edir(3) : 
        Dipole                0.3061 Ry au,          0.7780 Debye
        Dipole field          0.0006 Ry au, 

        Potential amp.       -0.0571 Ry
        Total length         46.2522 bohr


     total cpu time spent up to now is     4085.5 secs

     total energy              =   -1142.09555416 Ry
     estimated scf accuracy    <       1.51034128 Ry

     total magnetization       =    14.90 Bohr mag/cell
     absolute magnetization    =    20.68 Bohr mag/cell

     iteration #  9     ecut=    55.12 Ry     beta= 0.10
     Davidson diagonalization with overlap
     ethr =  8.37E-04,  avg # of iterations =  1.8

     Adding external electric field

     Computed dipole along edir(3) : 
        Dipole                0.2725 Ry au,          0.6925 Debye
        Dipole field          0.0005 Ry au, 

        Potential amp.       -0.0508 Ry
        Total length         46.2522 bohr


     Adding external electric field

     Computed dipole along edir(3) : 
        Dipole                0.2725 Ry au,          0.6925 Debye
        Dipole field          0.0005 Ry au, 

        Potential amp.       -0.0508 Ry
        Total length         46.2522 bohr


     total cpu time spent up to now is     4400.2 secs

     total energy              =   -1142.40717622 Ry
     estimated scf accuracy    <       1.52436869 Ry

     total magnetization       =    14.12 Bohr mag/cell
     absolute magnetization    =    20.67 Bohr mag/cell

     iteration # 10     ecut=    55.12 Ry     beta= 0.10
     Davidson diagonalization with overlap
     ethr =  8.37E-04,  avg # of iterations =  1.7

     Adding external electric field

     Computed dipole along edir(3) : 
        Dipole                0.2362 Ry au,          0.6004 Debye
        Dipole field          0.0005 Ry au, 

        Potential amp.       -0.0441 Ry
        Total length         46.2522 bohr


     Adding external electric field

     Computed dipole along edir(3) : 
        Dipole                0.2362 Ry au,          0.6004 Debye
        Dipole field          0.0005 Ry au, 

        Potential amp.       -0.0441 Ry
        Total length         46.2522 bohr


     total cpu time spent up to now is     4753.0 secs

     total energy              =   -1142.03572837 Ry
     estimated scf accuracy    <       0.09547540 Ry

     total magnetization       =    13.60 Bohr mag/cell
     absolute magnetization    =    20.68 Bohr mag/cell

     iteration # 11     ecut=    55.12 Ry     beta= 0.10
     Davidson diagonalization with overlap
     c_bands:  2 eigenvalues not converged
     c_bands:  1 eigenvalues not converged
     c_bands:  1 eigenvalues not converged
     ethr =  8.38E-05,  avg # of iterations = 12.6

     Adding external electric field

     Computed dipole along edir(3) : 
        Dipole                0.3868 Ry au,          0.9830 Debye
        Dipole field          0.0008 Ry au, 

        Potential amp.       -0.0721 Ry
        Total length         46.2522 bohr


     Adding external electric field

     Computed dipole along edir(3) : 
        Dipole                0.3868 Ry au,          0.9830 Debye
        Dipole field          0.0008 Ry au, 

        Potential amp.       -0.0721 Ry
        Total length         46.2522 bohr


     total cpu time spent up to now is     5647.2 secs

     total energy              =   -1144.78993483 Ry
     estimated scf accuracy    <       0.98598140 Ry

     total magnetization       =    13.69 Bohr mag/cell
     absolute magnetization    =    20.72 Bohr mag/cell

     iteration # 12     ecut=    55.12 Ry     beta= 0.10
     Davidson diagonalization with overlap
     c_bands:  1 eigenvalues not converged
     ethr =  8.38E-05,  avg # of iterations =  9.3

     Adding external electric field

     Computed dipole along edir(3) : 
        Dipole                0.2244 Ry au,          0.5705 Debye
        Dipole field          0.0005 Ry au, 

        Potential amp.       -0.0419 Ry
        Total length         46.2522 bohr


     Adding external electric field

     Computed dipole along edir(3) : 
        Dipole                0.2244 Ry au,          0.5705 Debye
        Dipole field          0.0005 Ry au, 

        Potential amp.       -0.0419 Ry
        Total length         46.2522 bohr


     total cpu time spent up to now is     6310.3 secs

     total energy              =   -1143.31507991 Ry
     estimated scf accuracy    <       2.52947807 Ry

     total magnetization       =    14.25 Bohr mag/cell
     absolute magnetization    =    21.30 Bohr mag/cell

     iteration # 13     ecut=    55.12 Ry     beta= 0.10
     Davidson diagonalization with overlap
     ethr =  8.38E-05,  avg # of iterations =  8.0

     Adding external electric field

     Computed dipole along edir(3) : 
        Dipole                0.2980 Ry au,          0.7574 Debye
        Dipole field          0.0006 Ry au, 

        Potential amp.       -0.0556 Ry
        Total length         46.2522 bohr


     Adding external electric field

     Computed dipole along edir(3) : 
        Dipole                0.2980 Ry au,          0.7574 Debye
        Dipole field          0.0006 Ry au, 

        Potential amp.       -0.0556 Ry
        Total length         46.2522 bohr


     total cpu time spent up to now is     6973.3 secs

     total energy              =   -1151.71263111 Ry
     estimated scf accuracy    <       0.56806139 Ry

     total magnetization       =    12.99 Bohr mag/cell
     absolute magnetization    =    20.40 Bohr mag/cell

     iteration # 14     ecut=    55.12 Ry     beta= 0.10
     Davidson diagonalization with overlap
     ethr =  8.38E-05,  avg # of iterations =  2.5

     Adding external electric field

     Computed dipole along edir(3) : 
        Dipole                0.2893 Ry au,          0.7354 Debye
        Dipole field          0.0006 Ry au, 

        Potential amp.       -0.0540 Ry
        Total length         46.2522 bohr


     Adding external electric field

     Computed dipole along edir(3) : 
        Dipole                0.2893 Ry au,          0.7354 Debye
        Dipole field          0.0006 Ry au, 

        Potential amp.       -0.0540 Ry
        Total length         46.2522 bohr


     total cpu time spent up to now is     7410.4 secs

     total energy              =   -1154.31852285 Ry
     estimated scf accuracy    <       0.22058570 Ry

     total magnetization       =    12.31 Bohr mag/cell
     absolute magnetization    =    20.50 Bohr mag/cell

     iteration # 15     ecut=    55.12 Ry     beta= 0.10
     Davidson diagonalization with overlap
     ethr =  8.38E-05,  avg # of iterations =  1.5

     Adding external electric field

     Computed dipole along edir(3) : 
        Dipole                0.2888 Ry au,          0.7340 Debye
        Dipole field          0.0006 Ry au, 

        Potential amp.       -0.0539 Ry
        Total length         46.2522 bohr


     Adding external electric field

     Computed dipole along edir(3) : 
        Dipole                0.2888 Ry au,          0.7340 Debye
        Dipole field          0.0006 Ry au, 

        Potential amp.       -0.0539 Ry
        Total length         46.2522 bohr


     total cpu time spent up to now is     7848.7 secs

     total energy              =   -1153.38179755 Ry
     estimated scf accuracy    <       0.13464825 Ry

     total magnetization       =    11.44 Bohr mag/cell
     absolute magnetization    =    20.31 Bohr mag/cell

     iteration # 16     ecut=    55.12 Ry     beta= 0.10
     Davidson diagonalization with overlap
     ethr =  8.38E-05,  avg # of iterations =  1.0

     Adding external electric field

     Computed dipole along edir(3) : 
        Dipole                0.2748 Ry au,          0.6984 Debye
        Dipole field          0.0006 Ry au, 

        Potential amp.       -0.0513 Ry
        Total length         46.2522 bohr


     Adding external electric field

     Computed dipole along edir(3) : 
        Dipole                0.2748 Ry au,          0.6984 Debye
        Dipole field          0.0006 Ry au, 

        Potential amp.       -0.0513 Ry
        Total length         46.2522 bohr


     total cpu time spent up to now is     8254.4 secs

     total energy              =   -1152.89844130 Ry
     estimated scf accuracy    <       0.06813139 Ry

     total magnetization       =    11.41 Bohr mag/cell
     absolute magnetization    =    20.21 Bohr mag/cell

     iteration # 17     ecut=    55.12 Ry     beta= 0.10
     Davidson diagonalization with overlap
     ethr =  5.98E-05,  avg # of iterations =  1.8

     Adding external electric field

     Computed dipole along edir(3) : 
        Dipole                0.2548 Ry au,          0.6477 Debye
        Dipole field          0.0005 Ry au, 

        Potential amp.       -0.0475 Ry
        Total length         46.2522 bohr


     Adding external electric field

     Computed dipole along edir(3) : 
        Dipole                0.2548 Ry au,          0.6477 Debye
        Dipole field          0.0005 Ry au, 

        Potential amp.       -0.0475 Ry
        Total length         46.2522 bohr


     total cpu time spent up to now is     8703.8 secs

     total energy              =   -1152.61588828 Ry
     estimated scf accuracy    <       0.02613738 Ry

     total magnetization       =    11.28 Bohr mag/cell
     absolute magnetization    =    20.08 Bohr mag/cell

     iteration # 18     ecut=    55.12 Ry     beta= 0.10
     Davidson diagonalization with overlap
     c_bands:  3 eigenvalues not converged
     c_bands:  1 eigenvalues not converged
     c_bands:  1 eigenvalues not converged
     ethr =  2.29E-05,  avg # of iterations =  3.8

     Adding external electric field

     Computed dipole along edir(3) : 
        Dipole                0.2442 Ry au,          0.6207 Debye
        Dipole field          0.0005 Ry au, 

        Potential amp.       -0.0456 Ry
        Total length         46.2522 bohr


     Adding external electric field

     Computed dipole along edir(3) : 
        Dipole                0.2442 Ry au,          0.6207 Debye
        Dipole field          0.0005 Ry au, 

        Potential amp.       -0.0456 Ry
        Total length         46.2522 bohr


     total cpu time spent up to now is     9173.5 secs

     total energy              =   -1152.58719060 Ry
     estimated scf accuracy    <       0.01871378 Ry

     total magnetization       =    11.24 Bohr mag/cell
     absolute magnetization    =    20.06 Bohr mag/cell

     iteration # 19     ecut=    55.12 Ry     beta= 0.10
     Davidson diagonalization with overlap
     c_bands:  1 eigenvalues not converged
     c_bands:  2 eigenvalues not converged
     c_bands:  1 eigenvalues not converged
     ethr =  1.64E-05,  avg # of iterations =  6.2

     Adding external electric field

     Computed dipole along edir(3) : 
        Dipole                0.1504 Ry au,          0.3823 Debye
        Dipole field          0.0003 Ry au, 

        Potential amp.       -0.0281 Ry
        Total length         46.2522 bohr


     Adding external electric field

     Computed dipole along edir(3) : 
        Dipole                0.1504 Ry au,          0.3823 Debye
        Dipole field          0.0003 Ry au, 

        Potential amp.       -0.0281 Ry
        Total length         46.2522 bohr


     total cpu time spent up to now is     9666.8 secs

     total energy              =   -1147.99378026 Ry
     estimated scf accuracy    <       0.01678010 Ry

     total magnetization       =    11.10 Bohr mag/cell
     absolute magnetization    =    20.02 Bohr mag/cell

     iteration # 20     ecut=    55.12 Ry     beta= 0.10
     Davidson diagonalization with overlap
     c_bands:  1 eigenvalues not converged
     c_bands:  1 eigenvalues not converged
     c_bands:  1 eigenvalues not converged
     c_bands:  1 eigenvalues not converged
     c_bands:  1 eigenvalues not converged
     c_bands:  2 eigenvalues not converged
     c_bands:  1 eigenvalues not converged
     c_bands:  1 eigenvalues not converged
     c_bands:  1 eigenvalues not converged
     c_bands:  2 eigenvalues not converged
     c_bands:  1 eigenvalues not converged
     c_bands:  1 eigenvalues not converged
     ethr =  1.47E-05,  avg # of iterations =  9.7

     Adding external electric field

     Computed dipole along edir(3) : 
        Dipole                0.0743 Ry au,          0.1889 Debye
        Dipole field          0.0001 Ry au, 

        Potential amp.       -0.0139 Ry
        Total length         46.2522 bohr


     Adding external electric field

     Computed dipole along edir(3) : 
        Dipole                0.0743 Ry au,          0.1889 Debye
        Dipole field          0.0001 Ry au, 

        Potential amp.       -0.0139 Ry
        Total length         46.2522 bohr


     total cpu time spent up to now is    10213.7 secs

     total energy              =   -1144.19867867 Ry
     estimated scf accuracy    <       0.00362522 Ry

     total magnetization       =    11.02 Bohr mag/cell
     absolute magnetization    =    19.93 Bohr mag/cell

     iteration # 21     ecut=    55.12 Ry     beta= 0.10
     Davidson diagonalization with overlap
     c_bands:  1 eigenvalues not converged
     c_bands:  1 eigenvalues not converged
     c_bands:  1 eigenvalues not converged
     c_bands:  1 eigenvalues not converged
     c_bands:  1 eigenvalues not converged
     c_bands:  1 eigenvalues not converged
     c_bands:  2 eigenvalues not converged
     c_bands:  3 eigenvalues not converged
     c_bands:  2 eigenvalues not converged
     c_bands:  1 eigenvalues not converged
     c_bands:  1 eigenvalues not converged
     c_bands:  1 eigenvalues not converged
     c_bands:  2 eigenvalues not converged
     c_bands:  2 eigenvalues not converged
     c_bands:  1 eigenvalues not converged
     c_bands:  1 eigenvalues not converged
     c_bands:  1 eigenvalues not converged
     c_bands:  2 eigenvalues not converged
     c_bands:  1 eigenvalues not converged
     c_bands:  1 eigenvalues not converged
     c_bands:  2 eigenvalues not converged
     c_bands:  1 eigenvalues not converged
     c_bands:  1 eigenvalues not converged
     c_bands:  2 eigenvalues not converged
     c_bands:  2 eigenvalues not converged
     c_bands:  2 eigenvalues not converged
     c_bands:  3 eigenvalues not converged
     c_bands:  2 eigenvalues not converged
     c_bands:  2 eigenvalues not converged
     c_bands:  2 eigenvalues not converged
     c_bands:  2 eigenvalues not converged
     c_bands:  1 eigenvalues not converged
     c_bands:  1 eigenvalues not converged
     c_bands:  2 eigenvalues not converged
     c_bands:  1 eigenvalues not converged
     c_bands:  4 eigenvalues not converged
     c_bands:  2 eigenvalues not converged
     c_bands:  1 eigenvalues not converged
     ethr =  3.18E-06,  avg # of iterations = 14.8

     Adding external electric field

     Computed dipole along edir(3) : 
        Dipole                0.0986 Ry au,          0.2505 Debye
        Dipole field          0.0002 Ry au, 

        Potential amp.       -0.0184 Ry
        Total length         46.2522 bohr


     Adding external electric field

     Computed dipole along edir(3) : 
        Dipole                0.0986 Ry au,          0.2505 Debye
        Dipole field          0.0002 Ry au, 

        Potential amp.       -0.0184 Ry
        Total length         46.2522 bohr


     total cpu time spent up to now is    11112.4 secs

     total energy              =   -1143.61137717 Ry
     estimated scf accuracy    <       0.00763728 Ry

     total magnetization       =    10.41 Bohr mag/cell
     absolute magnetization    =    19.80 Bohr mag/cell

     iteration # 22     ecut=    55.12 Ry     beta= 0.10
     Davidson diagonalization with overlap
     c_bands:  1 eigenvalues not converged
     c_bands:  1 eigenvalues not converged
     c_bands:  1 eigenvalues not converged
     c_bands:  2 eigenvalues not converged
     c_bands:  1 eigenvalues not converged
     c_bands:  1 eigenvalues not converged
     c_bands:  2 eigenvalues not converged
     c_bands:  1 eigenvalues not converged
     c_bands:  1 eigenvalues not converged
     c_bands:  2 eigenvalues not converged
     c_bands:  1 eigenvalues not converged
     ethr =  3.18E-06,  avg # of iterations =  4.6

     Adding external electric field

     Computed dipole along edir(3) : 
        Dipole                0.1242 Ry au,          0.3158 Debye
        Dipole field          0.0003 Ry au, 

        Potential amp.       -0.0232 Ry
        Total length         46.2522 bohr


     Adding external electric field

     Computed dipole along edir(3) : 
        Dipole                0.1242 Ry au,          0.3158 Debye
        Dipole field          0.0003 Ry au, 

        Potential amp.       -0.0232 Ry
        Total length         46.2522 bohr


     total cpu time spent up to now is    11458.0 secs

     total energy              =   -1142.81537673 Ry
     estimated scf accuracy    <       0.00282409 Ry

     total magnetization       =    10.51 Bohr mag/cell
     absolute magnetization    =    19.85 Bohr mag/cell

     iteration # 23     ecut=    55.12 Ry     beta= 0.10
     Davidson diagonalization with overlap
     c_bands:  1 eigenvalues not converged
     c_bands:  1 eigenvalues not converged
     c_bands:  1 eigenvalues not converged
     c_bands:  1 eigenvalues not converged
     c_bands:  1 eigenvalues not converged
     c_bands:  2 eigenvalues not converged
     ethr =  2.48E-06,  avg # of iterations =  6.0

     Adding external electric field

     Computed dipole along edir(3) : 
        Dipole                0.1204 Ry au,          0.3060 Debye
        Dipole field          0.0002 Ry au, 

        Potential amp.       -0.0225 Ry
        Total length         46.2522 bohr


     Adding external electric field

     Computed dipole along edir(3) : 
        Dipole                0.1204 Ry au,          0.3060 Debye
        Dipole field          0.0002 Ry au, 

        Potential amp.       -0.0225 Ry
        Total length         46.2522 bohr


     total cpu time spent up to now is    11887.1 secs

     total energy              =   -1141.96408173 Ry
     estimated scf accuracy    <       0.00069557 Ry

     total magnetization       =    10.40 Bohr mag/cell
     absolute magnetization    =    19.87 Bohr mag/cell

     iteration # 24     ecut=    55.12 Ry     beta= 0.10
     Davidson diagonalization with overlap
     c_bands:  1 eigenvalues not converged
     c_bands:  1 eigenvalues not converged
     c_bands:  1 eigenvalues not converged
     c_bands:  1 eigenvalues not converged
     c_bands:  3 eigenvalues not converged
     c_bands:  2 eigenvalues not converged
     c_bands:  2 eigenvalues not converged
     c_bands:  2 eigenvalues not converged
     c_bands:  3 eigenvalues not converged
     ethr =  6.10E-07,  avg # of iterations =  9.0

     Adding external electric field

     Computed dipole along edir(3) : 
        Dipole                0.1106 Ry au,          0.2812 Debye
        Dipole field          0.0002 Ry au, 

        Potential amp.       -0.0206 Ry
        Total length         46.2522 bohr


     Adding external electric field

     Computed dipole along edir(3) : 
        Dipole                0.1106 Ry au,          0.2812 Debye
        Dipole field          0.0002 Ry au, 

        Potential amp.       -0.0206 Ry
        Total length         46.2522 bohr


     total cpu time spent up to now is    12557.5 secs

     total energy              =   -1141.56148049 Ry
     estimated scf accuracy    <       0.00059454 Ry

     total magnetization       =    10.42 Bohr mag/cell
     absolute magnetization    =    19.88 Bohr mag/cell

     iteration # 25     ecut=    55.12 Ry     beta= 0.10
     Davidson diagonalization with overlap
     c_bands:  1 eigenvalues not converged
     c_bands:  2 eigenvalues not converged
     c_bands:  2 eigenvalues not converged
     c_bands:  1 eigenvalues not converged
     ethr =  5.22E-07,  avg # of iterations =  2.4

     Adding external electric field

     Computed dipole along edir(3) : 
        Dipole                0.1137 Ry au,          0.2889 Debye
        Dipole field          0.0002 Ry au, 

        Potential amp.       -0.0212 Ry
        Total length         46.2522 bohr


     Adding external electric field

     Computed dipole along edir(3) : 
        Dipole                0.1137 Ry au,          0.2889 Debye
        Dipole field          0.0002 Ry au, 

        Potential amp.       -0.0212 Ry
        Total length         46.2522 bohr


     total cpu time spent up to now is    12997.9 secs

     total energy              =   -1141.39605110 Ry
     estimated scf accuracy    <       0.00032414 Ry

     total magnetization       =    10.38 Bohr mag/cell
     absolute magnetization    =    19.87 Bohr mag/cell

     iteration # 26     ecut=    55.12 Ry     beta= 0.10
     Davidson diagonalization with overlap
     ethr =  2.84E-07,  avg # of iterations =  3.0

     Adding external electric field

     Computed dipole along edir(3) : 
        Dipole                0.1214 Ry au,          0.3085 Debye
        Dipole field          0.0002 Ry au, 

        Potential amp.       -0.0226 Ry
        Total length         46.2522 bohr


     Adding external electric field

     Computed dipole along edir(3) : 
        Dipole                0.1214 Ry au,          0.3085 Debye
        Dipole field          0.0002 Ry au, 

        Potential amp.       -0.0226 Ry
        Total length         46.2522 bohr


     total cpu time spent up to now is    13486.5 secs

     total energy              =   -1141.35474114 Ry
     estimated scf accuracy    <       0.00020960 Ry

     total magnetization       =    10.34 Bohr mag/cell
     absolute magnetization    =    19.86 Bohr mag/cell

     iteration # 27     ecut=    55.12 Ry     beta= 0.10
     Davidson diagonalization with overlap
     c_bands:  1 eigenvalues not converged
     ethr =  1.84E-07,  avg # of iterations =  8.0

     Adding external electric field

     Computed dipole along edir(3) : 
        Dipole                0.1215 Ry au,          0.3088 Debye
        Dipole field          0.0002 Ry au, 

        Potential amp.       -0.0227 Ry
        Total length         46.2522 bohr


     Adding external electric field

     Computed dipole along edir(3) : 
        Dipole                0.1215 Ry au,          0.3088 Debye
        Dipole field          0.0002 Ry au, 

        Potential amp.       -0.0227 Ry
        Total length         46.2522 bohr


     total cpu time spent up to now is    14204.3 secs

     total energy              =   -1141.10049776 Ry
     estimated scf accuracy    <       0.00010200 Ry

     total magnetization       =    10.29 Bohr mag/cell
     absolute magnetization    =    19.87 Bohr mag/cell

     iteration # 28     ecut=    55.12 Ry     beta= 0.10
     Davidson diagonalization with overlap
     ethr =  8.95E-08,  avg # of iterations =  3.1

     Adding external electric field

     Computed dipole along edir(3) : 
        Dipole                0.1209 Ry au,          0.3074 Debye
        Dipole field          0.0002 Ry au, 

        Potential amp.       -0.0226 Ry
        Total length         46.2522 bohr


     Adding external electric field

     Computed dipole along edir(3) : 
        Dipole                0.1209 Ry au,          0.3074 Debye
        Dipole field          0.0002 Ry au, 

        Potential amp.       -0.0226 Ry
        Total length         46.2522 bohr


     total cpu time spent up to now is    14668.9 secs

     total energy              =   -1140.88611525 Ry
     estimated scf accuracy    <       0.00007853 Ry

     total magnetization       =    10.29 Bohr mag/cell
     absolute magnetization    =    19.87 Bohr mag/cell

     iteration # 29     ecut=    55.12 Ry     beta= 0.10
     Davidson diagonalization with overlap
     ethr =  6.89E-08,  avg # of iterations =  2.2

     Adding external electric field

     Computed dipole along edir(3) : 
        Dipole                0.1225 Ry au,          0.3114 Debye
        Dipole field          0.0002 Ry au, 

        Potential amp.       -0.0229 Ry
        Total length         46.2522 bohr


     Adding external electric field

     Computed dipole along edir(3) : 
        Dipole                0.1225 Ry au,          0.3114 Debye
        Dipole field          0.0002 Ry au, 

        Potential amp.       -0.0229 Ry
        Total length         46.2522 bohr


     total cpu time spent up to now is    15117.7 secs

     total energy              =   -1140.80902110 Ry
     estimated scf accuracy    <       0.00006613 Ry

     total magnetization       =    10.29 Bohr mag/cell
     absolute magnetization    =    19.87 Bohr mag/cell

     iteration # 30     ecut=    55.12 Ry     beta= 0.10
     Davidson diagonalization with overlap
     c_bands:  1 eigenvalues not converged
     c_bands:  1 eigenvalues not converged
     c_bands:  2 eigenvalues not converged
     ethr =  5.80E-08,  avg # of iterations =  7.7

     Adding external electric field

     Computed dipole along edir(3) : 
        Dipole                0.1224 Ry au,          0.3112 Debye
        Dipole field          0.0002 Ry au, 

        Potential amp.       -0.0228 Ry
        Total length         46.2522 bohr


     Adding external electric field

     Computed dipole along edir(3) : 
        Dipole                0.1224 Ry au,          0.3112 Debye
        Dipole field          0.0002 Ry au, 

        Potential amp.       -0.0228 Ry
        Total length         46.2522 bohr


     total cpu time spent up to now is    15748.5 secs

     total energy              =   -1140.75042229 Ry
     estimated scf accuracy    <       0.00013058 Ry

     total magnetization       =    10.28 Bohr mag/cell
     absolute magnetization    =    19.87 Bohr mag/cell

     iteration # 31     ecut=    55.12 Ry     beta= 0.10
     Davidson diagonalization with overlap
     c_bands:  1 eigenvalues not converged
     c_bands:  1 eigenvalues not converged
     c_bands:  2 eigenvalues not converged
     ethr =  5.80E-08,  avg # of iterations =  4.7

     Adding external electric field

     Computed dipole along edir(3) : 
        Dipole                0.1226 Ry au,          0.3117 Debye
        Dipole field          0.0002 Ry au, 

        Potential amp.       -0.0229 Ry
        Total length         46.2522 bohr


     Adding external electric field

     Computed dipole along edir(3) : 
        Dipole                0.1226 Ry au,          0.3117 Debye
        Dipole field          0.0002 Ry au, 

        Potential amp.       -0.0229 Ry
        Total length         46.2522 bohr


     total cpu time spent up to now is    16253.9 secs

     total energy              =   -1140.60601731 Ry
     estimated scf accuracy    <       0.00006125 Ry

     total magnetization       =    10.26 Bohr mag/cell
     absolute magnetization    =    19.88 Bohr mag/cell

     iteration # 32     ecut=    55.12 Ry     beta= 0.10
     Davidson diagonalization with overlap
     ethr =  5.37E-08,  avg # of iterations =  1.8

     Adding external electric field

     Computed dipole along edir(3) : 
        Dipole                0.1215 Ry au,          0.3088 Debye
        Dipole field          0.0002 Ry au, 

        Potential amp.       -0.0227 Ry
        Total length         46.2522 bohr


     Adding external electric field

     Computed dipole along edir(3) : 
        Dipole                0.1215 Ry au,          0.3088 Debye
        Dipole field          0.0002 Ry au, 

        Potential amp.       -0.0227 Ry
        Total length         46.2522 bohr


     total cpu time spent up to now is    16699.6 secs

     total energy              =   -1140.47698504 Ry
     estimated scf accuracy    <       0.00003115 Ry

     total magnetization       =    10.27 Bohr mag/cell
     absolute magnetization    =    19.88 Bohr mag/cell

     iteration # 33     ecut=    55.12 Ry     beta= 0.10
     Davidson diagonalization with overlap
     c_bands:  3 eigenvalues not converged
     ethr =  2.73E-08,  avg # of iterations =  5.1

     Adding external electric field

     Computed dipole along edir(3) : 
        Dipole                0.1227 Ry au,          0.3120 Debye
        Dipole field          0.0002 Ry au, 

        Potential amp.       -0.0229 Ry
        Total length         46.2522 bohr


     Adding external electric field

     Computed dipole along edir(3) : 
        Dipole                0.1227 Ry au,          0.3120 Debye
        Dipole field          0.0002 Ry au, 

        Potential amp.       -0.0229 Ry
        Total length         46.2522 bohr


     total cpu time spent up to now is    17054.5 secs

     total energy              =   -1140.39613421 Ry
     estimated scf accuracy    <       0.00002500 Ry

     total magnetization       =    10.28 Bohr mag/cell
     absolute magnetization    =    19.88 Bohr mag/cell

     iteration # 34     ecut=    55.12 Ry     beta= 0.10
     Davidson diagonalization with overlap
     ethr =  2.19E-08,  avg # of iterations =  5.4

     Adding external electric field

     Computed dipole along edir(3) : 
        Dipole                0.1223 Ry au,          0.3108 Debye
        Dipole field          0.0002 Ry au, 

        Potential amp.       -0.0228 Ry
        Total length         46.2522 bohr


     Adding external electric field

     Computed dipole along edir(3) : 
        Dipole                0.1223 Ry au,          0.3108 Debye
        Dipole field          0.0002 Ry au, 

        Potential amp.       -0.0228 Ry
        Total length         46.2522 bohr


     total cpu time spent up to now is    17477.1 secs

     total energy              =   -1140.32095267 Ry
     estimated scf accuracy    <       0.00001747 Ry

     total magnetization       =    10.28 Bohr mag/cell
     absolute magnetization    =    19.88 Bohr mag/cell

     iteration # 35     ecut=    55.12 Ry     beta= 0.10
     Davidson diagonalization with overlap
     c_bands:  1 eigenvalues not converged
     ethr =  1.53E-08,  avg # of iterations =  6.9

     Adding external electric field

     Computed dipole along edir(3) : 
        Dipole                0.1266 Ry au,          0.3219 Debye
        Dipole field          0.0003 Ry au, 

        Potential amp.       -0.0236 Ry
        Total length         46.2522 bohr


     Adding external electric field

     Computed dipole along edir(3) : 
        Dipole                0.1266 Ry au,          0.3219 Debye
        Dipole field          0.0003 Ry au, 

        Potential amp.       -0.0236 Ry
        Total length         46.2522 bohr


     Magnetic moment per site:
     atom:    1    charge:    6.8829    magn:    2.6463    constr:    0.0000
     atom:    2    charge:    6.8811    magn:    2.6479    constr:    0.0000
     atom:    3    charge:    7.6969    magn:   -0.2731    constr:    0.0000
     atom:    4    charge:    7.6969    magn:   -0.2731    constr:    0.0000
     atom:    5    charge:    6.9459    magn:    2.4206    constr:    0.0000
     atom:    6    charge:    6.9464    magn:    2.4189    constr:    0.0000
     atom:    7    charge:    7.7677    magn:   -0.2414    constr:    0.0000
     atom:    8    charge:    7.7677    magn:   -0.2414    constr:    0.0000
     atom:    9    charge:    6.9819    magn:    2.3853    constr:    0.0000
     atom:   10    charge:    6.9812    magn:    2.3858    constr:    0.0000
     atom:   11    charge:    7.6824    magn:   -0.2547    constr:    0.0000
     atom:   12    charge:    7.6824    magn:   -0.2547    constr:    0.0000

     total cpu time spent up to now is    18066.7 secs

     End of self-consistent calculation

     Number of k-points >= 100: set verbosity='high' to print the bands.

     the Fermi energy is     1.3774 ev

!    total energy              =   -1139.69448417 Ry
     estimated scf accuracy    <       0.00000981 Ry
     smearing contrib. (-TS)   =      -0.10091409 Ry
     internal energy E=F+TS    =   -1139.59357008 Ry

     The total energy is F=E-TS. E is the sum of the following terms:
     one-electron contribution =   -4999.51136628 Ry
     hartree contribution      =    2552.17837859 Ry
     xc contribution           =    -641.99680931 Ry
     ewald contribution        =    1949.73619458 Ry
     electric field correction =       0.00003234 Ry

     total magnetization       =    10.28 Bohr mag/cell
     absolute magnetization    =    19.89 Bohr mag/cell

     convergence has been achieved in  35 iterations

     Forces acting on atoms (cartesian axes, Ry/au):

     atom    1 type  1   force =     0.00007526    0.00005207    0.01885489
     atom    2 type  1   force =     0.00011457    0.00008177    0.01887611
     atom    3 type  2   force =    -0.00030238   -0.00017003   -0.01320115
     atom    4 type  2   force =    -0.00026161   -0.00022537   -0.01320288
     atom    5 type  1   force =     0.00012960    0.00008225    0.01012896
     atom    6 type  1   force =     0.00015291    0.00011228    0.00991556
     atom    7 type  2   force =     0.00012419    0.00012086   -0.01459715
     atom    8 type  2   force =     0.00015148    0.00007338   -0.01459473
     atom    9 type  1   force =    -0.00006628   -0.00004193    0.00011834
     atom   10 type  1   force =    -0.00003224   -0.00002330    0.00012622
     atom   11 type  2   force =    -0.00007558    0.00001376   -0.00121300
     atom   12 type  2   force =    -0.00000993   -0.00007572   -0.00121116

     Total force =     0.041119     Total SCF correction =     0.005429
     SCF correction compared to forces is large: reduce conv_thr to get better values

     Writing output data file ./Fe2La2/Fe2La2_beef.save/

     init_run     :    525.24s CPU    527.27s WALL (       1 calls)
     electrons    :  17408.65s CPU  17536.73s WALL (       1 calls)
     forces       :    179.97s CPU    181.17s WALL (       1 calls)

     Called by init_run:
     wfcinit      :    505.01s CPU    506.55s WALL (       1 calls)
     potinit      :     11.32s CPU     11.45s WALL (       1 calls)
     hinit0       :      3.07s CPU      3.10s WALL (       1 calls)

     Called by electrons:
     c_bands      :  14937.49s CPU  15025.04s WALL (      35 calls)
     sum_band     :   2203.49s CPU   2229.11s WALL (      35 calls)
     v_of_rho     :    111.24s CPU    115.89s WALL (      36 calls)
     newd         :    163.76s CPU    174.01s WALL (      36 calls)
     mix_rho      :      4.58s CPU      4.69s WALL (      35 calls)
     vdW_kernel   :      6.66s CPU      6.67s WALL (       1 calls)

     Called by c_bands:
     init_us_2    :     88.82s CPU     89.71s WALL (   10656 calls)
     cegterg      :  14683.10s CPU  14758.42s WALL (    5181 calls)

     Called by *egterg:
     cdiaghg      :    338.57s CPU    339.87s WALL (   29035 calls)
     h_psi        :   8789.14s CPU   8848.20s WALL (   29183 calls)
     s_psi        :   2918.53s CPU   2925.98s WALL (   29183 calls)
     g_psi        :      5.60s CPU      5.72s WALL (   23854 calls)

     Called by h_psi:
     h_psi:calbec :   3303.49s CPU   3316.29s WALL (   29183 calls)
     vloc_psi     :   2327.76s CPU   2364.90s WALL (   29183 calls)
     add_vuspsi   :   3136.32s CPU   3145.26s WALL (   29183 calls)

     General routines
     calbec       :   4794.79s CPU   4813.42s WALL (   34955 calls)
     fft          :     80.54s CPU     83.53s WALL (    3281 calls)
     ffts         :      0.45s CPU      0.48s WALL (     142 calls)
     fftw         :   2621.23s CPU   2661.93s WALL ( 2099872 calls)
     interpolate  :      1.62s CPU      1.67s WALL (      72 calls)

     Parallel routines
     fft_scatt_xy :    231.60s CPU    233.58s WALL ( 2103295 calls)
     fft_scatt_yz :    785.04s CPU    800.78s WALL ( 2103295 calls)

     PWSCF        :      5h 2m CPU      5h 5m WALL


   This run was terminated on:   7:36: 7  28Jun2022            

=------------------------------------------------------------------------------=
   JOB DONE.
=------------------------------------------------------------------------------=
