
     Program PWSCF v.6.6 starts on 28Jun2022 at 23: 0:46 

     This program is part of the open-source Quantum ESPRESSO suite
     for quantum simulation of materials; please cite
         "P. Giannozzi et al., J. Phys.:Condens. Matter 21 395502 (2009);
         "P. Giannozzi et al., J. Phys.:Condens. Matter 29 465901 (2017);
          URL http://www.quantum-espresso.org", 
     in publications or presentations arising from this work. More details at
     http://www.quantum-espresso.org/quote

     Parallel version (MPI), running on    37 processors

     MPI processes distributed on     2 nodes
     R & G space division:  proc/nbgrp/npool/nimage =      37
     Fft bands division:     nmany     =       1
     Reading input from Fe2Pd2.in
Warning: card &CELL ignored
Warning: card / ignored

     Current dimensions of program PWSCF are:
     Max number of different atomic species (ntypx) = 10
     Max number of k-points (npk) =  40000
     Max angular momentum in pseudopotentials (lmaxx) =  3
     Presently stress not available with electric field and gates

     Message from routine cell_base_init:
     DEPRECATED: use true lattice parameter, not A to a.u. conversion factor
     file Fe.pbe-n-rrkjus_psl.1.0.0.UPF: wavefunction(s)  3D renormalized
     file Pd.pbe-n-rrkjus_psl.1.0.0.UPF: wavefunction(s)  4D renormalized

     **************************************************************************
     Initializing libbeef V0.1.2 with the BEEF-vdW functional.
     Citation: Wellendorff et al., PRB 85, 235149 (2012).
     **************************************************************************


     IMPORTANT: XC functional enforced from input :
     Exchange-correlation= BEEF-VDW
                           (   1   4  43  14   2   0   0)
     Any further DFT definition will be discarded
     Please, verify this is what you really want


     Subspace diagonalization in iterative solution of the eigenvalue problem:
     a serial algorithm will be used


     Parallelization info
     --------------------
     sticks:   dense  smooth     PW     G-vecs:    dense   smooth      PW
     Min         108      43     12                24900     6295     970
     Max         109      44     13                24913     6310     985
     Sum        4005    1605    459               921489   233143   36115



     bravais-lattice index     =            0
     lattice parameter (alat)  =       1.8897  a.u.
     unit-cell volume          =    4216.0525 (a.u.)^3
     number of atoms/cell      =           12
     number of atomic types    =            2
     number of electrons       =       108.00
     number of Kohn-Sham states=           65
     kinetic-energy cutoff     =      55.1240  Ry
     charge density cutoff     =     551.2396  Ry
     convergence threshold     =      1.0E-05
     mixing beta               =       0.1000
     number of iterations used =           10  plain     mixing
     Exchange-correlation= BEEF-VDW
                           (   1   4  43  14   2   0   0)

     celldm(1)=   1.889726  celldm(2)=   0.000000  celldm(3)=   0.000000
     celldm(4)=   0.000000  celldm(5)=   0.000000  celldm(6)=   0.000000

     crystal axes: (cart. coord. in units of alat)
               a(1) = (   5.416153   0.000000   0.000000 )  
               a(2) = (   2.655419   4.720537   0.000000 )  
               a(3) = (   0.000000   0.000000  24.435834 )  

     reciprocal axes: (cart. coord. in units 2 pi/alat)
               b(1) = (  0.184633 -0.103861  0.000000 )  
               b(2) = (  0.000000  0.211840  0.000000 )  
               b(3) = (  0.000000  0.000000  0.040924 )  


     PseudoPot. # 1 for Fe read from file:
     ../pseudo/Fe.pbe-n-rrkjus_psl.1.0.0.UPF
     MD5 check sum: e37eda618788e2416bb099156d582190
     Pseudo is Ultrasoft + core correction, Zval =  8.0
     Generated using "atomic" code by A. Dal Corso v.6.5
     Using radial grid of 1191 points,  6 beta functions with: 
                l(1) =   0
                l(2) =   0
                l(3) =   1
                l(4) =   1
                l(5) =   2
                l(6) =   2
     Q(r) pseudized with 0 coefficients 


     PseudoPot. # 2 for Pd read from file:
     ../pseudo/Pd.pbe-n-rrkjus_psl.1.0.0.UPF
     MD5 check sum: d9f693bf1c5b493397a6bd6f2231cfc3
     Pseudo is Ultrasoft + core correction, Zval = 10.0
     Generated using "atomic" code by A. Dal Corso v.6.3
     Using radial grid of 1235 points,  6 beta functions with: 
                l(1) =   0
                l(2) =   0
                l(3) =   1
                l(4) =   1
                l(5) =   2
                l(6) =   2
     Q(r) pseudized with 0 coefficients 


     atomic species   valence    mass     pseudopotential
        Fe             8.00    55.84500     Fe( 1.00)
        Pd            10.00   106.42000     Pd( 1.00)

     Starting magnetic structure 
     atomic species   magnetization
        Fe           0.750
        Pd           0.000

     No symmetry found



   Cartesian axes

     site n.     atom                  positions (alat units)
         1           Fe  tau(   1) = (   0.0000000   0.0000000  10.0000000  )
         2           Fe  tau(   2) = (   4.0357859   2.3602685  10.0000000  )
         3           Pd  tau(   3) = (   2.7080766   0.0000000  10.0000000  )
         4           Pd  tau(   4) = (   1.3277093   2.3602685  10.0000000  )
         5           Fe  tau(   5) = (   5.4161533   3.1675555  12.2179168  )
         6           Fe  tau(   6) = (   1.3803674   0.8072870  12.2179168  )
         7           Pd  tau(   7) = (   2.7080766   3.1675555  12.2179168  )
         8           Pd  tau(   8) = (   4.0884440   0.8072870  12.2179168  )
         9           Fe  tau(   9) = (   2.7509504   1.6088510  14.3382975  )
        10           Fe  tau(  10) = (   6.7867137   3.9691071  14.3383480  )
        11           Pd  tau(  11) = (   5.5127232   1.6403176  14.4475716  )
        12           Pd  tau(  12) = (   4.1324103   4.0004932  14.4475711  )

     number of k points=    74  Fermi-Dirac smearing, width (Ry)=  0.0100
                       cart. coord. in units 2pi/alat
        k(    1) = (   0.0000000   0.0000000   0.0000000), wk =   0.0069444
        k(    2) = (   0.0000000   0.0176534   0.0000000), wk =   0.0138889
        k(    3) = (   0.0000000   0.0353067   0.0000000), wk =   0.0138889
        k(    4) = (   0.0000000   0.0529601   0.0000000), wk =   0.0138889
        k(    5) = (   0.0000000   0.0706134   0.0000000), wk =   0.0138889
        k(    6) = (   0.0000000   0.0882668   0.0000000), wk =   0.0138889
        k(    7) = (   0.0000000  -0.1059202   0.0000000), wk =   0.0069444
        k(    8) = (   0.0153861  -0.0086550   0.0000000), wk =   0.0138889
        k(    9) = (   0.0153861   0.0089983   0.0000000), wk =   0.0138889
        k(   10) = (   0.0153861   0.0266517   0.0000000), wk =   0.0138889
        k(   11) = (   0.0153861   0.0443050   0.0000000), wk =   0.0138889
        k(   12) = (   0.0153861   0.0619584   0.0000000), wk =   0.0138889
        k(   13) = (   0.0153861   0.0796117   0.0000000), wk =   0.0138889
        k(   14) = (   0.0153861  -0.1145752   0.0000000), wk =   0.0138889
        k(   15) = (   0.0153861  -0.0969218   0.0000000), wk =   0.0138889
        k(   16) = (   0.0153861  -0.0792685   0.0000000), wk =   0.0138889
        k(   17) = (   0.0153861  -0.0616151   0.0000000), wk =   0.0138889
        k(   18) = (   0.0153861  -0.0439618   0.0000000), wk =   0.0138889
        k(   19) = (   0.0153861  -0.0263084   0.0000000), wk =   0.0138889
        k(   20) = (   0.0307721  -0.0173101   0.0000000), wk =   0.0138889
        k(   21) = (   0.0307721   0.0003433   0.0000000), wk =   0.0138889
        k(   22) = (   0.0307721   0.0179966   0.0000000), wk =   0.0138889
        k(   23) = (   0.0307721   0.0356500   0.0000000), wk =   0.0138889
        k(   24) = (   0.0307721   0.0533033   0.0000000), wk =   0.0138889
        k(   25) = (   0.0307721   0.0709567   0.0000000), wk =   0.0138889
        k(   26) = (   0.0307721  -0.1232302   0.0000000), wk =   0.0138889
        k(   27) = (   0.0307721  -0.1055769   0.0000000), wk =   0.0138889
        k(   28) = (   0.0307721  -0.0879235   0.0000000), wk =   0.0138889
        k(   29) = (   0.0307721  -0.0702702   0.0000000), wk =   0.0138889
        k(   30) = (   0.0307721  -0.0526168   0.0000000), wk =   0.0138889
        k(   31) = (   0.0307721  -0.0349635   0.0000000), wk =   0.0138889
        k(   32) = (   0.0461582  -0.0259651   0.0000000), wk =   0.0138889
        k(   33) = (   0.0461582  -0.0083118   0.0000000), wk =   0.0138889
        k(   34) = (   0.0461582   0.0093416   0.0000000), wk =   0.0138889
        k(   35) = (   0.0461582   0.0269949   0.0000000), wk =   0.0138889
        k(   36) = (   0.0461582   0.0446483   0.0000000), wk =   0.0138889
        k(   37) = (   0.0461582   0.0623016   0.0000000), wk =   0.0138889
        k(   38) = (   0.0461582  -0.1318853   0.0000000), wk =   0.0138889
        k(   39) = (   0.0461582  -0.1142319   0.0000000), wk =   0.0138889
        k(   40) = (   0.0461582  -0.0965786   0.0000000), wk =   0.0138889
        k(   41) = (   0.0461582  -0.0789252   0.0000000), wk =   0.0138889
        k(   42) = (   0.0461582  -0.0612719   0.0000000), wk =   0.0138889
        k(   43) = (   0.0461582  -0.0436185   0.0000000), wk =   0.0138889
        k(   44) = (   0.0615443  -0.0346202   0.0000000), wk =   0.0138889
        k(   45) = (   0.0615443  -0.0169668   0.0000000), wk =   0.0138889
        k(   46) = (   0.0615443   0.0006865   0.0000000), wk =   0.0138889
        k(   47) = (   0.0615443   0.0183399   0.0000000), wk =   0.0138889
        k(   48) = (   0.0615443   0.0359932   0.0000000), wk =   0.0138889
        k(   49) = (   0.0615443   0.0536466   0.0000000), wk =   0.0138889
        k(   50) = (   0.0615443  -0.1405403   0.0000000), wk =   0.0138889
        k(   51) = (   0.0615443  -0.1228870   0.0000000), wk =   0.0138889
        k(   52) = (   0.0615443  -0.1052336   0.0000000), wk =   0.0138889
        k(   53) = (   0.0615443  -0.0875803   0.0000000), wk =   0.0138889
        k(   54) = (   0.0615443  -0.0699269   0.0000000), wk =   0.0138889
        k(   55) = (   0.0615443  -0.0522736   0.0000000), wk =   0.0138889
        k(   56) = (   0.0769304  -0.0432752   0.0000000), wk =   0.0138889
        k(   57) = (   0.0769304  -0.0256219   0.0000000), wk =   0.0138889
        k(   58) = (   0.0769304  -0.0079685   0.0000000), wk =   0.0138889
        k(   59) = (   0.0769304   0.0096848   0.0000000), wk =   0.0138889
        k(   60) = (   0.0769304   0.0273382   0.0000000), wk =   0.0138889
        k(   61) = (   0.0769304   0.0449916   0.0000000), wk =   0.0138889
        k(   62) = (   0.0769304  -0.1491954   0.0000000), wk =   0.0138889
        k(   63) = (   0.0769304  -0.1315420   0.0000000), wk =   0.0138889
        k(   64) = (   0.0769304  -0.1138887   0.0000000), wk =   0.0138889
        k(   65) = (   0.0769304  -0.0962353   0.0000000), wk =   0.0138889
        k(   66) = (   0.0769304  -0.0785820   0.0000000), wk =   0.0138889
        k(   67) = (   0.0769304  -0.0609286   0.0000000), wk =   0.0138889
        k(   68) = (  -0.0923164   0.0519303   0.0000000), wk =   0.0069444
        k(   69) = (  -0.0923164   0.0695836   0.0000000), wk =   0.0138889
        k(   70) = (  -0.0923164   0.0872370   0.0000000), wk =   0.0138889
        k(   71) = (  -0.0923164   0.1048904   0.0000000), wk =   0.0138889
        k(   72) = (  -0.0923164   0.1225437   0.0000000), wk =   0.0138889
        k(   73) = (  -0.0923164   0.1401971   0.0000000), wk =   0.0138889
        k(   74) = (  -0.0923164  -0.0539899   0.0000000), wk =   0.0069444

     Dense  grid:   921489 G-vectors     FFT dimensions: (  80,  80, 360)

     Smooth grid:   233143 G-vectors     FFT dimensions: (  50,  50, 225)

     Estimated max dynamical RAM per process >     228.32 MB

     Estimated total dynamical RAM >       8.25 GB
     Generating pointlists ...
     new r_m :   1.0857 (alat units)  2.0517 (a.u.) for type    1
     new r_m :   1.0857 (alat units)  2.0517 (a.u.) for type    2

     Initial potential from superposition of free atoms

     starting charge  107.99343, renormalised to  108.00000


     %%%%%%%%%%%%%%%%%%%%%%%%%%%%%%%%%%%%%%%%%%%%%%%%%%%%%%%%%%%%%%%%%%%%%%%%
     %                                                                      %
     % You are using vdW-DF, which was implemented by the Thonhauser group. %
     % Please cite the following two papers that made this development      %
     % possible and the two reviews that describe the various versions:     %
     %                                                                      %
     %   T. Thonhauser et al., PRL 115, 136402 (2015).                      %
     %   T. Thonhauser et al., PRB 76, 125112 (2007).                       %
     %   K. Berland et al., Rep. Prog. Phys. 78, 066501 (2015).             %
     %   D.C. Langreth et al., J. Phys.: Condens. Matter 21, 084203 (2009). %
     %                                                                      %
     %                                                                      %
     % If you are calculating the stress with vdW-DF, please also cite:     %
     %                                                                      %
     %   R. Sabatini et al., J. Phys.: Condens. Matter 24, 424209 (2012).   %
     %                                                                      %
     %%%%%%%%%%%%%%%%%%%%%%%%%%%%%%%%%%%%%%%%%%%%%%%%%%%%%%%%%%%%%%%%%%%%%%%%



     Adding external electric field

     Computed dipole along edir(3) : 
        Dipole               -0.0000 Ry au,         -0.0000 Debye
        Dipole field         -0.0000 Ry au, 

        Potential amp.        0.0000 Ry
        Total length         45.0226 bohr


     Adding external electric field

     Computed dipole along edir(3) : 
        Dipole               -0.0000 Ry au,         -0.0000 Debye
        Dipole field         -0.0000 Ry au, 

        Potential amp.        0.0000 Ry
        Total length         45.0226 bohr

     Starting wfcs are  108 randomized atomic wfcs

     total cpu time spent up to now is      160.5 secs

     Self-consistent Calculation

     iteration #  1     ecut=    55.12 Ry     beta= 0.10
     Davidson diagonalization with overlap
     ethr =  1.00E-02,  avg # of iterations =  1.8

     Adding external electric field

     Computed dipole along edir(3) : 
        Dipole               -0.1658 Ry au,         -0.4215 Debye
        Dipole field         -0.0005 Ry au, 

        Potential amp.        0.0445 Ry
        Total length         45.0226 bohr


     Adding external electric field

     Computed dipole along edir(3) : 
        Dipole               -0.1658 Ry au,         -0.4215 Debye
        Dipole field         -0.0005 Ry au, 

        Potential amp.        0.0445 Ry
        Total length         45.0226 bohr


     total cpu time spent up to now is      345.0 secs

     total energy              =    -786.10271805 Ry
     estimated scf accuracy    <       1.40361765 Ry

     total magnetization       =    21.89 Bohr mag/cell
     absolute magnetization    =    21.96 Bohr mag/cell

     iteration #  2     ecut=    55.12 Ry     beta= 0.10
     Davidson diagonalization with overlap
     ethr =  1.30E-03,  avg # of iterations =  2.6

     Adding external electric field

     Computed dipole along edir(3) : 
        Dipole                0.2228 Ry au,          0.5664 Debye
        Dipole field          0.0007 Ry au, 

        Potential amp.       -0.0598 Ry
        Total length         45.0226 bohr


     Adding external electric field

     Computed dipole along edir(3) : 
        Dipole                0.2228 Ry au,          0.5664 Debye
        Dipole field          0.0007 Ry au, 

        Potential amp.       -0.0598 Ry
        Total length         45.0226 bohr


     total cpu time spent up to now is      549.4 secs

     total energy              =    -786.60358734 Ry
     estimated scf accuracy    <       6.22086408 Ry

     total magnetization       =    21.69 Bohr mag/cell
     absolute magnetization    =    21.88 Bohr mag/cell

     iteration #  3     ecut=    55.12 Ry     beta= 0.10
     Davidson diagonalization with overlap
     ethr =  1.30E-03,  avg # of iterations =  1.5

     Adding external electric field

     Computed dipole along edir(3) : 
        Dipole               -0.0125 Ry au,         -0.0318 Debye
        Dipole field         -0.0000 Ry au, 

        Potential amp.        0.0034 Ry
        Total length         45.0226 bohr


     Adding external electric field

     Computed dipole along edir(3) : 
        Dipole               -0.0125 Ry au,         -0.0318 Debye
        Dipole field         -0.0000 Ry au, 

        Potential amp.        0.0034 Ry
        Total length         45.0226 bohr


     total cpu time spent up to now is      735.4 secs

     total energy              =    -787.11873703 Ry
     estimated scf accuracy    <       7.64563750 Ry

     total magnetization       =    21.78 Bohr mag/cell
     absolute magnetization    =    22.03 Bohr mag/cell

     iteration #  4     ecut=    55.12 Ry     beta= 0.10
     Davidson diagonalization with overlap
     ethr =  1.30E-03,  avg # of iterations =  1.0

     Adding external electric field

     Computed dipole along edir(3) : 
        Dipole               -0.0356 Ry au,         -0.0905 Debye
        Dipole field         -0.0001 Ry au, 

        Potential amp.        0.0096 Ry
        Total length         45.0226 bohr


     Adding external electric field

     Computed dipole along edir(3) : 
        Dipole               -0.0356 Ry au,         -0.0905 Debye
        Dipole field         -0.0001 Ry au, 

        Potential amp.        0.0096 Ry
        Total length         45.0226 bohr


     total cpu time spent up to now is      913.5 secs

     total energy              =    -786.87064993 Ry
     estimated scf accuracy    <       0.36031320 Ry

     total magnetization       =    21.85 Bohr mag/cell
     absolute magnetization    =    22.05 Bohr mag/cell

     iteration #  5     ecut=    55.12 Ry     beta= 0.10
     Davidson diagonalization with overlap
     ethr =  3.34E-04,  avg # of iterations =  1.9

     Adding external electric field

     Computed dipole along edir(3) : 
        Dipole                0.0057 Ry au,          0.0145 Debye
        Dipole field          0.0000 Ry au, 

        Potential amp.       -0.0015 Ry
        Total length         45.0226 bohr


     Adding external electric field

     Computed dipole along edir(3) : 
        Dipole                0.0057 Ry au,          0.0145 Debye
        Dipole field          0.0000 Ry au, 

        Potential amp.       -0.0015 Ry
        Total length         45.0226 bohr


     total cpu time spent up to now is     1098.4 secs

     total energy              =    -786.93814942 Ry
     estimated scf accuracy    <       0.22345021 Ry

     total magnetization       =    21.74 Bohr mag/cell
     absolute magnetization    =    21.97 Bohr mag/cell

     iteration #  6     ecut=    55.12 Ry     beta= 0.10
     Davidson diagonalization with overlap
     ethr =  2.07E-04,  avg # of iterations =  2.4

     Adding external electric field

     Computed dipole along edir(3) : 
        Dipole               -0.0206 Ry au,         -0.0523 Debye
        Dipole field         -0.0001 Ry au, 

        Potential amp.        0.0055 Ry
        Total length         45.0226 bohr


     Adding external electric field

     Computed dipole along edir(3) : 
        Dipole               -0.0206 Ry au,         -0.0523 Debye
        Dipole field         -0.0001 Ry au, 

        Potential amp.        0.0055 Ry
        Total length         45.0226 bohr


     total cpu time spent up to now is     1322.0 secs

     total energy              =    -787.30233936 Ry
     estimated scf accuracy    <       0.09656548 Ry

     total magnetization       =    21.36 Bohr mag/cell
     absolute magnetization    =    21.70 Bohr mag/cell

     iteration #  7     ecut=    55.12 Ry     beta= 0.10
     Davidson diagonalization with overlap
     ethr =  8.94E-05,  avg # of iterations =  2.7

     Adding external electric field

     Computed dipole along edir(3) : 
        Dipole               -0.0309 Ry au,         -0.0786 Debye
        Dipole field         -0.0001 Ry au, 

        Potential amp.        0.0083 Ry
        Total length         45.0226 bohr


     Adding external electric field

     Computed dipole along edir(3) : 
        Dipole               -0.0309 Ry au,         -0.0786 Debye
        Dipole field         -0.0001 Ry au, 

        Potential amp.        0.0083 Ry
        Total length         45.0226 bohr


     total cpu time spent up to now is     1596.8 secs

     total energy              =    -788.82440026 Ry
     estimated scf accuracy    <       0.05333316 Ry

     total magnetization       =    21.15 Bohr mag/cell
     absolute magnetization    =    21.54 Bohr mag/cell

     iteration #  8     ecut=    55.12 Ry     beta= 0.10
     Davidson diagonalization with overlap
     ethr =  4.94E-05,  avg # of iterations =  4.8

     Adding external electric field

     Computed dipole along edir(3) : 
        Dipole               -0.0279 Ry au,         -0.0708 Debye
        Dipole field         -0.0001 Ry au, 

        Potential amp.        0.0075 Ry
        Total length         45.0226 bohr


     Adding external electric field

     Computed dipole along edir(3) : 
        Dipole               -0.0279 Ry au,         -0.0708 Debye
        Dipole field         -0.0001 Ry au, 

        Potential amp.        0.0075 Ry
        Total length         45.0226 bohr


     total cpu time spent up to now is     1873.2 secs

     total energy              =    -788.99414093 Ry
     estimated scf accuracy    <       0.03996057 Ry

     total magnetization       =    20.60 Bohr mag/cell
     absolute magnetization    =    21.27 Bohr mag/cell

     iteration #  9     ecut=    55.12 Ry     beta= 0.10
     Davidson diagonalization with overlap
     ethr =  3.70E-05,  avg # of iterations =  2.7

     Adding external electric field

     Computed dipole along edir(3) : 
        Dipole               -0.0209 Ry au,         -0.0531 Debye
        Dipole field         -0.0001 Ry au, 

        Potential amp.        0.0056 Ry
        Total length         45.0226 bohr


     Adding external electric field

     Computed dipole along edir(3) : 
        Dipole               -0.0209 Ry au,         -0.0531 Debye
        Dipole field         -0.0001 Ry au, 

        Potential amp.        0.0056 Ry
        Total length         45.0226 bohr


     total cpu time spent up to now is     2147.8 secs

     total energy              =    -788.98128907 Ry
     estimated scf accuracy    <       0.02554467 Ry

     total magnetization       =    20.46 Bohr mag/cell
     absolute magnetization    =    21.26 Bohr mag/cell

     iteration # 10     ecut=    55.12 Ry     beta= 0.10
     Davidson diagonalization with overlap
     ethr =  2.37E-05,  avg # of iterations =  3.5

     Adding external electric field

     Computed dipole along edir(3) : 
        Dipole               -0.0200 Ry au,         -0.0509 Debye
        Dipole field         -0.0001 Ry au, 

        Potential amp.        0.0054 Ry
        Total length         45.0226 bohr


     Adding external electric field

     Computed dipole along edir(3) : 
        Dipole               -0.0200 Ry au,         -0.0509 Debye
        Dipole field         -0.0001 Ry au, 

        Potential amp.        0.0054 Ry
        Total length         45.0226 bohr


     total cpu time spent up to now is     2340.1 secs

     total energy              =    -788.88937482 Ry
     estimated scf accuracy    <       0.01428352 Ry

     total magnetization       =    20.42 Bohr mag/cell
     absolute magnetization    =    21.30 Bohr mag/cell

     iteration # 11     ecut=    55.12 Ry     beta= 0.10
     Davidson diagonalization with overlap
     ethr =  1.32E-05,  avg # of iterations =  2.8

     Adding external electric field

     Computed dipole along edir(3) : 
        Dipole               -0.0128 Ry au,         -0.0325 Debye
        Dipole field         -0.0000 Ry au, 

        Potential amp.        0.0034 Ry
        Total length         45.0226 bohr


     Adding external electric field

     Computed dipole along edir(3) : 
        Dipole               -0.0128 Ry au,         -0.0325 Debye
        Dipole field         -0.0000 Ry au, 

        Potential amp.        0.0034 Ry
        Total length         45.0226 bohr


     total cpu time spent up to now is     2508.6 secs

     total energy              =    -789.36212700 Ry
     estimated scf accuracy    <       0.01002766 Ry

     total magnetization       =    20.40 Bohr mag/cell
     absolute magnetization    =    21.32 Bohr mag/cell

     iteration # 12     ecut=    55.12 Ry     beta= 0.10
     Davidson diagonalization with overlap
     ethr =  9.28E-06,  avg # of iterations =  3.4

     Adding external electric field

     Computed dipole along edir(3) : 
        Dipole               -0.0082 Ry au,         -0.0209 Debye
        Dipole field         -0.0000 Ry au, 

        Potential amp.        0.0022 Ry
        Total length         45.0226 bohr


     Adding external electric field

     Computed dipole along edir(3) : 
        Dipole               -0.0082 Ry au,         -0.0209 Debye
        Dipole field         -0.0000 Ry au, 

        Potential amp.        0.0022 Ry
        Total length         45.0226 bohr


     total cpu time spent up to now is     2758.7 secs

     total energy              =    -789.33732439 Ry
     estimated scf accuracy    <       0.00305578 Ry

     total magnetization       =    20.35 Bohr mag/cell
     absolute magnetization    =    21.39 Bohr mag/cell

     iteration # 13     ecut=    55.12 Ry     beta= 0.10
     Davidson diagonalization with overlap
     c_bands:  1 eigenvalues not converged
     ethr =  2.83E-06,  avg # of iterations =  6.8

     Adding external electric field

     Computed dipole along edir(3) : 
        Dipole               -0.0072 Ry au,         -0.0184 Debye
        Dipole field         -0.0000 Ry au, 

        Potential amp.        0.0019 Ry
        Total length         45.0226 bohr


     Adding external electric field

     Computed dipole along edir(3) : 
        Dipole               -0.0072 Ry au,         -0.0184 Debye
        Dipole field         -0.0000 Ry au, 

        Potential amp.        0.0019 Ry
        Total length         45.0226 bohr


     total cpu time spent up to now is     3039.8 secs

     total energy              =    -789.50751959 Ry
     estimated scf accuracy    <       0.00141460 Ry

     total magnetization       =    20.36 Bohr mag/cell
     absolute magnetization    =    21.46 Bohr mag/cell

     iteration # 14     ecut=    55.12 Ry     beta= 0.10
     Davidson diagonalization with overlap
     ethr =  1.31E-06,  avg # of iterations =  2.3

     Adding external electric field

     Computed dipole along edir(3) : 
        Dipole               -0.0046 Ry au,         -0.0117 Debye
        Dipole field         -0.0000 Ry au, 

        Potential amp.        0.0012 Ry
        Total length         45.0226 bohr


     Adding external electric field

     Computed dipole along edir(3) : 
        Dipole               -0.0046 Ry au,         -0.0117 Debye
        Dipole field         -0.0000 Ry au, 

        Potential amp.        0.0012 Ry
        Total length         45.0226 bohr


     total cpu time spent up to now is     3228.6 secs

     total energy              =    -790.81303451 Ry
     estimated scf accuracy    <       0.00100242 Ry

     total magnetization       =    20.35 Bohr mag/cell
     absolute magnetization    =    21.49 Bohr mag/cell

     iteration # 15     ecut=    55.12 Ry     beta= 0.10
     Davidson diagonalization with overlap
     ethr =  9.28E-07,  avg # of iterations =  4.7

     Adding external electric field

     Computed dipole along edir(3) : 
        Dipole               -0.0062 Ry au,         -0.0158 Debye
        Dipole field         -0.0000 Ry au, 

        Potential amp.        0.0017 Ry
        Total length         45.0226 bohr


     Adding external electric field

     Computed dipole along edir(3) : 
        Dipole               -0.0062 Ry au,         -0.0158 Debye
        Dipole field         -0.0000 Ry au, 

        Potential amp.        0.0017 Ry
        Total length         45.0226 bohr


     total cpu time spent up to now is     3533.8 secs

     total energy              =    -790.86565253 Ry
     estimated scf accuracy    <       0.00037918 Ry

     total magnetization       =    20.34 Bohr mag/cell
     absolute magnetization    =    21.58 Bohr mag/cell

     iteration # 16     ecut=    55.12 Ry     beta= 0.10
     Davidson diagonalization with overlap
     c_bands:  1 eigenvalues not converged
     ethr =  3.51E-07,  avg # of iterations =  5.4

     Adding external electric field

     Computed dipole along edir(3) : 
        Dipole               -0.0059 Ry au,         -0.0150 Debye
        Dipole field         -0.0000 Ry au, 

        Potential amp.        0.0016 Ry
        Total length         45.0226 bohr


     Adding external electric field

     Computed dipole along edir(3) : 
        Dipole               -0.0059 Ry au,         -0.0150 Debye
        Dipole field         -0.0000 Ry au, 

        Potential amp.        0.0016 Ry
        Total length         45.0226 bohr


     total cpu time spent up to now is     3799.4 secs

     total energy              =    -790.37451169 Ry
     estimated scf accuracy    <       0.00021314 Ry

     total magnetization       =    20.34 Bohr mag/cell
     absolute magnetization    =    21.62 Bohr mag/cell

     iteration # 17     ecut=    55.12 Ry     beta= 0.10
     Davidson diagonalization with overlap
     ethr =  1.97E-07,  avg # of iterations =  1.5

     Adding external electric field

     Computed dipole along edir(3) : 
        Dipole               -0.0061 Ry au,         -0.0156 Debye
        Dipole field         -0.0000 Ry au, 

        Potential amp.        0.0016 Ry
        Total length         45.0226 bohr


     Adding external electric field

     Computed dipole along edir(3) : 
        Dipole               -0.0061 Ry au,         -0.0156 Debye
        Dipole field         -0.0000 Ry au, 

        Potential amp.        0.0016 Ry
        Total length         45.0226 bohr


     total cpu time spent up to now is     4007.4 secs

     total energy              =    -790.33554237 Ry
     estimated scf accuracy    <       0.00017804 Ry

     total magnetization       =    20.34 Bohr mag/cell
     absolute magnetization    =    21.62 Bohr mag/cell

     iteration # 18     ecut=    55.12 Ry     beta= 0.10
     Davidson diagonalization with overlap
     ethr =  1.65E-07,  avg # of iterations =  1.9

     Adding external electric field

     Computed dipole along edir(3) : 
        Dipole               -0.0096 Ry au,         -0.0244 Debye
        Dipole field         -0.0000 Ry au, 

        Potential amp.        0.0026 Ry
        Total length         45.0226 bohr


     Adding external electric field

     Computed dipole along edir(3) : 
        Dipole               -0.0096 Ry au,         -0.0244 Debye
        Dipole field         -0.0000 Ry au, 

        Potential amp.        0.0026 Ry
        Total length         45.0226 bohr


     total cpu time spent up to now is     4215.8 secs

     total energy              =    -790.52065523 Ry
     estimated scf accuracy    <       0.00012265 Ry

     total magnetization       =    20.34 Bohr mag/cell
     absolute magnetization    =    21.64 Bohr mag/cell

     iteration # 19     ecut=    55.12 Ry     beta= 0.10
     Davidson diagonalization with overlap
     c_bands:  1 eigenvalues not converged
     ethr =  1.14E-07,  avg # of iterations =  4.5

     Adding external electric field

     Computed dipole along edir(3) : 
        Dipole               -0.0076 Ry au,         -0.0194 Debye
        Dipole field         -0.0000 Ry au, 

        Potential amp.        0.0020 Ry
        Total length         45.0226 bohr


     Adding external electric field

     Computed dipole along edir(3) : 
        Dipole               -0.0076 Ry au,         -0.0194 Debye
        Dipole field         -0.0000 Ry au, 

        Potential amp.        0.0020 Ry
        Total length         45.0226 bohr


     total cpu time spent up to now is     4474.1 secs

     total energy              =    -791.28109545 Ry
     estimated scf accuracy    <       0.00067348 Ry

     total magnetization       =    20.34 Bohr mag/cell
     absolute magnetization    =    21.67 Bohr mag/cell

     iteration # 20     ecut=    55.12 Ry     beta= 0.10
     Davidson diagonalization with overlap
     ethr =  1.14E-07,  avg # of iterations =  4.5

     Adding external electric field

     Computed dipole along edir(3) : 
        Dipole               -0.0068 Ry au,         -0.0172 Debye
        Dipole field         -0.0000 Ry au, 

        Potential amp.        0.0018 Ry
        Total length         45.0226 bohr


     Adding external electric field

     Computed dipole along edir(3) : 
        Dipole               -0.0068 Ry au,         -0.0172 Debye
        Dipole field         -0.0000 Ry au, 

        Potential amp.        0.0018 Ry
        Total length         45.0226 bohr


     total cpu time spent up to now is     4760.8 secs

     total energy              =    -790.54869776 Ry
     estimated scf accuracy    <       0.00003803 Ry

     total magnetization       =    20.33 Bohr mag/cell
     absolute magnetization    =    21.71 Bohr mag/cell

     iteration # 21     ecut=    55.12 Ry     beta= 0.10
     Davidson diagonalization with overlap
     c_bands:  1 eigenvalues not converged
     ethr =  3.52E-08,  avg # of iterations =  5.8

     Adding external electric field

     Computed dipole along edir(3) : 
        Dipole               -0.0069 Ry au,         -0.0175 Debye
        Dipole field         -0.0000 Ry au, 

        Potential amp.        0.0019 Ry
        Total length         45.0226 bohr


     Adding external electric field

     Computed dipole along edir(3) : 
        Dipole               -0.0069 Ry au,         -0.0175 Debye
        Dipole field         -0.0000 Ry au, 

        Potential amp.        0.0019 Ry
        Total length         45.0226 bohr


     total cpu time spent up to now is     5012.5 secs

     total energy              =    -790.31934026 Ry
     estimated scf accuracy    <       0.00004017 Ry

     total magnetization       =    20.34 Bohr mag/cell
     absolute magnetization    =    21.72 Bohr mag/cell

     iteration # 22     ecut=    55.12 Ry     beta= 0.10
     Davidson diagonalization with overlap
     ethr =  3.52E-08,  avg # of iterations =  1.3

     Adding external electric field

     Computed dipole along edir(3) : 
        Dipole               -0.0071 Ry au,         -0.0181 Debye
        Dipole field         -0.0000 Ry au, 

        Potential amp.        0.0019 Ry
        Total length         45.0226 bohr


     Adding external electric field

     Computed dipole along edir(3) : 
        Dipole               -0.0071 Ry au,         -0.0181 Debye
        Dipole field         -0.0000 Ry au, 

        Potential amp.        0.0019 Ry
        Total length         45.0226 bohr


     total cpu time spent up to now is     5201.2 secs

     total energy              =    -790.10888781 Ry
     estimated scf accuracy    <       0.00001782 Ry

     total magnetization       =    20.34 Bohr mag/cell
     absolute magnetization    =    21.72 Bohr mag/cell

     iteration # 23     ecut=    55.12 Ry     beta= 0.10
     Davidson diagonalization with overlap
     ethr =  1.65E-08,  avg # of iterations =  2.9

     Adding external electric field

     Computed dipole along edir(3) : 
        Dipole               -0.0109 Ry au,         -0.0277 Debye
        Dipole field         -0.0000 Ry au, 

        Potential amp.        0.0029 Ry
        Total length         45.0226 bohr


     Adding external electric field

     Computed dipole along edir(3) : 
        Dipole               -0.0109 Ry au,         -0.0277 Debye
        Dipole field         -0.0000 Ry au, 

        Potential amp.        0.0029 Ry
        Total length         45.0226 bohr


     Magnetic moment per site:
     atom:    1    charge:    6.5136    magn:    3.1243    constr:    0.0000
     atom:    2    charge:    6.5114    magn:    3.1262    constr:    0.0000
     atom:    3    charge:    8.2329    magn:    0.3093    constr:    0.0000
     atom:    4    charge:    8.2329    magn:    0.3093    constr:    0.0000
     atom:    5    charge:    6.5872    magn:    3.0617    constr:    0.0000
     atom:    6    charge:    6.5874    magn:    3.0616    constr:    0.0000
     atom:    7    charge:    8.2694    magn:    0.3959    constr:    0.0000
     atom:    8    charge:    8.2694    magn:    0.3959    constr:    0.0000
     atom:    9    charge:    6.5432    magn:    3.0998    constr:    0.0000
     atom:   10    charge:    6.5433    magn:    3.0997    constr:    0.0000
     atom:   11    charge:    8.2334    magn:    0.3074    constr:    0.0000
     atom:   12    charge:    8.2334    magn:    0.3074    constr:    0.0000

     total cpu time spent up to now is     5442.4 secs

     End of self-consistent calculation

     Number of k-points >= 100: set verbosity='high' to print the bands.

     the Fermi energy is    -0.0203 ev

!    total energy              =    -785.87670999 Ry
     estimated scf accuracy    <       0.00000912 Ry
     smearing contrib. (-TS)   =      -0.05440556 Ry
     internal energy E=F+TS    =    -785.82230442 Ry

     The total energy is F=E-TS. E is the sum of the following terms:
     one-electron contribution =   -6698.99213969 Ry
     hartree contribution      =    3432.04497966 Ry
     xc contribution           =    -327.70201674 Ry
     ewald contribution        =    2808.82687198 Ry
     electric field correction =       0.00000036 Ry

     total magnetization       =    20.34 Bohr mag/cell
     absolute magnetization    =    21.73 Bohr mag/cell

     convergence has been achieved in  23 iterations

     Forces acting on atoms (cartesian axes, Ry/au):

     atom    1 type  1   force =     0.00747243    0.00434670    0.01205159
     atom    2 type  1   force =     0.00746411    0.00438427    0.01209949
     atom    3 type  2   force =    -0.01235770   -0.00723017   -0.00570137
     atom    4 type  2   force =    -0.01235742   -0.00722068   -0.00570176
     atom    5 type  1   force =    -0.00056221   -0.00032171   -0.00156750
     atom    6 type  1   force =    -0.00040317   -0.00023572   -0.00141908
     atom    7 type  2   force =     0.00555586    0.00318730   -0.00593234
     atom    8 type  2   force =     0.00550012    0.00327866   -0.00593116
     atom    9 type  1   force =     0.00009563    0.00005253    0.00084205
     atom   10 type  1   force =     0.00009170    0.00005661    0.00084151
     atom   11 type  2   force =    -0.00023568   -0.00017528    0.00020963
     atom   12 type  2   force =    -0.00026367   -0.00012250    0.00020894

     Total force =     0.032793     Total SCF correction =     0.004150
     SCF correction compared to forces is large: reduce conv_thr to get better values

     Writing output data file ./Fe2Pd2/Fe2Pd2_beef.save/

     init_run     :     95.40s CPU    153.53s WALL (       1 calls)
     electrons    :   3142.30s CPU   5282.28s WALL (       1 calls)
     forces       :     35.87s CPU     55.31s WALL (       1 calls)

     Called by init_run:
     wfcinit      :     81.96s CPU    129.10s WALL (       1 calls)
     potinit      :      9.45s CPU     17.77s WALL (       1 calls)
     hinit0       :      2.32s CPU      4.19s WALL (       1 calls)

     Called by electrons:
     c_bands      :   2709.77s CPU   4478.12s WALL (      23 calls)
     sum_band     :    388.76s CPU    715.44s WALL (      23 calls)
     v_of_rho     :     33.03s CPU     68.96s WALL (      24 calls)
     newd         :     18.20s CPU     31.50s WALL (      24 calls)
     mix_rho      :      1.09s CPU      3.11s WALL (      23 calls)
     vdW_kernel   :      6.51s CPU      9.60s WALL (       1 calls)

     Called by c_bands:
     init_us_2    :     12.62s CPU     13.50s WALL (    7104 calls)
     cegterg      :   2659.31s CPU   4406.50s WALL (    3404 calls)

     Called by *egterg:
     cdiaghg      :    173.51s CPU    217.84s WALL (   14158 calls)
     h_psi        :   1618.95s CPU   2692.12s WALL (   14306 calls)
     s_psi        :    323.18s CPU    326.59s WALL (   14306 calls)
     g_psi        :      1.85s CPU      2.11s WALL (   10754 calls)

     Called by h_psi:
     h_psi:calbec :    394.42s CPU    794.29s WALL (   14306 calls)
     vloc_psi     :    886.55s CPU   1554.82s WALL (   14306 calls)
     add_vuspsi   :    335.81s CPU    340.11s WALL (   14306 calls)

     General routines
     calbec       :    587.30s CPU   1158.90s WALL (   18302 calls)
     fft          :     17.45s CPU     65.84s WALL (    2213 calls)
     ffts         :      0.17s CPU      0.63s WALL (      94 calls)
     fftw         :   1023.02s CPU   1827.96s WALL ( 1277362 calls)
     interpolate  :      0.44s CPU      1.38s WALL (      48 calls)

     Parallel routines
     fft_scatt_xy :     60.48s CPU     87.96s WALL ( 1279669 calls)
     fft_scatt_yz :    399.87s CPU   1060.35s WALL ( 1279669 calls)

     PWSCF        :  54m53.89s CPU      1h33m WALL


   This run was terminated on:   0:34:21  29Jun2022            

=------------------------------------------------------------------------------=
   JOB DONE.
=------------------------------------------------------------------------------=
