
     Program PWSCF v.6.6 starts on 28Jun2022 at 22: 6: 7 

     This program is part of the open-source Quantum ESPRESSO suite
     for quantum simulation of materials; please cite
         "P. Giannozzi et al., J. Phys.:Condens. Matter 21 395502 (2009);
         "P. Giannozzi et al., J. Phys.:Condens. Matter 29 465901 (2017);
          URL http://www.quantum-espresso.org", 
     in publications or presentations arising from this work. More details at
     http://www.quantum-espresso.org/quote

     Parallel version (MPI), running on    37 processors

     MPI processes distributed on     7 nodes
     R & G space division:  proc/nbgrp/npool/nimage =      37
     Fft bands division:     nmany     =       1
     Reading input from Fe2Ru2.in
Warning: card &CELL ignored
Warning: card / ignored

     Current dimensions of program PWSCF are:
     Max number of different atomic species (ntypx) = 10
     Max number of k-points (npk) =  40000
     Max angular momentum in pseudopotentials (lmaxx) =  3
     Presently stress not available with electric field and gates

     Message from routine cell_base_init:
     DEPRECATED: use true lattice parameter, not A to a.u. conversion factor
     file Fe.pbe-n-rrkjus_psl.1.0.0.UPF: wavefunction(s)  3D renormalized

     **************************************************************************
     Initializing libbeef V0.1.2 with the BEEF-vdW functional.
     Citation: Wellendorff et al., PRB 85, 235149 (2012).
     **************************************************************************


     IMPORTANT: XC functional enforced from input :
     Exchange-correlation= BEEF-VDW
                           (   1   4  43  14   2   0   0)
     Any further DFT definition will be discarded
     Please, verify this is what you really want


     Subspace diagonalization in iterative solution of the eigenvalue problem:
     a serial algorithm will be used


     Parallelization info
     --------------------
     sticks:   dense  smooth     PW     G-vecs:    dense   smooth      PW
     Min         102      40     11                23242     5868     905
     Max         103      41     12                23258     5899     934
     Sum        3777    1507    433               860335   217695   34121



     bravais-lattice index     =            0
     lattice parameter (alat)  =       1.8897  a.u.
     unit-cell volume          =    3936.2909 (a.u.)^3
     number of atoms/cell      =           12
     number of atomic types    =            2
     number of electrons       =       144.00
     number of Kohn-Sham states=           86
     kinetic-energy cutoff     =      55.1240  Ry
     charge density cutoff     =     551.2396  Ry
     convergence threshold     =      1.0E-05
     mixing beta               =       0.1000
     number of iterations used =           10  plain     mixing
     Exchange-correlation= BEEF-VDW
                           (   1   4  43  14   2   0   0)

     celldm(1)=   1.889726  celldm(2)=   0.000000  celldm(3)=   0.000000
     celldm(4)=   0.000000  celldm(5)=   0.000000  celldm(6)=   0.000000

     crystal axes: (cart. coord. in units of alat)
               a(1) = (   5.257692   0.000000   0.000000 )  
               a(2) = (   2.607134   4.565761   0.000000 )  
               a(3) = (   0.000000   0.000000  24.298662 )  

     reciprocal axes: (cart. coord. in units 2 pi/alat)
               b(1) = (  0.190198 -0.108606  0.000000 )  
               b(2) = (  0.000000  0.219022  0.000000 )  
               b(3) = (  0.000000  0.000000  0.041155 )  


     PseudoPot. # 1 for Fe read from file:
     ../pseudo/Fe.pbe-n-rrkjus_psl.1.0.0.UPF
     MD5 check sum: e37eda618788e2416bb099156d582190
     Pseudo is Ultrasoft + core correction, Zval =  8.0
     Generated using "atomic" code by A. Dal Corso v.6.5
     Using radial grid of 1191 points,  6 beta functions with: 
                l(1) =   0
                l(2) =   0
                l(3) =   1
                l(4) =   1
                l(5) =   2
                l(6) =   2
     Q(r) pseudized with 0 coefficients 


     PseudoPot. # 2 for Ru read from file:
     ../pseudo/Ru.pbe-spn-rrkjus_psl.1.0.0.UPF
     MD5 check sum: fbaca725316a1a65f98761fd4ac95971
     Pseudo is Ultrasoft + core correction, Zval = 16.0
     Generated using "atomic" code by A. Dal Corso v.6.2.2
     Using radial grid of 1233 points,  6 beta functions with: 
                l(1) =   0
                l(2) =   0
                l(3) =   1
                l(4) =   1
                l(5) =   2
                l(6) =   2
     Q(r) pseudized with 0 coefficients 


     atomic species   valence    mass     pseudopotential
        Fe             8.00    55.84500     Fe( 1.00)
        Ru            16.00   101.07000     Ru( 1.00)

     Starting magnetic structure 
     atomic species   magnetization
        Fe           0.750
        Ru           0.000

     No symmetry found



   Cartesian axes

     site n.     atom                  positions (alat units)
         1           Fe  tau(   1) = (   0.0000000   0.0000000  10.0000000  )
         2           Fe  tau(   2) = (   3.9324133   2.2828807  10.0000000  )
         3           Ru  tau(   3) = (   2.6288461   0.0000000  10.0000000  )
         4           Ru  tau(   4) = (   1.3035672   2.2828807  10.0000000  )
         5           Fe  tau(   5) = (   5.2576921   3.0522437  12.1493312  )
         6           Fe  tau(   6) = (   1.3252788   0.7693630  12.1493312  )
         7           Ru  tau(   7) = (   2.6288461   3.0522437  12.1493312  )
         8           Ru  tau(   8) = (   3.9541249   0.7693630  12.1493312  )
         9           Fe  tau(   9) = (   2.6247837   1.5237651  14.2382877  )
        10           Fe  tau(  10) = (   6.5569047   3.8064732  14.2381015  )
        11           Ru  tau(  11) = (   5.2652065   1.5303757  14.2448228  )
        12           Ru  tau(  12) = (   3.9398358   3.8134201  14.2448228  )

     number of k points=    74  Fermi-Dirac smearing, width (Ry)=  0.0100
                       cart. coord. in units 2pi/alat
        k(    1) = (   0.0000000   0.0000000   0.0000000), wk =   0.0069444
        k(    2) = (   0.0000000   0.0182518   0.0000000), wk =   0.0138889
        k(    3) = (   0.0000000   0.0365036   0.0000000), wk =   0.0138889
        k(    4) = (   0.0000000   0.0547554   0.0000000), wk =   0.0138889
        k(    5) = (   0.0000000   0.0730072   0.0000000), wk =   0.0138889
        k(    6) = (   0.0000000   0.0912590   0.0000000), wk =   0.0138889
        k(    7) = (   0.0000000  -0.1095108   0.0000000), wk =   0.0069444
        k(    8) = (   0.0158498  -0.0090505   0.0000000), wk =   0.0138889
        k(    9) = (   0.0158498   0.0092013   0.0000000), wk =   0.0138889
        k(   10) = (   0.0158498   0.0274531   0.0000000), wk =   0.0138889
        k(   11) = (   0.0158498   0.0457049   0.0000000), wk =   0.0138889
        k(   12) = (   0.0158498   0.0639567   0.0000000), wk =   0.0138889
        k(   13) = (   0.0158498   0.0822084   0.0000000), wk =   0.0138889
        k(   14) = (   0.0158498  -0.1185613   0.0000000), wk =   0.0138889
        k(   15) = (   0.0158498  -0.1003095   0.0000000), wk =   0.0138889
        k(   16) = (   0.0158498  -0.0820577   0.0000000), wk =   0.0138889
        k(   17) = (   0.0158498  -0.0638059   0.0000000), wk =   0.0138889
        k(   18) = (   0.0158498  -0.0455541   0.0000000), wk =   0.0138889
        k(   19) = (   0.0158498  -0.0273023   0.0000000), wk =   0.0138889
        k(   20) = (   0.0316996  -0.0181011   0.0000000), wk =   0.0138889
        k(   21) = (   0.0316996   0.0001507   0.0000000), wk =   0.0138889
        k(   22) = (   0.0316996   0.0184025   0.0000000), wk =   0.0138889
        k(   23) = (   0.0316996   0.0366543   0.0000000), wk =   0.0138889
        k(   24) = (   0.0316996   0.0549061   0.0000000), wk =   0.0138889
        k(   25) = (   0.0316996   0.0731579   0.0000000), wk =   0.0138889
        k(   26) = (   0.0316996  -0.1276118   0.0000000), wk =   0.0138889
        k(   27) = (   0.0316996  -0.1093600   0.0000000), wk =   0.0138889
        k(   28) = (   0.0316996  -0.0911082   0.0000000), wk =   0.0138889
        k(   29) = (   0.0316996  -0.0728564   0.0000000), wk =   0.0138889
        k(   30) = (   0.0316996  -0.0546046   0.0000000), wk =   0.0138889
        k(   31) = (   0.0316996  -0.0363528   0.0000000), wk =   0.0138889
        k(   32) = (   0.0475494  -0.0271516   0.0000000), wk =   0.0138889
        k(   33) = (   0.0475494  -0.0088998   0.0000000), wk =   0.0138889
        k(   34) = (   0.0475494   0.0093520   0.0000000), wk =   0.0138889
        k(   35) = (   0.0475494   0.0276038   0.0000000), wk =   0.0138889
        k(   36) = (   0.0475494   0.0458556   0.0000000), wk =   0.0138889
        k(   37) = (   0.0475494   0.0641074   0.0000000), wk =   0.0138889
        k(   38) = (   0.0475494  -0.1366623   0.0000000), wk =   0.0138889
        k(   39) = (   0.0475494  -0.1184106   0.0000000), wk =   0.0138889
        k(   40) = (   0.0475494  -0.1001588   0.0000000), wk =   0.0138889
        k(   41) = (   0.0475494  -0.0819070   0.0000000), wk =   0.0138889
        k(   42) = (   0.0475494  -0.0636552   0.0000000), wk =   0.0138889
        k(   43) = (   0.0475494  -0.0454034   0.0000000), wk =   0.0138889
        k(   44) = (   0.0633992  -0.0362021   0.0000000), wk =   0.0138889
        k(   45) = (   0.0633992  -0.0179503   0.0000000), wk =   0.0138889
        k(   46) = (   0.0633992   0.0003015   0.0000000), wk =   0.0138889
        k(   47) = (   0.0633992   0.0185533   0.0000000), wk =   0.0138889
        k(   48) = (   0.0633992   0.0368051   0.0000000), wk =   0.0138889
        k(   49) = (   0.0633992   0.0550569   0.0000000), wk =   0.0138889
        k(   50) = (   0.0633992  -0.1457129   0.0000000), wk =   0.0138889
        k(   51) = (   0.0633992  -0.1274611   0.0000000), wk =   0.0138889
        k(   52) = (   0.0633992  -0.1092093   0.0000000), wk =   0.0138889
        k(   53) = (   0.0633992  -0.0909575   0.0000000), wk =   0.0138889
        k(   54) = (   0.0633992  -0.0727057   0.0000000), wk =   0.0138889
        k(   55) = (   0.0633992  -0.0544539   0.0000000), wk =   0.0138889
        k(   56) = (   0.0792490  -0.0452526   0.0000000), wk =   0.0138889
        k(   57) = (   0.0792490  -0.0270008   0.0000000), wk =   0.0138889
        k(   58) = (   0.0792490  -0.0087490   0.0000000), wk =   0.0138889
        k(   59) = (   0.0792490   0.0095028   0.0000000), wk =   0.0138889
        k(   60) = (   0.0792490   0.0277546   0.0000000), wk =   0.0138889
        k(   61) = (   0.0792490   0.0460063   0.0000000), wk =   0.0138889
        k(   62) = (   0.0792490  -0.1547634   0.0000000), wk =   0.0138889
        k(   63) = (   0.0792490  -0.1365116   0.0000000), wk =   0.0138889
        k(   64) = (   0.0792490  -0.1182598   0.0000000), wk =   0.0138889
        k(   65) = (   0.0792490  -0.1000080   0.0000000), wk =   0.0138889
        k(   66) = (   0.0792490  -0.0817562   0.0000000), wk =   0.0138889
        k(   67) = (   0.0792490  -0.0635044   0.0000000), wk =   0.0138889
        k(   68) = (  -0.0950988   0.0543032   0.0000000), wk =   0.0069444
        k(   69) = (  -0.0950988   0.0725549   0.0000000), wk =   0.0138889
        k(   70) = (  -0.0950988   0.0908067   0.0000000), wk =   0.0138889
        k(   71) = (  -0.0950988   0.1090585   0.0000000), wk =   0.0138889
        k(   72) = (  -0.0950988   0.1273103   0.0000000), wk =   0.0138889
        k(   73) = (  -0.0950988   0.1455621   0.0000000), wk =   0.0138889
        k(   74) = (  -0.0950988  -0.0552076   0.0000000), wk =   0.0069444

     Dense  grid:   860335 G-vectors     FFT dimensions: (  75,  75, 360)

     Smooth grid:   217695 G-vectors     FFT dimensions: (  48,  48, 225)

     Estimated max dynamical RAM per process >     248.13 MB

     Estimated total dynamical RAM >       8.97 GB
     Generating pointlists ...
     new r_m :   1.0613 (alat units)  2.0056 (a.u.) for type    1
     new r_m :   1.0669 (alat units)  2.0161 (a.u.) for type    2

     Initial potential from superposition of free atoms

     starting charge  143.99303, renormalised to  144.00000


     %%%%%%%%%%%%%%%%%%%%%%%%%%%%%%%%%%%%%%%%%%%%%%%%%%%%%%%%%%%%%%%%%%%%%%%%
     %                                                                      %
     % You are using vdW-DF, which was implemented by the Thonhauser group. %
     % Please cite the following two papers that made this development      %
     % possible and the two reviews that describe the various versions:     %
     %                                                                      %
     %   T. Thonhauser et al., PRL 115, 136402 (2015).                      %
     %   T. Thonhauser et al., PRB 76, 125112 (2007).                       %
     %   K. Berland et al., Rep. Prog. Phys. 78, 066501 (2015).             %
     %   D.C. Langreth et al., J. Phys.: Condens. Matter 21, 084203 (2009). %
     %                                                                      %
     %                                                                      %
     % If you are calculating the stress with vdW-DF, please also cite:     %
     %                                                                      %
     %   R. Sabatini et al., J. Phys.: Condens. Matter 24, 424209 (2012).   %
     %                                                                      %
     %%%%%%%%%%%%%%%%%%%%%%%%%%%%%%%%%%%%%%%%%%%%%%%%%%%%%%%%%%%%%%%%%%%%%%%%



     Adding external electric field

     Computed dipole along edir(3) : 
        Dipole               -0.0000 Ry au,         -0.0000 Debye
        Dipole field         -0.0000 Ry au, 

        Potential amp.        0.0000 Ry
        Total length         44.7699 bohr


     Adding external electric field

     Computed dipole along edir(3) : 
        Dipole               -0.0000 Ry au,         -0.0000 Debye
        Dipole field         -0.0000 Ry au, 

        Potential amp.        0.0000 Ry
        Total length         44.7699 bohr

     Starting wfcs are  114 randomized atomic wfcs

     total cpu time spent up to now is      125.4 secs

     Self-consistent Calculation

     iteration #  1     ecut=    55.12 Ry     beta= 0.10
     Davidson diagonalization with overlap
     ethr =  1.00E-02,  avg # of iterations =  2.0

     Adding external electric field

     Computed dipole along edir(3) : 
        Dipole               -0.0426 Ry au,         -0.1082 Debye
        Dipole field         -0.0001 Ry au, 

        Potential amp.        0.0122 Ry
        Total length         44.7699 bohr


     Adding external electric field

     Computed dipole along edir(3) : 
        Dipole               -0.0426 Ry au,         -0.1082 Debye
        Dipole field         -0.0001 Ry au, 

        Potential amp.        0.0122 Ry
        Total length         44.7699 bohr


     total cpu time spent up to now is      358.2 secs

     total energy              =   -1562.11972432 Ry
     estimated scf accuracy    <      12.68444795 Ry

     total magnetization       =    27.35 Bohr mag/cell
     absolute magnetization    =    27.41 Bohr mag/cell

     iteration #  2     ecut=    55.12 Ry     beta= 0.10
     Davidson diagonalization with overlap
     ethr =  8.81E-03,  avg # of iterations =  1.5

     Adding external electric field

     Computed dipole along edir(3) : 
        Dipole                0.1450 Ry au,          0.3685 Debye
        Dipole field          0.0005 Ry au, 

        Potential amp.       -0.0414 Ry
        Total length         44.7699 bohr


     Adding external electric field

     Computed dipole along edir(3) : 
        Dipole                0.1450 Ry au,          0.3685 Debye
        Dipole field          0.0005 Ry au, 

        Potential amp.       -0.0414 Ry
        Total length         44.7699 bohr


     total cpu time spent up to now is      560.0 secs

     total energy              =   -1563.15099885 Ry
     estimated scf accuracy    <       3.45173052 Ry

     total magnetization       =    16.75 Bohr mag/cell
     absolute magnetization    =    17.35 Bohr mag/cell

     iteration #  3     ecut=    55.12 Ry     beta= 0.10
     Davidson diagonalization with overlap
     ethr =  2.40E-03,  avg # of iterations =  1.2

     Adding external electric field

     Computed dipole along edir(3) : 
        Dipole               -0.1576 Ry au,         -0.4007 Debye
        Dipole field         -0.0005 Ry au, 

        Potential amp.        0.0451 Ry
        Total length         44.7699 bohr


     Adding external electric field

     Computed dipole along edir(3) : 
        Dipole               -0.1576 Ry au,         -0.4007 Debye
        Dipole field         -0.0005 Ry au, 

        Potential amp.        0.0451 Ry
        Total length         44.7699 bohr


     total cpu time spent up to now is      751.1 secs

     total energy              =   -1563.38021706 Ry
     estimated scf accuracy    <       3.60263714 Ry

     total magnetization       =    20.40 Bohr mag/cell
     absolute magnetization    =    20.68 Bohr mag/cell

     iteration #  4     ecut=    55.12 Ry     beta= 0.10
     Davidson diagonalization with overlap
     ethr =  2.40E-03,  avg # of iterations =  1.1

     Adding external electric field

     Computed dipole along edir(3) : 
        Dipole                0.0398 Ry au,          0.1013 Debye
        Dipole field          0.0001 Ry au, 

        Potential amp.       -0.0114 Ry
        Total length         44.7699 bohr


     Adding external electric field

     Computed dipole along edir(3) : 
        Dipole                0.0398 Ry au,          0.1013 Debye
        Dipole field          0.0001 Ry au, 

        Potential amp.       -0.0114 Ry
        Total length         44.7699 bohr


     total cpu time spent up to now is      989.0 secs

     total energy              =   -1563.44276401 Ry
     estimated scf accuracy    <       3.39299437 Ry

     total magnetization       =    20.10 Bohr mag/cell
     absolute magnetization    =    20.52 Bohr mag/cell

     iteration #  5     ecut=    55.12 Ry     beta= 0.10
     Davidson diagonalization with overlap
     ethr =  2.36E-03,  avg # of iterations =  1.1

     Adding external electric field

     Computed dipole along edir(3) : 
        Dipole                0.0127 Ry au,          0.0322 Debye
        Dipole field          0.0000 Ry au, 

        Potential amp.       -0.0036 Ry
        Total length         44.7699 bohr


     Adding external electric field

     Computed dipole along edir(3) : 
        Dipole                0.0127 Ry au,          0.0322 Debye
        Dipole field          0.0000 Ry au, 

        Potential amp.       -0.0036 Ry
        Total length         44.7699 bohr


     total cpu time spent up to now is     1286.4 secs

     total energy              =   -1563.38724598 Ry
     estimated scf accuracy    <       0.68746800 Ry

     total magnetization       =    19.35 Bohr mag/cell
     absolute magnetization    =    20.00 Bohr mag/cell

     iteration #  6     ecut=    55.12 Ry     beta= 0.10
     Davidson diagonalization with overlap
     ethr =  4.77E-04,  avg # of iterations =  2.2

     Adding external electric field

     Computed dipole along edir(3) : 
        Dipole                0.0112 Ry au,          0.0285 Debye
        Dipole field          0.0000 Ry au, 

        Potential amp.       -0.0032 Ry
        Total length         44.7699 bohr


     Adding external electric field

     Computed dipole along edir(3) : 
        Dipole                0.0112 Ry au,          0.0285 Debye
        Dipole field          0.0000 Ry au, 

        Potential amp.       -0.0032 Ry
        Total length         44.7699 bohr


     total cpu time spent up to now is     1519.6 secs

     total energy              =   -1563.31807488 Ry
     estimated scf accuracy    <       0.29588233 Ry

     total magnetization       =    18.68 Bohr mag/cell
     absolute magnetization    =    19.49 Bohr mag/cell

     iteration #  7     ecut=    55.12 Ry     beta= 0.10
     Davidson diagonalization with overlap
     ethr =  2.05E-04,  avg # of iterations =  2.1

     Adding external electric field

     Computed dipole along edir(3) : 
        Dipole                0.0131 Ry au,          0.0332 Debye
        Dipole field          0.0000 Ry au, 

        Potential amp.       -0.0037 Ry
        Total length         44.7699 bohr


     Adding external electric field

     Computed dipole along edir(3) : 
        Dipole                0.0131 Ry au,          0.0332 Debye
        Dipole field          0.0000 Ry au, 

        Potential amp.       -0.0037 Ry
        Total length         44.7699 bohr


     total cpu time spent up to now is     1723.5 secs

     total energy              =   -1563.89520732 Ry
     estimated scf accuracy    <       0.15897631 Ry

     total magnetization       =    18.69 Bohr mag/cell
     absolute magnetization    =    19.63 Bohr mag/cell

     iteration #  8     ecut=    55.12 Ry     beta= 0.10
     Davidson diagonalization with overlap
     ethr =  1.10E-04,  avg # of iterations =  3.9

     Adding external electric field

     Computed dipole along edir(3) : 
        Dipole               -0.0024 Ry au,         -0.0061 Debye
        Dipole field         -0.0000 Ry au, 

        Potential amp.        0.0007 Ry
        Total length         44.7699 bohr


     Adding external electric field

     Computed dipole along edir(3) : 
        Dipole               -0.0024 Ry au,         -0.0061 Debye
        Dipole field         -0.0000 Ry au, 

        Potential amp.        0.0007 Ry
        Total length         44.7699 bohr


     total cpu time spent up to now is     1966.1 secs

     total energy              =   -1565.12416539 Ry
     estimated scf accuracy    <       0.08194122 Ry

     total magnetization       =    18.00 Bohr mag/cell
     absolute magnetization    =    19.22 Bohr mag/cell

     iteration #  9     ecut=    55.12 Ry     beta= 0.10
     Davidson diagonalization with overlap
     ethr =  5.69E-05,  avg # of iterations =  4.5

     Adding external electric field

     Computed dipole along edir(3) : 
        Dipole                0.0046 Ry au,          0.0118 Debye
        Dipole field          0.0000 Ry au, 

        Potential amp.       -0.0013 Ry
        Total length         44.7699 bohr


     Adding external electric field

     Computed dipole along edir(3) : 
        Dipole                0.0046 Ry au,          0.0118 Debye
        Dipole field          0.0000 Ry au, 

        Potential amp.       -0.0013 Ry
        Total length         44.7699 bohr


     total cpu time spent up to now is     2268.7 secs

     total energy              =   -1565.47143028 Ry
     estimated scf accuracy    <       0.03266981 Ry

     total magnetization       =    16.28 Bohr mag/cell
     absolute magnetization    =    18.13 Bohr mag/cell

     iteration # 10     ecut=    55.12 Ry     beta= 0.10
     Davidson diagonalization with overlap
     ethr =  2.27E-05,  avg # of iterations =  8.5

     Adding external electric field

     Computed dipole along edir(3) : 
        Dipole                0.0110 Ry au,          0.0279 Debye
        Dipole field          0.0000 Ry au, 

        Potential amp.       -0.0031 Ry
        Total length         44.7699 bohr


     Adding external electric field

     Computed dipole along edir(3) : 
        Dipole                0.0110 Ry au,          0.0279 Debye
        Dipole field          0.0000 Ry au, 

        Potential amp.       -0.0031 Ry
        Total length         44.7699 bohr


     total cpu time spent up to now is     2567.5 secs

     total energy              =   -1565.47859719 Ry
     estimated scf accuracy    <       0.09545378 Ry

     total magnetization       =    15.15 Bohr mag/cell
     absolute magnetization    =    17.35 Bohr mag/cell

     iteration # 11     ecut=    55.12 Ry     beta= 0.10
     Davidson diagonalization with overlap
     ethr =  2.27E-05,  avg # of iterations =  2.0

     Adding external electric field

     Computed dipole along edir(3) : 
        Dipole                0.0028 Ry au,          0.0071 Debye
        Dipole field          0.0000 Ry au, 

        Potential amp.       -0.0008 Ry
        Total length         44.7699 bohr


     Adding external electric field

     Computed dipole along edir(3) : 
        Dipole                0.0028 Ry au,          0.0071 Debye
        Dipole field          0.0000 Ry au, 

        Potential amp.       -0.0008 Ry
        Total length         44.7699 bohr


     total cpu time spent up to now is     2781.7 secs

     total energy              =   -1565.69542958 Ry
     estimated scf accuracy    <       0.03456048 Ry

     total magnetization       =    14.82 Bohr mag/cell
     absolute magnetization    =    17.20 Bohr mag/cell

     iteration # 12     ecut=    55.12 Ry     beta= 0.10
     Davidson diagonalization with overlap
     ethr =  2.27E-05,  avg # of iterations =  3.3

     Adding external electric field

     Computed dipole along edir(3) : 
        Dipole                0.0046 Ry au,          0.0118 Debye
        Dipole field          0.0000 Ry au, 

        Potential amp.       -0.0013 Ry
        Total length         44.7699 bohr


     Adding external electric field

     Computed dipole along edir(3) : 
        Dipole                0.0046 Ry au,          0.0118 Debye
        Dipole field          0.0000 Ry au, 

        Potential amp.       -0.0013 Ry
        Total length         44.7699 bohr


     total cpu time spent up to now is     3039.3 secs

     total energy              =   -1565.68966133 Ry
     estimated scf accuracy    <       0.01498785 Ry

     total magnetization       =    14.56 Bohr mag/cell
     absolute magnetization    =    17.10 Bohr mag/cell

     iteration # 13     ecut=    55.12 Ry     beta= 0.10
     Davidson diagonalization with overlap
     ethr =  1.04E-05,  avg # of iterations =  3.1

     Adding external electric field

     Computed dipole along edir(3) : 
        Dipole                0.0073 Ry au,          0.0187 Debye
        Dipole field          0.0000 Ry au, 

        Potential amp.       -0.0021 Ry
        Total length         44.7699 bohr


     Adding external electric field

     Computed dipole along edir(3) : 
        Dipole                0.0073 Ry au,          0.0187 Debye
        Dipole field          0.0000 Ry au, 

        Potential amp.       -0.0021 Ry
        Total length         44.7699 bohr


     total cpu time spent up to now is     3258.9 secs

     total energy              =   -1565.60898392 Ry
     estimated scf accuracy    <       0.01734913 Ry

     total magnetization       =    14.32 Bohr mag/cell
     absolute magnetization    =    16.94 Bohr mag/cell

     iteration # 14     ecut=    55.12 Ry     beta= 0.10
     Davidson diagonalization with overlap
     ethr =  1.04E-05,  avg # of iterations =  2.0

     Adding external electric field

     Computed dipole along edir(3) : 
        Dipole                0.0071 Ry au,          0.0181 Debye
        Dipole field          0.0000 Ry au, 

        Potential amp.       -0.0020 Ry
        Total length         44.7699 bohr


     Adding external electric field

     Computed dipole along edir(3) : 
        Dipole                0.0071 Ry au,          0.0181 Debye
        Dipole field          0.0000 Ry au, 

        Potential amp.       -0.0020 Ry
        Total length         44.7699 bohr


     total cpu time spent up to now is     3516.0 secs

     total energy              =   -1565.32879462 Ry
     estimated scf accuracy    <       0.00462618 Ry

     total magnetization       =    13.90 Bohr mag/cell
     absolute magnetization    =    16.60 Bohr mag/cell

     iteration # 15     ecut=    55.12 Ry     beta= 0.10
     Davidson diagonalization with overlap
     ethr =  3.21E-06,  avg # of iterations =  2.2

     Adding external electric field

     Computed dipole along edir(3) : 
        Dipole                0.0055 Ry au,          0.0140 Debye
        Dipole field          0.0000 Ry au, 

        Potential amp.       -0.0016 Ry
        Total length         44.7699 bohr


     Adding external electric field

     Computed dipole along edir(3) : 
        Dipole                0.0055 Ry au,          0.0140 Debye
        Dipole field          0.0000 Ry au, 

        Potential amp.       -0.0016 Ry
        Total length         44.7699 bohr


     total cpu time spent up to now is     3715.2 secs

     total energy              =   -1565.01150297 Ry
     estimated scf accuracy    <       0.00243899 Ry

     total magnetization       =    13.97 Bohr mag/cell
     absolute magnetization    =    16.64 Bohr mag/cell

     iteration # 16     ecut=    55.12 Ry     beta= 0.10
     Davidson diagonalization with overlap
     ethr =  1.69E-06,  avg # of iterations =  4.1

     Adding external electric field

     Computed dipole along edir(3) : 
        Dipole                0.0120 Ry au,          0.0304 Debye
        Dipole field          0.0000 Ry au, 

        Potential amp.       -0.0034 Ry
        Total length         44.7699 bohr


     Adding external electric field

     Computed dipole along edir(3) : 
        Dipole                0.0120 Ry au,          0.0304 Debye
        Dipole field          0.0000 Ry au, 

        Potential amp.       -0.0034 Ry
        Total length         44.7699 bohr


     total cpu time spent up to now is     3942.6 secs

     total energy              =   -1564.82577995 Ry
     estimated scf accuracy    <       0.00045242 Ry

     total magnetization       =    14.17 Bohr mag/cell
     absolute magnetization    =    16.75 Bohr mag/cell

     iteration # 17     ecut=    55.12 Ry     beta= 0.10
     Davidson diagonalization with overlap
     c_bands:  1 eigenvalues not converged
     c_bands:  2 eigenvalues not converged
     ethr =  3.14E-07,  avg # of iterations =  8.0

     Adding external electric field

     Computed dipole along edir(3) : 
        Dipole                0.0061 Ry au,          0.0155 Debye
        Dipole field          0.0000 Ry au, 

        Potential amp.       -0.0017 Ry
        Total length         44.7699 bohr


     Adding external electric field

     Computed dipole along edir(3) : 
        Dipole                0.0061 Ry au,          0.0155 Debye
        Dipole field          0.0000 Ry au, 

        Potential amp.       -0.0017 Ry
        Total length         44.7699 bohr


     total cpu time spent up to now is     4253.4 secs

     total energy              =   -1564.58471222 Ry
     estimated scf accuracy    <       0.00530196 Ry

     total magnetization       =    14.14 Bohr mag/cell
     absolute magnetization    =    16.72 Bohr mag/cell

     iteration # 18     ecut=    55.12 Ry     beta= 0.10
     Davidson diagonalization with overlap
     ethr =  3.14E-07,  avg # of iterations =  2.1

     Adding external electric field

     Computed dipole along edir(3) : 
        Dipole                0.0064 Ry au,          0.0162 Debye
        Dipole field          0.0000 Ry au, 

        Potential amp.       -0.0018 Ry
        Total length         44.7699 bohr


     Adding external electric field

     Computed dipole along edir(3) : 
        Dipole                0.0064 Ry au,          0.0162 Debye
        Dipole field          0.0000 Ry au, 

        Potential amp.       -0.0018 Ry
        Total length         44.7699 bohr


     total cpu time spent up to now is     4465.1 secs

     total energy              =   -1564.47077325 Ry
     estimated scf accuracy    <       0.00078140 Ry

     total magnetization       =    14.20 Bohr mag/cell
     absolute magnetization    =    16.75 Bohr mag/cell

     iteration # 19     ecut=    55.12 Ry     beta= 0.10
     Davidson diagonalization with overlap
     ethr =  3.14E-07,  avg # of iterations =  2.5

     Adding external electric field

     Computed dipole along edir(3) : 
        Dipole                0.0065 Ry au,          0.0166 Debye
        Dipole field          0.0000 Ry au, 

        Potential amp.       -0.0019 Ry
        Total length         44.7699 bohr


     Adding external electric field

     Computed dipole along edir(3) : 
        Dipole                0.0065 Ry au,          0.0166 Debye
        Dipole field          0.0000 Ry au, 

        Potential amp.       -0.0019 Ry
        Total length         44.7699 bohr


     total cpu time spent up to now is     4696.6 secs

     total energy              =   -1564.25229556 Ry
     estimated scf accuracy    <       0.00009497 Ry

     total magnetization       =    14.10 Bohr mag/cell
     absolute magnetization    =    16.65 Bohr mag/cell

     iteration # 20     ecut=    55.12 Ry     beta= 0.10
     Davidson diagonalization with overlap
     ethr =  6.59E-08,  avg # of iterations =  7.8

     Adding external electric field

     Computed dipole along edir(3) : 
        Dipole                0.0066 Ry au,          0.0169 Debye
        Dipole field          0.0000 Ry au, 

        Potential amp.       -0.0019 Ry
        Total length         44.7699 bohr


     Adding external electric field

     Computed dipole along edir(3) : 
        Dipole                0.0066 Ry au,          0.0169 Debye
        Dipole field          0.0000 Ry au, 

        Potential amp.       -0.0019 Ry
        Total length         44.7699 bohr


     total cpu time spent up to now is     4992.7 secs

     total energy              =   -1564.08539266 Ry
     estimated scf accuracy    <       0.00007795 Ry

     total magnetization       =    14.10 Bohr mag/cell
     absolute magnetization    =    16.65 Bohr mag/cell

     iteration # 21     ecut=    55.12 Ry     beta= 0.10
     Davidson diagonalization with overlap
     ethr =  5.41E-08,  avg # of iterations =  1.6

     Adding external electric field

     Computed dipole along edir(3) : 
        Dipole                0.0063 Ry au,          0.0160 Debye
        Dipole field          0.0000 Ry au, 

        Potential amp.       -0.0018 Ry
        Total length         44.7699 bohr


     Adding external electric field

     Computed dipole along edir(3) : 
        Dipole                0.0063 Ry au,          0.0160 Debye
        Dipole field          0.0000 Ry au, 

        Potential amp.       -0.0018 Ry
        Total length         44.7699 bohr


     total cpu time spent up to now is     5175.0 secs

     total energy              =   -1563.93092764 Ry
     estimated scf accuracy    <       0.00005452 Ry

     total magnetization       =    14.10 Bohr mag/cell
     absolute magnetization    =    16.64 Bohr mag/cell

     iteration # 22     ecut=    55.12 Ry     beta= 0.10
     Davidson diagonalization with overlap
     ethr =  3.79E-08,  avg # of iterations =  2.4

     Adding external electric field

     Computed dipole along edir(3) : 
        Dipole                0.0057 Ry au,          0.0144 Debye
        Dipole field          0.0000 Ry au, 

        Potential amp.       -0.0016 Ry
        Total length         44.7699 bohr


     Adding external electric field

     Computed dipole along edir(3) : 
        Dipole                0.0057 Ry au,          0.0144 Debye
        Dipole field          0.0000 Ry au, 

        Potential amp.       -0.0016 Ry
        Total length         44.7699 bohr


     total cpu time spent up to now is     5379.9 secs

     total energy              =   -1563.81568430 Ry
     estimated scf accuracy    <       0.00005373 Ry

     total magnetization       =    14.09 Bohr mag/cell
     absolute magnetization    =    16.63 Bohr mag/cell

     iteration # 23     ecut=    55.12 Ry     beta= 0.10
     Davidson diagonalization with overlap
     ethr =  3.73E-08,  avg # of iterations =  6.5

     Adding external electric field

     Computed dipole along edir(3) : 
        Dipole                0.0059 Ry au,          0.0149 Debye
        Dipole field          0.0000 Ry au, 

        Potential amp.       -0.0017 Ry
        Total length         44.7699 bohr


     Adding external electric field

     Computed dipole along edir(3) : 
        Dipole                0.0059 Ry au,          0.0149 Debye
        Dipole field          0.0000 Ry au, 

        Potential amp.       -0.0017 Ry
        Total length         44.7699 bohr


     total cpu time spent up to now is     5688.7 secs

     total energy              =   -1563.67653549 Ry
     estimated scf accuracy    <       0.00005750 Ry

     total magnetization       =    14.10 Bohr mag/cell
     absolute magnetization    =    16.61 Bohr mag/cell

     iteration # 24     ecut=    55.12 Ry     beta= 0.10
     Davidson diagonalization with overlap
     ethr =  3.73E-08,  avg # of iterations =  1.5

     Adding external electric field

     Computed dipole along edir(3) : 
        Dipole                0.0060 Ry au,          0.0152 Debye
        Dipole field          0.0000 Ry au, 

        Potential amp.       -0.0017 Ry
        Total length         44.7699 bohr


     Adding external electric field

     Computed dipole along edir(3) : 
        Dipole                0.0060 Ry au,          0.0152 Debye
        Dipole field          0.0000 Ry au, 

        Potential amp.       -0.0017 Ry
        Total length         44.7699 bohr


     total cpu time spent up to now is     5876.8 secs

     total energy              =   -1563.54864454 Ry
     estimated scf accuracy    <       0.00001397 Ry

     total magnetization       =    14.09 Bohr mag/cell
     absolute magnetization    =    16.61 Bohr mag/cell

     iteration # 25     ecut=    55.12 Ry     beta= 0.10
     Davidson diagonalization with overlap
     ethr =  9.70E-09,  avg # of iterations =  3.5

     Adding external electric field

     Computed dipole along edir(3) : 
        Dipole                0.0066 Ry au,          0.0168 Debye
        Dipole field          0.0000 Ry au, 

        Potential amp.       -0.0019 Ry
        Total length         44.7699 bohr


     Adding external electric field

     Computed dipole along edir(3) : 
        Dipole                0.0066 Ry au,          0.0168 Debye
        Dipole field          0.0000 Ry au, 

        Potential amp.       -0.0019 Ry
        Total length         44.7699 bohr


     total cpu time spent up to now is     6095.9 secs

     total energy              =   -1563.45909549 Ry
     estimated scf accuracy    <       0.00001083 Ry

     total magnetization       =    14.09 Bohr mag/cell
     absolute magnetization    =    16.60 Bohr mag/cell

     iteration # 26     ecut=    55.12 Ry     beta= 0.10
     Davidson diagonalization with overlap
     ethr =  7.52E-09,  avg # of iterations =  6.1

     Adding external electric field

     Computed dipole along edir(3) : 
        Dipole                0.0136 Ry au,          0.0347 Debye
        Dipole field          0.0000 Ry au, 

        Potential amp.       -0.0039 Ry
        Total length         44.7699 bohr


     Adding external electric field

     Computed dipole along edir(3) : 
        Dipole                0.0136 Ry au,          0.0347 Debye
        Dipole field          0.0000 Ry au, 

        Potential amp.       -0.0039 Ry
        Total length         44.7699 bohr


     Magnetic moment per site:
     atom:    1    charge:    6.5590    magn:    2.6414    constr:    0.0000
     atom:    2    charge:    6.5580    magn:    2.6419    constr:    0.0000
     atom:    3    charge:   13.7240    magn:   -0.0188    constr:    0.0000
     atom:    4    charge:   13.7239    magn:   -0.0188    constr:    0.0000
     atom:    5    charge:    6.6881    magn:    2.2168    constr:    0.0000
     atom:    6    charge:    6.6876    magn:    2.2170    constr:    0.0000
     atom:    7    charge:   13.7683    magn:   -0.1851    constr:    0.0000
     atom:    8    charge:   13.7684    magn:   -0.1851    constr:    0.0000
     atom:    9    charge:    6.5847    magn:    2.5396    constr:    0.0000
     atom:   10    charge:    6.5853    magn:    2.5392    constr:    0.0000
     atom:   11    charge:   13.7370    magn:   -0.0874    constr:    0.0000
     atom:   12    charge:   13.7370    magn:   -0.0873    constr:    0.0000

     total cpu time spent up to now is     6393.6 secs

     End of self-consistent calculation

     Number of k-points >= 100: set verbosity='high' to print the bands.

     the Fermi energy is     1.1216 ev

!    total energy              =   -1562.84981947 Ry
     estimated scf accuracy    <       0.00000891 Ry
     smearing contrib. (-TS)   =      -0.08085311 Ry
     internal energy E=F+TS    =   -1562.76896636 Ry

     The total energy is F=E-TS. E is the sum of the following terms:
     one-electron contribution =  -13256.56795384 Ry
     hartree contribution      =    6668.69329744 Ry
     xc contribution           =    -372.75399583 Ry
     ewald contribution        =    5397.85968527 Ry
     electric field correction =       0.00000059 Ry

     total magnetization       =    14.09 Bohr mag/cell
     absolute magnetization    =    16.60 Bohr mag/cell

     convergence has been achieved in  26 iterations

     Forces acting on atoms (cartesian axes, Ry/au):

     atom    1 type  1   force =     0.00372519    0.00216026    0.00594465
     atom    2 type  1   force =     0.00368297    0.00213861    0.00596371
     atom    3 type  2   force =    -0.00027876   -0.00019600    0.00955399
     atom    4 type  2   force =    -0.00031050   -0.00014579    0.00955049
     atom    5 type  1   force =     0.00178074    0.00102729   -0.00628645
     atom    6 type  1   force =     0.00189044    0.00110429   -0.00617377
     atom    7 type  2   force =    -0.00276677   -0.00147042   -0.00918614
     atom    8 type  2   force =    -0.00264987   -0.00167453   -0.00919064
     atom    9 type  1   force =    -0.00107907   -0.00062542   -0.00064637
     atom   10 type  1   force =    -0.00102157   -0.00059342   -0.00053097
     atom   11 type  2   force =    -0.00150514   -0.00083218    0.00049880
     atom   12 type  2   force =    -0.00146767   -0.00089269    0.00050271

     Total force =     0.023990     Total SCF correction =     0.013255
     SCF correction compared to forces is large: reduce conv_thr to get better values

     Writing output data file ./Fe2Ru2/Fe2Ru2_beef.save/

     init_run     :     69.35s CPU    116.59s WALL (       1 calls)
     electrons    :   3709.79s CPU   6268.55s WALL (       1 calls)
     forces       :     28.26s CPU     52.05s WALL (       1 calls)

     Called by init_run:
     wfcinit      :     58.66s CPU     99.33s WALL (       1 calls)
     potinit      :      7.50s CPU     10.72s WALL (       1 calls)
     hinit0       :      2.10s CPU      4.27s WALL (       1 calls)

     Called by electrons:
     c_bands      :   3292.62s CPU   5501.00s WALL (      26 calls)
     sum_band     :    379.29s CPU    688.92s WALL (      26 calls)
     v_of_rho     :     28.03s CPU     58.03s WALL (      27 calls)
     newd         :     15.58s CPU     26.37s WALL (      27 calls)
     mix_rho      :      0.89s CPU      2.69s WALL (      26 calls)
     vdW_kernel   :      5.61s CPU      6.23s WALL (       1 calls)

     Called by c_bands:
     init_us_2    :      9.03s CPU     10.04s WALL (    7992 calls)
     cegterg      :   3243.83s CPU   5404.13s WALL (    3848 calls)

     Called by *egterg:
     cdiaghg      :    398.26s CPU    508.90s WALL (   16717 calls)
     h_psi        :   1619.93s CPU   3009.55s WALL (   16865 calls)
     s_psi        :    337.65s CPU    346.32s WALL (   16865 calls)
     g_psi        :      2.06s CPU      2.51s WALL (   12869 calls)

     Called by h_psi:
     h_psi:calbec :    346.77s CPU    710.19s WALL (   16865 calls)
     vloc_psi     :    930.99s CPU   1946.53s WALL (   16865 calls)
     add_vuspsi   :    340.18s CPU    349.93s WALL (   16865 calls)

     General routines
     calbec       :    518.12s CPU   1035.23s WALL (   21305 calls)
     fft          :     13.24s CPU     53.79s WALL (    2480 calls)
     ffts         :      0.11s CPU      0.51s WALL (     106 calls)
     fftw         :   1091.34s CPU   2248.78s WALL ( 1852456 calls)
     interpolate  :      0.31s CPU      0.92s WALL (      54 calls)

     Parallel routines
     fft_scatt_xy :     49.48s CPU     81.66s WALL ( 1855042 calls)
     fft_scatt_yz :    486.50s CPU   1383.81s WALL ( 1855042 calls)

     PWSCF        :      1h 3m CPU      1h51m WALL


   This run was terminated on:  23:57:37  28Jun2022            

=------------------------------------------------------------------------------=
   JOB DONE.
=------------------------------------------------------------------------------=
