
     Program PWSCF v.6.6 starts on 28Jun2022 at 23:58:57 

     This program is part of the open-source Quantum ESPRESSO suite
     for quantum simulation of materials; please cite
         "P. Giannozzi et al., J. Phys.:Condens. Matter 21 395502 (2009);
         "P. Giannozzi et al., J. Phys.:Condens. Matter 29 465901 (2017);
          URL http://www.quantum-espresso.org", 
     in publications or presentations arising from this work. More details at
     http://www.quantum-espresso.org/quote

     Parallel version (MPI), running on    37 processors

     MPI processes distributed on     7 nodes
     R & G space division:  proc/nbgrp/npool/nimage =      37
     Fft bands division:     nmany     =       1
     Reading input from Fe2Ta2.in
Warning: card &CELL ignored
Warning: card / ignored

     Current dimensions of program PWSCF are:
     Max number of different atomic species (ntypx) = 10
     Max number of k-points (npk) =  40000
     Max angular momentum in pseudopotentials (lmaxx) =  3
     Presently stress not available with electric field and gates

     Message from routine cell_base_init:
     DEPRECATED: use true lattice parameter, not A to a.u. conversion factor
     file Fe.pbe-n-rrkjus_psl.1.0.0.UPF: wavefunction(s)  3D renormalized
     file Ta.pbe-spfn-rrkjus_psl.1.0.0.UPF: wavefunction(s)  5S 5P renormalized

     **************************************************************************
     Initializing libbeef V0.1.2 with the BEEF-vdW functional.
     Citation: Wellendorff et al., PRB 85, 235149 (2012).
     **************************************************************************


     IMPORTANT: XC functional enforced from input :
     Exchange-correlation= BEEF-VDW
                           (   1   4  43  14   2   0   0)
     Any further DFT definition will be discarded
     Please, verify this is what you really want


     Subspace diagonalization in iterative solution of the eigenvalue problem:
     a serial algorithm will be used


     Parallelization info
     --------------------
     sticks:   dense  smooth     PW     G-vecs:    dense   smooth      PW
     Min         112      45     12                25852     6535     976
     Max         113      46     13                25879     6549    1003
     Sum        4179    1669    475               957257   242185   36737



     bravais-lattice index     =            0
     lattice parameter (alat)  =       1.8897  a.u.
     unit-cell volume          =    4379.1077 (a.u.)^3
     number of atoms/cell      =           12
     number of atomic types    =            2
     number of electrons       =       210.00
     number of Kohn-Sham states=          126
     kinetic-energy cutoff     =      55.1240  Ry
     charge density cutoff     =     551.2396  Ry
     convergence threshold     =      1.0E-05
     mixing beta               =       0.1000
     number of iterations used =           10  plain     mixing
     Exchange-correlation= BEEF-VDW
                           (   1   4  43  14   2   0   0)

     celldm(1)=   1.889726  celldm(2)=   0.000000  celldm(3)=   0.000000
     celldm(4)=   0.000000  celldm(5)=   0.000000  celldm(6)=   0.000000

     crystal axes: (cart. coord. in units of alat)
               a(1) = (   5.316405   0.000000   0.000000 )  
               a(2) = (   1.764389   5.015087   0.000000 )  
               a(3) = (   0.000000   0.000000  24.338431 )  

     reciprocal axes: (cart. coord. in units 2 pi/alat)
               b(1) = (  0.188097 -0.066176  0.000000 )  
               b(2) = (  0.000000  0.199398  0.000000 )  
               b(3) = (  0.000000  0.000000  0.041087 )  


     PseudoPot. # 1 for Fe read from file:
     ../pseudo/Fe.pbe-n-rrkjus_psl.1.0.0.UPF
     MD5 check sum: e37eda618788e2416bb099156d582190
     Pseudo is Ultrasoft + core correction, Zval =  8.0
     Generated using "atomic" code by A. Dal Corso v.6.5
     Using radial grid of 1191 points,  6 beta functions with: 
                l(1) =   0
                l(2) =   0
                l(3) =   1
                l(4) =   1
                l(5) =   2
                l(6) =   2
     Q(r) pseudized with 0 coefficients 


     PseudoPot. # 2 for Ta read from file:
     ../pseudo/Ta.pbe-spfn-rrkjus_psl.1.0.0.UPF
     MD5 check sum: 39d7d349fe394e56adf8454eb9315fbb
     Pseudo is Ultrasoft + core correction, Zval = 27.0
     Generated using "atomic" code by A. Dal Corso v.6.3
     Using radial grid of 1273 points,  8 beta functions with: 
                l(1) =   0
                l(2) =   0
                l(3) =   1
                l(4) =   1
                l(5) =   2
                l(6) =   2
                l(7) =   3
                l(8) =   3
     Q(r) pseudized with 0 coefficients 


     atomic species   valence    mass     pseudopotential
        Fe             8.00    55.84500     Fe( 1.00)
        Ta            27.00   180.94788     Ta( 1.00)

     Starting magnetic structure 
     atomic species   magnetization
        Fe           0.750
        Ta           0.000

     No symmetry found



   Cartesian axes

     site n.     atom                  positions (alat units)
         1           Fe  tau(   1) = (   0.0000000   0.0000000  10.0000000  )
         2           Fe  tau(   2) = (   3.5403972   2.5075436  10.0000000  )
         3           Ta  tau(   3) = (   2.6582027   0.0000000  10.0000000  )
         4           Ta  tau(   4) = (   0.8821945   2.5075436  10.0000000  )
         5           Fe  tau(   5) = (   5.3164055   3.7654301  12.1692156  )
         6           Fe  tau(   6) = (   1.7760082   1.2578865  12.1692156  )
         7           Ta  tau(   7) = (   2.6582027   3.7654301  12.1692156  )
         8           Ta  tau(   8) = (   4.4342110   1.2578865  12.1692156  )
         9           Fe  tau(   9) = (   3.5490936   2.5136679  14.1302038  )
        10           Fe  tau(  10) = (   0.0087265   0.0062156  14.1302195  )
        11           Ta  tau(  11) = (   0.8898485   2.5129754  14.3378558  )
        12           Ta  tau(  12) = (   2.6658527   0.0054067  14.3378550  )

     number of k points=    74  Fermi-Dirac smearing, width (Ry)=  0.0100
                       cart. coord. in units 2pi/alat
        k(    1) = (   0.0000000   0.0000000   0.0000000), wk =   0.0069444
        k(    2) = (   0.0000000   0.0166165   0.0000000), wk =   0.0138889
        k(    3) = (   0.0000000   0.0332331   0.0000000), wk =   0.0138889
        k(    4) = (   0.0000000   0.0498496   0.0000000), wk =   0.0138889
        k(    5) = (   0.0000000   0.0664661   0.0000000), wk =   0.0138889
        k(    6) = (   0.0000000   0.0830826   0.0000000), wk =   0.0138889
        k(    7) = (   0.0000000  -0.0996992   0.0000000), wk =   0.0069444
        k(    8) = (   0.0156748  -0.0055146   0.0000000), wk =   0.0138889
        k(    9) = (   0.0156748   0.0111019   0.0000000), wk =   0.0138889
        k(   10) = (   0.0156748   0.0277184   0.0000000), wk =   0.0138889
        k(   11) = (   0.0156748   0.0443350   0.0000000), wk =   0.0138889
        k(   12) = (   0.0156748   0.0609515   0.0000000), wk =   0.0138889
        k(   13) = (   0.0156748   0.0775680   0.0000000), wk =   0.0138889
        k(   14) = (   0.0156748  -0.1052138   0.0000000), wk =   0.0138889
        k(   15) = (   0.0156748  -0.0885973   0.0000000), wk =   0.0138889
        k(   16) = (   0.0156748  -0.0719807   0.0000000), wk =   0.0138889
        k(   17) = (   0.0156748  -0.0553642   0.0000000), wk =   0.0138889
        k(   18) = (   0.0156748  -0.0387477   0.0000000), wk =   0.0138889
        k(   19) = (   0.0156748  -0.0221312   0.0000000), wk =   0.0138889
        k(   20) = (   0.0313495  -0.0110293   0.0000000), wk =   0.0138889
        k(   21) = (   0.0313495   0.0055873   0.0000000), wk =   0.0138889
        k(   22) = (   0.0313495   0.0222038   0.0000000), wk =   0.0138889
        k(   23) = (   0.0313495   0.0388203   0.0000000), wk =   0.0138889
        k(   24) = (   0.0313495   0.0554368   0.0000000), wk =   0.0138889
        k(   25) = (   0.0313495   0.0720534   0.0000000), wk =   0.0138889
        k(   26) = (   0.0313495  -0.1107284   0.0000000), wk =   0.0138889
        k(   27) = (   0.0313495  -0.0941119   0.0000000), wk =   0.0138889
        k(   28) = (   0.0313495  -0.0774954   0.0000000), wk =   0.0138889
        k(   29) = (   0.0313495  -0.0608788   0.0000000), wk =   0.0138889
        k(   30) = (   0.0313495  -0.0442623   0.0000000), wk =   0.0138889
        k(   31) = (   0.0313495  -0.0276458   0.0000000), wk =   0.0138889
        k(   32) = (   0.0470243  -0.0165439   0.0000000), wk =   0.0138889
        k(   33) = (   0.0470243   0.0000726   0.0000000), wk =   0.0138889
        k(   34) = (   0.0470243   0.0166892   0.0000000), wk =   0.0138889
        k(   35) = (   0.0470243   0.0333057   0.0000000), wk =   0.0138889
        k(   36) = (   0.0470243   0.0499222   0.0000000), wk =   0.0138889
        k(   37) = (   0.0470243   0.0665387   0.0000000), wk =   0.0138889
        k(   38) = (   0.0470243  -0.1162431   0.0000000), wk =   0.0138889
        k(   39) = (   0.0470243  -0.0996265   0.0000000), wk =   0.0138889
        k(   40) = (   0.0470243  -0.0830100   0.0000000), wk =   0.0138889
        k(   41) = (   0.0470243  -0.0663935   0.0000000), wk =   0.0138889
        k(   42) = (   0.0470243  -0.0497770   0.0000000), wk =   0.0138889
        k(   43) = (   0.0470243  -0.0331604   0.0000000), wk =   0.0138889
        k(   44) = (   0.0626990  -0.0220585   0.0000000), wk =   0.0138889
        k(   45) = (   0.0626990  -0.0054420   0.0000000), wk =   0.0138889
        k(   46) = (   0.0626990   0.0111745   0.0000000), wk =   0.0138889
        k(   47) = (   0.0626990   0.0277911   0.0000000), wk =   0.0138889
        k(   48) = (   0.0626990   0.0444076   0.0000000), wk =   0.0138889
        k(   49) = (   0.0626990   0.0610241   0.0000000), wk =   0.0138889
        k(   50) = (   0.0626990  -0.1217577   0.0000000), wk =   0.0138889
        k(   51) = (   0.0626990  -0.1051412   0.0000000), wk =   0.0138889
        k(   52) = (   0.0626990  -0.0885246   0.0000000), wk =   0.0138889
        k(   53) = (   0.0626990  -0.0719081   0.0000000), wk =   0.0138889
        k(   54) = (   0.0626990  -0.0552916   0.0000000), wk =   0.0138889
        k(   55) = (   0.0626990  -0.0386751   0.0000000), wk =   0.0138889
        k(   56) = (   0.0783738  -0.0275732   0.0000000), wk =   0.0138889
        k(   57) = (   0.0783738  -0.0109566   0.0000000), wk =   0.0138889
        k(   58) = (   0.0783738   0.0056599   0.0000000), wk =   0.0138889
        k(   59) = (   0.0783738   0.0222764   0.0000000), wk =   0.0138889
        k(   60) = (   0.0783738   0.0388929   0.0000000), wk =   0.0138889
        k(   61) = (   0.0783738   0.0555095   0.0000000), wk =   0.0138889
        k(   62) = (   0.0783738  -0.1272723   0.0000000), wk =   0.0138889
        k(   63) = (   0.0783738  -0.1106558   0.0000000), wk =   0.0138889
        k(   64) = (   0.0783738  -0.0940393   0.0000000), wk =   0.0138889
        k(   65) = (   0.0783738  -0.0774227   0.0000000), wk =   0.0138889
        k(   66) = (   0.0783738  -0.0608062   0.0000000), wk =   0.0138889
        k(   67) = (   0.0783738  -0.0441897   0.0000000), wk =   0.0138889
        k(   68) = (  -0.0940485   0.0330878   0.0000000), wk =   0.0069444
        k(   69) = (  -0.0940485   0.0497043   0.0000000), wk =   0.0138889
        k(   70) = (  -0.0940485   0.0663209   0.0000000), wk =   0.0138889
        k(   71) = (  -0.0940485   0.0829374   0.0000000), wk =   0.0138889
        k(   72) = (  -0.0940485   0.0995539   0.0000000), wk =   0.0138889
        k(   73) = (  -0.0940485   0.1161704   0.0000000), wk =   0.0138889
        k(   74) = (  -0.0940485  -0.0666114   0.0000000), wk =   0.0069444

     Dense  grid:   957257 G-vectors     FFT dimensions: (  75,  75, 360)

     Smooth grid:   242185 G-vectors     FFT dimensions: (  48,  48, 225)

     Estimated max dynamical RAM per process >     501.31 MB

     Estimated total dynamical RAM >      18.11 GB
     Generating pointlists ...
     new r_m :   1.0276 (alat units)  1.9419 (a.u.) for type    1
     new r_m :   1.0276 (alat units)  1.9419 (a.u.) for type    2

     Initial potential from superposition of free atoms

     starting charge  209.99179, renormalised to  210.00000


     %%%%%%%%%%%%%%%%%%%%%%%%%%%%%%%%%%%%%%%%%%%%%%%%%%%%%%%%%%%%%%%%%%%%%%%%
     %                                                                      %
     % You are using vdW-DF, which was implemented by the Thonhauser group. %
     % Please cite the following two papers that made this development      %
     % possible and the two reviews that describe the various versions:     %
     %                                                                      %
     %   T. Thonhauser et al., PRL 115, 136402 (2015).                      %
     %   T. Thonhauser et al., PRB 76, 125112 (2007).                       %
     %   K. Berland et al., Rep. Prog. Phys. 78, 066501 (2015).             %
     %   D.C. Langreth et al., J. Phys.: Condens. Matter 21, 084203 (2009). %
     %                                                                      %
     %                                                                      %
     % If you are calculating the stress with vdW-DF, please also cite:     %
     %                                                                      %
     %   R. Sabatini et al., J. Phys.: Condens. Matter 24, 424209 (2012).   %
     %                                                                      %
     %%%%%%%%%%%%%%%%%%%%%%%%%%%%%%%%%%%%%%%%%%%%%%%%%%%%%%%%%%%%%%%%%%%%%%%%



     Adding external electric field

     Computed dipole along edir(3) : 
        Dipole               -0.0002 Ry au,         -0.0004 Debye
        Dipole field         -0.0000 Ry au, 

        Potential amp.        0.0000 Ry
        Total length         44.8431 bohr


     Adding external electric field

     Computed dipole along edir(3) : 
        Dipole               -0.0002 Ry au,         -0.0004 Debye
        Dipole field         -0.0000 Ry au, 

        Potential amp.        0.0000 Ry
        Total length         44.8431 bohr

     Starting wfcs are  156 randomized atomic wfcs

     total cpu time spent up to now is      218.5 secs

     Self-consistent Calculation

     iteration #  1     ecut=    55.12 Ry     beta= 0.10
     Davidson diagonalization with overlap
     ethr =  1.00E-02,  avg # of iterations =  2.0

     Adding external electric field

     Computed dipole along edir(3) : 
        Dipole               -0.3022 Ry au,         -0.7680 Debye
        Dipole field         -0.0009 Ry au, 

        Potential amp.        0.0778 Ry
        Total length         44.8431 bohr


     Adding external electric field

     Computed dipole along edir(3) : 
        Dipole               -0.3022 Ry au,         -0.7680 Debye
        Dipole field         -0.0009 Ry au, 

        Potential amp.        0.0778 Ry
        Total length         44.8431 bohr


     total cpu time spent up to now is      677.7 secs

     total energy              =   -4467.35645982 Ry
     estimated scf accuracy    <       6.09076854 Ry

     total magnetization       =    18.43 Bohr mag/cell
     absolute magnetization    =    19.52 Bohr mag/cell

     iteration #  2     ecut=    55.12 Ry     beta= 0.10
     Davidson diagonalization with overlap
     ethr =  2.90E-03,  avg # of iterations =  2.1

     Adding external electric field

     Computed dipole along edir(3) : 
        Dipole                0.6657 Ry au,          1.6921 Debye
        Dipole field          0.0019 Ry au, 

        Potential amp.       -0.1713 Ry
        Total length         44.8431 bohr


     Adding external electric field

     Computed dipole along edir(3) : 
        Dipole                0.6657 Ry au,          1.6921 Debye
        Dipole field          0.0019 Ry au, 

        Potential amp.       -0.1713 Ry
        Total length         44.8431 bohr


     total cpu time spent up to now is     1119.1 secs

     total energy              =   -4467.49138773 Ry
     estimated scf accuracy    <      15.94221066 Ry

     total magnetization       =    16.96 Bohr mag/cell
     absolute magnetization    =    19.15 Bohr mag/cell

     iteration #  3     ecut=    55.12 Ry     beta= 0.10
     Davidson diagonalization with overlap
     ethr =  2.90E-03,  avg # of iterations =  1.6

     Adding external electric field

     Computed dipole along edir(3) : 
        Dipole                0.0018 Ry au,          0.0045 Debye
        Dipole field          0.0000 Ry au, 

        Potential amp.       -0.0005 Ry
        Total length         44.8431 bohr


     Adding external electric field

     Computed dipole along edir(3) : 
        Dipole                0.0018 Ry au,          0.0045 Debye
        Dipole field          0.0000 Ry au, 

        Potential amp.       -0.0005 Ry
        Total length         44.8431 bohr


     total cpu time spent up to now is     1524.2 secs

     total energy              =   -4468.18011029 Ry
     estimated scf accuracy    <      31.54926571 Ry

     total magnetization       =    17.51 Bohr mag/cell
     absolute magnetization    =    19.54 Bohr mag/cell

     iteration #  4     ecut=    55.12 Ry     beta= 0.10
     Davidson diagonalization with overlap
     ethr =  2.90E-03,  avg # of iterations =  1.0

     Adding external electric field

     Computed dipole along edir(3) : 
        Dipole                0.0313 Ry au,          0.0795 Debye
        Dipole field          0.0001 Ry au, 

        Potential amp.       -0.0080 Ry
        Total length         44.8431 bohr


     Adding external electric field

     Computed dipole along edir(3) : 
        Dipole                0.0313 Ry au,          0.0795 Debye
        Dipole field          0.0001 Ry au, 

        Potential amp.       -0.0080 Ry
        Total length         44.8431 bohr


     total cpu time spent up to now is     1899.3 secs

     total energy              =   -4467.92173644 Ry
     estimated scf accuracy    <       0.84138472 Ry

     total magnetization       =    17.28 Bohr mag/cell
     absolute magnetization    =    19.58 Bohr mag/cell

     iteration #  5     ecut=    55.12 Ry     beta= 0.10
     Davidson diagonalization with overlap
     ethr =  4.01E-04,  avg # of iterations =  1.7

     Adding external electric field

     Computed dipole along edir(3) : 
        Dipole                0.0481 Ry au,          0.1223 Debye
        Dipole field          0.0001 Ry au, 

        Potential amp.       -0.0124 Ry
        Total length         44.8431 bohr


     Adding external electric field

     Computed dipole along edir(3) : 
        Dipole                0.0481 Ry au,          0.1223 Debye
        Dipole field          0.0001 Ry au, 

        Potential amp.       -0.0124 Ry
        Total length         44.8431 bohr


     total cpu time spent up to now is     2297.0 secs

     total energy              =   -4466.89293748 Ry
     estimated scf accuracy    <       0.50021747 Ry

     total magnetization       =    15.70 Bohr mag/cell
     absolute magnetization    =    18.59 Bohr mag/cell

     iteration #  6     ecut=    55.12 Ry     beta= 0.10
     Davidson diagonalization with overlap
     ethr =  2.38E-04,  avg # of iterations =  1.9

     Adding external electric field

     Computed dipole along edir(3) : 
        Dipole                0.0621 Ry au,          0.1578 Debye
        Dipole field          0.0002 Ry au, 

        Potential amp.       -0.0160 Ry
        Total length         44.8431 bohr


     Adding external electric field

     Computed dipole along edir(3) : 
        Dipole                0.0621 Ry au,          0.1578 Debye
        Dipole field          0.0002 Ry au, 

        Potential amp.       -0.0160 Ry
        Total length         44.8431 bohr


     total cpu time spent up to now is     2708.9 secs

     total energy              =   -4469.29766279 Ry
     estimated scf accuracy    <       0.32712729 Ry

     total magnetization       =    14.56 Bohr mag/cell
     absolute magnetization    =    18.24 Bohr mag/cell

     iteration #  7     ecut=    55.12 Ry     beta= 0.10
     Davidson diagonalization with overlap
     ethr =  1.56E-04,  avg # of iterations =  2.7

     Adding external electric field

     Computed dipole along edir(3) : 
        Dipole                0.0640 Ry au,          0.1626 Debye
        Dipole field          0.0002 Ry au, 

        Potential amp.       -0.0165 Ry
        Total length         44.8431 bohr


     Adding external electric field

     Computed dipole along edir(3) : 
        Dipole                0.0640 Ry au,          0.1626 Debye
        Dipole field          0.0002 Ry au, 

        Potential amp.       -0.0165 Ry
        Total length         44.8431 bohr


     total cpu time spent up to now is     3138.5 secs

     total energy              =   -4471.38918670 Ry
     estimated scf accuracy    <       0.19625671 Ry

     total magnetization       =    13.02 Bohr mag/cell
     absolute magnetization    =    17.77 Bohr mag/cell

     iteration #  8     ecut=    55.12 Ry     beta= 0.10
     Davidson diagonalization with overlap
     ethr =  9.35E-05,  avg # of iterations =  2.0

     Adding external electric field

     Computed dipole along edir(3) : 
        Dipole                0.0292 Ry au,          0.0743 Debye
        Dipole field          0.0001 Ry au, 

        Potential amp.       -0.0075 Ry
        Total length         44.8431 bohr


     Adding external electric field

     Computed dipole along edir(3) : 
        Dipole                0.0292 Ry au,          0.0743 Debye
        Dipole field          0.0001 Ry au, 

        Potential amp.       -0.0075 Ry
        Total length         44.8431 bohr


     total cpu time spent up to now is     3586.8 secs

     total energy              =   -4475.70787241 Ry
     estimated scf accuracy    <       0.13924290 Ry

     total magnetization       =    11.43 Bohr mag/cell
     absolute magnetization    =    17.11 Bohr mag/cell

     iteration #  9     ecut=    55.12 Ry     beta= 0.10
     Davidson diagonalization with overlap
     ethr =  6.63E-05,  avg # of iterations =  6.2

     Adding external electric field

     Computed dipole along edir(3) : 
        Dipole                0.0354 Ry au,          0.0899 Debye
        Dipole field          0.0001 Ry au, 

        Potential amp.       -0.0091 Ry
        Total length         44.8431 bohr


     Adding external electric field

     Computed dipole along edir(3) : 
        Dipole                0.0354 Ry au,          0.0899 Debye
        Dipole field          0.0001 Ry au, 

        Potential amp.       -0.0091 Ry
        Total length         44.8431 bohr


     total cpu time spent up to now is     4125.4 secs

     total energy              =   -4475.55128193 Ry
     estimated scf accuracy    <       0.06678580 Ry

     total magnetization       =     7.54 Bohr mag/cell
     absolute magnetization    =    15.39 Bohr mag/cell

     iteration # 10     ecut=    55.12 Ry     beta= 0.10
     Davidson diagonalization with overlap
     ethr =  3.18E-05,  avg # of iterations =  2.4

     Adding external electric field

     Computed dipole along edir(3) : 
        Dipole                0.0543 Ry au,          0.1379 Debye
        Dipole field          0.0002 Ry au, 

        Potential amp.       -0.0140 Ry
        Total length         44.8431 bohr


     Adding external electric field

     Computed dipole along edir(3) : 
        Dipole                0.0543 Ry au,          0.1379 Debye
        Dipole field          0.0002 Ry au, 

        Potential amp.       -0.0140 Ry
        Total length         44.8431 bohr


     total cpu time spent up to now is     4545.2 secs

     total energy              =   -4477.20786364 Ry
     estimated scf accuracy    <       0.04361251 Ry

     total magnetization       =     7.12 Bohr mag/cell
     absolute magnetization    =    15.12 Bohr mag/cell

     iteration # 11     ecut=    55.12 Ry     beta= 0.10
     Davidson diagonalization with overlap
     c_bands:  1 eigenvalues not converged
     ethr =  2.08E-05,  avg # of iterations =  5.4

     Adding external electric field

     Computed dipole along edir(3) : 
        Dipole                0.0538 Ry au,          0.1366 Debye
        Dipole field          0.0002 Ry au, 

        Potential amp.       -0.0138 Ry
        Total length         44.8431 bohr


     Adding external electric field

     Computed dipole along edir(3) : 
        Dipole                0.0538 Ry au,          0.1366 Debye
        Dipole field          0.0002 Ry au, 

        Potential amp.       -0.0138 Ry
        Total length         44.8431 bohr


     total cpu time spent up to now is     5132.8 secs

     total energy              =   -4477.66458184 Ry
     estimated scf accuracy    <       0.03066245 Ry

     total magnetization       =     5.39 Bohr mag/cell
     absolute magnetization    =    13.91 Bohr mag/cell

     iteration # 12     ecut=    55.12 Ry     beta= 0.10
     Davidson diagonalization with overlap
     c_bands:  1 eigenvalues not converged
     ethr =  1.46E-05,  avg # of iterations =  3.8

     Adding external electric field

     Computed dipole along edir(3) : 
        Dipole                0.0501 Ry au,          0.1272 Debye
        Dipole field          0.0001 Ry au, 

        Potential amp.       -0.0129 Ry
        Total length         44.8431 bohr


     Adding external electric field

     Computed dipole along edir(3) : 
        Dipole                0.0501 Ry au,          0.1272 Debye
        Dipole field          0.0001 Ry au, 

        Potential amp.       -0.0129 Ry
        Total length         44.8431 bohr


     total cpu time spent up to now is     5771.1 secs

     total energy              =   -4477.24619355 Ry
     estimated scf accuracy    <       0.01355559 Ry

     total magnetization       =     4.47 Bohr mag/cell
     absolute magnetization    =    13.18 Bohr mag/cell

     iteration # 13     ecut=    55.12 Ry     beta= 0.10
     Davidson diagonalization with overlap
     c_bands:  1 eigenvalues not converged
     c_bands:  1 eigenvalues not converged
     ethr =  6.46E-06,  avg # of iterations =  5.2

     Adding external electric field

     Computed dipole along edir(3) : 
        Dipole                0.0511 Ry au,          0.1298 Debye
        Dipole field          0.0001 Ry au, 

        Potential amp.       -0.0131 Ry
        Total length         44.8431 bohr


     Adding external electric field

     Computed dipole along edir(3) : 
        Dipole                0.0511 Ry au,          0.1298 Debye
        Dipole field          0.0001 Ry au, 

        Potential amp.       -0.0131 Ry
        Total length         44.8431 bohr


     total cpu time spent up to now is     6346.9 secs

     total energy              =   -4477.48038220 Ry
     estimated scf accuracy    <       0.00730461 Ry

     total magnetization       =     4.40 Bohr mag/cell
     absolute magnetization    =    12.97 Bohr mag/cell

     iteration # 14     ecut=    55.12 Ry     beta= 0.10
     Davidson diagonalization with overlap
     c_bands:  1 eigenvalues not converged
     ethr =  3.48E-06,  avg # of iterations =  7.0

     Adding external electric field

     Computed dipole along edir(3) : 
        Dipole                0.0578 Ry au,          0.1468 Debye
        Dipole field          0.0002 Ry au, 

        Potential amp.       -0.0149 Ry
        Total length         44.8431 bohr


     Adding external electric field

     Computed dipole along edir(3) : 
        Dipole                0.0578 Ry au,          0.1468 Debye
        Dipole field          0.0002 Ry au, 

        Potential amp.       -0.0149 Ry
        Total length         44.8431 bohr


     total cpu time spent up to now is     6986.5 secs

     total energy              =   -4477.38161229 Ry
     estimated scf accuracy    <       0.00487629 Ry

     total magnetization       =     4.09 Bohr mag/cell
     absolute magnetization    =    12.40 Bohr mag/cell

     iteration # 15     ecut=    55.12 Ry     beta= 0.10
     Davidson diagonalization with overlap
     ethr =  2.32E-06,  avg # of iterations =  2.6

     Adding external electric field

     Computed dipole along edir(3) : 
        Dipole                0.0542 Ry au,          0.1377 Debye
        Dipole field          0.0002 Ry au, 

        Potential amp.       -0.0139 Ry
        Total length         44.8431 bohr


     Adding external electric field

     Computed dipole along edir(3) : 
        Dipole                0.0542 Ry au,          0.1377 Debye
        Dipole field          0.0002 Ry au, 

        Potential amp.       -0.0139 Ry
        Total length         44.8431 bohr


     total cpu time spent up to now is     7589.2 secs

     total energy              =   -4477.01694674 Ry
     estimated scf accuracy    <       0.00355839 Ry

     total magnetization       =     3.91 Bohr mag/cell
     absolute magnetization    =    12.08 Bohr mag/cell

     iteration # 16     ecut=    55.12 Ry     beta= 0.10
     Davidson diagonalization with overlap
     ethr =  1.69E-06,  avg # of iterations =  2.3

     Adding external electric field

     Computed dipole along edir(3) : 
        Dipole                0.0590 Ry au,          0.1498 Debye
        Dipole field          0.0002 Ry au, 

        Potential amp.       -0.0152 Ry
        Total length         44.8431 bohr


     Adding external electric field

     Computed dipole along edir(3) : 
        Dipole                0.0590 Ry au,          0.1498 Debye
        Dipole field          0.0002 Ry au, 

        Potential amp.       -0.0152 Ry
        Total length         44.8431 bohr


     total cpu time spent up to now is     8132.8 secs

     total energy              =   -4476.41612292 Ry
     estimated scf accuracy    <       0.00227652 Ry

     total magnetization       =     3.83 Bohr mag/cell
     absolute magnetization    =    11.88 Bohr mag/cell

     iteration # 17     ecut=    55.12 Ry     beta= 0.10
     Davidson diagonalization with overlap
     c_bands:  1 eigenvalues not converged
     ethr =  1.08E-06,  avg # of iterations =  3.0

     Adding external electric field

     Computed dipole along edir(3) : 
        Dipole                0.0502 Ry au,          0.1275 Debye
        Dipole field          0.0001 Ry au, 

        Potential amp.       -0.0129 Ry
        Total length         44.8431 bohr


     Adding external electric field

     Computed dipole along edir(3) : 
        Dipole                0.0502 Ry au,          0.1275 Debye
        Dipole field          0.0001 Ry au, 

        Potential amp.       -0.0129 Ry
        Total length         44.8431 bohr


     total cpu time spent up to now is     8678.2 secs

     total energy              =   -4476.53210991 Ry
     estimated scf accuracy    <       0.00284677 Ry

     total magnetization       =     3.89 Bohr mag/cell
     absolute magnetization    =    11.76 Bohr mag/cell

     iteration # 18     ecut=    55.12 Ry     beta= 0.10
     Davidson diagonalization with overlap
     ethr =  1.08E-06,  avg # of iterations =  6.4

     Adding external electric field

     Computed dipole along edir(3) : 
        Dipole                0.0532 Ry au,          0.1353 Debye
        Dipole field          0.0002 Ry au, 

        Potential amp.       -0.0137 Ry
        Total length         44.8431 bohr


     Adding external electric field

     Computed dipole along edir(3) : 
        Dipole                0.0532 Ry au,          0.1353 Debye
        Dipole field          0.0002 Ry au, 

        Potential amp.       -0.0137 Ry
        Total length         44.8431 bohr


     total cpu time spent up to now is     9434.1 secs

     total energy              =   -4476.16735700 Ry
     estimated scf accuracy    <       0.00084661 Ry

     total magnetization       =     3.85 Bohr mag/cell
     absolute magnetization    =    11.11 Bohr mag/cell

     iteration # 19     ecut=    55.12 Ry     beta= 0.10
     Davidson diagonalization with overlap
     ethr =  4.03E-07,  avg # of iterations =  3.3

     Adding external electric field

     Computed dipole along edir(3) : 
        Dipole                0.0540 Ry au,          0.1371 Debye
        Dipole field          0.0002 Ry au, 

        Potential amp.       -0.0139 Ry
        Total length         44.8431 bohr


     Adding external electric field

     Computed dipole along edir(3) : 
        Dipole                0.0540 Ry au,          0.1371 Debye
        Dipole field          0.0002 Ry au, 

        Potential amp.       -0.0139 Ry
        Total length         44.8431 bohr


     total cpu time spent up to now is    10063.1 secs

     total energy              =   -4475.61838882 Ry
     estimated scf accuracy    <       0.00070968 Ry

     total magnetization       =     3.73 Bohr mag/cell
     absolute magnetization    =    10.86 Bohr mag/cell

     iteration # 20     ecut=    55.12 Ry     beta= 0.10
     Davidson diagonalization with overlap
     ethr =  3.38E-07,  avg # of iterations =  3.7

     Adding external electric field

     Computed dipole along edir(3) : 
        Dipole                0.0561 Ry au,          0.1425 Debye
        Dipole field          0.0002 Ry au, 

        Potential amp.       -0.0144 Ry
        Total length         44.8431 bohr


     Adding external electric field

     Computed dipole along edir(3) : 
        Dipole                0.0561 Ry au,          0.1425 Debye
        Dipole field          0.0002 Ry au, 

        Potential amp.       -0.0144 Ry
        Total length         44.8431 bohr


     total cpu time spent up to now is    10664.1 secs

     total energy              =   -4475.08459505 Ry
     estimated scf accuracy    <       0.00053735 Ry

     total magnetization       =     3.69 Bohr mag/cell
     absolute magnetization    =    10.67 Bohr mag/cell

     iteration # 21     ecut=    55.12 Ry     beta= 0.10
     Davidson diagonalization with overlap
     ethr =  2.56E-07,  avg # of iterations =  4.3

     Adding external electric field

     Computed dipole along edir(3) : 
        Dipole                0.0583 Ry au,          0.1481 Debye
        Dipole field          0.0002 Ry au, 

        Potential amp.       -0.0150 Ry
        Total length         44.8431 bohr


     Adding external electric field

     Computed dipole along edir(3) : 
        Dipole                0.0583 Ry au,          0.1481 Debye
        Dipole field          0.0002 Ry au, 

        Potential amp.       -0.0150 Ry
        Total length         44.8431 bohr


     total cpu time spent up to now is    11263.3 secs

     total energy              =   -4474.84131068 Ry
     estimated scf accuracy    <       0.00048222 Ry

     total magnetization       =     3.64 Bohr mag/cell
     absolute magnetization    =    10.49 Bohr mag/cell

     iteration # 22     ecut=    55.12 Ry     beta= 0.10
     Davidson diagonalization with overlap
     ethr =  2.30E-07,  avg # of iterations =  5.8

     Adding external electric field

     Computed dipole along edir(3) : 
        Dipole                0.0582 Ry au,          0.1480 Debye
        Dipole field          0.0002 Ry au, 

        Potential amp.       -0.0150 Ry
        Total length         44.8431 bohr


     Adding external electric field

     Computed dipole along edir(3) : 
        Dipole                0.0582 Ry au,          0.1480 Debye
        Dipole field          0.0002 Ry au, 

        Potential amp.       -0.0150 Ry
        Total length         44.8431 bohr


     total cpu time spent up to now is    12013.5 secs

     total energy              =   -4474.49819628 Ry
     estimated scf accuracy    <       0.00030868 Ry

     total magnetization       =     3.62 Bohr mag/cell
     absolute magnetization    =    10.01 Bohr mag/cell

     iteration # 23     ecut=    55.12 Ry     beta= 0.10
     Davidson diagonalization with overlap
     ethr =  1.47E-07,  avg # of iterations =  4.8

     Adding external electric field

     Computed dipole along edir(3) : 
        Dipole                0.0574 Ry au,          0.1460 Debye
        Dipole field          0.0002 Ry au, 

        Potential amp.       -0.0148 Ry
        Total length         44.8431 bohr


     Adding external electric field

     Computed dipole along edir(3) : 
        Dipole                0.0574 Ry au,          0.1460 Debye
        Dipole field          0.0002 Ry au, 

        Potential amp.       -0.0148 Ry
        Total length         44.8431 bohr


     total cpu time spent up to now is    12664.3 secs

     total energy              =   -4473.99988114 Ry
     estimated scf accuracy    <       0.00023288 Ry

     total magnetization       =     3.58 Bohr mag/cell
     absolute magnetization    =     9.72 Bohr mag/cell

     iteration # 24     ecut=    55.12 Ry     beta= 0.10
     Davidson diagonalization with overlap
     ethr =  1.11E-07,  avg # of iterations =  4.8

     Adding external electric field

     Computed dipole along edir(3) : 
        Dipole                0.0570 Ry au,          0.1449 Debye
        Dipole field          0.0002 Ry au, 

        Potential amp.       -0.0147 Ry
        Total length         44.8431 bohr


     Adding external electric field

     Computed dipole along edir(3) : 
        Dipole                0.0570 Ry au,          0.1449 Debye
        Dipole field          0.0002 Ry au, 

        Potential amp.       -0.0147 Ry
        Total length         44.8431 bohr


     total cpu time spent up to now is    13302.1 secs

     total energy              =   -4473.57413628 Ry
     estimated scf accuracy    <       0.00026355 Ry

     total magnetization       =     3.56 Bohr mag/cell
     absolute magnetization    =     9.53 Bohr mag/cell

     iteration # 25     ecut=    55.12 Ry     beta= 0.10
     Davidson diagonalization with overlap
     ethr =  1.11E-07,  avg # of iterations =  4.5

     Adding external electric field

     Computed dipole along edir(3) : 
        Dipole                0.0559 Ry au,          0.1422 Debye
        Dipole field          0.0002 Ry au, 

        Potential amp.       -0.0144 Ry
        Total length         44.8431 bohr


     Adding external electric field

     Computed dipole along edir(3) : 
        Dipole                0.0559 Ry au,          0.1422 Debye
        Dipole field          0.0002 Ry au, 

        Potential amp.       -0.0144 Ry
        Total length         44.8431 bohr


     total cpu time spent up to now is    13931.9 secs

     total energy              =   -4473.16301981 Ry
     estimated scf accuracy    <       0.00019602 Ry

     total magnetization       =     3.52 Bohr mag/cell
     absolute magnetization    =     9.35 Bohr mag/cell

     iteration # 26     ecut=    55.12 Ry     beta= 0.10
     Davidson diagonalization with overlap
     ethr =  9.33E-08,  avg # of iterations =  4.8

     Adding external electric field

     Computed dipole along edir(3) : 
        Dipole                0.0560 Ry au,          0.1423 Debye
        Dipole field          0.0002 Ry au, 

        Potential amp.       -0.0144 Ry
        Total length         44.8431 bohr


     Adding external electric field

     Computed dipole along edir(3) : 
        Dipole                0.0560 Ry au,          0.1423 Debye
        Dipole field          0.0002 Ry au, 

        Potential amp.       -0.0144 Ry
        Total length         44.8431 bohr


     total cpu time spent up to now is    14579.3 secs

     total energy              =   -4473.08225487 Ry
     estimated scf accuracy    <       0.00017275 Ry

     total magnetization       =     3.50 Bohr mag/cell
     absolute magnetization    =     9.16 Bohr mag/cell

     iteration # 27     ecut=    55.12 Ry     beta= 0.10
     Davidson diagonalization with overlap
     ethr =  8.23E-08,  avg # of iterations =  5.5

     Adding external electric field

     Computed dipole along edir(3) : 
        Dipole                0.0556 Ry au,          0.1413 Debye
        Dipole field          0.0002 Ry au, 

        Potential amp.       -0.0143 Ry
        Total length         44.8431 bohr


     Adding external electric field

     Computed dipole along edir(3) : 
        Dipole                0.0556 Ry au,          0.1413 Debye
        Dipole field          0.0002 Ry au, 

        Potential amp.       -0.0143 Ry
        Total length         44.8431 bohr


     total cpu time spent up to now is    15328.9 secs

     total energy              =   -4472.59939202 Ry
     estimated scf accuracy    <       0.00016168 Ry

     total magnetization       =     3.42 Bohr mag/cell
     absolute magnetization    =     8.78 Bohr mag/cell

     iteration # 28     ecut=    55.12 Ry     beta= 0.10
     Davidson diagonalization with overlap
     ethr =  7.70E-08,  avg # of iterations =  2.0

     Adding external electric field

     Computed dipole along edir(3) : 
        Dipole                0.0571 Ry au,          0.1451 Debye
        Dipole field          0.0002 Ry au, 

        Potential amp.       -0.0147 Ry
        Total length         44.8431 bohr


     Adding external electric field

     Computed dipole along edir(3) : 
        Dipole                0.0571 Ry au,          0.1451 Debye
        Dipole field          0.0002 Ry au, 

        Potential amp.       -0.0147 Ry
        Total length         44.8431 bohr


     total cpu time spent up to now is    15849.2 secs

     total energy              =   -4472.20947249 Ry
     estimated scf accuracy    <       0.00014701 Ry

     total magnetization       =     3.40 Bohr mag/cell
     absolute magnetization    =     8.67 Bohr mag/cell

     iteration # 29     ecut=    55.12 Ry     beta= 0.10
     Davidson diagonalization with overlap
     ethr =  7.00E-08,  avg # of iterations =  4.6

     Adding external electric field

     Computed dipole along edir(3) : 
        Dipole                0.0565 Ry au,          0.1437 Debye
        Dipole field          0.0002 Ry au, 

        Potential amp.       -0.0145 Ry
        Total length         44.8431 bohr


     Adding external electric field

     Computed dipole along edir(3) : 
        Dipole                0.0565 Ry au,          0.1437 Debye
        Dipole field          0.0002 Ry au, 

        Potential amp.       -0.0145 Ry
        Total length         44.8431 bohr


     total cpu time spent up to now is    16478.2 secs

     total energy              =   -4471.77241528 Ry
     estimated scf accuracy    <       0.00015466 Ry

     total magnetization       =     3.36 Bohr mag/cell
     absolute magnetization    =     8.54 Bohr mag/cell

     iteration # 30     ecut=    55.12 Ry     beta= 0.10
     Davidson diagonalization with overlap
     ethr =  7.00E-08,  avg # of iterations =  5.2

     Adding external electric field

     Computed dipole along edir(3) : 
        Dipole                0.0575 Ry au,          0.1461 Debye
        Dipole field          0.0002 Ry au, 

        Potential amp.       -0.0148 Ry
        Total length         44.8431 bohr


     Adding external electric field

     Computed dipole along edir(3) : 
        Dipole                0.0575 Ry au,          0.1461 Debye
        Dipole field          0.0002 Ry au, 

        Potential amp.       -0.0148 Ry
        Total length         44.8431 bohr


     total cpu time spent up to now is    17119.0 secs

     total energy              =   -4471.44660657 Ry
     estimated scf accuracy    <       0.00012857 Ry

     total magnetization       =     3.34 Bohr mag/cell
     absolute magnetization    =     8.41 Bohr mag/cell

     iteration # 31     ecut=    55.12 Ry     beta= 0.10
     Davidson diagonalization with overlap
     ethr =  6.12E-08,  avg # of iterations =  5.3

     Adding external electric field

     Computed dipole along edir(3) : 
        Dipole                0.0572 Ry au,          0.1455 Debye
        Dipole field          0.0002 Ry au, 

        Potential amp.       -0.0147 Ry
        Total length         44.8431 bohr


     Adding external electric field

     Computed dipole along edir(3) : 
        Dipole                0.0572 Ry au,          0.1455 Debye
        Dipole field          0.0002 Ry au, 

        Potential amp.       -0.0147 Ry
        Total length         44.8431 bohr


     total cpu time spent up to now is    17791.9 secs

     total energy              =   -4471.15613110 Ry
     estimated scf accuracy    <       0.00013084 Ry

     total magnetization       =     3.30 Bohr mag/cell
     absolute magnetization    =     8.26 Bohr mag/cell

     iteration # 32     ecut=    55.12 Ry     beta= 0.10
     Davidson diagonalization with overlap
     ethr =  6.12E-08,  avg # of iterations =  4.8

     Adding external electric field

     Computed dipole along edir(3) : 
        Dipole                0.0568 Ry au,          0.1443 Debye
        Dipole field          0.0002 Ry au, 

        Potential amp.       -0.0146 Ry
        Total length         44.8431 bohr


     Adding external electric field

     Computed dipole along edir(3) : 
        Dipole                0.0568 Ry au,          0.1443 Debye
        Dipole field          0.0002 Ry au, 

        Potential amp.       -0.0146 Ry
        Total length         44.8431 bohr


     total cpu time spent up to now is    18433.5 secs

     total energy              =   -4470.75557165 Ry
     estimated scf accuracy    <       0.00011163 Ry

     total magnetization       =     3.28 Bohr mag/cell
     absolute magnetization    =     8.11 Bohr mag/cell

     iteration # 33     ecut=    55.12 Ry     beta= 0.10
     Davidson diagonalization with overlap
     ethr =  5.32E-08,  avg # of iterations =  2.1

     Adding external electric field

     Computed dipole along edir(3) : 
        Dipole                0.0545 Ry au,          0.1385 Debye
        Dipole field          0.0002 Ry au, 

        Potential amp.       -0.0140 Ry
        Total length         44.8431 bohr


     Adding external electric field

     Computed dipole along edir(3) : 
        Dipole                0.0545 Ry au,          0.1385 Debye
        Dipole field          0.0002 Ry au, 

        Potential amp.       -0.0140 Ry
        Total length         44.8431 bohr


     total cpu time spent up to now is    19005.7 secs

     total energy              =   -4470.76803832 Ry
     estimated scf accuracy    <       0.00010542 Ry

     total magnetization       =     3.27 Bohr mag/cell
     absolute magnetization    =     8.04 Bohr mag/cell

     iteration # 34     ecut=    55.12 Ry     beta= 0.10
     Davidson diagonalization with overlap
     ethr =  5.02E-08,  avg # of iterations =  5.9

     Adding external electric field

     Computed dipole along edir(3) : 
        Dipole                0.0551 Ry au,          0.1401 Debye
        Dipole field          0.0002 Ry au, 

        Potential amp.       -0.0142 Ry
        Total length         44.8431 bohr


     Adding external electric field

     Computed dipole along edir(3) : 
        Dipole                0.0551 Ry au,          0.1401 Debye
        Dipole field          0.0002 Ry au, 

        Potential amp.       -0.0142 Ry
        Total length         44.8431 bohr


     total cpu time spent up to now is    19886.4 secs

     total energy              =   -4470.40780922 Ry
     estimated scf accuracy    <       0.00010964 Ry

     total magnetization       =     3.27 Bohr mag/cell
     absolute magnetization    =     7.80 Bohr mag/cell

     iteration # 35     ecut=    55.12 Ry     beta= 0.10
     Davidson diagonalization with overlap
     ethr =  5.02E-08,  avg # of iterations =  2.0

     Adding external electric field

     Computed dipole along edir(3) : 
        Dipole                0.0549 Ry au,          0.1396 Debye
        Dipole field          0.0002 Ry au, 

        Potential amp.       -0.0141 Ry
        Total length         44.8431 bohr


     Adding external electric field

     Computed dipole along edir(3) : 
        Dipole                0.0549 Ry au,          0.1396 Debye
        Dipole field          0.0002 Ry au, 

        Potential amp.       -0.0141 Ry
        Total length         44.8431 bohr


     total cpu time spent up to now is    20417.2 secs

     total energy              =   -4470.08896525 Ry
     estimated scf accuracy    <       0.00008455 Ry

     total magnetization       =     3.26 Bohr mag/cell
     absolute magnetization    =     7.76 Bohr mag/cell

     iteration # 36     ecut=    55.12 Ry     beta= 0.10
     Davidson diagonalization with overlap
     ethr =  4.03E-08,  avg # of iterations =  2.2

     Adding external electric field

     Computed dipole along edir(3) : 
        Dipole                0.0552 Ry au,          0.1404 Debye
        Dipole field          0.0002 Ry au, 

        Potential amp.       -0.0142 Ry
        Total length         44.8431 bohr


     Adding external electric field

     Computed dipole along edir(3) : 
        Dipole                0.0552 Ry au,          0.1404 Debye
        Dipole field          0.0002 Ry au, 

        Potential amp.       -0.0142 Ry
        Total length         44.8431 bohr


     total cpu time spent up to now is    20946.5 secs

     total energy              =   -4470.26232760 Ry
     estimated scf accuracy    <       0.00008318 Ry

     total magnetization       =     3.24 Bohr mag/cell
     absolute magnetization    =     7.71 Bohr mag/cell

     iteration # 37     ecut=    55.12 Ry     beta= 0.10
     Davidson diagonalization with overlap
     ethr =  3.96E-08,  avg # of iterations =  6.4

     Adding external electric field

     Computed dipole along edir(3) : 
        Dipole                0.0555 Ry au,          0.1411 Debye
        Dipole field          0.0002 Ry au, 

        Potential amp.       -0.0143 Ry
        Total length         44.8431 bohr


     Adding external electric field

     Computed dipole along edir(3) : 
        Dipole                0.0555 Ry au,          0.1411 Debye
        Dipole field          0.0002 Ry au, 

        Potential amp.       -0.0143 Ry
        Total length         44.8431 bohr


     total cpu time spent up to now is    21830.7 secs

     total energy              =   -4470.25876215 Ry
     estimated scf accuracy    <       0.00008528 Ry

     total magnetization       =     3.19 Bohr mag/cell
     absolute magnetization    =     7.48 Bohr mag/cell

     iteration # 38     ecut=    55.12 Ry     beta= 0.10
     Davidson diagonalization with overlap
     ethr =  3.96E-08,  avg # of iterations =  5.4

     Adding external electric field

     Computed dipole along edir(3) : 
        Dipole                0.0559 Ry au,          0.1421 Debye
        Dipole field          0.0002 Ry au, 

        Potential amp.       -0.0144 Ry
        Total length         44.8431 bohr


     Adding external electric field

     Computed dipole along edir(3) : 
        Dipole                0.0559 Ry au,          0.1421 Debye
        Dipole field          0.0002 Ry au, 

        Potential amp.       -0.0144 Ry
        Total length         44.8431 bohr


     total cpu time spent up to now is    22510.5 secs

     total energy              =   -4469.36519111 Ry
     estimated scf accuracy    <       0.00007823 Ry

     total magnetization       =     3.14 Bohr mag/cell
     absolute magnetization    =     7.32 Bohr mag/cell

     iteration # 39     ecut=    55.12 Ry     beta= 0.10
     Davidson diagonalization with overlap
     ethr =  3.73E-08,  avg # of iterations =  5.3

     Adding external electric field

     Computed dipole along edir(3) : 
        Dipole                0.0559 Ry au,          0.1422 Debye
        Dipole field          0.0002 Ry au, 

        Potential amp.       -0.0144 Ry
        Total length         44.8431 bohr


     Adding external electric field

     Computed dipole along edir(3) : 
        Dipole                0.0559 Ry au,          0.1422 Debye
        Dipole field          0.0002 Ry au, 

        Potential amp.       -0.0144 Ry
        Total length         44.8431 bohr


     total cpu time spent up to now is    23205.8 secs

     total energy              =   -4469.00117065 Ry
     estimated scf accuracy    <       0.00009286 Ry

     total magnetization       =     3.19 Bohr mag/cell
     absolute magnetization    =     7.54 Bohr mag/cell

     iteration # 40     ecut=    55.12 Ry     beta= 0.10
     Davidson diagonalization with overlap
     ethr =  3.73E-08,  avg # of iterations =  1.0

     Adding external electric field

     Computed dipole along edir(3) : 
        Dipole                0.0561 Ry au,          0.1426 Debye
        Dipole field          0.0002 Ry au, 

        Potential amp.       -0.0144 Ry
        Total length         44.8431 bohr


     Adding external electric field

     Computed dipole along edir(3) : 
        Dipole                0.0561 Ry au,          0.1426 Debye
        Dipole field          0.0002 Ry au, 

        Potential amp.       -0.0144 Ry
        Total length         44.8431 bohr


     total cpu time spent up to now is    23688.1 secs

     total energy              =   -4468.76785031 Ry
     estimated scf accuracy    <       0.00009348 Ry

     total magnetization       =     3.19 Bohr mag/cell
     absolute magnetization    =     7.55 Bohr mag/cell

     iteration # 41     ecut=    55.12 Ry     beta= 0.10
     Davidson diagonalization with overlap
     ethr =  3.73E-08,  avg # of iterations =  1.0

     Adding external electric field

     Computed dipole along edir(3) : 
        Dipole                0.0556 Ry au,          0.1414 Debye
        Dipole field          0.0002 Ry au, 

        Potential amp.       -0.0143 Ry
        Total length         44.8431 bohr


     Adding external electric field

     Computed dipole along edir(3) : 
        Dipole                0.0556 Ry au,          0.1414 Debye
        Dipole field          0.0002 Ry au, 

        Potential amp.       -0.0143 Ry
        Total length         44.8431 bohr


     total cpu time spent up to now is    24158.7 secs

     total energy              =   -4468.93468045 Ry
     estimated scf accuracy    <       0.00010370 Ry

     total magnetization       =     3.18 Bohr mag/cell
     absolute magnetization    =     7.52 Bohr mag/cell

     iteration # 42     ecut=    55.12 Ry     beta= 0.10
     Davidson diagonalization with overlap
     ethr =  3.73E-08,  avg # of iterations =  5.3

     Adding external electric field

     Computed dipole along edir(3) : 
        Dipole                0.0556 Ry au,          0.1412 Debye
        Dipole field          0.0002 Ry au, 

        Potential amp.       -0.0143 Ry
        Total length         44.8431 bohr


     Adding external electric field

     Computed dipole along edir(3) : 
        Dipole                0.0556 Ry au,          0.1412 Debye
        Dipole field          0.0002 Ry au, 

        Potential amp.       -0.0143 Ry
        Total length         44.8431 bohr


     total cpu time spent up to now is    24867.6 secs

     total energy              =   -4469.02100446 Ry
     estimated scf accuracy    <       0.00008439 Ry

     total magnetization       =     3.14 Bohr mag/cell
     absolute magnetization    =     7.31 Bohr mag/cell

     iteration # 43     ecut=    55.12 Ry     beta= 0.10
     Davidson diagonalization with overlap
     ethr =  3.73E-08,  avg # of iterations =  4.9

     Adding external electric field

     Computed dipole along edir(3) : 
        Dipole                0.0557 Ry au,          0.1415 Debye
        Dipole field          0.0002 Ry au, 

        Potential amp.       -0.0143 Ry
        Total length         44.8431 bohr


     Adding external electric field

     Computed dipole along edir(3) : 
        Dipole                0.0557 Ry au,          0.1415 Debye
        Dipole field          0.0002 Ry au, 

        Potential amp.       -0.0143 Ry
        Total length         44.8431 bohr


     total cpu time spent up to now is    25468.2 secs

     total energy              =   -4468.65302823 Ry
     estimated scf accuracy    <       0.00008230 Ry

     total magnetization       =     3.11 Bohr mag/cell
     absolute magnetization    =     7.17 Bohr mag/cell

     iteration # 44     ecut=    55.12 Ry     beta= 0.10
     Davidson diagonalization with overlap
     ethr =  3.73E-08,  avg # of iterations =  1.0

     Adding external electric field

     Computed dipole along edir(3) : 
        Dipole                0.0550 Ry au,          0.1399 Debye
        Dipole field          0.0002 Ry au, 

        Potential amp.       -0.0142 Ry
        Total length         44.8431 bohr


     Adding external electric field

     Computed dipole along edir(3) : 
        Dipole                0.0550 Ry au,          0.1399 Debye
        Dipole field          0.0002 Ry au, 

        Potential amp.       -0.0142 Ry
        Total length         44.8431 bohr


     total cpu time spent up to now is    25966.8 secs

     total energy              =   -4468.83271107 Ry
     estimated scf accuracy    <       0.00008630 Ry

     total magnetization       =     3.11 Bohr mag/cell
     absolute magnetization    =     7.19 Bohr mag/cell

     iteration # 45     ecut=    55.12 Ry     beta= 0.10
     Davidson diagonalization with overlap
     ethr =  3.73E-08,  avg # of iterations =  5.1

     Adding external electric field

     Computed dipole along edir(3) : 
        Dipole                0.0551 Ry au,          0.1401 Debye
        Dipole field          0.0002 Ry au, 

        Potential amp.       -0.0142 Ry
        Total length         44.8431 bohr


     Adding external electric field

     Computed dipole along edir(3) : 
        Dipole                0.0551 Ry au,          0.1401 Debye
        Dipole field          0.0002 Ry au, 

        Potential amp.       -0.0142 Ry
        Total length         44.8431 bohr


     total cpu time spent up to now is    26720.0 secs

     total energy              =   -4468.36560927 Ry
     estimated scf accuracy    <       0.00008557 Ry

     total magnetization       =     3.09 Bohr mag/cell
     absolute magnetization    =     7.03 Bohr mag/cell

     iteration # 46     ecut=    55.12 Ry     beta= 0.10
     Davidson diagonalization with overlap
     ethr =  3.73E-08,  avg # of iterations =  2.0

     Adding external electric field

     Computed dipole along edir(3) : 
        Dipole                0.0550 Ry au,          0.1398 Debye
        Dipole field          0.0002 Ry au, 

        Potential amp.       -0.0142 Ry
        Total length         44.8431 bohr


     Adding external electric field

     Computed dipole along edir(3) : 
        Dipole                0.0550 Ry au,          0.1398 Debye
        Dipole field          0.0002 Ry au, 

        Potential amp.       -0.0142 Ry
        Total length         44.8431 bohr


     total cpu time spent up to now is    27322.6 secs

     total energy              =   -4468.11683049 Ry
     estimated scf accuracy    <       0.00008546 Ry

     total magnetization       =     3.09 Bohr mag/cell
     absolute magnetization    =     7.07 Bohr mag/cell

     iteration # 47     ecut=    55.12 Ry     beta= 0.10
     Davidson diagonalization with overlap
     ethr =  3.73E-08,  avg # of iterations =  1.0

     Adding external electric field

     Computed dipole along edir(3) : 
        Dipole                0.0546 Ry au,          0.1387 Debye
        Dipole field          0.0002 Ry au, 

        Potential amp.       -0.0140 Ry
        Total length         44.8431 bohr


     Adding external electric field

     Computed dipole along edir(3) : 
        Dipole                0.0546 Ry au,          0.1387 Debye
        Dipole field          0.0002 Ry au, 

        Potential amp.       -0.0140 Ry
        Total length         44.8431 bohr


     total cpu time spent up to now is    27834.8 secs

     total energy              =   -4468.49841805 Ry
     estimated scf accuracy    <       0.00008545 Ry

     total magnetization       =     3.09 Bohr mag/cell
     absolute magnetization    =     7.07 Bohr mag/cell

     iteration # 48     ecut=    55.12 Ry     beta= 0.10
     Davidson diagonalization with overlap
     ethr =  3.73E-08,  avg # of iterations =  5.3

     Adding external electric field

     Computed dipole along edir(3) : 
        Dipole                0.0550 Ry au,          0.1397 Debye
        Dipole field          0.0002 Ry au, 

        Potential amp.       -0.0142 Ry
        Total length         44.8431 bohr


     Adding external electric field

     Computed dipole along edir(3) : 
        Dipole                0.0550 Ry au,          0.1397 Debye
        Dipole field          0.0002 Ry au, 

        Potential amp.       -0.0142 Ry
        Total length         44.8431 bohr


     total cpu time spent up to now is    28589.2 secs

     total energy              =   -4468.30629533 Ry
     estimated scf accuracy    <       0.00010687 Ry

     total magnetization       =     3.04 Bohr mag/cell
     absolute magnetization    =     6.88 Bohr mag/cell

     iteration # 49     ecut=    55.12 Ry     beta= 0.10
     Davidson diagonalization with overlap
     ethr =  3.73E-08,  avg # of iterations =  1.0

     Adding external electric field

     Computed dipole along edir(3) : 
        Dipole                0.0549 Ry au,          0.1396 Debye
        Dipole field          0.0002 Ry au, 

        Potential amp.       -0.0141 Ry
        Total length         44.8431 bohr


     Adding external electric field

     Computed dipole along edir(3) : 
        Dipole                0.0549 Ry au,          0.1396 Debye
        Dipole field          0.0002 Ry au, 

        Potential amp.       -0.0141 Ry
        Total length         44.8431 bohr


     total cpu time spent up to now is    29066.6 secs

     total energy              =   -4468.21006320 Ry
     estimated scf accuracy    <       0.00008618 Ry

     total magnetization       =     3.03 Bohr mag/cell
     absolute magnetization    =     6.90 Bohr mag/cell

     iteration # 50     ecut=    55.12 Ry     beta= 0.10
     Davidson diagonalization with overlap
     ethr =  3.73E-08,  avg # of iterations =  2.0

     Adding external electric field

     Computed dipole along edir(3) : 
        Dipole                0.0539 Ry au,          0.1369 Debye
        Dipole field          0.0002 Ry au, 

        Potential amp.       -0.0139 Ry
        Total length         44.8431 bohr


     Adding external electric field

     Computed dipole along edir(3) : 
        Dipole                0.0539 Ry au,          0.1369 Debye
        Dipole field          0.0002 Ry au, 

        Potential amp.       -0.0139 Ry
        Total length         44.8431 bohr


     total cpu time spent up to now is    29639.3 secs

     total energy              =   -4469.12052850 Ry
     estimated scf accuracy    <       0.00007559 Ry

     total magnetization       =     3.01 Bohr mag/cell
     absolute magnetization    =     6.91 Bohr mag/cell

     iteration # 51     ecut=    55.12 Ry     beta= 0.10
     Davidson diagonalization with overlap
     ethr =  3.60E-08,  avg # of iterations =  7.6

     Adding external electric field

     Computed dipole along edir(3) : 
        Dipole                0.0538 Ry au,          0.1368 Debye
        Dipole field          0.0002 Ry au, 

        Potential amp.       -0.0139 Ry
        Total length         44.8431 bohr


     Adding external electric field

     Computed dipole along edir(3) : 
        Dipole                0.0538 Ry au,          0.1368 Debye
        Dipole field          0.0002 Ry au, 

        Potential amp.       -0.0139 Ry
        Total length         44.8431 bohr


     total cpu time spent up to now is    30440.4 secs

     total energy              =   -4468.70497925 Ry
     estimated scf accuracy    <       0.00006153 Ry

     total magnetization       =     2.91 Bohr mag/cell
     absolute magnetization    =     7.10 Bohr mag/cell

     iteration # 52     ecut=    55.12 Ry     beta= 0.10
     Davidson diagonalization with overlap
     ethr =  2.93E-08,  avg # of iterations =  2.7

     Adding external electric field

     Computed dipole along edir(3) : 
        Dipole                0.0532 Ry au,          0.1352 Debye
        Dipole field          0.0002 Ry au, 

        Potential amp.       -0.0137 Ry
        Total length         44.8431 bohr


     Adding external electric field

     Computed dipole along edir(3) : 
        Dipole                0.0532 Ry au,          0.1352 Debye
        Dipole field          0.0002 Ry au, 

        Potential amp.       -0.0137 Ry
        Total length         44.8431 bohr


     total cpu time spent up to now is    30831.9 secs

     total energy              =   -4469.18025578 Ry
     estimated scf accuracy    <       0.00004233 Ry

     total magnetization       =     2.91 Bohr mag/cell
     absolute magnetization    =     7.18 Bohr mag/cell

     iteration # 53     ecut=    55.12 Ry     beta= 0.10
     Davidson diagonalization with overlap
     ethr =  2.02E-08,  avg # of iterations =  6.2

     Adding external electric field

     Computed dipole along edir(3) : 
        Dipole                0.0537 Ry au,          0.1364 Debye
        Dipole field          0.0002 Ry au, 

        Potential amp.       -0.0138 Ry
        Total length         44.8431 bohr


     Adding external electric field

     Computed dipole along edir(3) : 
        Dipole                0.0537 Ry au,          0.1364 Debye
        Dipole field          0.0002 Ry au, 

        Potential amp.       -0.0138 Ry
        Total length         44.8431 bohr


     total cpu time spent up to now is    31409.3 secs

     total energy              =   -4468.49527181 Ry
     estimated scf accuracy    <       0.00005825 Ry

     total magnetization       =     2.84 Bohr mag/cell
     absolute magnetization    =     7.29 Bohr mag/cell

     iteration # 54     ecut=    55.12 Ry     beta= 0.10
     Davidson diagonalization with overlap
     ethr =  2.02E-08,  avg # of iterations =  5.3

     Adding external electric field

     Computed dipole along edir(3) : 
        Dipole                0.0528 Ry au,          0.1341 Debye
        Dipole field          0.0002 Ry au, 

        Potential amp.       -0.0136 Ry
        Total length         44.8431 bohr


     Adding external electric field

     Computed dipole along edir(3) : 
        Dipole                0.0528 Ry au,          0.1341 Debye
        Dipole field          0.0002 Ry au, 

        Potential amp.       -0.0136 Ry
        Total length         44.8431 bohr


     total cpu time spent up to now is    31922.8 secs

     total energy              =   -4469.05872256 Ry
     estimated scf accuracy    <       0.00003290 Ry

     total magnetization       =     2.87 Bohr mag/cell
     absolute magnetization    =     7.35 Bohr mag/cell

     iteration # 55     ecut=    55.12 Ry     beta= 0.10
     Davidson diagonalization with overlap
     ethr =  1.57E-08,  avg # of iterations =  8.1

     Adding external electric field

     Computed dipole along edir(3) : 
        Dipole                0.0530 Ry au,          0.1347 Debye
        Dipole field          0.0002 Ry au, 

        Potential amp.       -0.0136 Ry
        Total length         44.8431 bohr


     Adding external electric field

     Computed dipole along edir(3) : 
        Dipole                0.0530 Ry au,          0.1347 Debye
        Dipole field          0.0002 Ry au, 

        Potential amp.       -0.0136 Ry
        Total length         44.8431 bohr


     total cpu time spent up to now is    32660.0 secs

     total energy              =   -4469.16439561 Ry
     estimated scf accuracy    <       0.00003840 Ry

     total magnetization       =     2.81 Bohr mag/cell
     absolute magnetization    =     7.52 Bohr mag/cell

     iteration # 56     ecut=    55.12 Ry     beta= 0.10
     Davidson diagonalization with overlap
     ethr =  1.57E-08,  avg # of iterations =  6.0

     Adding external electric field

     Computed dipole along edir(3) : 
        Dipole                0.0530 Ry au,          0.1346 Debye
        Dipole field          0.0002 Ry au, 

        Potential amp.       -0.0136 Ry
        Total length         44.8431 bohr


     Adding external electric field

     Computed dipole along edir(3) : 
        Dipole                0.0530 Ry au,          0.1346 Debye
        Dipole field          0.0002 Ry au, 

        Potential amp.       -0.0136 Ry
        Total length         44.8431 bohr


     total cpu time spent up to now is    33298.9 secs

     total energy              =   -4468.95438041 Ry
     estimated scf accuracy    <       0.00002745 Ry

     total magnetization       =     2.77 Bohr mag/cell
     absolute magnetization    =     7.63 Bohr mag/cell

     iteration # 57     ecut=    55.12 Ry     beta= 0.10
     Davidson diagonalization with overlap
     ethr =  1.31E-08,  avg # of iterations =  2.1

     Adding external electric field

     Computed dipole along edir(3) : 
        Dipole                0.0534 Ry au,          0.1357 Debye
        Dipole field          0.0002 Ry au, 

        Potential amp.       -0.0137 Ry
        Total length         44.8431 bohr


     Adding external electric field

     Computed dipole along edir(3) : 
        Dipole                0.0534 Ry au,          0.1357 Debye
        Dipole field          0.0002 Ry au, 

        Potential amp.       -0.0137 Ry
        Total length         44.8431 bohr


     total cpu time spent up to now is    33777.5 secs

     total energy              =   -4468.52892998 Ry
     estimated scf accuracy    <       0.00001902 Ry

     total magnetization       =     2.76 Bohr mag/cell
     absolute magnetization    =     7.67 Bohr mag/cell

     iteration # 58     ecut=    55.12 Ry     beta= 0.10
     Davidson diagonalization with overlap
     ethr =  9.05E-09,  avg # of iterations =  4.1

     Adding external electric field

     Computed dipole along edir(3) : 
        Dipole                0.0536 Ry au,          0.1362 Debye
        Dipole field          0.0002 Ry au, 

        Potential amp.       -0.0138 Ry
        Total length         44.8431 bohr


     Adding external electric field

     Computed dipole along edir(3) : 
        Dipole                0.0536 Ry au,          0.1362 Debye
        Dipole field          0.0002 Ry au, 

        Potential amp.       -0.0138 Ry
        Total length         44.8431 bohr


     total cpu time spent up to now is    34310.0 secs

     total energy              =   -4468.61388618 Ry
     estimated scf accuracy    <       0.00001625 Ry

     total magnetization       =     2.77 Bohr mag/cell
     absolute magnetization    =     7.65 Bohr mag/cell

     iteration # 59     ecut=    55.12 Ry     beta= 0.10
     Davidson diagonalization with overlap
     ethr =  7.74E-09,  avg # of iterations =  5.6

     Adding external electric field

     Computed dipole along edir(3) : 
        Dipole                0.0537 Ry au,          0.1366 Debye
        Dipole field          0.0002 Ry au, 

        Potential amp.       -0.0138 Ry
        Total length         44.8431 bohr


     Adding external electric field

     Computed dipole along edir(3) : 
        Dipole                0.0537 Ry au,          0.1366 Debye
        Dipole field          0.0002 Ry au, 

        Potential amp.       -0.0138 Ry
        Total length         44.8431 bohr


     total cpu time spent up to now is    34886.5 secs

     total energy              =   -4468.62160665 Ry
     estimated scf accuracy    <       0.00001178 Ry

     total magnetization       =     2.73 Bohr mag/cell
     absolute magnetization    =     7.72 Bohr mag/cell

     iteration # 60     ecut=    55.12 Ry     beta= 0.10
     Davidson diagonalization with overlap
     ethr =  5.61E-09,  avg # of iterations =  5.6

     Adding external electric field

     Computed dipole along edir(3) : 
        Dipole                0.0445 Ry au,          0.1130 Debye
        Dipole field          0.0001 Ry au, 

        Potential amp.       -0.0114 Ry
        Total length         44.8431 bohr


     Adding external electric field

     Computed dipole along edir(3) : 
        Dipole                0.0445 Ry au,          0.1130 Debye
        Dipole field          0.0001 Ry au, 

        Potential amp.       -0.0114 Ry
        Total length         44.8431 bohr


     Magnetic moment per site:
     atom:    1    charge:    6.5235    magn:    1.3115    constr:    0.0000
     atom:    2    charge:    6.5234    magn:    1.3112    constr:    0.0000
     atom:    3    charge:   23.5933    magn:   -0.2872    constr:    0.0000
     atom:    4    charge:   23.5933    magn:   -0.2872    constr:    0.0000
     atom:    5    charge:    6.6112    magn:    1.2020    constr:    0.0000
     atom:    6    charge:    6.6112    magn:    1.2021    constr:    0.0000
     atom:    7    charge:   23.6605    magn:   -0.0821    constr:    0.0000
     atom:    8    charge:   23.6605    magn:   -0.0821    constr:    0.0000
     atom:    9    charge:    6.6042    magn:   -0.3674    constr:    0.0000
     atom:   10    charge:    6.6045    magn:   -0.3673    constr:    0.0000
     atom:   11    charge:   23.5821    magn:   -0.0087    constr:    0.0000
     atom:   12    charge:   23.5821    magn:   -0.0087    constr:    0.0000

     total cpu time spent up to now is    35476.6 secs

     End of self-consistent calculation

     Number of k-points >= 100: set verbosity='high' to print the bands.

     the Fermi energy is     1.7320 ev

!    total energy              =   -4466.83613389 Ry
     estimated scf accuracy    <       0.00000941 Ry
     smearing contrib. (-TS)   =      -0.05699782 Ry
     internal energy E=F+TS    =   -4466.77913607 Ry

     The total energy is F=E-TS. E is the sum of the following terms:
     one-electron contribution =  -27759.94436786 Ry
     hartree contribution      =   14018.88627573 Ry
     xc contribution           =    -606.31300999 Ry
     ewald contribution        =    9880.59196037 Ry
     electric field correction =       0.00000567 Ry

     total magnetization       =     2.71 Bohr mag/cell
     absolute magnetization    =     7.77 Bohr mag/cell

     convergence has been achieved in  60 iterations

     Forces acting on atoms (cartesian axes, Ry/au):

     atom    1 type  1   force =     0.00014831    0.00010477    0.03588878
     atom    2 type  1   force =     0.00015163    0.00010749    0.03590994
     atom    3 type  2   force =     0.00073451    0.00050558   -0.00969573
     atom    4 type  2   force =     0.00072645    0.00052874   -0.00969509
     atom    5 type  1   force =    -0.00006864   -0.00004913   -0.00300294
     atom    6 type  1   force =    -0.00000345   -0.00000146   -0.00300867
     atom    7 type  2   force =    -0.00025372   -0.00061480   -0.02257493
     atom    8 type  2   force =    -0.00066705   -0.00003471   -0.02258487
     atom    9 type  1   force =    -0.00024981   -0.00016788   -0.00160298
     atom   10 type  1   force =    -0.00026408   -0.00019652   -0.00156060
     atom   11 type  2   force =    -0.00016143   -0.00003535    0.00096124
     atom   12 type  2   force =    -0.00009271   -0.00014672    0.00096585

     Total force =     0.061749     Total SCF correction =     0.015324
     SCF correction compared to forces is large: reduce conv_thr to get better values

     Writing output data file ./Fe2Ta2/Fe2Ta2_beef.save/

     init_run     :    128.33s CPU    189.70s WALL (       1 calls)
     electrons    :  21834.59s CPU  35258.89s WALL (       1 calls)
     forces       :     77.88s CPU    106.59s WALL (       1 calls)

     Called by init_run:
     wfcinit      :    117.08s CPU    175.43s WALL (       1 calls)
     potinit      :      7.51s CPU      9.12s WALL (       1 calls)
     hinit0       :      1.92s CPU      2.32s WALL (       1 calls)

     Called by electrons:
     c_bands      :  19760.62s CPU  31584.17s WALL (      60 calls)
     sum_band     :   1925.71s CPU   3418.48s WALL (      60 calls)
     v_of_rho     :     59.00s CPU    111.76s WALL (      61 calls)
     newd         :     93.58s CPU    143.17s WALL (      61 calls)
     mix_rho      :      2.42s CPU      7.62s WALL (      60 calls)
     vdW_kernel   :      5.63s CPU      6.19s WALL (       1 calls)

     Called by c_bands:
     init_us_2    :     33.13s CPU     43.69s WALL (   18056 calls)
     cegterg      :  19491.63s CPU  30977.68s WALL (    8880 calls)

     Called by *egterg:
     cdiaghg      :   2785.59s CPU   2929.81s WALL (   43675 calls)
     h_psi        :   8305.25s CPU  13597.96s WALL (   43823 calls)
     s_psi        :   2280.77s CPU   2328.59s WALL (   43823 calls)
     g_psi        :      8.04s CPU     10.10s WALL (   34795 calls)

     Called by h_psi:
     h_psi:calbec :   2637.44s CPU   4700.97s WALL (   43823 calls)
     vloc_psi     :   3406.56s CPU   6557.64s WALL (   43823 calls)
     add_vuspsi   :   2251.21s CPU   2324.26s WALL (   43823 calls)

     General routines
     calbec       :   3744.22s CPU   6678.96s WALL (   53295 calls)
     fft          :     34.10s CPU    150.91s WALL (    5506 calls)
     ffts         :      0.37s CPU      1.16s WALL (     242 calls)
     fftw         :   3959.18s CPU   7557.88s WALL ( 6477218 calls)
     interpolate  :      0.81s CPU      2.15s WALL (     122 calls)

     Parallel routines
     fft_scatt_xy :    175.96s CPU    306.56s WALL ( 6482966 calls)
     fft_scatt_yz :   2078.26s CPU   4515.26s WALL ( 6482966 calls)

     PWSCF        :      6h 8m CPU      9h59m WALL


   This run was terminated on:   9:58:22  29Jun2022            

=------------------------------------------------------------------------------=
   JOB DONE.
=------------------------------------------------------------------------------=
