
     Program PWSCF v.6.6 starts on 28Jun2022 at 22: 4:55 

     This program is part of the open-source Quantum ESPRESSO suite
     for quantum simulation of materials; please cite
         "P. Giannozzi et al., J. Phys.:Condens. Matter 21 395502 (2009);
         "P. Giannozzi et al., J. Phys.:Condens. Matter 29 465901 (2017);
          URL http://www.quantum-espresso.org", 
     in publications or presentations arising from this work. More details at
     http://www.quantum-espresso.org/quote

     Parallel version (MPI), running on    37 processors

     MPI processes distributed on     3 nodes
     R & G space division:  proc/nbgrp/npool/nimage =      37
     Fft bands division:     nmany     =       1
     Reading input from Fe2Y2.in
Warning: card &CELL ignored
Warning: card / ignored

     Current dimensions of program PWSCF are:
     Max number of different atomic species (ntypx) = 10
     Max number of k-points (npk) =  40000
     Max angular momentum in pseudopotentials (lmaxx) =  3
     Presently stress not available with electric field and gates

     Message from routine cell_base_init:
     DEPRECATED: use true lattice parameter, not A to a.u. conversion factor
     file Fe.pbe-n-rrkjus_psl.1.0.0.UPF: wavefunction(s)  3D renormalized
     file Y.pbe-spn-rrkjus_psl.1.0.0.UPF: wavefunction(s)  4S renormalized

     **************************************************************************
     Initializing libbeef V0.1.2 with the BEEF-vdW functional.
     Citation: Wellendorff et al., PRB 85, 235149 (2012).
     **************************************************************************


     IMPORTANT: XC functional enforced from input :
     Exchange-correlation= BEEF-VDW
                           (   1   4  43  14   2   0   0)
     Any further DFT definition will be discarded
     Please, verify this is what you really want


     Subspace diagonalization in iterative solution of the eigenvalue problem:
     a serial algorithm will be used


     Parallelization info
     --------------------
     sticks:   dense  smooth     PW     G-vecs:    dense   smooth      PW
     Min         144      57     16                33714     8525    1262
     Max         145      58     17                33727     8544    1275
     Sum        5337    2129    599              1247719   315699   46871



     bravais-lattice index     =            0
     lattice parameter (alat)  =       1.8897  a.u.
     unit-cell volume          =    5708.1532 (a.u.)^3
     number of atoms/cell      =           12
     number of atomic types    =            2
     number of electrons       =       114.00
     number of Kohn-Sham states=           68
     kinetic-energy cutoff     =      55.1240  Ry
     charge density cutoff     =     551.2396  Ry
     convergence threshold     =      1.0E-05
     mixing beta               =       0.1000
     number of iterations used =           10  plain     mixing
     Exchange-correlation= BEEF-VDW
                           (   1   4  43  14   2   0   0)

     celldm(1)=   1.889726  celldm(2)=   0.000000  celldm(3)=   0.000000
     celldm(4)=   0.000000  celldm(5)=   0.000000  celldm(6)=   0.000000

     crystal axes: (cart. coord. in units of alat)
               a(1) = (   5.993283   0.000000   0.000000 )  
               a(2) = (   1.927566   5.674851   0.000000 )  
               a(3) = (   0.000000   0.000000  24.870233 )  

     reciprocal axes: (cart. coord. in units 2 pi/alat)
               b(1) = (  0.166853 -0.056675  0.000000 )  
               b(2) = (  0.000000  0.176216  0.000000 )  
               b(3) = (  0.000000  0.000000  0.040209 )  


     PseudoPot. # 1 for Fe read from file:
     ../pseudo/Fe.pbe-n-rrkjus_psl.1.0.0.UPF
     MD5 check sum: e37eda618788e2416bb099156d582190
     Pseudo is Ultrasoft + core correction, Zval =  8.0
     Generated using "atomic" code by A. Dal Corso v.6.5
     Using radial grid of 1191 points,  6 beta functions with: 
                l(1) =   0
                l(2) =   0
                l(3) =   1
                l(4) =   1
                l(5) =   2
                l(6) =   2
     Q(r) pseudized with 0 coefficients 


     PseudoPot. # 2 for Y  read from file:
     ../pseudo/Y.pbe-spn-rrkjus_psl.1.0.0.UPF
     MD5 check sum: 5fe32e6a006803c2ec2edff47948a3c8
     Pseudo is Ultrasoft + core correction, Zval = 11.0
     Generated using "atomic" code by A. Dal Corso v.6.2.2
     Using radial grid of 1223 points,  6 beta functions with: 
                l(1) =   0
                l(2) =   0
                l(3) =   1
                l(4) =   1
                l(5) =   2
                l(6) =   2
     Q(r) pseudized with 0 coefficients 


     atomic species   valence    mass     pseudopotential
        Fe             8.00    55.84500     Fe( 1.00)
        Y             11.00    88.90584     Y ( 1.00)

     Starting magnetic structure 
     atomic species   magnetization
        Fe           0.750
        Y            0.000

     No symmetry found



   Cartesian axes

     site n.     atom                  positions (alat units)
         1           Fe  tau(   1) = (   0.0000000   0.0000000  10.0000000  )
         2           Fe  tau(   2) = (   3.9604244   2.8374253  10.0000000  )
         3           Y   tau(   3) = (   2.9966414   0.0000000  10.0000000  )
         4           Y   tau(   4) = (   0.9637830   2.8374253  10.0000000  )
         5           Fe  tau(   5) = (   5.9932829   4.2938561  12.4351163  )
         6           Fe  tau(   6) = (   2.0328585   1.4564308  12.4351163  )
         7           Y   tau(   7) = (   2.9966414   4.2938561  12.4351163  )
         8           Y   tau(   8) = (   5.0294999   1.4564308  12.4351163  )
         9           Fe  tau(   9) = (   4.0647600   2.9122023  14.6197058  )
        10           Fe  tau(  10) = (   0.1046495   0.0749495  14.6195862  )
        11           Y   tau(  11) = (   1.0421701   2.8936499  14.8697765  )
        12           Y   tau(  12) = (   3.0751073   0.0561510  14.8697771  )

     number of k points=    74  Fermi-Dirac smearing, width (Ry)=  0.0100
                       cart. coord. in units 2pi/alat
        k(    1) = (   0.0000000   0.0000000   0.0000000), wk =   0.0069444
        k(    2) = (   0.0000000   0.0146847   0.0000000), wk =   0.0138889
        k(    3) = (   0.0000000   0.0293693   0.0000000), wk =   0.0138889
        k(    4) = (   0.0000000   0.0440540   0.0000000), wk =   0.0138889
        k(    5) = (   0.0000000   0.0587387   0.0000000), wk =   0.0138889
        k(    6) = (   0.0000000   0.0734234   0.0000000), wk =   0.0138889
        k(    7) = (   0.0000000  -0.0881080   0.0000000), wk =   0.0069444
        k(    8) = (   0.0139045  -0.0047229   0.0000000), wk =   0.0138889
        k(    9) = (   0.0139045   0.0099618   0.0000000), wk =   0.0138889
        k(   10) = (   0.0139045   0.0246464   0.0000000), wk =   0.0138889
        k(   11) = (   0.0139045   0.0393311   0.0000000), wk =   0.0138889
        k(   12) = (   0.0139045   0.0540158   0.0000000), wk =   0.0138889
        k(   13) = (   0.0139045   0.0687005   0.0000000), wk =   0.0138889
        k(   14) = (   0.0139045  -0.0928309   0.0000000), wk =   0.0138889
        k(   15) = (   0.0139045  -0.0781463   0.0000000), wk =   0.0138889
        k(   16) = (   0.0139045  -0.0634616   0.0000000), wk =   0.0138889
        k(   17) = (   0.0139045  -0.0487769   0.0000000), wk =   0.0138889
        k(   18) = (   0.0139045  -0.0340922   0.0000000), wk =   0.0138889
        k(   19) = (   0.0139045  -0.0194076   0.0000000), wk =   0.0138889
        k(   20) = (   0.0278089  -0.0094458   0.0000000), wk =   0.0138889
        k(   21) = (   0.0278089   0.0052389   0.0000000), wk =   0.0138889
        k(   22) = (   0.0278089   0.0199235   0.0000000), wk =   0.0138889
        k(   23) = (   0.0278089   0.0346082   0.0000000), wk =   0.0138889
        k(   24) = (   0.0278089   0.0492929   0.0000000), wk =   0.0138889
        k(   25) = (   0.0278089   0.0639776   0.0000000), wk =   0.0138889
        k(   26) = (   0.0278089  -0.0975538   0.0000000), wk =   0.0138889
        k(   27) = (   0.0278089  -0.0828692   0.0000000), wk =   0.0138889
        k(   28) = (   0.0278089  -0.0681845   0.0000000), wk =   0.0138889
        k(   29) = (   0.0278089  -0.0534998   0.0000000), wk =   0.0138889
        k(   30) = (   0.0278089  -0.0388151   0.0000000), wk =   0.0138889
        k(   31) = (   0.0278089  -0.0241305   0.0000000), wk =   0.0138889
        k(   32) = (   0.0417134  -0.0141687   0.0000000), wk =   0.0138889
        k(   33) = (   0.0417134   0.0005160   0.0000000), wk =   0.0138889
        k(   34) = (   0.0417134   0.0152006   0.0000000), wk =   0.0138889
        k(   35) = (   0.0417134   0.0298853   0.0000000), wk =   0.0138889
        k(   36) = (   0.0417134   0.0445700   0.0000000), wk =   0.0138889
        k(   37) = (   0.0417134   0.0592547   0.0000000), wk =   0.0138889
        k(   38) = (   0.0417134  -0.1022767   0.0000000), wk =   0.0138889
        k(   39) = (   0.0417134  -0.0875921   0.0000000), wk =   0.0138889
        k(   40) = (   0.0417134  -0.0729074   0.0000000), wk =   0.0138889
        k(   41) = (   0.0417134  -0.0582227   0.0000000), wk =   0.0138889
        k(   42) = (   0.0417134  -0.0435380   0.0000000), wk =   0.0138889
        k(   43) = (   0.0417134  -0.0288534   0.0000000), wk =   0.0138889
        k(   44) = (   0.0556178  -0.0188916   0.0000000), wk =   0.0138889
        k(   45) = (   0.0556178  -0.0042069   0.0000000), wk =   0.0138889
        k(   46) = (   0.0556178   0.0104777   0.0000000), wk =   0.0138889
        k(   47) = (   0.0556178   0.0251624   0.0000000), wk =   0.0138889
        k(   48) = (   0.0556178   0.0398471   0.0000000), wk =   0.0138889
        k(   49) = (   0.0556178   0.0545318   0.0000000), wk =   0.0138889
        k(   50) = (   0.0556178  -0.1069996   0.0000000), wk =   0.0138889
        k(   51) = (   0.0556178  -0.0923150   0.0000000), wk =   0.0138889
        k(   52) = (   0.0556178  -0.0776303   0.0000000), wk =   0.0138889
        k(   53) = (   0.0556178  -0.0629456   0.0000000), wk =   0.0138889
        k(   54) = (   0.0556178  -0.0482609   0.0000000), wk =   0.0138889
        k(   55) = (   0.0556178  -0.0335763   0.0000000), wk =   0.0138889
        k(   56) = (   0.0695223  -0.0236145   0.0000000), wk =   0.0138889
        k(   57) = (   0.0695223  -0.0089298   0.0000000), wk =   0.0138889
        k(   58) = (   0.0695223   0.0057548   0.0000000), wk =   0.0138889
        k(   59) = (   0.0695223   0.0204395   0.0000000), wk =   0.0138889
        k(   60) = (   0.0695223   0.0351242   0.0000000), wk =   0.0138889
        k(   61) = (   0.0695223   0.0498089   0.0000000), wk =   0.0138889
        k(   62) = (   0.0695223  -0.1117225   0.0000000), wk =   0.0138889
        k(   63) = (   0.0695223  -0.0970379   0.0000000), wk =   0.0138889
        k(   64) = (   0.0695223  -0.0823532   0.0000000), wk =   0.0138889
        k(   65) = (   0.0695223  -0.0676685   0.0000000), wk =   0.0138889
        k(   66) = (   0.0695223  -0.0529838   0.0000000), wk =   0.0138889
        k(   67) = (   0.0695223  -0.0382992   0.0000000), wk =   0.0138889
        k(   68) = (  -0.0834267   0.0283374   0.0000000), wk =   0.0069444
        k(   69) = (  -0.0834267   0.0430221   0.0000000), wk =   0.0138889
        k(   70) = (  -0.0834267   0.0577067   0.0000000), wk =   0.0138889
        k(   71) = (  -0.0834267   0.0723914   0.0000000), wk =   0.0138889
        k(   72) = (  -0.0834267   0.0870761   0.0000000), wk =   0.0138889
        k(   73) = (  -0.0834267   0.1017608   0.0000000), wk =   0.0138889
        k(   74) = (  -0.0834267  -0.0597706   0.0000000), wk =   0.0069444

     Dense  grid:  1247719 G-vectors     FFT dimensions: (  90,  90, 360)

     Smooth grid:   315699 G-vectors     FFT dimensions: (  54,  54, 225)

     Estimated max dynamical RAM per process >     314.52 MB

     Estimated total dynamical RAM >      11.36 GB
     Generating pointlists ...
     new r_m :   1.1537 (alat units)  2.1801 (a.u.) for type    1
     new r_m :   1.1537 (alat units)  2.1801 (a.u.) for type    2

     Initial potential from superposition of free atoms

     starting charge  113.97235, renormalised to  114.00000


     %%%%%%%%%%%%%%%%%%%%%%%%%%%%%%%%%%%%%%%%%%%%%%%%%%%%%%%%%%%%%%%%%%%%%%%%
     %                                                                      %
     % You are using vdW-DF, which was implemented by the Thonhauser group. %
     % Please cite the following two papers that made this development      %
     % possible and the two reviews that describe the various versions:     %
     %                                                                      %
     %   T. Thonhauser et al., PRL 115, 136402 (2015).                      %
     %   T. Thonhauser et al., PRB 76, 125112 (2007).                       %
     %   K. Berland et al., Rep. Prog. Phys. 78, 066501 (2015).             %
     %   D.C. Langreth et al., J. Phys.: Condens. Matter 21, 084203 (2009). %
     %                                                                      %
     %                                                                      %
     % If you are calculating the stress with vdW-DF, please also cite:     %
     %                                                                      %
     %   R. Sabatini et al., J. Phys.: Condens. Matter 24, 424209 (2012).   %
     %                                                                      %
     %%%%%%%%%%%%%%%%%%%%%%%%%%%%%%%%%%%%%%%%%%%%%%%%%%%%%%%%%%%%%%%%%%%%%%%%



     Adding external electric field

     Computed dipole along edir(3) : 
        Dipole                0.0013 Ry au,          0.0034 Debye
        Dipole field          0.0000 Ry au, 

        Potential amp.       -0.0003 Ry
        Total length         45.8230 bohr


     Adding external electric field

     Computed dipole along edir(3) : 
        Dipole                0.0013 Ry au,          0.0034 Debye
        Dipole field          0.0000 Ry au, 

        Potential amp.       -0.0003 Ry
        Total length         45.8230 bohr

     Starting wfcs are  132 randomized atomic wfcs

     total cpu time spent up to now is      209.1 secs

     Self-consistent Calculation

     iteration #  1     ecut=    55.12 Ry     beta= 0.10
     Davidson diagonalization with overlap
     ethr =  1.00E-02,  avg # of iterations =  2.0

     Adding external electric field

     Computed dipole along edir(3) : 
        Dipole               -0.6818 Ry au,         -1.7329 Debye
        Dipole field         -0.0015 Ry au, 

        Potential amp.        0.1376 Ry
        Total length         45.8230 bohr


     Adding external electric field

     Computed dipole along edir(3) : 
        Dipole               -0.6818 Ry au,         -1.7329 Debye
        Dipole field         -0.0015 Ry au, 

        Potential amp.        0.1376 Ry
        Total length         45.8230 bohr


     total cpu time spent up to now is      465.4 secs

     total energy              =    -878.61531409 Ry
     estimated scf accuracy    <       7.00123174 Ry

     total magnetization       =    19.00 Bohr mag/cell
     absolute magnetization    =    20.48 Bohr mag/cell

     iteration #  2     ecut=    55.12 Ry     beta= 0.10
     Davidson diagonalization with overlap
     ethr =  6.14E-03,  avg # of iterations =  2.2

     Adding external electric field

     Computed dipole along edir(3) : 
        Dipole                0.5414 Ry au,          1.3760 Debye
        Dipole field          0.0012 Ry au, 

        Potential amp.       -0.1092 Ry
        Total length         45.8230 bohr


     Adding external electric field

     Computed dipole along edir(3) : 
        Dipole                0.5414 Ry au,          1.3760 Debye
        Dipole field          0.0012 Ry au, 

        Potential amp.       -0.1092 Ry
        Total length         45.8230 bohr


     total cpu time spent up to now is      730.4 secs

     total energy              =    -880.81339568 Ry
     estimated scf accuracy    <      31.37350857 Ry

     total magnetization       =    17.55 Bohr mag/cell
     absolute magnetization    =    20.44 Bohr mag/cell

     iteration #  3     ecut=    55.12 Ry     beta= 0.10
     Davidson diagonalization with overlap
     ethr =  6.14E-03,  avg # of iterations =  1.6

     Adding external electric field

     Computed dipole along edir(3) : 
        Dipole                0.0123 Ry au,          0.0312 Debye
        Dipole field          0.0000 Ry au, 

        Potential amp.       -0.0025 Ry
        Total length         45.8230 bohr


     Adding external electric field

     Computed dipole along edir(3) : 
        Dipole                0.0123 Ry au,          0.0312 Debye
        Dipole field          0.0000 Ry au, 

        Potential amp.       -0.0025 Ry
        Total length         45.8230 bohr


     total cpu time spent up to now is      973.7 secs

     total energy              =    -881.88381549 Ry
     estimated scf accuracy    <      18.19161884 Ry

     total magnetization       =    18.10 Bohr mag/cell
     absolute magnetization    =    21.13 Bohr mag/cell

     iteration #  4     ecut=    55.12 Ry     beta= 0.10
     Davidson diagonalization with overlap
     ethr =  6.14E-03,  avg # of iterations =  1.0

     Adding external electric field

     Computed dipole along edir(3) : 
        Dipole                0.1225 Ry au,          0.3115 Debye
        Dipole field          0.0003 Ry au, 

        Potential amp.       -0.0247 Ry
        Total length         45.8230 bohr


     Adding external electric field

     Computed dipole along edir(3) : 
        Dipole                0.1225 Ry au,          0.3115 Debye
        Dipole field          0.0003 Ry au, 

        Potential amp.       -0.0247 Ry
        Total length         45.8230 bohr


     total cpu time spent up to now is     1203.3 secs

     total energy              =    -881.38124536 Ry
     estimated scf accuracy    <       1.31187545 Ry

     total magnetization       =    18.71 Bohr mag/cell
     absolute magnetization    =    21.75 Bohr mag/cell

     iteration #  5     ecut=    55.12 Ry     beta= 0.10
     Davidson diagonalization with overlap
     ethr =  1.15E-03,  avg # of iterations =  3.0

     Adding external electric field

     Computed dipole along edir(3) : 
        Dipole                0.0055 Ry au,          0.0140 Debye
        Dipole field          0.0000 Ry au, 

        Potential amp.       -0.0011 Ry
        Total length         45.8230 bohr


     Adding external electric field

     Computed dipole along edir(3) : 
        Dipole                0.0055 Ry au,          0.0140 Debye
        Dipole field          0.0000 Ry au, 

        Potential amp.       -0.0011 Ry
        Total length         45.8230 bohr


     total cpu time spent up to now is     1463.7 secs

     total energy              =    -880.39054860 Ry
     estimated scf accuracy    <       0.91731446 Ry

     total magnetization       =    18.01 Bohr mag/cell
     absolute magnetization    =    21.35 Bohr mag/cell

     iteration #  6     ecut=    55.12 Ry     beta= 0.10
     Davidson diagonalization with overlap
     ethr =  8.05E-04,  avg # of iterations =  3.8

     Adding external electric field

     Computed dipole along edir(3) : 
        Dipole                0.3295 Ry au,          0.8376 Debye
        Dipole field          0.0007 Ry au, 

        Potential amp.       -0.0665 Ry
        Total length         45.8230 bohr


     Adding external electric field

     Computed dipole along edir(3) : 
        Dipole                0.3295 Ry au,          0.8376 Debye
        Dipole field          0.0007 Ry au, 

        Potential amp.       -0.0665 Ry
        Total length         45.8230 bohr


     total cpu time spent up to now is     1721.1 secs

     total energy              =    -880.29150475 Ry
     estimated scf accuracy    <       1.10364593 Ry

     total magnetization       =    17.30 Bohr mag/cell
     absolute magnetization    =    20.92 Bohr mag/cell

     iteration #  7     ecut=    55.12 Ry     beta= 0.10
     Davidson diagonalization with overlap
     ethr =  8.05E-04,  avg # of iterations =  2.1

     Adding external electric field

     Computed dipole along edir(3) : 
        Dipole                0.3135 Ry au,          0.7968 Debye
        Dipole field          0.0007 Ry au, 

        Potential amp.       -0.0632 Ry
        Total length         45.8230 bohr


     Adding external electric field

     Computed dipole along edir(3) : 
        Dipole                0.3135 Ry au,          0.7968 Debye
        Dipole field          0.0007 Ry au, 

        Potential amp.       -0.0632 Ry
        Total length         45.8230 bohr


     total cpu time spent up to now is     1979.8 secs

     total energy              =    -882.27798275 Ry
     estimated scf accuracy    <       7.17536430 Ry

     total magnetization       =    15.89 Bohr mag/cell
     absolute magnetization    =    19.92 Bohr mag/cell

     iteration #  8     ecut=    55.12 Ry     beta= 0.10
     Davidson diagonalization with overlap
     ethr =  8.05E-04,  avg # of iterations =  1.3

     Adding external electric field

     Computed dipole along edir(3) : 
        Dipole                0.1182 Ry au,          0.3003 Debye
        Dipole field          0.0003 Ry au, 

        Potential amp.       -0.0238 Ry
        Total length         45.8230 bohr


     Adding external electric field

     Computed dipole along edir(3) : 
        Dipole                0.1182 Ry au,          0.3003 Debye
        Dipole field          0.0003 Ry au, 

        Potential amp.       -0.0238 Ry
        Total length         45.8230 bohr


     total cpu time spent up to now is     2216.5 secs

     total energy              =    -884.75515139 Ry
     estimated scf accuracy    <       6.84105267 Ry

     total magnetization       =    15.21 Bohr mag/cell
     absolute magnetization    =    19.89 Bohr mag/cell

     iteration #  9     ecut=    55.12 Ry     beta= 0.10
     Davidson diagonalization with overlap
     ethr =  8.05E-04,  avg # of iterations =  1.8

     Adding external electric field

     Computed dipole along edir(3) : 
        Dipole                0.0853 Ry au,          0.2168 Debye
        Dipole field          0.0002 Ry au, 

        Potential amp.       -0.0172 Ry
        Total length         45.8230 bohr


     Adding external electric field

     Computed dipole along edir(3) : 
        Dipole                0.0853 Ry au,          0.2168 Debye
        Dipole field          0.0002 Ry au, 

        Potential amp.       -0.0172 Ry
        Total length         45.8230 bohr


     total cpu time spent up to now is     2461.5 secs

     total energy              =    -884.42504633 Ry
     estimated scf accuracy    <       0.29719251 Ry

     total magnetization       =    14.47 Bohr mag/cell
     absolute magnetization    =    20.22 Bohr mag/cell

     iteration # 10     ecut=    55.12 Ry     beta= 0.10
     Davidson diagonalization with overlap
     ethr =  2.61E-04,  avg # of iterations =  4.5

     Adding external electric field

     Computed dipole along edir(3) : 
        Dipole                0.0905 Ry au,          0.2301 Debye
        Dipole field          0.0002 Ry au, 

        Potential amp.       -0.0183 Ry
        Total length         45.8230 bohr


     Adding external electric field

     Computed dipole along edir(3) : 
        Dipole                0.0905 Ry au,          0.2301 Debye
        Dipole field          0.0002 Ry au, 

        Potential amp.       -0.0183 Ry
        Total length         45.8230 bohr


     total cpu time spent up to now is     2731.0 secs

     total energy              =    -883.17713433 Ry
     estimated scf accuracy    <       0.09665871 Ry

     total magnetization       =    14.32 Bohr mag/cell
     absolute magnetization    =    20.23 Bohr mag/cell

     iteration # 11     ecut=    55.12 Ry     beta= 0.10
     Davidson diagonalization with overlap
     c_bands:  1 eigenvalues not converged
     c_bands:  1 eigenvalues not converged
     ethr =  8.48E-05,  avg # of iterations =  7.5

     Adding external electric field

     Computed dipole along edir(3) : 
        Dipole                0.0835 Ry au,          0.2122 Debye
        Dipole field          0.0002 Ry au, 

        Potential amp.       -0.0168 Ry
        Total length         45.8230 bohr


     Adding external electric field

     Computed dipole along edir(3) : 
        Dipole                0.0835 Ry au,          0.2122 Debye
        Dipole field          0.0002 Ry au, 

        Potential amp.       -0.0168 Ry
        Total length         45.8230 bohr


     total cpu time spent up to now is     3030.6 secs

     total energy              =    -883.63668372 Ry
     estimated scf accuracy    <       0.15922061 Ry

     total magnetization       =    13.97 Bohr mag/cell
     absolute magnetization    =    20.01 Bohr mag/cell

     iteration # 12     ecut=    55.12 Ry     beta= 0.10
     Davidson diagonalization with overlap
     ethr =  8.48E-05,  avg # of iterations =  2.1

     Adding external electric field

     Computed dipole along edir(3) : 
        Dipole                0.0562 Ry au,          0.1430 Debye
        Dipole field          0.0001 Ry au, 

        Potential amp.       -0.0113 Ry
        Total length         45.8230 bohr


     Adding external electric field

     Computed dipole along edir(3) : 
        Dipole                0.0562 Ry au,          0.1430 Debye
        Dipole field          0.0001 Ry au, 

        Potential amp.       -0.0113 Ry
        Total length         45.8230 bohr


     total cpu time spent up to now is     3284.8 secs

     total energy              =    -886.41329509 Ry
     estimated scf accuracy    <       0.15884100 Ry

     total magnetization       =    12.82 Bohr mag/cell
     absolute magnetization    =    19.38 Bohr mag/cell

     iteration # 13     ecut=    55.12 Ry     beta= 0.10
     Davidson diagonalization with overlap
     ethr =  8.48E-05,  avg # of iterations =  2.5

     Adding external electric field

     Computed dipole along edir(3) : 
        Dipole                0.0452 Ry au,          0.1150 Debye
        Dipole field          0.0001 Ry au, 

        Potential amp.       -0.0091 Ry
        Total length         45.8230 bohr


     Adding external electric field

     Computed dipole along edir(3) : 
        Dipole                0.0452 Ry au,          0.1150 Debye
        Dipole field          0.0001 Ry au, 

        Potential amp.       -0.0091 Ry
        Total length         45.8230 bohr


     total cpu time spent up to now is     3535.9 secs

     total energy              =    -886.29187784 Ry
     estimated scf accuracy    <       0.11765704 Ry

     total magnetization       =    11.86 Bohr mag/cell
     absolute magnetization    =    19.56 Bohr mag/cell

     iteration # 14     ecut=    55.12 Ry     beta= 0.10
     Davidson diagonalization with overlap
     ethr =  8.48E-05,  avg # of iterations =  1.6

     Adding external electric field

     Computed dipole along edir(3) : 
        Dipole                0.0524 Ry au,          0.1331 Debye
        Dipole field          0.0001 Ry au, 

        Potential amp.       -0.0106 Ry
        Total length         45.8230 bohr


     Adding external electric field

     Computed dipole along edir(3) : 
        Dipole                0.0524 Ry au,          0.1331 Debye
        Dipole field          0.0001 Ry au, 

        Potential amp.       -0.0106 Ry
        Total length         45.8230 bohr


     total cpu time spent up to now is     3778.0 secs

     total energy              =    -886.10702466 Ry
     estimated scf accuracy    <       0.02561014 Ry

     total magnetization       =    11.62 Bohr mag/cell
     absolute magnetization    =    19.57 Bohr mag/cell

     iteration # 15     ecut=    55.12 Ry     beta= 0.10
     Davidson diagonalization with overlap
     c_bands:  1 eigenvalues not converged
     c_bands:  1 eigenvalues not converged
     c_bands:  2 eigenvalues not converged
     c_bands:  1 eigenvalues not converged
     c_bands:  2 eigenvalues not converged
     c_bands:  2 eigenvalues not converged
     c_bands:  1 eigenvalues not converged
     c_bands:  1 eigenvalues not converged
     c_bands:  1 eigenvalues not converged
     ethr =  2.25E-05,  avg # of iterations =  9.0

     Adding external electric field

     Computed dipole along edir(3) : 
        Dipole                0.0506 Ry au,          0.1287 Debye
        Dipole field          0.0001 Ry au, 

        Potential amp.       -0.0102 Ry
        Total length         45.8230 bohr


     Adding external electric field

     Computed dipole along edir(3) : 
        Dipole                0.0506 Ry au,          0.1287 Debye
        Dipole field          0.0001 Ry au, 

        Potential amp.       -0.0102 Ry
        Total length         45.8230 bohr


     total cpu time spent up to now is     4105.8 secs

     total energy              =    -885.56640497 Ry
     estimated scf accuracy    <       0.01338705 Ry

     total magnetization       =    11.53 Bohr mag/cell
     absolute magnetization    =    19.63 Bohr mag/cell

     iteration # 16     ecut=    55.12 Ry     beta= 0.10
     Davidson diagonalization with overlap
     c_bands:  1 eigenvalues not converged
     ethr =  1.17E-05,  avg # of iterations =  2.2

     Adding external electric field

     Computed dipole along edir(3) : 
        Dipole                0.0451 Ry au,          0.1146 Debye
        Dipole field          0.0001 Ry au, 

        Potential amp.       -0.0091 Ry
        Total length         45.8230 bohr


     Adding external electric field

     Computed dipole along edir(3) : 
        Dipole                0.0451 Ry au,          0.1146 Debye
        Dipole field          0.0001 Ry au, 

        Potential amp.       -0.0091 Ry
        Total length         45.8230 bohr


     total cpu time spent up to now is     4355.1 secs

     total energy              =    -885.21364109 Ry
     estimated scf accuracy    <       0.01225167 Ry

     total magnetization       =    11.43 Bohr mag/cell
     absolute magnetization    =    19.57 Bohr mag/cell

     iteration # 17     ecut=    55.12 Ry     beta= 0.10
     Davidson diagonalization with overlap
     ethr =  1.07E-05,  avg # of iterations =  1.4

     Adding external electric field

     Computed dipole along edir(3) : 
        Dipole                0.0576 Ry au,          0.1465 Debye
        Dipole field          0.0001 Ry au, 

        Potential amp.       -0.0116 Ry
        Total length         45.8230 bohr


     Adding external electric field

     Computed dipole along edir(3) : 
        Dipole                0.0576 Ry au,          0.1465 Debye
        Dipole field          0.0001 Ry au, 

        Potential amp.       -0.0116 Ry
        Total length         45.8230 bohr


     total cpu time spent up to now is     4590.3 secs

     total energy              =    -884.82124428 Ry
     estimated scf accuracy    <       0.00693246 Ry

     total magnetization       =    11.35 Bohr mag/cell
     absolute magnetization    =    19.56 Bohr mag/cell

     iteration # 18     ecut=    55.12 Ry     beta= 0.10
     Davidson diagonalization with overlap
     c_bands:  1 eigenvalues not converged
     c_bands:  1 eigenvalues not converged
     c_bands:  2 eigenvalues not converged
     c_bands:  1 eigenvalues not converged
     c_bands:  2 eigenvalues not converged
     c_bands:  1 eigenvalues not converged
     ethr =  6.08E-06,  avg # of iterations =  3.7

     Adding external electric field

     Computed dipole along edir(3) : 
        Dipole                0.0541 Ry au,          0.1376 Debye
        Dipole field          0.0001 Ry au, 

        Potential amp.       -0.0109 Ry
        Total length         45.8230 bohr


     Adding external electric field

     Computed dipole along edir(3) : 
        Dipole                0.0541 Ry au,          0.1376 Debye
        Dipole field          0.0001 Ry au, 

        Potential amp.       -0.0109 Ry
        Total length         45.8230 bohr


     total cpu time spent up to now is     4852.1 secs

     total energy              =    -885.43354473 Ry
     estimated scf accuracy    <       0.00592142 Ry

     total magnetization       =    11.16 Bohr mag/cell
     absolute magnetization    =    19.45 Bohr mag/cell

     iteration # 19     ecut=    55.12 Ry     beta= 0.10
     Davidson diagonalization with overlap
     c_bands:  1 eigenvalues not converged
     c_bands:  1 eigenvalues not converged
     c_bands:  1 eigenvalues not converged
     ethr =  5.19E-06,  avg # of iterations =  4.3

     Adding external electric field

     Computed dipole along edir(3) : 
        Dipole                0.0438 Ry au,          0.1113 Debye
        Dipole field          0.0001 Ry au, 

        Potential amp.       -0.0088 Ry
        Total length         45.8230 bohr


     Adding external electric field

     Computed dipole along edir(3) : 
        Dipole                0.0438 Ry au,          0.1113 Debye
        Dipole field          0.0001 Ry au, 

        Potential amp.       -0.0088 Ry
        Total length         45.8230 bohr


     total cpu time spent up to now is     5135.5 secs

     total energy              =    -885.01647236 Ry
     estimated scf accuracy    <       0.00192494 Ry

     total magnetization       =    10.78 Bohr mag/cell
     absolute magnetization    =    19.49 Bohr mag/cell

     iteration # 20     ecut=    55.12 Ry     beta= 0.10
     Davidson diagonalization with overlap
     c_bands:  1 eigenvalues not converged
     c_bands:  1 eigenvalues not converged
     c_bands:  1 eigenvalues not converged
     c_bands:  1 eigenvalues not converged
     c_bands:  1 eigenvalues not converged
     c_bands:  1 eigenvalues not converged
     c_bands:  1 eigenvalues not converged
     c_bands:  1 eigenvalues not converged
     c_bands:  1 eigenvalues not converged
     c_bands:  1 eigenvalues not converged
     c_bands:  2 eigenvalues not converged
     c_bands:  1 eigenvalues not converged
     c_bands:  2 eigenvalues not converged
     c_bands:  1 eigenvalues not converged
     c_bands:  1 eigenvalues not converged
     c_bands:  2 eigenvalues not converged
     ethr =  1.69E-06,  avg # of iterations = 10.2

     Adding external electric field

     Computed dipole along edir(3) : 
        Dipole                0.0485 Ry au,          0.1232 Debye
        Dipole field          0.0001 Ry au, 

        Potential amp.       -0.0098 Ry
        Total length         45.8230 bohr


     Adding external electric field

     Computed dipole along edir(3) : 
        Dipole                0.0485 Ry au,          0.1232 Debye
        Dipole field          0.0001 Ry au, 

        Potential amp.       -0.0098 Ry
        Total length         45.8230 bohr


     total cpu time spent up to now is     5462.9 secs

     total energy              =    -884.88362724 Ry
     estimated scf accuracy    <       0.00143460 Ry

     total magnetization       =    10.67 Bohr mag/cell
     absolute magnetization    =    19.48 Bohr mag/cell

     iteration # 21     ecut=    55.12 Ry     beta= 0.10
     Davidson diagonalization with overlap
     c_bands:  1 eigenvalues not converged
     c_bands:  1 eigenvalues not converged
     ethr =  1.26E-06,  avg # of iterations =  2.3

     Adding external electric field

     Computed dipole along edir(3) : 
        Dipole                0.0455 Ry au,          0.1158 Debye
        Dipole field          0.0001 Ry au, 

        Potential amp.       -0.0092 Ry
        Total length         45.8230 bohr


     Adding external electric field

     Computed dipole along edir(3) : 
        Dipole                0.0455 Ry au,          0.1158 Debye
        Dipole field          0.0001 Ry au, 

        Potential amp.       -0.0092 Ry
        Total length         45.8230 bohr


     total cpu time spent up to now is     5696.4 secs

     total energy              =    -884.21597625 Ry
     estimated scf accuracy    <       0.00163735 Ry

     total magnetization       =    10.55 Bohr mag/cell
     absolute magnetization    =    19.49 Bohr mag/cell

     iteration # 22     ecut=    55.12 Ry     beta= 0.10
     Davidson diagonalization with overlap
     ethr =  1.26E-06,  avg # of iterations =  1.7

     Adding external electric field

     Computed dipole along edir(3) : 
        Dipole                0.0464 Ry au,          0.1180 Debye
        Dipole field          0.0001 Ry au, 

        Potential amp.       -0.0094 Ry
        Total length         45.8230 bohr


     Adding external electric field

     Computed dipole along edir(3) : 
        Dipole                0.0464 Ry au,          0.1180 Debye
        Dipole field          0.0001 Ry au, 

        Potential amp.       -0.0094 Ry
        Total length         45.8230 bohr


     total cpu time spent up to now is     5923.6 secs

     total energy              =    -883.86697466 Ry
     estimated scf accuracy    <       0.00051668 Ry

     total magnetization       =    10.60 Bohr mag/cell
     absolute magnetization    =    19.51 Bohr mag/cell

     iteration # 23     ecut=    55.12 Ry     beta= 0.10
     Davidson diagonalization with overlap
     c_bands:  1 eigenvalues not converged
     ethr =  4.53E-07,  avg # of iterations =  3.4

     Adding external electric field

     Computed dipole along edir(3) : 
        Dipole                0.0466 Ry au,          0.1185 Debye
        Dipole field          0.0001 Ry au, 

        Potential amp.       -0.0094 Ry
        Total length         45.8230 bohr


     Adding external electric field

     Computed dipole along edir(3) : 
        Dipole                0.0466 Ry au,          0.1185 Debye
        Dipole field          0.0001 Ry au, 

        Potential amp.       -0.0094 Ry
        Total length         45.8230 bohr


     total cpu time spent up to now is     6164.4 secs

     total energy              =    -883.53769722 Ry
     estimated scf accuracy    <       0.00033849 Ry

     total magnetization       =    10.59 Bohr mag/cell
     absolute magnetization    =    19.52 Bohr mag/cell

     iteration # 24     ecut=    55.12 Ry     beta= 0.10
     Davidson diagonalization with overlap
     c_bands:  1 eigenvalues not converged
     ethr =  2.97E-07,  avg # of iterations =  4.0

     Adding external electric field

     Computed dipole along edir(3) : 
        Dipole                0.0472 Ry au,          0.1199 Debye
        Dipole field          0.0001 Ry au, 

        Potential amp.       -0.0095 Ry
        Total length         45.8230 bohr


     Adding external electric field

     Computed dipole along edir(3) : 
        Dipole                0.0472 Ry au,          0.1199 Debye
        Dipole field          0.0001 Ry au, 

        Potential amp.       -0.0095 Ry
        Total length         45.8230 bohr


     total cpu time spent up to now is     6412.0 secs

     total energy              =    -883.22275612 Ry
     estimated scf accuracy    <       0.00025810 Ry

     total magnetization       =    10.59 Bohr mag/cell
     absolute magnetization    =    19.55 Bohr mag/cell

     iteration # 25     ecut=    55.12 Ry     beta= 0.10
     Davidson diagonalization with overlap
     ethr =  2.26E-07,  avg # of iterations =  3.0

     Adding external electric field

     Computed dipole along edir(3) : 
        Dipole                0.0468 Ry au,          0.1189 Debye
        Dipole field          0.0001 Ry au, 

        Potential amp.       -0.0094 Ry
        Total length         45.8230 bohr


     Adding external electric field

     Computed dipole along edir(3) : 
        Dipole                0.0468 Ry au,          0.1189 Debye
        Dipole field          0.0001 Ry au, 

        Potential amp.       -0.0094 Ry
        Total length         45.8230 bohr


     total cpu time spent up to now is     6682.6 secs

     total energy              =    -883.00482855 Ry
     estimated scf accuracy    <       0.00028704 Ry

     total magnetization       =    10.58 Bohr mag/cell
     absolute magnetization    =    19.56 Bohr mag/cell

     iteration # 26     ecut=    55.12 Ry     beta= 0.10
     Davidson diagonalization with overlap
     ethr =  2.26E-07,  avg # of iterations =  2.7

     Adding external electric field

     Computed dipole along edir(3) : 
        Dipole                0.0492 Ry au,          0.1251 Debye
        Dipole field          0.0001 Ry au, 

        Potential amp.       -0.0099 Ry
        Total length         45.8230 bohr


     Adding external electric field

     Computed dipole along edir(3) : 
        Dipole                0.0492 Ry au,          0.1251 Debye
        Dipole field          0.0001 Ry au, 

        Potential amp.       -0.0099 Ry
        Total length         45.8230 bohr


     total cpu time spent up to now is     6924.2 secs

     total energy              =    -882.79507602 Ry
     estimated scf accuracy    <       0.00020226 Ry

     total magnetization       =    10.54 Bohr mag/cell
     absolute magnetization    =    19.57 Bohr mag/cell

     iteration # 27     ecut=    55.12 Ry     beta= 0.10
     Davidson diagonalization with overlap
     c_bands:  1 eigenvalues not converged
     c_bands:  1 eigenvalues not converged
     ethr =  1.77E-07,  avg # of iterations =  5.7

     Adding external electric field

     Computed dipole along edir(3) : 
        Dipole                0.0488 Ry au,          0.1240 Debye
        Dipole field          0.0001 Ry au, 

        Potential amp.       -0.0098 Ry
        Total length         45.8230 bohr


     Adding external electric field

     Computed dipole along edir(3) : 
        Dipole                0.0488 Ry au,          0.1240 Debye
        Dipole field          0.0001 Ry au, 

        Potential amp.       -0.0098 Ry
        Total length         45.8230 bohr


     total cpu time spent up to now is     7211.0 secs

     total energy              =    -882.59461292 Ry
     estimated scf accuracy    <       0.00005250 Ry

     total magnetization       =    10.53 Bohr mag/cell
     absolute magnetization    =    19.61 Bohr mag/cell

     iteration # 28     ecut=    55.12 Ry     beta= 0.10
     Davidson diagonalization with overlap
     c_bands:  1 eigenvalues not converged
     c_bands:  1 eigenvalues not converged
     ethr =  4.61E-08,  avg # of iterations =  6.9

     Adding external electric field

     Computed dipole along edir(3) : 
        Dipole                0.0486 Ry au,          0.1235 Debye
        Dipole field          0.0001 Ry au, 

        Potential amp.       -0.0098 Ry
        Total length         45.8230 bohr


     Adding external electric field

     Computed dipole along edir(3) : 
        Dipole                0.0486 Ry au,          0.1235 Debye
        Dipole field          0.0001 Ry au, 

        Potential amp.       -0.0098 Ry
        Total length         45.8230 bohr


     total cpu time spent up to now is     7531.0 secs

     total energy              =    -882.41068513 Ry
     estimated scf accuracy    <       0.00004236 Ry

     total magnetization       =    10.52 Bohr mag/cell
     absolute magnetization    =    19.62 Bohr mag/cell

     iteration # 29     ecut=    55.12 Ry     beta= 0.10
     Davidson diagonalization with overlap
     ethr =  3.72E-08,  avg # of iterations =  1.7

     Adding external electric field

     Computed dipole along edir(3) : 
        Dipole                0.0481 Ry au,          0.1223 Debye
        Dipole field          0.0001 Ry au, 

        Potential amp.       -0.0097 Ry
        Total length         45.8230 bohr


     Adding external electric field

     Computed dipole along edir(3) : 
        Dipole                0.0481 Ry au,          0.1223 Debye
        Dipole field          0.0001 Ry au, 

        Potential amp.       -0.0097 Ry
        Total length         45.8230 bohr


     total cpu time spent up to now is     7762.4 secs

     total energy              =    -882.27217606 Ry
     estimated scf accuracy    <       0.00002828 Ry

     total magnetization       =    10.51 Bohr mag/cell
     absolute magnetization    =    19.63 Bohr mag/cell

     iteration # 30     ecut=    55.12 Ry     beta= 0.10
     Davidson diagonalization with overlap
     ethr =  2.48E-08,  avg # of iterations =  6.4

     Adding external electric field

     Computed dipole along edir(3) : 
        Dipole                0.0487 Ry au,          0.1238 Debye
        Dipole field          0.0001 Ry au, 

        Potential amp.       -0.0098 Ry
        Total length         45.8230 bohr


     Adding external electric field

     Computed dipole along edir(3) : 
        Dipole                0.0487 Ry au,          0.1238 Debye
        Dipole field          0.0001 Ry au, 

        Potential amp.       -0.0098 Ry
        Total length         45.8230 bohr


     total cpu time spent up to now is     8118.3 secs

     total energy              =    -882.11635443 Ry
     estimated scf accuracy    <       0.00002663 Ry

     total magnetization       =    10.48 Bohr mag/cell
     absolute magnetization    =    19.66 Bohr mag/cell

     iteration # 31     ecut=    55.12 Ry     beta= 0.10
     Davidson diagonalization with overlap
     ethr =  2.34E-08,  avg # of iterations =  1.9

     Adding external electric field

     Computed dipole along edir(3) : 
        Dipole                0.0492 Ry au,          0.1250 Debye
        Dipole field          0.0001 Ry au, 

        Potential amp.       -0.0099 Ry
        Total length         45.8230 bohr


     Adding external electric field

     Computed dipole along edir(3) : 
        Dipole                0.0492 Ry au,          0.1250 Debye
        Dipole field          0.0001 Ry au, 

        Potential amp.       -0.0099 Ry
        Total length         45.8230 bohr


     total cpu time spent up to now is     8353.6 secs

     total energy              =    -881.98622669 Ry
     estimated scf accuracy    <       0.00001189 Ry

     total magnetization       =    10.48 Bohr mag/cell
     absolute magnetization    =    19.66 Bohr mag/cell

     iteration # 32     ecut=    55.12 Ry     beta= 0.10
     Davidson diagonalization with overlap
     ethr =  1.04E-08,  avg # of iterations =  6.4

     Adding external electric field

     Computed dipole along edir(3) : 
        Dipole                0.0369 Ry au,          0.0937 Debye
        Dipole field          0.0001 Ry au, 

        Potential amp.       -0.0074 Ry
        Total length         45.8230 bohr


     Adding external electric field

     Computed dipole along edir(3) : 
        Dipole                0.0369 Ry au,          0.0937 Debye
        Dipole field          0.0001 Ry au, 

        Potential amp.       -0.0074 Ry
        Total length         45.8230 bohr


     Magnetic moment per site:
     atom:    1    charge:    6.8488    magn:    2.6122    constr:    0.0000
     atom:    2    charge:    6.8487    magn:    2.6121    constr:    0.0000
     atom:    3    charge:    8.4696    magn:   -0.2955    constr:    0.0000
     atom:    4    charge:    8.4696    magn:   -0.2955    constr:    0.0000
     atom:    5    charge:    6.9200    magn:    2.3464    constr:    0.0000
     atom:    6    charge:    6.9200    magn:    2.3467    constr:    0.0000
     atom:    7    charge:    8.5431    magn:   -0.2602    constr:    0.0000
     atom:    8    charge:    8.5431    magn:   -0.2602    constr:    0.0000
     atom:    9    charge:    6.9138    magn:    2.4667    constr:    0.0000
     atom:   10    charge:    6.9140    magn:    2.4666    constr:    0.0000
     atom:   11    charge:    8.4665    magn:   -0.2801    constr:    0.0000
     atom:   12    charge:    8.4665    magn:   -0.2801    constr:    0.0000

     total cpu time spent up to now is     8664.6 secs

     End of self-consistent calculation

     Number of k-points >= 100: set verbosity='high' to print the bands.

     the Fermi energy is     0.6797 ev

!    total energy              =    -881.18834143 Ry
     estimated scf accuracy    <       0.00000750 Ry
     smearing contrib. (-TS)   =      -0.09989392 Ry
     internal energy E=F+TS    =    -881.08844750 Ry

     The total energy is F=E-TS. E is the sum of the following terms:
     one-electron contribution =   -5591.17610156 Ry
     hartree contribution      =    2835.45127911 Ry
     xc contribution           =    -305.94731493 Ry
     ewald contribution        =    2180.58368689 Ry
     electric field correction =       0.00000299 Ry

     total magnetization       =    10.47 Bohr mag/cell
     absolute magnetization    =    19.67 Bohr mag/cell

     convergence has been achieved in  32 iterations

     Forces acting on atoms (cartesian axes, Ry/au):

     atom    1 type  1   force =    -0.00087075   -0.00062566    0.01576766
     atom    2 type  1   force =    -0.00087493   -0.00062730    0.01577781
     atom    3 type  2   force =     0.00349813    0.00251120   -0.00232803
     atom    4 type  2   force =     0.00350112    0.00250289   -0.00232781
     atom    5 type  1   force =    -0.00109013   -0.00077148    0.00701976
     atom    6 type  1   force =    -0.00107777   -0.00078226    0.00703966
     atom    7 type  2   force =    -0.00164639   -0.00117004   -0.01903216
     atom    8 type  2   force =    -0.00163250   -0.00117670   -0.01903066
     atom    9 type  1   force =     0.00015612    0.00011132    0.00006014
     atom   10 type  1   force =     0.00012771    0.00009156    0.00007513
     atom   11 type  2   force =    -0.00004090   -0.00003861   -0.00151261
     atom   12 type  2   force =    -0.00004972   -0.00002491   -0.00150889

     Total force =     0.037247     Total SCF correction =     0.006603
     SCF correction compared to forces is large: reduce conv_thr to get better values

     Writing output data file ./Fe2Y2/Fe2Y2_beef.save/

     init_run     :    167.23s CPU    205.89s WALL (       1 calls)
     electrons    :   5947.56s CPU   8456.04s WALL (       1 calls)
     forces       :     56.09s CPU     72.91s WALL (       1 calls)

     Called by init_run:
     wfcinit      :    153.57s CPU    190.80s WALL (       1 calls)
     potinit      :      8.72s CPU      9.77s WALL (       1 calls)
     hinit0       :      2.46s CPU      2.65s WALL (       1 calls)

     Called by electrons:
     c_bands      :   5086.22s CPU   7214.62s WALL (      32 calls)
     sum_band     :    775.61s CPU   1108.80s WALL (      32 calls)
     v_of_rho     :     54.14s CPU     86.29s WALL (      33 calls)
     newd         :     37.33s CPU     49.75s WALL (      33 calls)
     mix_rho      :      1.99s CPU      3.98s WALL (      32 calls)
     vdW_kernel   :      5.74s CPU      5.92s WALL (       1 calls)

     Called by c_bands:
     init_us_2    :     23.63s CPU     24.78s WALL (    9768 calls)
     cegterg      :   4999.10s CPU   7090.90s WALL (    4736 calls)

     Called by *egterg:
     cdiaghg      :    263.06s CPU    343.01s WALL (   21610 calls)
     h_psi        :   3081.21s CPU   4328.28s WALL (   21758 calls)
     s_psi        :    751.65s CPU    760.53s WALL (   21758 calls)
     g_psi        :      3.30s CPU      3.61s WALL (   16874 calls)

     Called by h_psi:
     h_psi:calbec :    942.21s CPU   1206.78s WALL (   21758 calls)
     vloc_psi     :   1370.64s CPU   2342.37s WALL (   21758 calls)
     add_vuspsi   :    763.71s CPU    773.63s WALL (   21758 calls)

     General routines
     calbec       :   1396.81s CPU   1789.36s WALL (   27086 calls)
     fft          :     28.18s CPU     80.14s WALL (    3014 calls)
     ffts         :      0.24s CPU      0.65s WALL (     130 calls)
     fftw         :   1566.12s CPU   2706.51s WALL ( 1782730 calls)
     interpolate  :      0.76s CPU      1.50s WALL (      66 calls)

     Parallel routines
     fft_scatt_xy :    160.00s CPU    207.61s WALL ( 1785874 calls)
     fft_scatt_yz :    567.33s CPU   1502.42s WALL ( 1785874 calls)

     PWSCF        :      1h43m CPU      2h27m WALL


   This run was terminated on:   0:32:49  29Jun2022            

=------------------------------------------------------------------------------=
   JOB DONE.
=------------------------------------------------------------------------------=
