
     Program PWSCF v.6.6 starts on 24Jun2022 at 14: 3:58 

     This program is part of the open-source Quantum ESPRESSO suite
     for quantum simulation of materials; please cite
         "P. Giannozzi et al., J. Phys.:Condens. Matter 21 395502 (2009);
         "P. Giannozzi et al., J. Phys.:Condens. Matter 29 465901 (2017);
          URL http://www.quantum-espresso.org", 
     in publications or presentations arising from this work. More details at
     http://www.quantum-espresso.org/quote

     Parallel version (MPI), running on    37 processors

     MPI processes distributed on     1 nodes
     R & G space division:  proc/nbgrp/npool/nimage =      37
     Fft bands division:     nmany     =       1
     Reading input from Hf2Ir2.in
Warning: card &CELL ignored
Warning: card / ignored

     Current dimensions of program PWSCF are:
     Max number of different atomic species (ntypx) = 10
     Max number of k-points (npk) =  40000
     Max angular momentum in pseudopotentials (lmaxx) =  3
     Presently stress not available with electric field and gates

     Message from routine cell_base_init:
     DEPRECATED: use true lattice parameter, not A to a.u. conversion factor
     file Ir.pbe-n-rrkjus_psl.0.2.3.UPF: wavefunction(s)  5D renormalized

     **************************************************************************
     Initializing libbeef V0.1.2 with the BEEF-vdW functional.
     Citation: Wellendorff et al., PRB 85, 235149 (2012).
     **************************************************************************


     IMPORTANT: XC functional enforced from input :
     Exchange-correlation= BEEF-VDW
                           (   1   4  43  14   2   0   0)
     Any further DFT definition will be discarded
     Please, verify this is what you really want


     Subspace diagonalization in iterative solution of the eigenvalue problem:
     a serial algorithm will be used

     Found symmetry operation: I + (  0.5000 -0.5000  0.0000)
     This is a supercell, fractional translations are disabled

     Parallelization info
     --------------------
     sticks:   dense  smooth     PW     G-vecs:    dense   smooth      PW
     Min         125      50     14                29255     7402    1118
     Max         126      51     15                29284     7421    1139
     Sum        4653    1865    525              1082961   274173   41549



     bravais-lattice index     =            0
     lattice parameter (alat)  =       1.8897  a.u.
     unit-cell volume          =    4954.9773 (a.u.)^3
     number of atoms/cell      =           12
     number of atomic types    =            2
     number of electrons       =       126.00
     number of Kohn-Sham states=           76
     kinetic-energy cutoff     =      55.1240  Ry
     charge density cutoff     =     551.2396  Ry
     convergence threshold     =      1.0E-05
     mixing beta               =       0.1000
     number of iterations used =           10  plain     mixing
     Exchange-correlation= BEEF-VDW
                           (   1   4  43  14   2   0   0)

     celldm(1)=   1.889726  celldm(2)=   0.000000  celldm(3)=   0.000000
     celldm(4)=   0.000000  celldm(5)=   0.000000  celldm(6)=   0.000000

     crystal axes: (cart. coord. in units of alat)
               a(1) = (   5.702311   0.000000   0.000000 )  
               a(2) = (   2.321927   5.208167   0.000000 )  
               a(3) = (   0.000000   0.000000  24.723466 )  

     reciprocal axes: (cart. coord. in units 2 pi/alat)
               b(1) = (  0.175367 -0.078183  0.000000 )  
               b(2) = (  0.000000  0.192006  0.000000 )  
               b(3) = (  0.000000  0.000000  0.040447 )  


     PseudoPot. # 1 for Hf read from file:
     ../pseudo/Hf.pbe-spn-rrkjus_psl.1.0.0.UPF
     MD5 check sum: 9605440c6f839e558204c6a924125fd0
     Pseudo is Ultrasoft + core correction, Zval = 12.0
     Generated using "atomic" code by A. Dal Corso v.6.2.2
     Using radial grid of 1271 points,  6 beta functions with: 
                l(1) =   0
                l(2) =   0
                l(3) =   1
                l(4) =   1
                l(5) =   2
                l(6) =   2
     Q(r) pseudized with 0 coefficients 


     PseudoPot. # 2 for Ir read from file:
     ../pseudo/Ir.pbe-n-rrkjus_psl.0.2.3.UPF
     MD5 check sum: a93e608e8ddc29ee62145620b5f41564
     Pseudo is Ultrasoft + core correction, Zval =  9.0
     Generated using "atomic" code by A. Dal Corso v.5.0.2 svn rev. 9415
     Using radial grid of 1277 points,  6 beta functions with: 
                l(1) =   0
                l(2) =   0
                l(3) =   1
                l(4) =   1
                l(5) =   2
                l(6) =   2
     Q(r) pseudized with 0 coefficients 


     atomic species   valence    mass     pseudopotential
        Hf            12.00   178.49000     Hf( 1.00)
        Ir             9.00   192.21700     Ir( 1.00)

     No symmetry found



   Cartesian axes

     site n.     atom                  positions (alat units)
         1           Hf  tau(   1) = (   0.0000000   0.0000000  10.0000000  )
         2           Hf  tau(   2) = (   4.0121187   2.6040836  10.0000000  )
         3           Ir  tau(   3) = (   2.8511554   0.0000000  10.0000000  )
         4           Ir  tau(   4) = (   1.1609633   2.6040836  10.0000000  )
         5           Hf  tau(   5) = (   5.7023109   3.7011104  12.3617332  )
         6           Hf  tau(   6) = (   1.6901922   1.0970268  12.3617332  )
         7           Ir  tau(   7) = (   2.8511554   3.7011104  12.3617332  )
         8           Ir  tau(   8) = (   4.5413476   1.0970268  12.3617332  )
         9           Hf  tau(   9) = (   3.6975521   2.3999099  14.7289022  )
        10           Hf  tau(  10) = (   7.7096700   5.0040015  14.7289021  )
        11           Ir  tau(  11) = (   6.5561963   2.4047697  14.5305372  )
        12           Ir  tau(  12) = (   4.8660059   5.0088602  14.5305366  )

     number of k points=    74  Fermi-Dirac smearing, width (Ry)=  0.0100
                       cart. coord. in units 2pi/alat
        k(    1) = (   0.0000000   0.0000000   0.0000000), wk =   0.0138889
        k(    2) = (   0.0000000   0.0160005   0.0000000), wk =   0.0277778
        k(    3) = (   0.0000000   0.0320010   0.0000000), wk =   0.0277778
        k(    4) = (   0.0000000   0.0480015   0.0000000), wk =   0.0277778
        k(    5) = (   0.0000000   0.0640020   0.0000000), wk =   0.0277778
        k(    6) = (   0.0000000   0.0800026   0.0000000), wk =   0.0277778
        k(    7) = (   0.0000000  -0.0960031   0.0000000), wk =   0.0138889
        k(    8) = (   0.0146140  -0.0065153   0.0000000), wk =   0.0277778
        k(    9) = (   0.0146140   0.0094853   0.0000000), wk =   0.0277778
        k(   10) = (   0.0146140   0.0254858   0.0000000), wk =   0.0277778
        k(   11) = (   0.0146140   0.0414863   0.0000000), wk =   0.0277778
        k(   12) = (   0.0146140   0.0574868   0.0000000), wk =   0.0277778
        k(   13) = (   0.0146140   0.0734873   0.0000000), wk =   0.0277778
        k(   14) = (   0.0146140  -0.1025183   0.0000000), wk =   0.0277778
        k(   15) = (   0.0146140  -0.0865178   0.0000000), wk =   0.0277778
        k(   16) = (   0.0146140  -0.0705173   0.0000000), wk =   0.0277778
        k(   17) = (   0.0146140  -0.0545168   0.0000000), wk =   0.0277778
        k(   18) = (   0.0146140  -0.0385163   0.0000000), wk =   0.0277778
        k(   19) = (   0.0146140  -0.0225158   0.0000000), wk =   0.0277778
        k(   20) = (   0.0292279  -0.0130305   0.0000000), wk =   0.0277778
        k(   21) = (   0.0292279   0.0029700   0.0000000), wk =   0.0277778
        k(   22) = (   0.0292279   0.0189705   0.0000000), wk =   0.0277778
        k(   23) = (   0.0292279   0.0349710   0.0000000), wk =   0.0277778
        k(   24) = (   0.0292279   0.0509715   0.0000000), wk =   0.0277778
        k(   25) = (   0.0292279   0.0669720   0.0000000), wk =   0.0277778
        k(   26) = (   0.0292279  -0.1090336   0.0000000), wk =   0.0277778
        k(   27) = (   0.0292279  -0.0930331   0.0000000), wk =   0.0277778
        k(   28) = (   0.0292279  -0.0770326   0.0000000), wk =   0.0277778
        k(   29) = (   0.0292279  -0.0610320   0.0000000), wk =   0.0277778
        k(   30) = (   0.0292279  -0.0450315   0.0000000), wk =   0.0277778
        k(   31) = (   0.0292279  -0.0290310   0.0000000), wk =   0.0277778
        k(   32) = (   0.0438419  -0.0195458   0.0000000), wk =   0.0277778
        k(   33) = (   0.0438419  -0.0035453   0.0000000), wk =   0.0277778
        k(   34) = (   0.0438419   0.0124553   0.0000000), wk =   0.0277778
        k(   35) = (   0.0438419   0.0284558   0.0000000), wk =   0.0277778
        k(   36) = (   0.0438419   0.0444563   0.0000000), wk =   0.0277778
        k(   37) = (   0.0438419   0.0604568   0.0000000), wk =   0.0277778
        k(   38) = (   0.0438419  -0.1155488   0.0000000), wk =   0.0277778
        k(   39) = (   0.0438419  -0.0995483   0.0000000), wk =   0.0277778
        k(   40) = (   0.0438419  -0.0835478   0.0000000), wk =   0.0277778
        k(   41) = (   0.0438419  -0.0675473   0.0000000), wk =   0.0277778
        k(   42) = (   0.0438419  -0.0515468   0.0000000), wk =   0.0277778
        k(   43) = (   0.0438419  -0.0355463   0.0000000), wk =   0.0277778
        k(   44) = (   0.0584558  -0.0260610   0.0000000), wk =   0.0277778
        k(   45) = (   0.0584558  -0.0100605   0.0000000), wk =   0.0277778
        k(   46) = (   0.0584558   0.0059400   0.0000000), wk =   0.0277778
        k(   47) = (   0.0584558   0.0219405   0.0000000), wk =   0.0277778
        k(   48) = (   0.0584558   0.0379410   0.0000000), wk =   0.0277778
        k(   49) = (   0.0584558   0.0539415   0.0000000), wk =   0.0277778
        k(   50) = (   0.0584558  -0.1220641   0.0000000), wk =   0.0277778
        k(   51) = (   0.0584558  -0.1060636   0.0000000), wk =   0.0277778
        k(   52) = (   0.0584558  -0.0900631   0.0000000), wk =   0.0277778
        k(   53) = (   0.0584558  -0.0740626   0.0000000), wk =   0.0277778
        k(   54) = (   0.0584558  -0.0580620   0.0000000), wk =   0.0277778
        k(   55) = (   0.0584558  -0.0420615   0.0000000), wk =   0.0277778
        k(   56) = (   0.0730698  -0.0325763   0.0000000), wk =   0.0277778
        k(   57) = (   0.0730698  -0.0165758   0.0000000), wk =   0.0277778
        k(   58) = (   0.0730698  -0.0005753   0.0000000), wk =   0.0277778
        k(   59) = (   0.0730698   0.0154253   0.0000000), wk =   0.0277778
        k(   60) = (   0.0730698   0.0314258   0.0000000), wk =   0.0277778
        k(   61) = (   0.0730698   0.0474263   0.0000000), wk =   0.0277778
        k(   62) = (   0.0730698  -0.1285793   0.0000000), wk =   0.0277778
        k(   63) = (   0.0730698  -0.1125788   0.0000000), wk =   0.0277778
        k(   64) = (   0.0730698  -0.0965783   0.0000000), wk =   0.0277778
        k(   65) = (   0.0730698  -0.0805778   0.0000000), wk =   0.0277778
        k(   66) = (   0.0730698  -0.0645773   0.0000000), wk =   0.0277778
        k(   67) = (   0.0730698  -0.0485768   0.0000000), wk =   0.0277778
        k(   68) = (  -0.0876837   0.0390915   0.0000000), wk =   0.0138889
        k(   69) = (  -0.0876837   0.0550920   0.0000000), wk =   0.0277778
        k(   70) = (  -0.0876837   0.0710926   0.0000000), wk =   0.0277778
        k(   71) = (  -0.0876837   0.0870931   0.0000000), wk =   0.0277778
        k(   72) = (  -0.0876837   0.1030936   0.0000000), wk =   0.0277778
        k(   73) = (  -0.0876837   0.1190941   0.0000000), wk =   0.0277778
        k(   74) = (  -0.0876837  -0.0569115   0.0000000), wk =   0.0138889

     Dense  grid:  1082961 G-vectors     FFT dimensions: (  81,  81, 360)

     Smooth grid:   274173 G-vectors     FFT dimensions: (  54,  54, 225)

     Estimated max dynamical RAM per process >     196.87 MB

     Estimated total dynamical RAM >       7.11 GB

     Initial potential from superposition of free atoms

     starting charge  125.98748, renormalised to  126.00000

     negative rho (up, down):  4.902E-04 0.000E+00


     %%%%%%%%%%%%%%%%%%%%%%%%%%%%%%%%%%%%%%%%%%%%%%%%%%%%%%%%%%%%%%%%%%%%%%%%
     %                                                                      %
     % You are using vdW-DF, which was implemented by the Thonhauser group. %
     % Please cite the following two papers that made this development      %
     % possible and the two reviews that describe the various versions:     %
     %                                                                      %
     %   T. Thonhauser et al., PRL 115, 136402 (2015).                      %
     %   T. Thonhauser et al., PRB 76, 125112 (2007).                       %
     %   K. Berland et al., Rep. Prog. Phys. 78, 066501 (2015).             %
     %   D.C. Langreth et al., J. Phys.: Condens. Matter 21, 084203 (2009). %
     %                                                                      %
     %                                                                      %
     % If you are calculating the stress with vdW-DF, please also cite:     %
     %                                                                      %
     %   R. Sabatini et al., J. Phys.: Condens. Matter 24, 424209 (2012).   %
     %                                                                      %
     %%%%%%%%%%%%%%%%%%%%%%%%%%%%%%%%%%%%%%%%%%%%%%%%%%%%%%%%%%%%%%%%%%%%%%%%



     Adding external electric field

     Computed dipole along edir(3) : 
        Dipole                0.0006 Ry au,          0.0014 Debye
        Dipole field          0.0000 Ry au, 

        Potential amp.       -0.0001 Ry
        Total length         45.5526 bohr

     Starting wfcs are  114 randomized atomic wfcs

     total cpu time spent up to now is       81.8 secs

     Self-consistent Calculation

     iteration #  1     ecut=    55.12 Ry     beta= 0.10
     Davidson diagonalization with overlap
     ethr =  1.00E-02,  avg # of iterations =  2.0

     negative rho (up, down):  3.830E-04 0.000E+00

     Adding external electric field

     Computed dipole along edir(3) : 
        Dipole                0.1208 Ry au,          0.3070 Debye
        Dipole field          0.0003 Ry au, 

        Potential amp.       -0.0279 Ry
        Total length         45.5526 bohr


     total cpu time spent up to now is      208.0 secs

     total energy              =   -1136.02913402 Ry
     estimated scf accuracy    <       4.35071092 Ry

     iteration #  2     ecut=    55.12 Ry     beta= 0.10
     Davidson diagonalization with overlap
     ethr =  3.45E-03,  avg # of iterations =  1.0

     negative rho (up, down):  3.381E-04 0.000E+00

     Adding external electric field

     Computed dipole along edir(3) : 
        Dipole               -0.0715 Ry au,         -0.1818 Debye
        Dipole field         -0.0002 Ry au, 

        Potential amp.        0.0165 Ry
        Total length         45.5526 bohr


     total cpu time spent up to now is      314.1 secs

     total energy              =   -1136.12304392 Ry
     estimated scf accuracy    <       0.99642458 Ry

     iteration #  3     ecut=    55.12 Ry     beta= 0.10
     Davidson diagonalization with overlap
     ethr =  7.91E-04,  avg # of iterations =  5.0

     negative rho (up, down):  3.259E-04 0.000E+00

     Adding external electric field

     Computed dipole along edir(3) : 
        Dipole                0.2845 Ry au,          0.7232 Debye
        Dipole field          0.0007 Ry au, 

        Potential amp.       -0.0657 Ry
        Total length         45.5526 bohr


     total cpu time spent up to now is      455.9 secs

     total energy              =   -1136.24327263 Ry
     estimated scf accuracy    <       0.59786175 Ry

     iteration #  4     ecut=    55.12 Ry     beta= 0.10
     Davidson diagonalization with overlap
     ethr =  4.74E-04,  avg # of iterations =  2.6

     negative rho (up, down):  3.206E-04 0.000E+00

     Adding external electric field

     Computed dipole along edir(3) : 
        Dipole                0.0817 Ry au,          0.2076 Debye
        Dipole field          0.0002 Ry au, 

        Potential amp.       -0.0189 Ry
        Total length         45.5526 bohr


     total cpu time spent up to now is      588.3 secs

     total energy              =   -1136.26415696 Ry
     estimated scf accuracy    <       0.69284022 Ry

     iteration #  5     ecut=    55.12 Ry     beta= 0.10
     Davidson diagonalization with overlap
     ethr =  4.74E-04,  avg # of iterations =  1.1

     negative rho (up, down):  5.614E-04 0.000E+00

     Adding external electric field

     Computed dipole along edir(3) : 
        Dipole                0.0919 Ry au,          0.2337 Debye
        Dipole field          0.0002 Ry au, 

        Potential amp.       -0.0212 Ry
        Total length         45.5526 bohr


     total cpu time spent up to now is      761.5 secs

     total energy              =   -1136.26197242 Ry
     estimated scf accuracy    <       0.11743955 Ry

     iteration #  6     ecut=    55.12 Ry     beta= 0.10
     Davidson diagonalization with overlap
     ethr =  9.32E-05,  avg # of iterations =  7.4

     negative rho (up, down):  5.326E-04 0.000E+00

     Adding external electric field

     Computed dipole along edir(3) : 
        Dipole                0.1026 Ry au,          0.2609 Debye
        Dipole field          0.0003 Ry au, 

        Potential amp.       -0.0237 Ry
        Total length         45.5526 bohr


     total cpu time spent up to now is      919.4 secs

     total energy              =   -1136.28224721 Ry
     estimated scf accuracy    <       0.03102938 Ry

     iteration #  7     ecut=    55.12 Ry     beta= 0.10
     Davidson diagonalization with overlap
     c_bands:  1 eigenvalues not converged
     c_bands:  1 eigenvalues not converged
     c_bands:  3 eigenvalues not converged
     c_bands:  3 eigenvalues not converged
     c_bands:  1 eigenvalues not converged
     c_bands:  1 eigenvalues not converged
     ethr =  2.46E-05,  avg # of iterations = 10.1

     negative rho (up, down):  4.973E-04 0.000E+00

     Adding external electric field

     Computed dipole along edir(3) : 
        Dipole                0.0879 Ry au,          0.2235 Debye
        Dipole field          0.0002 Ry au, 

        Potential amp.       -0.0203 Ry
        Total length         45.5526 bohr


     total cpu time spent up to now is     1091.4 secs

     total energy              =   -1136.28221231 Ry
     estimated scf accuracy    <       0.02059385 Ry

     iteration #  8     ecut=    55.12 Ry     beta= 0.10
     Davidson diagonalization with overlap
     ethr =  1.63E-05,  avg # of iterations =  6.6

     negative rho (up, down):  6.789E-04 0.000E+00

     Adding external electric field

     Computed dipole along edir(3) : 
        Dipole                0.1150 Ry au,          0.2923 Debye
        Dipole field          0.0003 Ry au, 

        Potential amp.       -0.0266 Ry
        Total length         45.5526 bohr


     total cpu time spent up to now is     1256.5 secs

     total energy              =   -1136.28066072 Ry
     estimated scf accuracy    <       0.05162329 Ry

     iteration #  9     ecut=    55.12 Ry     beta= 0.10
     Davidson diagonalization with overlap
     c_bands:  2 eigenvalues not converged
     ethr =  1.63E-05,  avg # of iterations =  6.1

     negative rho (up, down):  6.513E-04 0.000E+00

     Adding external electric field

     Computed dipole along edir(3) : 
        Dipole                0.1068 Ry au,          0.2713 Debye
        Dipole field          0.0003 Ry au, 

        Potential amp.       -0.0247 Ry
        Total length         45.5526 bohr


     total cpu time spent up to now is     1414.5 secs

     total energy              =   -1136.29164171 Ry
     estimated scf accuracy    <       0.01335095 Ry

     iteration # 10     ecut=    55.12 Ry     beta= 0.10
     Davidson diagonalization with overlap
     ethr =  1.06E-05,  avg # of iterations =  1.4

     negative rho (up, down):  5.854E-04 0.000E+00

     Adding external electric field

     Computed dipole along edir(3) : 
        Dipole                0.0960 Ry au,          0.2439 Debye
        Dipole field          0.0002 Ry au, 

        Potential amp.       -0.0222 Ry
        Total length         45.5526 bohr


     total cpu time spent up to now is     1523.0 secs

     total energy              =   -1136.28951043 Ry
     estimated scf accuracy    <       0.00978209 Ry

     iteration # 11     ecut=    55.12 Ry     beta= 0.10
     Davidson diagonalization with overlap
     ethr =  7.76E-06,  avg # of iterations =  2.0

     negative rho (up, down):  5.531E-04 0.000E+00

     Adding external electric field

     Computed dipole along edir(3) : 
        Dipole                0.0953 Ry au,          0.2422 Debye
        Dipole field          0.0002 Ry au, 

        Potential amp.       -0.0220 Ry
        Total length         45.5526 bohr


     total cpu time spent up to now is     1641.0 secs

     total energy              =   -1136.29007580 Ry
     estimated scf accuracy    <       0.00132845 Ry

     iteration # 12     ecut=    55.12 Ry     beta= 0.10
     Davidson diagonalization with overlap
     c_bands:  1 eigenvalues not converged
     c_bands:  1 eigenvalues not converged
     c_bands:  1 eigenvalues not converged
     c_bands:  1 eigenvalues not converged
     c_bands:  1 eigenvalues not converged
     ethr =  1.05E-06,  avg # of iterations =  8.2

     negative rho (up, down):  5.187E-04 0.000E+00

     Adding external electric field

     Computed dipole along edir(3) : 
        Dipole                0.0964 Ry au,          0.2451 Debye
        Dipole field          0.0002 Ry au, 

        Potential amp.       -0.0223 Ry
        Total length         45.5526 bohr


     total cpu time spent up to now is     1801.2 secs

     total energy              =   -1136.29032254 Ry
     estimated scf accuracy    <       0.00026370 Ry

     iteration # 13     ecut=    55.12 Ry     beta= 0.10
     Davidson diagonalization with overlap
     c_bands:  1 eigenvalues not converged
     ethr =  2.09E-07,  avg # of iterations =  5.3

     negative rho (up, down):  4.847E-04 0.000E+00

     Adding external electric field

     Computed dipole along edir(3) : 
        Dipole                0.1001 Ry au,          0.2544 Debye
        Dipole field          0.0003 Ry au, 

        Potential amp.       -0.0231 Ry
        Total length         45.5526 bohr


     total cpu time spent up to now is     1931.4 secs

     total energy              =   -1136.29029174 Ry
     estimated scf accuracy    <       0.00033344 Ry

     iteration # 14     ecut=    55.12 Ry     beta= 0.10
     Davidson diagonalization with overlap
     c_bands:  1 eigenvalues not converged
     ethr =  2.09E-07,  avg # of iterations =  3.6

     negative rho (up, down):  4.587E-04 0.000E+00

     Adding external electric field

     Computed dipole along edir(3) : 
        Dipole                0.0982 Ry au,          0.2496 Debye
        Dipole field          0.0002 Ry au, 

        Potential amp.       -0.0227 Ry
        Total length         45.5526 bohr


     total cpu time spent up to now is     2073.6 secs

     total energy              =   -1136.29029638 Ry
     estimated scf accuracy    <       0.00023838 Ry

     iteration # 15     ecut=    55.12 Ry     beta= 0.10
     Davidson diagonalization with overlap
     c_bands:  1 eigenvalues not converged
     ethr =  1.89E-07,  avg # of iterations =  2.3

     negative rho (up, down):  4.349E-04 0.000E+00

     Adding external electric field

     Computed dipole along edir(3) : 
        Dipole                0.0981 Ry au,          0.2493 Debye
        Dipole field          0.0002 Ry au, 

        Potential amp.       -0.0227 Ry
        Total length         45.5526 bohr


     total cpu time spent up to now is     2198.0 secs

     total energy              =   -1136.29032510 Ry
     estimated scf accuracy    <       0.00002150 Ry

     iteration # 16     ecut=    55.12 Ry     beta= 0.10
     Davidson diagonalization with overlap
     c_bands:  1 eigenvalues not converged
     ethr =  1.71E-08,  avg # of iterations =  7.1

     negative rho (up, down):  4.147E-04 0.000E+00

     Adding external electric field

     Computed dipole along edir(3) : 
        Dipole                0.0987 Ry au,          0.2510 Debye
        Dipole field          0.0003 Ry au, 

        Potential amp.       -0.0228 Ry
        Total length         45.5526 bohr


     total cpu time spent up to now is     2365.0 secs

     total energy              =   -1136.29032918 Ry
     estimated scf accuracy    <       0.00001207 Ry

     iteration # 17     ecut=    55.12 Ry     beta= 0.10
     Davidson diagonalization with overlap
     ethr =  9.58E-09,  avg # of iterations =  3.1

     negative rho (up, down):  3.153E-04 0.000E+00

     Adding external electric field

     Computed dipole along edir(3) : 
        Dipole                0.0949 Ry au,          0.2413 Debye
        Dipole field          0.0002 Ry au, 

        Potential amp.       -0.0219 Ry
        Total length         45.5526 bohr


     total cpu time spent up to now is     2526.2 secs

     End of self-consistent calculation

          k = 0.0000 0.0000 0.0000 ( 34215 PWs)   bands (ev):

   -61.3540 -61.3292 -61.2685 -61.2436 -60.8566 -60.8309 -29.9682 -29.9604
   -29.9117 -29.8982 -29.8920 -29.8471 -29.7477 -29.6998 -29.6659 -29.6615
   -29.6178 -29.4875 -29.4103 -29.3861 -29.3375 -29.3314 -29.2691 -29.1561
    -6.4821  -4.6353  -4.0279  -3.6965  -3.5752  -3.5699  -3.4283  -3.4046
    -3.2024  -3.1235  -2.6379  -2.5898  -2.4520  -2.1164  -2.0574  -1.6415
    -1.4992  -1.4889  -1.2860  -1.1558  -1.1267  -1.0135  -0.6274  -0.5023
    -0.4939  -0.4282  -0.2572   0.0719   0.1121   0.3434   0.5051   0.6730
     0.8092   0.8477   1.9336   2.0139   2.0834   2.1218   2.2162   2.3771
     2.4615   2.6361   2.6625   2.7843   2.9240   3.0211   3.1983   3.2185
     3.2868   3.6275   3.7180   4.3262

          k = 0.0000 0.0160 0.0000 ( 34240 PWs)   bands (ev):

   -61.3536 -61.3297 -61.2681 -61.2441 -60.8562 -60.8313 -29.9605 -29.9597
   -29.9126 -29.8974 -29.8843 -29.8481 -29.7473 -29.7010 -29.6656 -29.6534
   -29.6191 -29.4962 -29.4190 -29.3857 -29.3388 -29.3303 -29.2701 -29.1653
    -6.4248  -4.5791  -3.9716  -3.6878  -3.5496  -3.5275  -3.4033  -3.3738
    -3.1743  -3.0896  -2.6178  -2.5473  -2.4078  -2.0921  -2.0332  -1.6234
    -1.4903  -1.4796  -1.2906  -1.1459  -1.1150  -1.0469  -0.6294  -0.5620
    -0.4847  -0.4579  -0.2517   0.0620   0.1093   0.3282   0.4721   0.5528
     0.6475   0.8473   1.6012   1.8972   2.0975   2.1084   2.2317   2.2378
     2.4619   2.5510   2.6664   2.9087   2.9616   3.0575   3.2127   3.2331
     3.3590   3.6105   3.6855   4.1453

          k = 0.0000 0.0320 0.0000 ( 34245 PWs)   bands (ev):

   -61.3524 -61.3309 -61.2668 -61.2453 -60.8549 -60.8326 -29.9575 -29.9379
   -29.9152 -29.8951 -29.8617 -29.8507 -29.7460 -29.7045 -29.6646 -29.6298
   -29.6226 -29.5216 -29.4446 -29.3845 -29.3423 -29.3269 -29.2731 -29.1921
    -6.2561  -4.4154  -3.8065  -3.7115  -3.4406  -3.4034  -3.3481  -3.2712
    -3.0969  -2.9879  -2.5923  -2.3933  -2.2777  -2.0229  -1.9603  -1.5716
    -1.4992  -1.4267  -1.3103  -1.1571  -1.1392  -1.0406  -0.6983  -0.6262
    -0.5365  -0.4990  -0.2483   0.0246   0.0653   0.1011   0.2860   0.3819
     0.5951   0.7873   0.9836   1.4960   1.7548   2.0183   2.2443   2.2980
     2.4676   2.4962   2.6767   2.8304   2.8909   2.9509   3.2576   3.3893
     3.5818   3.5924   3.6333   3.9363

          k = 0.0000 0.0480 0.0000 ( 34273 PWs)   bands (ev):

   -61.3504 -61.3328 -61.2648 -61.2472 -60.8528 -60.8346 -29.9539 -29.9196
   -29.9014 -29.8914 -29.8553 -29.8252 -29.7437 -29.7099 -29.6626 -29.6284
   -29.5914 -29.5617 -29.4849 -29.3822 -29.3478 -29.3217 -29.2779 -29.2343
    -5.9853  -4.1612  -3.8155  -3.5443  -3.2891  -3.2374  -3.2093  -3.1141
    -2.9846  -2.8256  -2.5578  -2.1643  -2.0694  -1.9195  -1.8426  -1.5281
    -1.4988  -1.3623  -1.3602  -1.2629  -1.1733  -0.9249  -0.8452  -0.6835
    -0.6318  -0.5345  -0.4282  -0.2598  -0.0665   0.0976   0.2146   0.2768
     0.3653   0.5481   0.6774   0.8573   1.4784   1.8530   1.9048   2.3267
     2.3824   2.4845   2.7039   2.7334   2.8223   2.9299   3.3310   3.3598
     3.4813   3.6268   3.7353   3.9332

          k = 0.0000 0.0640 0.0000 ( 34246 PWs)   bands (ev):

   -61.3478 -61.3354 -61.2622 -61.2498 -60.8501 -60.8372 -29.9491 -29.9248
   -29.8864 -29.8612 -29.8533 -29.7774 -29.7403 -29.7163 -29.6595 -29.6351
   -29.6133 -29.5412 -29.5366 -29.3789 -29.3544 -29.3151 -29.2886 -29.2841
    -5.6291  -4.0294  -3.8502  -3.2237  -3.2070  -3.0112  -2.9709  -2.9303
    -2.8557  -2.6282  -2.5128  -1.9533  -1.8162  -1.8045  -1.6947  -1.5836
    -1.4695  -1.4564  -1.3583  -1.3082  -1.1455  -1.0030  -0.9396  -0.7790
    -0.7364  -0.5960  -0.5845  -0.3229  -0.1973  -0.1854   0.0654   0.1232
     0.2003   0.2091   0.5406   0.5926   1.1196   1.4956   1.7718   1.8884
     2.3384   2.5673   2.5890   2.8178   2.8422   3.0360   3.3060   3.3794
     3.4937   3.5024   3.7311   3.9607

          k = 0.0000 0.0800 0.0000 ( 34269 PWs)   bands (ev):

   -61.3447 -61.3383 -61.2592 -61.2527 -60.8470 -60.8403 -29.9434 -29.9309
   -29.8805 -29.8673 -29.7972 -29.7358 -29.7230 -29.7209 -29.6725 -29.6551
   -29.6422 -29.5960 -29.4820 -29.3749 -29.3613 -29.3504 -29.3074 -29.2914
    -5.2127  -4.3604  -3.5416  -3.2152  -2.8471  -2.8180  -2.7664  -2.7460
    -2.7062  -2.4776  -2.4446  -1.9454  -1.7845  -1.6773  -1.6212  -1.6096
    -1.4895  -1.4662  -1.3582  -1.2593  -1.1526  -1.0649  -1.0105  -0.8933
    -0.7166  -0.6697  -0.5526  -0.4681  -0.4500  -0.3053  -0.2929  -0.0426
     0.1094   0.1379   0.4277   0.5364   0.8885   1.3218   1.4628   1.5896
     2.2732   2.4358   2.6810   2.8311   2.9969   3.1628   3.2085   3.3664
     3.4704   3.5491   3.7191   3.7635

          k = 0.0000-0.0960 0.0000 ( 34300 PWs)   bands (ev):

   -61.3416 -61.3415 -61.2560 -61.2560 -60.8437 -60.8436 -29.9373 -29.9371
   -29.8740 -29.8740 -29.7378 -29.7376 -29.7275 -29.7274 -29.6605 -29.6605
   -29.6476 -29.6476 -29.4175 -29.4175 -29.3678 -29.3678 -29.2994 -29.2993
    -4.7732  -4.7732  -3.3138  -3.3138  -2.7306  -2.7306  -2.6630  -2.6630
    -2.5046  -2.5046  -2.2458  -2.2458  -1.7375  -1.7374  -1.6325  -1.6325
    -1.4287  -1.4287  -1.2580  -1.2580  -1.1044  -1.1044  -0.9886  -0.9886
    -0.7546  -0.7546  -0.5487  -0.5486  -0.4538  -0.4538  -0.1984  -0.1984
     0.0808   0.0808   0.4060   0.4060   1.0611   1.0611   1.4142   1.4142
     2.3151   2.3151   2.7761   2.7762   3.1167   3.1168   3.2628   3.2630
     3.5915   3.5916   3.6855   3.6859

          k = 0.0146-0.0065 0.0000 ( 34240 PWs)   bands (ev):

   -61.3536 -61.3297 -61.2681 -61.2441 -60.8562 -60.8313 -29.9605 -29.9597
   -29.9126 -29.8974 -29.8843 -29.8481 -29.7473 -29.7010 -29.6656 -29.6534
   -29.6191 -29.4962 -29.4190 -29.3857 -29.3388 -29.3303 -29.2701 -29.1653
    -6.4248  -4.5791  -3.9716  -3.6878  -3.5496  -3.5275  -3.4033  -3.3738
    -3.1743  -3.0896  -2.6178  -2.5473  -2.4078  -2.0921  -2.0332  -1.6234
    -1.4903  -1.4796  -1.2906  -1.1459  -1.1150  -1.0469  -0.6294  -0.5620
    -0.4847  -0.4579  -0.2517   0.0620   0.1093   0.3282   0.4721   0.5528
     0.6475   0.8473   1.6012   1.8972   2.0975   2.1084   2.2317   2.2378
     2.4619   2.5510   2.6664   2.9087   2.9615   3.0575   3.2127   3.2331
     3.3590   3.6105   3.6855   4.1451

          k = 0.0146 0.0095 0.0000 ( 34243 PWs)   bands (ev):

   -61.3540 -61.3292 -61.2685 -61.2436 -60.8566 -60.8309 -29.9688 -29.9609
   -29.9116 -29.8986 -29.8927 -29.8472 -29.7488 -29.7001 -29.6674 -29.6620
   -29.6184 -29.4876 -29.4104 -29.3874 -29.3379 -29.3305 -29.2697 -29.1563
    -6.4134  -4.5685  -3.9751  -3.6602  -3.5502  -3.5308  -3.3864  -3.3515
    -3.1745  -3.1001  -2.5963  -2.5452  -2.4260  -2.0974  -2.0172  -1.6306
    -1.4983  -1.4766  -1.2415  -1.1305  -1.1213  -1.0032  -0.6328  -0.4962
    -0.4609  -0.4405  -0.2301   0.0453   0.1076   0.3327   0.4667   0.6773
     0.7317   0.8252   1.7243   1.9280   2.0662   2.0667   2.2132   2.3302
     2.3651   2.5172   2.5832   2.7008   2.8136   2.9495   3.1275   3.1908
     3.2277   3.5038   3.6797   4.3134

          k = 0.0146 0.0255 0.0000 ( 34250 PWs)   bands (ev):

   -61.3536 -61.3296 -61.2680 -61.2440 -60.8562 -60.8313 -29.9616 -29.9605
   -29.9124 -29.8981 -29.8855 -29.8482 -29.7494 -29.7015 -29.6684 -29.6544
   -29.6202 -29.4965 -29.4193 -29.3881 -29.3395 -29.3285 -29.2713 -29.1657
    -6.2895  -4.4486  -3.8718  -3.6521  -3.4884  -3.4344  -3.3305  -3.2631
    -3.1191  -3.0448  -2.5740  -2.4265  -2.3575  -2.0550  -1.9525  -1.6015
    -1.5094  -1.4373  -1.2103  -1.1445  -1.0591  -1.0274  -0.6553  -0.5508
    -0.4780  -0.4146  -0.2001   0.0049   0.1034   0.3108   0.4160   0.4366
     0.6482   0.7973   1.4775   1.5132   1.9631   1.9964   2.1687   2.2144
     2.2975   2.3245   2.5367   2.6204   2.8610   2.9299   3.0750   3.1061
     3.3078   3.4675   3.6103   4.1753

          k = 0.0146 0.0415 0.0000 ( 34225 PWs)   bands (ev):

   -61.3523 -61.3309 -61.2668 -61.2453 -60.8548 -60.8326 -29.9586 -29.9394
   -29.9148 -29.8959 -29.8634 -29.8508 -29.7489 -29.7051 -29.6681 -29.6311
   -29.6239 -29.5219 -29.4449 -29.3876 -29.3432 -29.3246 -29.2748 -29.1925
    -6.0602  -4.2323  -3.7204  -3.6740  -3.3470  -3.2793  -3.2175  -3.1178
    -3.0154  -2.9291  -2.5496  -2.2208  -2.2073  -1.9716  -1.8406  -1.5418
    -1.5302  -1.3747  -1.2245  -1.1692  -1.1138  -0.9463  -0.7477  -0.6278
    -0.5481  -0.3998  -0.1809  -0.0719  -0.0480   0.1013   0.2731   0.3477
     0.5819   0.7141   0.8541   1.2467   1.3226   1.8197   1.9347   2.2361
     2.2456   2.3646   2.5199   2.5232   2.7325   2.8927   3.0709   3.1017
     3.4661   3.4949   3.6300   3.9971

          k = 0.0146 0.0575 0.0000 ( 34249 PWs)   bands (ev):

   -61.3503 -61.3328 -61.2647 -61.2472 -60.8528 -60.8346 -29.9552 -29.9191
   -29.9030 -29.8922 -29.8553 -29.8270 -29.7469 -29.7101 -29.6663 -29.6294
   -29.5930 -29.5618 -29.4850 -29.3857 -29.3484 -29.3190 -29.2800 -29.2346
    -5.7387  -3.9457  -3.8859  -3.4030  -3.1922  -3.1419  -2.9868  -2.9439
    -2.8880  -2.7584  -2.5035  -2.0159  -1.9887  -1.8672  -1.6938  -1.5671
    -1.4748  -1.3176  -1.3056  -1.2350  -1.1579  -0.8955  -0.8266  -0.7154
    -0.6214  -0.4726  -0.4324  -0.2360  -0.1689   0.0875   0.1816   0.2541
     0.2712   0.5419   0.5853   0.6714   0.9477   1.6253   1.6301   1.8532
     2.2851   2.4512   2.5318   2.5526   2.6385   2.9086   3.1117   3.1441
     3.3963   3.4966   3.7163   3.8677

          k = 0.0146 0.0735 0.0000 ( 34267 PWs)   bands (ev):

   -61.3477 -61.3354 -61.2621 -61.2498 -60.8501 -60.8372 -29.9505 -29.9241
   -29.8871 -29.8611 -29.8548 -29.7791 -29.7434 -29.7161 -29.6628 -29.6354
   -29.6131 -29.5427 -29.5364 -29.3821 -29.3544 -29.3122 -29.2886 -29.2865
    -5.3460  -4.1691  -3.6357  -3.1470  -3.1001  -2.9042  -2.7939  -2.7672
    -2.7394  -2.5577  -2.4391  -1.8959  -1.8113  -1.7494  -1.5940  -1.5711
    -1.4876  -1.4196  -1.3507  -1.2669  -1.0684  -1.0558  -0.9256  -0.8248
    -0.6494  -0.5175  -0.4622  -0.3822  -0.3374  -0.2704  -0.0129   0.0066
     0.1687   0.1934   0.4316   0.5274   0.8539   1.3590   1.4021   1.5142
     2.3170   2.3656   2.5615   2.6959   2.7193   2.9906   3.1336   3.2763
     3.3710   3.4072   3.6240   3.7262

          k = 0.0146-0.1025 0.0000 ( 34288 PWs)   bands (ev):

   -61.3447 -61.3383 -61.2591 -61.2528 -60.8470 -60.8403 -29.9447 -29.9300
   -29.8810 -29.8669 -29.7985 -29.7384 -29.7224 -29.7221 -29.6720 -29.6574
   -29.6415 -29.5954 -29.4831 -29.3772 -29.3606 -29.3502 -29.3045 -29.2941
    -4.9122  -4.5530  -3.3732  -3.1909  -2.8974  -2.7094  -2.6888  -2.6251
    -2.6058  -2.3719  -2.3712  -1.9892  -1.8196  -1.6865  -1.6696  -1.5716
    -1.4531  -1.4223  -1.2968  -1.2284  -1.2026  -1.0343  -0.9491  -0.9431
    -0.7168  -0.6891  -0.5479  -0.5024  -0.4431  -0.4144  -0.2625  -0.1306
     0.0290   0.1318   0.2684   0.5175   1.0422   1.0671   1.2225   1.4933
     2.2591   2.3836   2.7018   2.7131   2.9462   3.0399   3.1359   3.3368
     3.4197   3.5680   3.6841   3.7097

          k = 0.0146-0.0865 0.0000 ( 34267 PWs)   bands (ev):

   -61.3416 -61.3414 -61.2560 -61.2559 -60.8437 -60.8436 -29.9384 -29.9362
   -29.8743 -29.8734 -29.7378 -29.7371 -29.7291 -29.7269 -29.6609 -29.6595
   -29.6489 -29.6464 -29.4181 -29.4167 -29.3694 -29.3663 -29.3020 -29.2967
    -4.9880  -4.4805  -3.3696  -3.2240  -2.9193  -2.7437  -2.6950  -2.6807
    -2.4397  -2.3868  -2.3184  -2.1447  -1.7803  -1.7231  -1.7194  -1.5220
    -1.4487  -1.3755  -1.2889  -1.2303  -1.1685  -1.0911  -1.0206  -0.9565
    -0.8673  -0.8014  -0.6671  -0.5420  -0.5345  -0.3381  -0.3062  -0.1067
     0.0054   0.1354   0.2912   0.5675   0.9515   1.1094   1.4626   1.6062
     2.2644   2.5156   2.6636   2.8492   3.0674   3.1133   3.1961   3.4069
     3.5849   3.6029   3.6238   3.7997

          k = 0.0146-0.0705 0.0000 ( 34262 PWs)   bands (ev):

   -61.3448 -61.3383 -61.2592 -61.2527 -60.8470 -60.8403 -29.9424 -29.9318
   -29.8798 -29.8674 -29.7960 -29.7338 -29.7242 -29.7196 -29.6731 -29.6525
   -29.6425 -29.5966 -29.4809 -29.3724 -29.3621 -29.3510 -29.3099 -29.2891
    -5.4194  -4.1059  -3.6617  -3.1939  -3.0844  -2.9698  -2.8885  -2.7904
    -2.7076  -2.4638  -2.4272  -1.9511  -1.7793  -1.6979  -1.6526  -1.6205
    -1.5276  -1.4206  -1.3482  -1.3018  -1.1720  -1.1105  -1.0755  -0.8543
    -0.8165  -0.7403  -0.6399  -0.4801  -0.4407  -0.2583  -0.2415   0.0301
     0.0536   0.1570   0.5180   0.5224   1.1945   1.2437   1.7135   1.9007
     2.4002   2.5955   2.6820   2.9118   3.0336   3.1914   3.2512   3.3805
     3.4547   3.6995   3.7897   3.8942

          k = 0.0146-0.0545 0.0000 ( 34253 PWs)   bands (ev):

   -61.3478 -61.3354 -61.2623 -61.2498 -60.8501 -60.8373 -29.9482 -29.9255
   -29.8857 -29.8612 -29.8520 -29.7761 -29.7383 -29.7167 -29.6567 -29.6348
   -29.6135 -29.5402 -29.5368 -29.3765 -29.3544 -29.3173 -29.2887 -29.2823
    -5.8042  -3.9873  -3.8400  -3.3271  -3.2909  -3.2347  -3.0705  -3.0008
    -2.9147  -2.6635  -2.4656  -2.1096  -1.8620  -1.8468  -1.7739  -1.5853
    -1.5039  -1.4365  -1.3334  -1.3244  -1.1619  -0.9849  -0.9672  -0.8027
    -0.7471  -0.6697  -0.6543  -0.3622  -0.1437  -0.1206   0.0991   0.1279
     0.1942   0.2728   0.5349   0.7100   1.5204   1.6256   1.8190   2.3549
     2.4408   2.5849   2.8297   2.9183   2.9400   3.0729   3.3177   3.4168
     3.4703   3.6750   3.7611   4.0278

          k = 0.0146-0.0385 0.0000 ( 34264 PWs)   bands (ev):

   -61.3504 -61.3328 -61.2649 -61.2472 -60.8528 -60.8346 -29.9532 -29.9200
   -29.9004 -29.8908 -29.8552 -29.8241 -29.7420 -29.7099 -29.6602 -29.6278
   -29.5905 -29.5617 -29.4848 -29.3802 -29.3475 -29.3234 -29.2766 -29.2342
    -6.1118  -4.2737  -3.7006  -3.6373  -3.4629  -3.2987  -3.2414  -3.2364
    -3.0365  -2.8579  -2.5075  -2.3480  -2.1164  -1.9539  -1.9084  -1.5204
    -1.5134  -1.3902  -1.3809  -1.2690  -1.1391  -1.0314  -0.8188  -0.6591
    -0.6373  -0.5933  -0.3928  -0.3200  -0.0196   0.0940   0.2162   0.2903
     0.4288   0.5759   0.7331   0.9553   1.8713   1.9896   2.0001   2.3382
     2.5989   2.6284   2.8172   2.8699   2.9155   3.1022   3.3870   3.4718
     3.5465   3.5661   3.7961   3.9230

          k = 0.0146-0.0225 0.0000 ( 34266 PWs)   bands (ev):

   -61.3524 -61.3309 -61.2668 -61.2453 -60.8549 -60.8326 -29.9571 -29.9373
   -29.9154 -29.8948 -29.8611 -29.8506 -29.7450 -29.7044 -29.6632 -29.6293
   -29.6221 -29.5215 -29.4445 -29.3833 -29.3421 -29.3278 -29.2725 -29.1919
    -6.3226  -4.4782  -3.8575  -3.6757  -3.5432  -3.4220  -3.3564  -3.3484
    -3.1258  -3.0069  -2.5598  -2.5060  -2.3029  -2.0402  -1.9986  -1.5821
    -1.4909  -1.4439  -1.3397  -1.1468  -1.1242  -1.1074  -0.6794  -0.6262
    -0.5377  -0.5304  -0.2799   0.0528   0.1001   0.1045   0.2914   0.3983
     0.6100   0.8149   1.0273   1.5486   1.9934   2.0528   2.2763   2.3614
     2.5597   2.5635   2.7745   2.8191   2.9227   3.2231   3.3395   3.4622
     3.5703   3.6308   3.6488   3.8671

          k = 0.0292-0.0130 0.0000 ( 34245 PWs)   bands (ev):

   -61.3524 -61.3309 -61.2668 -61.2453 -60.8549 -60.8326 -29.9575 -29.9379
   -29.9152 -29.8951 -29.8617 -29.8507 -29.7460 -29.7045 -29.6646 -29.6298
   -29.6226 -29.5216 -29.4446 -29.3845 -29.3423 -29.3269 -29.2731 -29.1921
    -6.2561  -4.4154  -3.8065  -3.7115  -3.4406  -3.4034  -3.3481  -3.2712
    -3.0969  -2.9879  -2.5923  -2.3933  -2.2777  -2.0229  -1.9603  -1.5716
    -1.4992  -1.4267  -1.3103  -1.1571  -1.1392  -1.0406  -0.6983  -0.6262
    -0.5365  -0.4990  -0.2483   0.0246   0.0653   0.1011   0.2860   0.3819
     0.5951   0.7873   0.9836   1.4960   1.7548   2.0183   2.2443   2.2980
     2.4676   2.4962   2.6767   2.8304   2.8909   2.9509   3.2576   3.3893
     3.5818   3.5924   3.6334   3.9363

          k = 0.0292 0.0030 0.0000 ( 34250 PWs)   bands (ev):

   -61.3536 -61.3296 -61.2680 -61.2440 -60.8562 -60.8313 -29.9616 -29.9605
   -29.9124 -29.8981 -29.8855 -29.8482 -29.7494 -29.7015 -29.6684 -29.6544
   -29.6202 -29.4965 -29.4193 -29.3881 -29.3395 -29.3285 -29.2713 -29.1657
    -6.2895  -4.4486  -3.8718  -3.6521  -3.4884  -3.4344  -3.3305  -3.2631
    -3.1191  -3.0448  -2.5740  -2.4265  -2.3575  -2.0550  -1.9525  -1.6015
    -1.5094  -1.4373  -1.2103  -1.1445  -1.0591  -1.0274  -0.6553  -0.5508
    -0.4780  -0.4146  -0.2001   0.0049   0.1035   0.3108   0.4160   0.4366
     0.6482   0.7973   1.4775   1.5132   1.9631   1.9964   2.1687   2.2144
     2.2975   2.3245   2.5367   2.6204   2.8610   2.9299   3.0750   3.1061
     3.3078   3.4675   3.6103   4.1751

          k = 0.0292 0.0190 0.0000 ( 34255 PWs)   bands (ev):

   -61.3539 -61.3292 -61.2684 -61.2436 -60.8566 -60.8308 -29.9705 -29.9620
   -29.9112 -29.8994 -29.8945 -29.8473 -29.7520 -29.7009 -29.6713 -29.6635
   -29.6200 -29.4881 -29.4109 -29.3909 -29.3391 -29.3280 -29.2714 -29.1569
    -6.2114  -4.3735  -3.8402  -3.5576  -3.4875  -3.4014  -3.2672  -3.1970
    -3.1003  -3.0246  -2.4809  -2.4202  -2.3531  -2.0397  -1.8948  -1.5963
    -1.5248  -1.4110  -1.1214  -1.1142  -1.0599  -0.9705  -0.6589  -0.5128
    -0.4714  -0.3500  -0.1602  -0.0421   0.1046   0.3071   0.3888   0.5170
     0.6910   0.7673   1.2454   1.6813   1.7917   1.9803   2.0955   2.0988
     2.2768   2.2922   2.3327   2.4452   2.5249   2.8791   2.9794   3.0818
     3.1678   3.2084   3.5713   4.1527

          k = 0.0292 0.0350 0.0000 ( 34207 PWs)   bands (ev):

   -61.3535 -61.3296 -61.2679 -61.2440 -60.8561 -60.8313 -29.9637 -29.9619
   -29.9119 -29.8989 -29.8877 -29.8482 -29.7534 -29.7026 -29.6728 -29.6562
   -29.6219 -29.4969 -29.4198 -29.3923 -29.3408 -29.3256 -29.2734 -29.1663
    -6.0268  -4.1995  -3.7298  -3.5622  -3.3945  -3.2480  -3.1766  -3.0674
    -3.0256  -2.9462  -2.4519  -2.2670  -2.2593  -1.9793  -1.7899  -1.5544
    -1.5460  -1.3573  -1.1535  -1.0672  -0.9833  -0.9758  -0.7066  -0.5714
    -0.5060  -0.2885  -0.1524  -0.0874   0.1077   0.2174   0.2894   0.3546
     0.6542   0.7196   0.9803   1.2382   1.5906   1.7007   1.8314   2.0308
     2.0677   2.2308   2.2741   2.3972   2.6056   2.8215   2.9059   2.9146
     3.1735   3.3273   3.4792   4.0282

          k = 0.0292 0.0510 0.0000 ( 34217 PWs)   bands (ev):

   -61.3522 -61.3308 -61.2667 -61.2452 -60.8548 -60.8325 -29.9602 -29.9416
   -29.9143 -29.8967 -29.8657 -29.8506 -29.7533 -29.7062 -29.6726 -29.6329
   -29.6255 -29.5222 -29.4452 -29.3919 -29.3444 -29.3214 -29.2771 -29.1931
    -5.7462  -3.9470  -3.6793  -3.5677  -3.2104  -3.1111  -2.9817  -2.9047
    -2.8992  -2.8228  -2.4131  -2.1094  -2.0718  -1.8883  -1.6583  -1.5800
    -1.4765  -1.3049  -1.1713  -1.1198  -1.0605  -0.8544  -0.8154  -0.6595
    -0.5496  -0.2904  -0.2483  -0.2177  -0.0879   0.0995   0.2643   0.3290
     0.5135   0.5624   0.6959   0.7890   1.0170   1.3690   1.5649   1.7677
     2.0604   2.3301   2.3696   2.3752   2.5187   2.8123   2.8261   2.9112
     3.2930   3.3759   3.5258   3.8124

          k = 0.0292 0.0670 0.0000 ( 34248 PWs)   bands (ev):

   -61.3502 -61.3328 -61.2647 -61.2472 -60.8527 -60.8345 -29.9568 -29.9186
   -29.9049 -29.8928 -29.8550 -29.8291 -29.7512 -29.7110 -29.6702 -29.6302
   -29.5947 -29.5620 -29.4851 -29.3896 -29.3491 -29.3159 -29.2825 -29.2350
    -5.3860  -3.9125  -3.6531  -3.3865  -3.0318  -2.9552  -2.7637  -2.7456
    -2.7385  -2.6481  -2.3412  -1.9496  -1.9077  -1.8178  -1.6157  -1.5591
    -1.3933  -1.2804  -1.2542  -1.1790  -1.1016  -0.9639  -0.7894  -0.7571
    -0.6236  -0.4569  -0.4490  -0.3102  -0.1645  -0.0238   0.0382   0.2006
     0.2152   0.3074   0.3726   0.5900   0.8205   1.1431   1.2981   1.4816
     2.1766   2.3414   2.3622   2.4914   2.5105   2.8632   2.8998   2.9807
     3.2961   3.3496   3.5527   3.6348

          k = 0.0292-0.1090 0.0000 ( 34265 PWs)   bands (ev):

   -61.3476 -61.3354 -61.2621 -61.2498 -60.8500 -60.8372 -29.9520 -29.9234
   -29.8875 -29.8609 -29.8561 -29.7808 -29.7470 -29.7164 -29.6656 -29.6353
   -29.6130 -29.5440 -29.5363 -29.3851 -29.3545 -29.3093 -29.2890 -29.2887
    -4.9701  -4.2596  -3.3788  -3.2349  -3.0193  -2.6969  -2.6433  -2.6229
    -2.5564  -2.4371  -2.2572  -1.9158  -1.8410  -1.7585  -1.5658  -1.5372
    -1.4341  -1.3931  -1.2766  -1.2348  -1.1219  -1.0377  -0.9105  -0.8636
    -0.6525  -0.5884  -0.5022  -0.4265  -0.3832  -0.3655  -0.2014  -0.0535
    -0.0061   0.1509   0.1894   0.5725   0.9450   1.0244   1.0947   1.4183
     2.2535   2.3042   2.4914   2.5727   2.6867   2.9405   3.0094   3.1163
     3.2773   3.4648   3.5434   3.7040

          k = 0.0292-0.0930 0.0000 ( 34258 PWs)   bands (ev):

   -61.3447 -61.3384 -61.2591 -61.2528 -60.8469 -60.8403 -29.9460 -29.9293
   -29.8812 -29.8663 -29.7995 -29.7410 -29.7235 -29.7220 -29.6717 -29.6591
   -29.6406 -29.5950 -29.4839 -29.3790 -29.3600 -29.3502 -29.3021 -29.2964
    -4.6804  -4.5333  -3.2233  -3.1567  -3.1357  -2.6984  -2.5928  -2.5180
    -2.3591  -2.2657  -2.2205  -2.0207  -1.8915  -1.7640  -1.6681  -1.5818
    -1.3556  -1.3432  -1.2501  -1.2244  -1.2230  -1.0549  -0.9982  -0.9301
    -0.8946  -0.8484  -0.7282  -0.5668  -0.5022  -0.3764  -0.2090  -0.2036
    -0.0897   0.0989   0.1706   0.5585   0.8948   0.9872   1.4377   1.4772
     2.2819   2.4361   2.5932   2.7106   2.8948   3.0130   3.0581   3.3072
     3.4241   3.6816   3.7386   3.7684

          k = 0.0292-0.0770 0.0000 ( 34267 PWs)   bands (ev):

   -61.3416 -61.3414 -61.2560 -61.2559 -60.8437 -60.8436 -29.9393 -29.9356
   -29.8743 -29.8728 -29.7374 -29.7358 -29.7314 -29.7272 -29.6610 -29.6580
   -29.6504 -29.6456 -29.4184 -29.4160 -29.3708 -29.3654 -29.3041 -29.2948
    -5.1185  -4.1251  -3.3947  -3.2817  -3.1098  -2.8192  -2.6998  -2.6733
    -2.3975  -2.2765  -2.2683  -2.0326  -1.8319  -1.7768  -1.7406  -1.5001
    -1.4066  -1.3216  -1.3021  -1.2232  -1.2177  -1.1948  -1.0794  -0.9601
    -0.9542  -0.8585  -0.7660  -0.6387  -0.5325  -0.3854  -0.3226  -0.0755
    -0.0706   0.1759   0.3429   0.5066   0.9110   1.2472   1.5754   1.8655
     2.3798   2.5841   2.6224   2.9001   3.0301   3.0422   3.1969   3.4868
     3.5355   3.5923   3.7590   3.8114

          k = 0.0292-0.0610 0.0000 ( 34266 PWs)   bands (ev):

   -61.3448 -61.3383 -61.2593 -61.2527 -60.8470 -60.8403 -29.9419 -29.9323
   -29.8793 -29.8673 -29.7952 -29.7328 -29.7251 -29.7188 -29.6735 -29.6508
   -29.6427 -29.5970 -29.4803 -29.3708 -29.3625 -29.3516 -29.3115 -29.2879
    -5.5245  -3.8092  -3.7233  -3.4163  -3.1360  -3.0290  -2.9932  -2.8136
    -2.7258  -2.4658  -2.2991  -2.0523  -1.7691  -1.7193  -1.6771  -1.6473
    -1.5636  -1.3889  -1.3478  -1.3103  -1.1905  -1.1140  -1.0845  -0.8777
    -0.8563  -0.7568  -0.7499  -0.4673  -0.4517  -0.2707  -0.2296   0.0119
     0.0596   0.1535   0.5227   0.6411   1.0884   1.5363   1.7627   2.3295
     2.3525   2.7013   2.7271   2.9670   3.0092   3.1685   3.3064   3.3630
     3.4712   3.6015   3.8571   3.9639

          k = 0.0292-0.0450 0.0000 ( 34254 PWs)   bands (ev):

   -61.3478 -61.3354 -61.2623 -61.2498 -60.8502 -60.8373 -29.9479 -29.9257
   -29.8854 -29.8611 -29.8516 -29.7756 -29.7376 -29.7170 -29.6557 -29.6346
   -29.6136 -29.5398 -29.5369 -29.3756 -29.3544 -29.3181 -29.2887 -29.2817
    -5.8634  -4.0342  -3.6650  -3.5001  -3.3695  -3.2048  -3.1520  -3.0151
    -2.9352  -2.6748  -2.3651  -2.2617  -1.8841  -1.8628  -1.7925  -1.5930
    -1.5147  -1.4392  -1.3248  -1.3170  -1.1173  -1.0485  -0.9548  -0.8273
    -0.7439  -0.6949  -0.6572  -0.3936  -0.1469  -0.0956   0.0999   0.1213
     0.1997   0.2991   0.5562   0.7609   1.5276   1.7246   2.0295   2.2630
     2.6436   2.7031   2.8684   2.9538   2.9812   3.0859   3.2567   3.4270
     3.4474   3.7414   3.7541   4.1176

          k = 0.0292-0.0290 0.0000 ( 34264 PWs)   bands (ev):

   -61.3504 -61.3328 -61.2649 -61.2472 -60.8528 -60.8346 -29.9532 -29.9200
   -29.9004 -29.8908 -29.8552 -29.8241 -29.7420 -29.7099 -29.6602 -29.6278
   -29.5905 -29.5617 -29.4848 -29.3802 -29.3475 -29.3234 -29.2766 -29.2342
    -6.1118  -4.2737  -3.7006  -3.6373  -3.4629  -3.2987  -3.2414  -3.2364
    -3.0365  -2.8579  -2.5075  -2.3479  -2.1164  -1.9539  -1.9084  -1.5204
    -1.5134  -1.3902  -1.3809  -1.2690  -1.1391  -1.0314  -0.8188  -0.6591
    -0.6373  -0.5933  -0.3928  -0.3200  -0.0196   0.0940   0.2162   0.2903
     0.4288   0.5759   0.7331   0.9553   1.8713   1.9896   2.0001   2.3382
     2.5989   2.6284   2.8171   2.8699   2.9155   3.1022   3.3869   3.4718
     3.5463   3.5659   3.7963   3.9230

          k = 0.0438-0.0195 0.0000 ( 34273 PWs)   bands (ev):

   -61.3504 -61.3328 -61.2648 -61.2472 -60.8528 -60.8346 -29.9539 -29.9196
   -29.9014 -29.8914 -29.8553 -29.8252 -29.7437 -29.7099 -29.6626 -29.6284
   -29.5914 -29.5617 -29.4849 -29.3822 -29.3478 -29.3217 -29.2779 -29.2343
    -5.9853  -4.1612  -3.8155  -3.5443  -3.2891  -3.2374  -3.2093  -3.1141
    -2.9846  -2.8256  -2.5578  -2.1643  -2.0694  -1.9195  -1.8426  -1.5281
    -1.4988  -1.3623  -1.3602  -1.2629  -1.1733  -0.9249  -0.8452  -0.6835
    -0.6318  -0.5345  -0.4282  -0.2598  -0.0665   0.0976   0.2146   0.2768
     0.3653   0.5481   0.6774   0.8573   1.4784   1.8530   1.9048   2.3267
     2.3824   2.4845   2.7039   2.7334   2.8223   2.9299   3.3310   3.3597
     3.4813   3.6265   3.7349   3.9324

          k = 0.0438-0.0035 0.0000 ( 34225 PWs)   bands (ev):

   -61.3523 -61.3309 -61.2668 -61.2453 -60.8548 -60.8326 -29.9586 -29.9394
   -29.9148 -29.8959 -29.8634 -29.8508 -29.7489 -29.7051 -29.6681 -29.6311
   -29.6239 -29.5219 -29.4449 -29.3876 -29.3432 -29.3246 -29.2748 -29.1925
    -6.0602  -4.2323  -3.7204  -3.6740  -3.3470  -3.2793  -3.2175  -3.1178
    -3.0154  -2.9291  -2.5496  -2.2208  -2.2073  -1.9716  -1.8406  -1.5418
    -1.5302  -1.3747  -1.2245  -1.1692  -1.1138  -0.9463  -0.7477  -0.6278
    -0.5481  -0.3998  -0.1809  -0.0719  -0.0480   0.1013   0.2731   0.3477
     0.5819   0.7141   0.8541   1.2467   1.3226   1.8197   1.9347   2.2361
     2.2456   2.3646   2.5199   2.5232   2.7325   2.8927   3.0709   3.1017
     3.4662   3.4948   3.6300   3.9962

          k = 0.0438 0.0125 0.0000 ( 34207 PWs)   bands (ev):

   -61.3535 -61.3296 -61.2679 -61.2440 -60.8561 -60.8313 -29.9637 -29.9619
   -29.9119 -29.8989 -29.8877 -29.8482 -29.7534 -29.7026 -29.6728 -29.6562
   -29.6219 -29.4969 -29.4198 -29.3923 -29.3408 -29.3256 -29.2734 -29.1663
    -6.0268  -4.1995  -3.7298  -3.5622  -3.3945  -3.2480  -3.1766  -3.0674
    -3.0256  -2.9462  -2.4519  -2.2670  -2.2593  -1.9793  -1.7899  -1.5544
    -1.5460  -1.3573  -1.1535  -1.0672  -0.9833  -0.9758  -0.7066  -0.5714
    -0.5060  -0.2885  -0.1524  -0.0873   0.1077   0.2174   0.2894   0.3546
     0.6542   0.7196   0.9803   1.2382   1.5906   1.7007   1.8314   2.0308
     2.0677   2.2308   2.2741   2.3972   2.6056   2.8215   2.9059   2.9146
     3.1735   3.3273   3.4792   4.0288

          k = 0.0438 0.0285 0.0000 ( 34193 PWs)   bands (ev):

   -61.3539 -61.3292 -61.2683 -61.2436 -60.8565 -60.8308 -29.9727 -29.9638
   -29.9108 -29.9001 -29.8969 -29.8472 -29.7569 -29.7025 -29.6762 -29.6656
   -29.6218 -29.4886 -29.4115 -29.3956 -29.3407 -29.3248 -29.2737 -29.1577
    -5.8888  -4.0706  -3.7326  -3.4089  -3.3378  -3.1994  -3.0913  -2.9984
    -2.9549  -2.8913  -2.3260  -2.2479  -2.2386  -1.9387  -1.6944  -1.5653
    -1.5307  -1.3137  -1.1660  -0.9616  -0.9510  -0.8867  -0.7213  -0.5899
    -0.5036  -0.2303  -0.1657  -0.0667   0.1410   0.2091   0.2906   0.3151
     0.6890   0.7064   0.7147   1.3176   1.3330   1.5972   1.7742   1.8349
     1.8596   2.0677   2.1958   2.3048   2.4290   2.7065   2.8505   2.8572
     2.9298   3.1400   3.4152   3.9360

          k = 0.0438 0.0445 0.0000 ( 34187 PWs)   bands (ev):

   -61.3534 -61.3296 -61.2678 -61.2440 -60.8560 -60.8312 -29.9660 -29.9638
   -29.9115 -29.8995 -29.8902 -29.8479 -29.7586 -29.7044 -29.6775 -29.6583
   -29.6235 -29.4975 -29.4204 -29.3970 -29.3424 -29.3224 -29.2758 -29.1672
    -5.6540  -3.8660  -3.6936  -3.4345  -3.1834  -3.0201  -2.9730  -2.9094
    -2.8003  -2.7960  -2.2823  -2.1571  -2.0938  -1.8606  -1.5950  -1.5821
    -1.4557  -1.2842  -1.1861  -0.9534  -0.8842  -0.8698  -0.7858  -0.6642
    -0.5205  -0.2941  -0.1507  -0.0674  -0.0308   0.1518   0.2599   0.2860
     0.4818   0.6270   0.7241   0.9159   1.0851   1.2588   1.4145   1.6136
     1.7971   2.1337   2.1683   2.2506   2.4222   2.6344   2.6394   2.8408
     2.9966   3.2471   3.3242   3.7713

          k = 0.0438 0.0605 0.0000 ( 34227 PWs)   bands (ev):

   -61.3521 -61.3308 -61.2666 -61.2452 -60.8547 -60.8325 -29.9620 -29.9437
   -29.9139 -29.8971 -29.8679 -29.8502 -29.7581 -29.7078 -29.6765 -29.6348
   -29.6266 -29.5226 -29.4456 -29.3962 -29.3456 -29.3185 -29.2795 -29.1937
    -5.3356  -3.6766  -3.6102  -3.5629  -2.9573  -2.9066  -2.7659  -2.7434
    -2.6722  -2.6404  -2.2204  -2.0147  -1.9812  -1.7890  -1.6363  -1.5284
    -1.3306  -1.2976  -1.1179  -1.0522  -0.9856  -0.9003  -0.7922  -0.7340
    -0.5381  -0.4528  -0.3901  -0.1371  -0.0739   0.0303   0.1361   0.2423
     0.3011   0.3846   0.6066   0.6667   0.7488   0.8884   1.1785   1.3750
     1.8682   2.1585   2.2528   2.3218   2.3618   2.5864   2.6852   2.8858
     3.1238   3.2701   3.3973   3.5305

          k = 0.0438-0.1155 0.0000 ( 34233 PWs)   bands (ev):

   -61.3501 -61.3328 -61.2646 -61.2472 -60.8526 -60.8345 -29.9584 -29.9182
   -29.9065 -29.8930 -29.8545 -29.8308 -29.7553 -29.7121 -29.6731 -29.6306
   -29.5962 -29.5621 -29.4852 -29.3929 -29.3497 -29.3133 -29.2846 -29.2354
    -4.9519  -3.9120  -3.6042  -3.3095  -2.8442  -2.6965  -2.6457  -2.5406
    -2.5043  -2.4811  -2.1322  -1.9618  -1.8744  -1.8102  -1.6493  -1.4659
    -1.3102  -1.2572  -1.2282  -1.0989  -1.0705  -1.0304  -0.8249  -0.8198
    -0.6458  -0.6053  -0.4174  -0.3539  -0.2543  -0.2135  -0.0897  -0.0206
     0.0475   0.2231   0.2601   0.5749   0.7337   0.9732   1.0093   1.2781
     2.0359   2.2161   2.2279   2.4231   2.5021   2.6755   2.8319   3.0157
     3.1854   3.3500   3.4065   3.5344

          k = 0.0438-0.0995 0.0000 ( 34242 PWs)   bands (ev):

   -61.3476 -61.3354 -61.2620 -61.2498 -60.8500 -60.8372 -29.9532 -29.9230
   -29.8875 -29.8608 -29.8567 -29.7820 -29.7500 -29.7170 -29.6674 -29.6351
   -29.6129 -29.5450 -29.5362 -29.3873 -29.3545 -29.3073 -29.2908 -29.2888
    -4.5295  -4.3085  -3.5783  -3.1052  -2.8855  -2.6362  -2.4633  -2.4225
    -2.3964  -2.2301  -2.1037  -1.9784  -1.8915  -1.8206  -1.5464  -1.5341
    -1.4023  -1.3350  -1.2268  -1.1810  -1.1431  -1.1238  -0.9150  -0.8960
    -0.8704  -0.6910  -0.6862  -0.5090  -0.4075  -0.3976  -0.2467  -0.1838
    -0.0780  -0.0132   0.2135   0.5439   0.7308   0.9401   1.3150   1.3405
     2.2002   2.2549   2.4146   2.4914   2.7371   2.8080   2.9817   3.1160
     3.3293   3.5580   3.6430   3.6603

          k = 0.0438-0.0835 0.0000 ( 34262 PWs)   bands (ev):

   -61.3446 -61.3384 -61.2591 -61.2528 -60.8469 -60.8403 -29.9468 -29.9289
   -29.8811 -29.8658 -29.8001 -29.7426 -29.7241 -29.7222 -29.6715 -29.6598
   -29.6400 -29.5948 -29.4844 -29.3799 -29.3597 -29.3504 -29.3007 -29.2977
    -4.7434  -4.1112  -3.6027  -3.0875  -3.0173  -2.7287  -2.5316  -2.4417
    -2.1949  -2.1619  -2.0462  -2.0180  -1.9278  -1.8523  -1.7159  -1.6113
    -1.3296  -1.2849  -1.2310  -1.2291  -1.2015  -1.1501  -1.0817  -0.9873
    -0.9516  -0.8966  -0.8712  -0.6100  -0.6083  -0.3612  -0.2625  -0.2119
    -0.1559   0.0567   0.2155   0.4995   0.7636   1.1124   1.4360   1.7280
     2.3271   2.3375   2.5763   2.7001   2.9246   2.9478   3.0902   3.2272
     3.5517   3.7036   3.7911   3.7925

          k = 0.0438-0.0675 0.0000 ( 34244 PWs)   bands (ev):

   -61.3416 -61.3414 -61.2560 -61.2559 -60.8437 -60.8436 -29.9396 -29.9354
   -29.8742 -29.8725 -29.7372 -29.7341 -29.7335 -29.7275 -29.6609 -29.6571
   -29.6513 -29.6453 -29.4185 -29.4157 -29.3713 -29.3651 -29.3048 -29.2941
    -5.1622  -3.8103  -3.6027  -3.4009  -3.0408  -2.8732  -2.6986  -2.6694
    -2.4142  -2.2528  -2.1766  -1.8978  -1.8516  -1.8294  -1.8045  -1.5024
    -1.4474  -1.3814  -1.2967  -1.2442  -1.1798  -1.1618  -1.1057  -0.9802
    -0.9768  -0.8604  -0.7661  -0.7402  -0.5263  -0.4081  -0.3565  -0.0986
    -0.0693   0.1846   0.3921   0.5056   0.8318   1.3324   1.6201   2.1144
     2.3393   2.4662   2.7051   2.9636   2.9909   3.0313   3.2040   3.4910
     3.5247   3.5858   3.7134   3.8264

          k = 0.0438-0.0515 0.0000 ( 34266 PWs)   bands (ev):

   -61.3448 -61.3383 -61.2593 -61.2527 -60.8470 -60.8403 -29.9419 -29.9323
   -29.8793 -29.8673 -29.7952 -29.7328 -29.7251 -29.7188 -29.6735 -29.6508
   -29.6427 -29.5970 -29.4803 -29.3708 -29.3625 -29.3516 -29.3115 -29.2879
    -5.5245  -3.8092  -3.7233  -3.4163  -3.1360  -3.0290  -2.9932  -2.8136
    -2.7258  -2.4658  -2.2991  -2.0523  -1.7691  -1.7193  -1.6771  -1.6473
    -1.5636  -1.3889  -1.3478  -1.3103  -1.1905  -1.1140  -1.0845  -0.8777
    -0.8563  -0.7568  -0.7499  -0.4673  -0.4517  -0.2707  -0.2296   0.0119
     0.0596   0.1535   0.5227   0.6411   1.0884   1.5363   1.7627   2.3295
     2.3525   2.7013   2.7271   2.9671   3.0092   3.1685   3.3064   3.3630
     3.4713   3.6015   3.8566   3.9644

          k = 0.0438-0.0355 0.0000 ( 34253 PWs)   bands (ev):

   -61.3478 -61.3354 -61.2623 -61.2498 -60.8501 -60.8373 -29.9482 -29.9255
   -29.8857 -29.8612 -29.8520 -29.7761 -29.7383 -29.7167 -29.6567 -29.6348
   -29.6135 -29.5402 -29.5368 -29.3765 -29.3544 -29.3173 -29.2887 -29.2823
    -5.8042  -3.9873  -3.8400  -3.3271  -3.2909  -3.2347  -3.0705  -3.0008
    -2.9147  -2.6635  -2.4656  -2.1096  -1.8620  -1.8468  -1.7739  -1.5853
    -1.5039  -1.4365  -1.3334  -1.3244  -1.1619  -0.9849  -0.9672  -0.8027
    -0.7471  -0.6697  -0.6543  -0.3622  -0.1437  -0.1206   0.0991   0.1279
     0.1942   0.2728   0.5349   0.7100   1.5204   1.6256   1.8190   2.3549
     2.4408   2.5849   2.8297   2.9183   2.9400   3.0729   3.3177   3.4167
     3.4703   3.6749   3.7610   4.0276

          k = 0.0585-0.0261 0.0000 ( 34246 PWs)   bands (ev):

   -61.3478 -61.3354 -61.2622 -61.2498 -60.8501 -60.8372 -29.9491 -29.9248
   -29.8864 -29.8612 -29.8533 -29.7774 -29.7403 -29.7163 -29.6595 -29.6351
   -29.6133 -29.5412 -29.5366 -29.3789 -29.3544 -29.3151 -29.2886 -29.2841
    -5.6291  -4.0294  -3.8502  -3.2237  -3.2070  -3.0112  -2.9709  -2.9303
    -2.8557  -2.6282  -2.5128  -1.9533  -1.8162  -1.8045  -1.6947  -1.5836
    -1.4695  -1.4564  -1.3583  -1.3082  -1.1455  -1.0030  -0.9396  -0.7790
    -0.7364  -0.5960  -0.5845  -0.3229  -0.1973  -0.1854   0.0654   0.1232
     0.2003   0.2091   0.5406   0.5926   1.1196   1.4956   1.7718   1.8884
     2.3384   2.5673   2.5890   2.8178   2.8422   3.0360   3.3059   3.3790
     3.4931   3.5023   3.7306   3.9596

          k = 0.0585-0.0101 0.0000 ( 34249 PWs)   bands (ev):

   -61.3503 -61.3328 -61.2647 -61.2472 -60.8528 -60.8346 -29.9552 -29.9191
   -29.9030 -29.8922 -29.8553 -29.8270 -29.7469 -29.7101 -29.6663 -29.6294
   -29.5930 -29.5618 -29.4850 -29.3857 -29.3484 -29.3190 -29.2800 -29.2346
    -5.7387  -3.9457  -3.8859  -3.4030  -3.1922  -3.1419  -2.9868  -2.9439
    -2.8880  -2.7584  -2.5035  -2.0159  -1.9887  -1.8672  -1.6938  -1.5671
    -1.4748  -1.3176  -1.3056  -1.2350  -1.1579  -0.8956  -0.8266  -0.7154
    -0.6214  -0.4726  -0.4324  -0.2360  -0.1689   0.0875   0.1816   0.2541
     0.2712   0.5419   0.5853   0.6714   0.9477   1.6253   1.6301   1.8532
     2.2851   2.4513   2.5318   2.5526   2.6385   2.9086   3.1117   3.1441
     3.3964   3.4965   3.7165   3.8678

          k = 0.0585 0.0059 0.0000 ( 34217 PWs)   bands (ev):

   -61.3522 -61.3308 -61.2667 -61.2452 -60.8548 -60.8325 -29.9602 -29.9416
   -29.9143 -29.8967 -29.8657 -29.8506 -29.7533 -29.7062 -29.6726 -29.6329
   -29.6255 -29.5222 -29.4452 -29.3919 -29.3444 -29.3214 -29.2771 -29.1931
    -5.7462  -3.9470  -3.6793  -3.5677  -3.2104  -3.1111  -2.9817  -2.9047
    -2.8992  -2.8228  -2.4131  -2.1094  -2.0718  -1.8883  -1.6583  -1.5800
    -1.4765  -1.3049  -1.1713  -1.1198  -1.0605  -0.8544  -0.8154  -0.6595
    -0.5496  -0.2904  -0.2483  -0.2177  -0.0879   0.0995   0.2643   0.3290
     0.5135   0.5624   0.6959   0.7890   1.0170   1.3690   1.5649   1.7677
     2.0604   2.3301   2.3696   2.3752   2.5187   2.8123   2.8261   2.9112
     3.2930   3.3759   3.5257   3.8124

          k = 0.0585 0.0219 0.0000 ( 34187 PWs)   bands (ev):

   -61.3534 -61.3296 -61.2678 -61.2440 -60.8560 -60.8312 -29.9660 -29.9638
   -29.9115 -29.8995 -29.8902 -29.8479 -29.7586 -29.7044 -29.6775 -29.6583
   -29.6235 -29.4975 -29.4204 -29.3970 -29.3424 -29.3224 -29.2758 -29.1672
    -5.6540  -3.8660  -3.6936  -3.4345  -3.1834  -3.0201  -2.9730  -2.9094
    -2.8003  -2.7960  -2.2823  -2.1571  -2.0938  -1.8606  -1.5950  -1.5821
    -1.4557  -1.2842  -1.1861  -0.9534  -0.8842  -0.8698  -0.7858  -0.6642
    -0.5205  -0.2941  -0.1507  -0.0674  -0.0308   0.1518   0.2599   0.2860
     0.4818   0.6270   0.7241   0.9159   1.0851   1.2588   1.4145   1.6136
     1.7971   2.1337   2.1683   2.2506   2.4222   2.6345   2.6394   2.8408
     2.9966   3.2471   3.3242   3.7717

          k = 0.0585 0.0379 0.0000 ( 34236 PWs)   bands (ev):

   -61.3538 -61.3291 -61.2682 -61.2435 -60.8564 -60.8307 -29.9750 -29.9657
   -29.9105 -29.9006 -29.8993 -29.8468 -29.7622 -29.7046 -29.6806 -29.6676
   -29.6234 -29.4892 -29.4121 -29.4002 -29.3423 -29.3218 -29.2760 -29.1586
    -5.4690  -3.8235  -3.6707  -3.2495  -3.0808  -2.9499  -2.8988  -2.8712
    -2.7254  -2.6472  -2.2012  -2.1334  -2.0315  -1.7894  -1.6169  -1.4767
    -1.4099  -1.3195  -1.1507  -0.8731  -0.8724  -0.8365  -0.7526  -0.6738
    -0.5099  -0.2665  -0.2040  -0.1346   0.0614   0.0894   0.2451   0.2981
     0.4353   0.5967   0.7438   0.8204   0.9280   1.1803   1.2495   1.4176
     1.6205   2.0193   2.0396   2.1551   2.3242   2.4947   2.5123   2.7848
     2.7977   3.1204   3.2500   3.5926

          k = 0.0585 0.0539 0.0000 ( 34231 PWs)   bands (ev):

   -61.3533 -61.3296 -61.2677 -61.2440 -60.8559 -60.8311 -29.9680 -29.9656
   -29.9113 -29.8998 -29.8923 -29.8474 -29.7635 -29.7064 -29.6812 -29.6601
   -29.6247 -29.4979 -29.4209 -29.4011 -29.3438 -29.3198 -29.2778 -29.1679
    -5.2015  -3.8798  -3.4667  -3.3073  -2.9271  -2.8100  -2.7661  -2.7470
    -2.6333  -2.4831  -2.1642  -2.0520  -1.9353  -1.7158  -1.6546  -1.4877
    -1.3404  -1.2821  -1.0718  -0.9448  -0.8879  -0.8427  -0.8305  -0.6526
    -0.4917  -0.3856  -0.3538  -0.1691  -0.0710   0.0583   0.2419   0.2738
     0.4542   0.5163   0.6050   0.6197   0.7540   0.8574   1.0198   1.2383
     1.5959   1.9611   2.0873   2.1686   2.2682   2.3855   2.4657   2.7905
     2.8660   3.1697   3.1914   3.4606

          k = 0.0585-0.1221 0.0000 ( 34241 PWs)   bands (ev):

   -61.3521 -61.3308 -61.2665 -61.2452 -60.8547 -60.8324 -29.9635 -29.9452
   -29.9136 -29.8972 -29.8695 -29.8497 -29.7620 -29.7093 -29.6792 -29.6361
   -29.6272 -29.5229 -29.4459 -29.3992 -29.3465 -29.3164 -29.2811 -29.1942
    -4.8664  -3.9245  -3.5466  -3.2400  -2.7468  -2.7333  -2.6338  -2.5253
    -2.5017  -2.3492  -2.1111  -1.9419  -1.9200  -1.7504  -1.7057  -1.4536
    -1.3128  -1.1992  -1.0483  -1.0353  -1.0172  -0.9058  -0.8167  -0.7806
    -0.5651  -0.5575  -0.4367  -0.3034  -0.1671  -0.0434   0.0553   0.0759
     0.2187   0.3935   0.4035   0.5424   0.5472   0.8705   0.8829   1.1425
     1.7289   1.9828   2.1545   2.2728   2.2911   2.4313   2.5959   2.9055
     3.0435   3.1993   3.2491   3.5461

          k = 0.0585-0.1061 0.0000 ( 34249 PWs)   bands (ev):

   -61.3501 -61.3328 -61.2645 -61.2472 -60.8526 -60.8345 -29.9594 -29.9181
   -29.9074 -29.8930 -29.8541 -29.8319 -29.7578 -29.7130 -29.6747 -29.6307
   -29.5971 -29.5622 -29.4853 -29.3948 -29.3501 -29.3119 -29.2858 -29.2356
    -4.4876  -3.9573  -3.9048  -3.0563  -2.7109  -2.5903  -2.5493  -2.3681
    -2.2856  -2.2737  -2.0577  -2.0290  -1.8741  -1.8132  -1.7023  -1.3696
    -1.2777  -1.2437  -1.2225  -1.1263  -1.1000  -0.9675  -0.8657  -0.8368
    -0.7872  -0.6528  -0.5759  -0.5057  -0.3145  -0.2604  -0.1846  -0.0803
    -0.0500   0.1987   0.2252   0.5268   0.5924   0.8489   1.1553   1.1673
     1.9419   2.1161   2.1916   2.3519   2.5023   2.5987   2.7912   3.1450
     3.2063   3.3243   3.4105   3.4308

          k = 0.0585-0.0901 0.0000 ( 34286 PWs)   bands (ev):

   -61.3476 -61.3354 -61.2620 -61.2498 -60.8500 -60.8372 -29.9537 -29.9229
   -29.8875 -29.8609 -29.8568 -29.7824 -29.7511 -29.7173 -29.6680 -29.6350
   -29.6129 -29.5454 -29.5361 -29.3881 -29.3546 -29.3066 -29.2915 -29.2889
    -4.3237  -4.1567  -3.9182  -2.9796  -2.8246  -2.6366  -2.3752  -2.3496
    -2.3087  -2.1050  -2.0031  -1.9996  -1.9252  -1.9120  -1.5421  -1.5383
    -1.4055  -1.2793  -1.2487  -1.1874  -1.1634  -1.0733  -1.0419  -0.9636
    -0.8590  -0.7913  -0.7122  -0.5410  -0.4995  -0.4014  -0.2460  -0.2426
    -0.1207  -0.0211   0.2352   0.5033   0.6721   0.9470   1.2842   1.4699
     2.1339   2.2643   2.3810   2.4637   2.7665   2.7679   2.9451   3.1530
     3.4138   3.6247   3.6812   3.7884

          k = 0.0585-0.0741 0.0000 ( 34262 PWs)   bands (ev):

   -61.3446 -61.3384 -61.2591 -61.2528 -60.8469 -60.8403 -29.9468 -29.9289
   -29.8811 -29.8658 -29.8001 -29.7426 -29.7241 -29.7222 -29.6715 -29.6598
   -29.6400 -29.5948 -29.4844 -29.3799 -29.3597 -29.3504 -29.3007 -29.2977
    -4.7434  -4.1112  -3.6027  -3.0875  -3.0173  -2.7287  -2.5316  -2.4417
    -2.1949  -2.1619  -2.0462  -2.0180  -1.9278  -1.8523  -1.7159  -1.6113
    -1.3296  -1.2849  -1.2310  -1.2291  -1.2015  -1.1501  -1.0817  -0.9873
    -0.9516  -0.8966  -0.8712  -0.6100  -0.6083  -0.3612  -0.2625  -0.2119
    -0.1559   0.0567   0.2155   0.4995   0.7636   1.1124   1.4360   1.7280
     2.3271   2.3375   2.5763   2.7001   2.9246   2.9477   3.0902   3.2272
     3.5517   3.7037   3.7910   3.7923

          k = 0.0585-0.0581 0.0000 ( 34267 PWs)   bands (ev):

   -61.3416 -61.3414 -61.2560 -61.2559 -60.8437 -60.8436 -29.9393 -29.9356
   -29.8743 -29.8728 -29.7374 -29.7358 -29.7314 -29.7272 -29.6610 -29.6580
   -29.6504 -29.6456 -29.4184 -29.4160 -29.3708 -29.3654 -29.3041 -29.2948
    -5.1185  -4.1251  -3.3947  -3.2817  -3.1098  -2.8192  -2.6998  -2.6733
    -2.3975  -2.2765  -2.2683  -2.0326  -1.8319  -1.7768  -1.7406  -1.5001
    -1.4066  -1.3216  -1.3021  -1.2232  -1.2177  -1.1948  -1.0794  -0.9601
    -0.9542  -0.8585  -0.7660  -0.6387  -0.5325  -0.3854  -0.3226  -0.0755
    -0.0706   0.1759   0.3429   0.5066   0.9110   1.2472   1.5754   1.8655
     2.3798   2.5841   2.6225   2.9002   3.0302   3.0422   3.1971   3.4868
     3.5355   3.5923   3.7590   3.8113

          k = 0.0585-0.0421 0.0000 ( 34262 PWs)   bands (ev):

   -61.3448 -61.3383 -61.2592 -61.2527 -60.8470 -60.8403 -29.9424 -29.9318
   -29.8798 -29.8674 -29.7960 -29.7338 -29.7242 -29.7196 -29.6731 -29.6525
   -29.6425 -29.5966 -29.4809 -29.3724 -29.3621 -29.3510 -29.3099 -29.2891
    -5.4194  -4.1059  -3.6617  -3.1939  -3.0844  -2.9698  -2.8885  -2.7904
    -2.7076  -2.4638  -2.4272  -1.9511  -1.7793  -1.6979  -1.6526  -1.6205
    -1.5276  -1.4206  -1.3482  -1.3018  -1.1720  -1.1105  -1.0755  -0.8543
    -0.8165  -0.7403  -0.6399  -0.4801  -0.4407  -0.2583  -0.2415   0.0301
     0.0536   0.1570   0.5180   0.5224   1.1945   1.2437   1.7135   1.9007
     2.4002   2.5956   2.6820   2.9118   3.0336   3.1915   3.2513   3.3806
     3.4548   3.7000   3.7910   3.8945

          k = 0.0731-0.0326 0.0000 ( 34269 PWs)   bands (ev):

   -61.3447 -61.3383 -61.2592 -61.2527 -60.8470 -60.8403 -29.9434 -29.9309
   -29.8805 -29.8673 -29.7972 -29.7358 -29.7230 -29.7209 -29.6725 -29.6551
   -29.6422 -29.5960 -29.4820 -29.3749 -29.3613 -29.3504 -29.3074 -29.2914
    -5.2127  -4.3604  -3.5416  -3.2152  -2.8471  -2.8180  -2.7664  -2.7460
    -2.7062  -2.4776  -2.4446  -1.9454  -1.7845  -1.6773  -1.6212  -1.6096
    -1.4895  -1.4662  -1.3582  -1.2593  -1.1526  -1.0649  -1.0105  -0.8933
    -0.7166  -0.6697  -0.5526  -0.4681  -0.4500  -0.3053  -0.2929  -0.0426
     0.1094   0.1379   0.4277   0.5364   0.8885   1.3218   1.4628   1.5896
     2.2732   2.4358   2.6809   2.8312   2.9968   3.1627   3.2085   3.3664
     3.4700   3.5489   3.7195   3.7617

          k = 0.0731-0.0166 0.0000 ( 34267 PWs)   bands (ev):

   -61.3477 -61.3354 -61.2621 -61.2498 -60.8501 -60.8372 -29.9505 -29.9241
   -29.8871 -29.8611 -29.8548 -29.7791 -29.7434 -29.7161 -29.6628 -29.6354
   -29.6131 -29.5427 -29.5364 -29.3821 -29.3544 -29.3122 -29.2886 -29.2865
    -5.3460  -4.1691  -3.6357  -3.1470  -3.1001  -2.9042  -2.7939  -2.7672
    -2.7394  -2.5577  -2.4391  -1.8959  -1.8113  -1.7494  -1.5940  -1.5711
    -1.4876  -1.4196  -1.3507  -1.2669  -1.0684  -1.0558  -0.9256  -0.8248
    -0.6494  -0.5175  -0.4622  -0.3822  -0.3374  -0.2704  -0.0129   0.0066
     0.1687   0.1934   0.4316   0.5274   0.8539   1.3590   1.4021   1.5142
     2.3170   2.3656   2.5615   2.6959   2.7193   2.9906   3.1336   3.2763
     3.3709   3.4071   3.6240   3.7267

          k = 0.0731-0.0006 0.0000 ( 34248 PWs)   bands (ev):

   -61.3502 -61.3328 -61.2647 -61.2472 -60.8527 -60.8345 -29.9568 -29.9186
   -29.9049 -29.8928 -29.8550 -29.8291 -29.7512 -29.7110 -29.6702 -29.6302
   -29.5947 -29.5620 -29.4851 -29.3896 -29.3491 -29.3159 -29.2825 -29.2350
    -5.3860  -3.9125  -3.6531  -3.3865  -3.0318  -2.9552  -2.7637  -2.7456
    -2.7385  -2.6481  -2.3412  -1.9496  -1.9077  -1.8178  -1.6157  -1.5591
    -1.3933  -1.2804  -1.2542  -1.1790  -1.1016  -0.9639  -0.7894  -0.7571
    -0.6236  -0.4569  -0.4490  -0.3102  -0.1645  -0.0238   0.0382   0.2006
     0.2152   0.3074   0.3726   0.5900   0.8205   1.1431   1.2981   1.4816
     2.1766   2.3414   2.3622   2.4914   2.5105   2.8632   2.8998   2.9807
     3.2961   3.3496   3.5524   3.6353

          k = 0.0731 0.0154 0.0000 ( 34227 PWs)   bands (ev):

   -61.3521 -61.3308 -61.2666 -61.2452 -60.8547 -60.8325 -29.9620 -29.9437
   -29.9139 -29.8971 -29.8679 -29.8502 -29.7581 -29.7078 -29.6765 -29.6348
   -29.6266 -29.5226 -29.4456 -29.3962 -29.3456 -29.3185 -29.2795 -29.1937
    -5.3356  -3.6766  -3.6102  -3.5629  -2.9573  -2.9066  -2.7659  -2.7434
    -2.6722  -2.6404  -2.2204  -2.0147  -1.9812  -1.7890  -1.6363  -1.5284
    -1.3306  -1.2976  -1.1179  -1.0522  -0.9856  -0.9003  -0.7922  -0.7340
    -0.5381  -0.4528  -0.3901  -0.1371  -0.0739   0.0303   0.1361   0.2423
     0.3011   0.3846   0.6066   0.6667   0.7488   0.8884   1.1785   1.3750
     1.8682   2.1585   2.2528   2.3218   2.3618   2.5864   2.6852   2.8859
     3.1238   3.2701   3.3974   3.5303

          k = 0.0731 0.0314 0.0000 ( 34231 PWs)   bands (ev):

   -61.3533 -61.3296 -61.2677 -61.2440 -60.8559 -60.8311 -29.9680 -29.9656
   -29.9113 -29.8998 -29.8923 -29.8474 -29.7635 -29.7064 -29.6812 -29.6601
   -29.6247 -29.4979 -29.4209 -29.4011 -29.3438 -29.3198 -29.2778 -29.1679
    -5.2015  -3.8798  -3.4667  -3.3073  -2.9271  -2.8100  -2.7661  -2.7470
    -2.6333  -2.4831  -2.1642  -2.0520  -1.9353  -1.7158  -1.6546  -1.4877
    -1.3404  -1.2821  -1.0718  -0.9448  -0.8879  -0.8427  -0.8305  -0.6526
    -0.4917  -0.3856  -0.3538  -0.1691  -0.0710   0.0583   0.2419   0.2738
     0.4542   0.5163   0.6050   0.6197   0.7540   0.8574   1.0198   1.2383
     1.5959   1.9611   2.0873   2.1686   2.2682   2.3855   2.4657   2.7905
     2.8660   3.1698   3.1914   3.4606

          k = 0.0731 0.0474 0.0000 ( 34226 PWs)   bands (ev):

   -61.3537 -61.3291 -61.2681 -61.2435 -60.8564 -60.8307 -29.9767 -29.9673
   -29.9103 -29.9011 -29.9007 -29.8463 -29.7664 -29.7064 -29.6835 -29.6691
   -29.6243 -29.4896 -29.4125 -29.4036 -29.3436 -29.3198 -29.2776 -29.1592
    -4.9936  -4.0617  -3.3220  -3.1256  -2.8742  -2.7496  -2.7189  -2.7003
    -2.5786  -2.3062  -2.1720  -2.0225  -1.8479  -1.6865  -1.6154  -1.5874
    -1.2930  -1.2211  -1.0295  -0.9874  -0.8573  -0.8543  -0.8162  -0.4831
    -0.4394  -0.4327  -0.4017  -0.2177  -0.1776   0.1478   0.2472   0.3727
     0.3918   0.4754   0.5144   0.6353   0.7653   0.8434   0.8802   1.1048
     1.4426   1.8058   2.0039   2.1022   2.1793   2.2651   2.3319   2.6884
     2.7200   3.0597   3.1428   3.2784

          k = 0.0731-0.1286 0.0000 ( 34235 PWs)   bands (ev):

   -61.3533 -61.3295 -61.2677 -61.2439 -60.8559 -60.8311 -29.9692 -29.9667
   -29.9112 -29.8998 -29.8936 -29.8470 -29.7665 -29.7077 -29.6832 -29.6612
   -29.6253 -29.4982 -29.4212 -29.4034 -29.3446 -29.3183 -29.2790 -29.1683
    -4.7288  -4.2035  -3.2272  -3.1764  -2.7936  -2.6958  -2.6435  -2.5436
    -2.5071  -2.1911  -2.1376  -1.9499  -1.8570  -1.7406  -1.7056  -1.5057
    -1.2795  -1.1320  -1.0912  -0.9534  -0.9194  -0.8825  -0.8233  -0.5815
    -0.5473  -0.4686  -0.3786  -0.2645  -0.2276   0.0901   0.1740   0.2783
     0.3887   0.3891   0.4960   0.5248   0.6016   0.7554   0.8128   1.0370
     1.4797   1.7884   2.0584   2.1413   2.1523   2.2449   2.3694   2.7116
     2.8340   3.0359   3.1322   3.3035

          k = 0.0731-0.1126 0.0000 ( 34270 PWs)   bands (ev):

   -61.3520 -61.3308 -61.2665 -61.2452 -60.8546 -60.8324 -29.9641 -29.9458
   -29.9136 -29.8972 -29.8701 -29.8495 -29.7635 -29.7099 -29.6801 -29.6366
   -29.6274 -29.5230 -29.4460 -29.4004 -29.3469 -29.3157 -29.2818 -29.1944
    -4.4875  -4.2370  -3.5208  -3.0755  -2.6820  -2.6672  -2.5908  -2.4022
    -2.3988  -2.1796  -2.0703  -1.9957  -1.8669  -1.7941  -1.7419  -1.4196
    -1.2677  -1.1497  -1.0971  -1.0426  -1.0298  -0.8733  -0.8599  -0.7498
    -0.6454  -0.5735  -0.4430  -0.4032  -0.2832  -0.0434   0.0269   0.0850
     0.1709   0.2671   0.3840   0.4980   0.5125   0.7999   0.9141   1.0607
     1.6782   1.9098   2.1218   2.2191   2.2804   2.3951   2.5694   2.9183
     3.0756   3.1231   3.1771   3.4801

          k = 0.0731-0.0966 0.0000 ( 34249 PWs)   bands (ev):

   -61.3501 -61.3328 -61.2645 -61.2472 -60.8526 -60.8345 -29.9594 -29.9181
   -29.9074 -29.8930 -29.8541 -29.8319 -29.7578 -29.7130 -29.6747 -29.6307
   -29.5971 -29.5622 -29.4853 -29.3948 -29.3501 -29.3119 -29.2858 -29.2356
    -4.4876  -3.9573  -3.9048  -3.0563  -2.7109  -2.5903  -2.5493  -2.3681
    -2.2856  -2.2737  -2.0577  -2.0290  -1.8741  -1.8132  -1.7023  -1.3696
    -1.2777  -1.2437  -1.2225  -1.1263  -1.1000  -0.9675  -0.8657  -0.8368
    -0.7872  -0.6528  -0.5759  -0.5057  -0.3145  -0.2604  -0.1846  -0.0803
    -0.0500   0.1987   0.2252   0.5268   0.5924   0.8489   1.1553   1.1673
     1.9419   2.1161   2.1916   2.3519   2.5023   2.5987   2.7912   3.1450
     3.2063   3.3243   3.4100   3.4308

          k = 0.0731-0.0806 0.0000 ( 34242 PWs)   bands (ev):

   -61.3476 -61.3354 -61.2620 -61.2498 -60.8500 -60.8372 -29.9532 -29.9230
   -29.8875 -29.8608 -29.8567 -29.7820 -29.7500 -29.7170 -29.6674 -29.6351
   -29.6129 -29.5450 -29.5362 -29.3873 -29.3545 -29.3073 -29.2908 -29.2888
    -4.5295  -4.3085  -3.5783  -3.1052  -2.8855  -2.6362  -2.4633  -2.4225
    -2.3964  -2.2301  -2.1037  -1.9784  -1.8915  -1.8206  -1.5464  -1.5341
    -1.4023  -1.3350  -1.2268  -1.1810  -1.1431  -1.1238  -0.9150  -0.8960
    -0.8704  -0.6910  -0.6862  -0.5090  -0.4075  -0.3976  -0.2467  -0.1838
    -0.0780  -0.0132   0.2135   0.5439   0.7308   0.9401   1.3150   1.3405
     2.2002   2.2549   2.4146   2.4914   2.7371   2.8079   2.9817   3.1160
     3.3292   3.5577   3.6424   3.6601

          k = 0.0731-0.0646 0.0000 ( 34258 PWs)   bands (ev):

   -61.3447 -61.3384 -61.2591 -61.2528 -60.8469 -60.8403 -29.9460 -29.9293
   -29.8812 -29.8663 -29.7995 -29.7410 -29.7235 -29.7220 -29.6717 -29.6591
   -29.6406 -29.5950 -29.4839 -29.3790 -29.3600 -29.3502 -29.3021 -29.2964
    -4.6804  -4.5333  -3.2233  -3.1567  -3.1357  -2.6984  -2.5928  -2.5180
    -2.3591  -2.2657  -2.2205  -2.0207  -1.8915  -1.7640  -1.6681  -1.5818
    -1.3556  -1.3432  -1.2501  -1.2244  -1.2230  -1.0549  -0.9982  -0.9301
    -0.8946  -0.8484  -0.7282  -0.5668  -0.5022  -0.3764  -0.2090  -0.2036
    -0.0897   0.0989   0.1706   0.5585   0.8948   0.9872   1.4377   1.4772
     2.2819   2.4361   2.5932   2.7106   2.8948   3.0128   3.0581   3.3073
     3.4241   3.6814   3.7388   3.7688

          k = 0.0731-0.0486 0.0000 ( 34267 PWs)   bands (ev):

   -61.3416 -61.3414 -61.2560 -61.2559 -60.8437 -60.8436 -29.9384 -29.9362
   -29.8743 -29.8734 -29.7378 -29.7371 -29.7291 -29.7269 -29.6609 -29.6595
   -29.6489 -29.6464 -29.4181 -29.4167 -29.3694 -29.3663 -29.3020 -29.2967
    -4.9880  -4.4805  -3.3696  -3.2240  -2.9193  -2.7437  -2.6950  -2.6807
    -2.4397  -2.3868  -2.3184  -2.1447  -1.7803  -1.7231  -1.7194  -1.5220
    -1.4487  -1.3755  -1.2889  -1.2303  -1.1685  -1.0911  -1.0206  -0.9565
    -0.8673  -0.8014  -0.6671  -0.5420  -0.5345  -0.3381  -0.3062  -0.1067
     0.0054   0.1354   0.2912   0.5675   0.9515   1.1094   1.4626   1.6062
     2.2645   2.5156   2.6636   2.8492   3.0674   3.1134   3.1962   3.4070
     3.5851   3.6029   3.6242   3.8002

          k =-0.0877 0.0391 0.0000 ( 34300 PWs)   bands (ev):

   -61.3416 -61.3415 -61.2560 -61.2560 -60.8437 -60.8436 -29.9373 -29.9371
   -29.8740 -29.8740 -29.7378 -29.7376 -29.7275 -29.7274 -29.6605 -29.6605
   -29.6476 -29.6476 -29.4175 -29.4175 -29.3678 -29.3678 -29.2994 -29.2993
    -4.7732  -4.7732  -3.3138  -3.3138  -2.7306  -2.7306  -2.6630  -2.6630
    -2.5046  -2.5046  -2.2458  -2.2458  -1.7374  -1.7374  -1.6325  -1.6325
    -1.4287  -1.4287  -1.2580  -1.2580  -1.1044  -1.1044  -0.9886  -0.9886
    -0.7546  -0.7546  -0.5487  -0.5487  -0.4538  -0.4538  -0.1984  -0.1984
     0.0808   0.0808   0.4060   0.4060   1.0611   1.0611   1.4142   1.4142
     2.3151   2.3151   2.7761   2.7761   3.1166   3.1167   3.2627   3.2627
     3.5913   3.5914   3.6839   3.6841

          k =-0.0877 0.0551 0.0000 ( 34288 PWs)   bands (ev):

   -61.3447 -61.3383 -61.2591 -61.2528 -60.8470 -60.8403 -29.9447 -29.9300
   -29.8810 -29.8669 -29.7985 -29.7384 -29.7224 -29.7221 -29.6720 -29.6574
   -29.6415 -29.5954 -29.4831 -29.3772 -29.3606 -29.3502 -29.3045 -29.2941
    -4.9122  -4.5530  -3.3732  -3.1909  -2.8974  -2.7094  -2.6888  -2.6251
    -2.6058  -2.3719  -2.3712  -1.9892  -1.8196  -1.6865  -1.6696  -1.5716
    -1.4531  -1.4223  -1.2968  -1.2284  -1.2026  -1.0343  -0.9491  -0.9431
    -0.7168  -0.6891  -0.5479  -0.5024  -0.4431  -0.4144  -0.2625  -0.1306
     0.0290   0.1318   0.2684   0.5175   1.0422   1.0671   1.2225   1.4933
     2.2591   2.3836   2.7018   2.7131   2.9461   3.0398   3.1359   3.3368
     3.4195   3.5678   3.6864   3.7093

          k =-0.0877 0.0711 0.0000 ( 34265 PWs)   bands (ev):

   -61.3476 -61.3354 -61.2621 -61.2498 -60.8500 -60.8372 -29.9520 -29.9234
   -29.8875 -29.8609 -29.8561 -29.7808 -29.7470 -29.7164 -29.6656 -29.6353
   -29.6130 -29.5440 -29.5363 -29.3851 -29.3545 -29.3093 -29.2890 -29.2887
    -4.9701  -4.2596  -3.3788  -3.2349  -3.0193  -2.6969  -2.6433  -2.6229
    -2.5564  -2.4371  -2.2572  -1.9158  -1.8410  -1.7585  -1.5658  -1.5372
    -1.4341  -1.3931  -1.2766  -1.2348  -1.1219  -1.0377  -0.9105  -0.8636
    -0.6525  -0.5884  -0.5022  -0.4265  -0.3832  -0.3654  -0.2014  -0.0535
    -0.0061   0.1509   0.1894   0.5725   0.9450   1.0244   1.0947   1.4183
     2.2535   2.3042   2.4914   2.5727   2.6867   2.9405   3.0097   3.1164
     3.2773   3.4646   3.5435   3.7030

          k =-0.0877 0.0871 0.0000 ( 34233 PWs)   bands (ev):

   -61.3501 -61.3328 -61.2646 -61.2472 -60.8526 -60.8345 -29.9584 -29.9182
   -29.9065 -29.8930 -29.8545 -29.8308 -29.7553 -29.7121 -29.6731 -29.6306
   -29.5962 -29.5621 -29.4852 -29.3929 -29.3497 -29.3133 -29.2846 -29.2354
    -4.9519  -3.9120  -3.6042  -3.3095  -2.8442  -2.6965  -2.6457  -2.5406
    -2.5043  -2.4811  -2.1322  -1.9618  -1.8744  -1.8102  -1.6493  -1.4659
    -1.3102  -1.2572  -1.2282  -1.0989  -1.0705  -1.0304  -0.8249  -0.8198
    -0.6458  -0.6053  -0.4174  -0.3539  -0.2543  -0.2135  -0.0897  -0.0206
     0.0475   0.2231   0.2601   0.5749   0.7337   0.9732   1.0093   1.2781
     2.0359   2.2161   2.2279   2.4230   2.5021   2.6755   2.8319   3.0158
     3.1854   3.3500   3.4065   3.5344

          k =-0.0877 0.1031 0.0000 ( 34241 PWs)   bands (ev):

   -61.3521 -61.3308 -61.2665 -61.2452 -60.8547 -60.8324 -29.9635 -29.9452
   -29.9136 -29.8972 -29.8695 -29.8497 -29.7620 -29.7093 -29.6792 -29.6361
   -29.6272 -29.5229 -29.4459 -29.3992 -29.3465 -29.3164 -29.2811 -29.1942
    -4.8664  -3.9245  -3.5466  -3.2400  -2.7468  -2.7333  -2.6338  -2.5253
    -2.5017  -2.3492  -2.1111  -1.9419  -1.9200  -1.7504  -1.7057  -1.4536
    -1.3128  -1.1992  -1.0483  -1.0353  -1.0172  -0.9058  -0.8167  -0.7806
    -0.5651  -0.5575  -0.4367  -0.3034  -0.1671  -0.0434   0.0553   0.0759
     0.2187   0.3935   0.4035   0.5424   0.5472   0.8705   0.8829   1.1425
     1.7289   1.9828   2.1545   2.2728   2.2911   2.4313   2.5958   2.9055
     3.0435   3.1988   3.2492   3.4303

          k =-0.0877 0.1191 0.0000 ( 34235 PWs)   bands (ev):

   -61.3533 -61.3295 -61.2677 -61.2439 -60.8559 -60.8311 -29.9692 -29.9667
   -29.9112 -29.8998 -29.8936 -29.8470 -29.7665 -29.7077 -29.6832 -29.6612
   -29.6253 -29.4982 -29.4212 -29.4034 -29.3446 -29.3183 -29.2790 -29.1683
    -4.7288  -4.2035  -3.2272  -3.1764  -2.7936  -2.6958  -2.6435  -2.5436
    -2.5071  -2.1911  -2.1376  -1.9499  -1.8570  -1.7406  -1.7056  -1.5057
    -1.2795  -1.1320  -1.0912  -0.9534  -0.9194  -0.8825  -0.8233  -0.5815
    -0.5473  -0.4686  -0.3786  -0.2645  -0.2276   0.0901   0.1740   0.2783
     0.3887   0.3891   0.4960   0.5248   0.6016   0.7554   0.8128   1.0370
     1.4797   1.7884   2.0584   2.1413   2.1523   2.2449   2.3694   2.7116
     2.8340   3.0359   3.1322   3.3035

          k =-0.0877-0.0569 0.0000 ( 34280 PWs)   bands (ev):

   -61.3537 -61.3291 -61.2681 -61.2435 -60.8563 -60.8307 -29.9773 -29.9679
   -29.9103 -29.9018 -29.9007 -29.8461 -29.7681 -29.7072 -29.6846 -29.6697
   -29.6246 -29.4898 -29.4127 -29.4049 -29.3440 -29.3190 -29.2782 -29.1594
    -4.6159  -4.3633  -3.1506  -3.0787  -2.8115  -2.6931  -2.6514  -2.5715
    -2.5094  -2.1998  -2.0373  -1.9369  -1.8771  -1.7601  -1.6978  -1.5172
    -1.2766  -1.1205  -1.0734  -0.9297  -0.9038  -0.8875  -0.7922  -0.5546
    -0.4936  -0.4163  -0.3314  -0.2671  -0.2121   0.1295   0.1702   0.2776
     0.4311   0.4783   0.4847   0.5317   0.6785   0.7716   0.7902   0.9973
     1.3749   1.6916   2.0030   2.0882   2.1024   2.1730   2.2769   2.6164
     2.7209   2.9691   3.1107   3.2116

     the Fermi energy is     1.7606 ev

!    total energy              =   -1136.29032981 Ry
     estimated scf accuracy    <       0.00000185 Ry
     smearing contrib. (-TS)   =      -0.03180593 Ry
     internal energy E=F+TS    =   -1136.25852388 Ry

     The total energy is F=E-TS. E is the sum of the following terms:
     one-electron contribution =   -7729.10913039 Ry
     hartree contribution      =    3891.56557481 Ry
     xc contribution           =    -452.05485725 Ry
     ewald contribution        =    3153.33986610 Ry
     electric field correction =       0.00002285 Ry

     convergence has been achieved in  17 iterations

     negative rho (up, down):  3.153E-04 0.000E+00

     Forces acting on atoms (cartesian axes, Ry/au):

     atom    1 type  1   force =    -0.02261545   -0.01467680   -0.02016370
     atom    2 type  1   force =    -0.02260922   -0.01467547   -0.02016148
     atom    3 type  2   force =    -0.00714774   -0.00464545    0.04619558
     atom    4 type  2   force =    -0.00714791   -0.00463671    0.04619952
     atom    5 type  1   force =     0.02069614    0.01343198   -0.02494404
     atom    6 type  1   force =     0.02069284    0.01343292   -0.02493667
     atom    7 type  2   force =     0.00872555    0.00566127    0.00476768
     atom    8 type  2   force =     0.00872561    0.00566361    0.00476988
     atom    9 type  1   force =     0.00000923    0.00001060   -0.00210482
     atom   10 type  1   force =     0.00001629    0.00000341   -0.00210813
     atom   11 type  2   force =     0.00032399    0.00021994   -0.00375785
     atom   12 type  2   force =     0.00033068    0.00021070   -0.00375597

     Total force =     0.097164     Total SCF correction =     0.005758

     Writing output data file ./Hf2Ir2/Hf2Ir2_beef.save/

     init_run     :     78.96s CPU     79.45s WALL (       1 calls)
     electrons    :   2411.77s CPU   2444.63s WALL (       1 calls)
     forces       :     40.39s CPU     40.65s WALL (       1 calls)

     Called by init_run:
     wfcinit      :     64.64s CPU     64.94s WALL (       1 calls)
     potinit      :      9.57s CPU      9.64s WALL (       1 calls)
     hinit0       :      3.38s CPU      3.39s WALL (       1 calls)

     Called by electrons:
     c_bands      :   2125.41s CPU   2152.63s WALL (      17 calls)
     sum_band     :    256.69s CPU    259.61s WALL (      17 calls)
     v_of_rho     :     22.01s CPU     23.11s WALL (      18 calls)
     newd         :     14.80s CPU     16.42s WALL (      18 calls)
     mix_rho      :      0.54s CPU      0.57s WALL (      17 calls)
     vdW_kernel   :      5.77s CPU      5.77s WALL (       1 calls)

     Called by c_bands:
     init_us_2    :     10.40s CPU     10.51s WALL (    2664 calls)
     cegterg      :   2099.02s CPU   2124.36s WALL (    1258 calls)

     Called by *egterg:
     cdiaghg      :    106.86s CPU    107.14s WALL (    6806 calls)
     h_psi        :   1251.20s CPU   1272.80s WALL (    6880 calls)
     s_psi        :    352.91s CPU    353.60s WALL (    6880 calls)
     g_psi        :      1.03s CPU      1.04s WALL (    5548 calls)

     Called by h_psi:
     h_psi:calbec :    369.60s CPU    371.63s WALL (    6880 calls)
     vloc_psi     :    503.08s CPU    521.70s WALL (    6880 calls)
     add_vuspsi   :    375.05s CPU    375.96s WALL (    6880 calls)

     General routines
     calbec       :    546.47s CPU    548.97s WALL (    8434 calls)
     fft          :     13.15s CPU     13.62s WALL (    1193 calls)
     ffts         :      0.08s CPU      0.08s WALL (      35 calls)
     fftw         :    564.83s CPU    584.13s WALL (  576512 calls)
     interpolate  :      0.20s CPU      0.21s WALL (      18 calls)

     Parallel routines
     fft_scatt_xy :     37.11s CPU     37.56s WALL (  577740 calls)
     fft_scatt_yz :    196.72s CPU    212.14s WALL (  577740 calls)

     PWSCF        :  47m 4.63s CPU  50m15.72s WALL


   This run was terminated on:  14:54:13  24Jun2022            

=------------------------------------------------------------------------------=
   JOB DONE.
=------------------------------------------------------------------------------=
