
     Program PWSCF v.6.6 starts on 24Jun2022 at 15:50:31 

     This program is part of the open-source Quantum ESPRESSO suite
     for quantum simulation of materials; please cite
         "P. Giannozzi et al., J. Phys.:Condens. Matter 21 395502 (2009);
         "P. Giannozzi et al., J. Phys.:Condens. Matter 29 465901 (2017);
          URL http://www.quantum-espresso.org", 
     in publications or presentations arising from this work. More details at
     http://www.quantum-espresso.org/quote

     Parallel version (MPI), running on    37 processors

     MPI processes distributed on     1 nodes
     R & G space division:  proc/nbgrp/npool/nimage =      37
     Fft bands division:     nmany     =       1
     Reading input from Hf2Pt2.in
Warning: card &CELL ignored
Warning: card / ignored

     Current dimensions of program PWSCF are:
     Max number of different atomic species (ntypx) = 10
     Max number of k-points (npk) =  40000
     Max angular momentum in pseudopotentials (lmaxx) =  3
     Presently stress not available with electric field and gates

     Message from routine cell_base_init:
     DEPRECATED: use true lattice parameter, not A to a.u. conversion factor
     file Pt.pbe-n-rrkjus_psl.1.0.0.UPF: wavefunction(s)  6S renormalized

     **************************************************************************
     Initializing libbeef V0.1.2 with the BEEF-vdW functional.
     Citation: Wellendorff et al., PRB 85, 235149 (2012).
     **************************************************************************


     IMPORTANT: XC functional enforced from input :
     Exchange-correlation= BEEF-VDW
                           (   1   4  43  14   2   0   0)
     Any further DFT definition will be discarded
     Please, verify this is what you really want


     Subspace diagonalization in iterative solution of the eigenvalue problem:
     a serial algorithm will be used

     Found symmetry operation: I + ( -0.5000  0.5000  0.0000)
     This is a supercell, fractional translations are disabled

     Parallelization info
     --------------------
     sticks:   dense  smooth     PW     G-vecs:    dense   smooth      PW
     Min         132      52     14                30800     7782    1152
     Max         133      53     15                30815     7805    1179
     Sum        4893    1955    549              1139733   288467   43297



     bravais-lattice index     =            0
     lattice parameter (alat)  =       1.8897  a.u.
     unit-cell volume          =    5214.8082 (a.u.)^3
     number of atoms/cell      =           12
     number of atomic types    =            2
     number of electrons       =       132.00
     number of Kohn-Sham states=           79
     kinetic-energy cutoff     =      55.1240  Ry
     charge density cutoff     =     551.2396  Ry
     convergence threshold     =      1.0E-05
     mixing beta               =       0.1000
     number of iterations used =           10  plain     mixing
     Exchange-correlation= BEEF-VDW
                           (   1   4  43  14   2   0   0)

     celldm(1)=   1.889726  celldm(2)=   0.000000  celldm(3)=   0.000000
     celldm(4)=   0.000000  celldm(5)=   0.000000  celldm(6)=   0.000000

     crystal axes: (cart. coord. in units of alat)
               a(1) = (   5.776328   0.000000   0.000000 )  
               a(2) = (   2.034349   5.406237   0.000000 )  
               a(3) = (   0.000000   0.000000  24.745424 )  

     reciprocal axes: (cart. coord. in units 2 pi/alat)
               b(1) = (  0.173120 -0.065145  0.000000 )  
               b(2) = (  0.000000  0.184972  0.000000 )  
               b(3) = (  0.000000  0.000000  0.040412 )  


     PseudoPot. # 1 for Hf read from file:
     ../pseudo/Hf.pbe-spn-rrkjus_psl.1.0.0.UPF
     MD5 check sum: 9605440c6f839e558204c6a924125fd0
     Pseudo is Ultrasoft + core correction, Zval = 12.0
     Generated using "atomic" code by A. Dal Corso v.6.2.2
     Using radial grid of 1271 points,  6 beta functions with: 
                l(1) =   0
                l(2) =   0
                l(3) =   1
                l(4) =   1
                l(5) =   2
                l(6) =   2
     Q(r) pseudized with 0 coefficients 


     PseudoPot. # 2 for Pt read from file:
     ../pseudo/Pt.pbe-n-rrkjus_psl.1.0.0.UPF
     MD5 check sum: 6bc887cfe28d63a5fc1f72d35a7d3ef7
     Pseudo is Ultrasoft + core correction, Zval = 10.0
     Generated using "atomic" code by A. Dal Corso v.6.3
     Using radial grid of 1277 points,  6 beta functions with: 
                l(1) =   0
                l(2) =   0
                l(3) =   1
                l(4) =   1
                l(5) =   2
                l(6) =   2
     Q(r) pseudized with 0 coefficients 


     atomic species   valence    mass     pseudopotential
        Hf            12.00   178.49000     Hf( 1.00)
        Pt            10.00   195.08400     Pt( 1.00)

     No symmetry found



   Cartesian axes

     site n.     atom                  positions (alat units)
         1           Hf  tau(   1) = (   0.0000000   0.0000000  10.0000000  )
         2           Hf  tau(   2) = (   3.9053385   2.7031183  10.0000000  )
         3           Pt  tau(   3) = (   2.8881641   0.0000000  10.0000000  )
         4           Pt  tau(   4) = (   1.0171743   2.7031183  10.0000000  )
         5           Hf  tau(   5) = (   5.7763282   3.9981422  12.3727118  )
         6           Hf  tau(   6) = (   1.8709898   1.2950239  12.3727118  )
         7           Pt  tau(   7) = (   2.8881641   3.9981422  12.3727118  )
         8           Pt  tau(   8) = (   4.7591539   1.2950239  12.3727118  )
         9           Hf  tau(   9) = (   3.7592222   2.6019831  14.7375177  )
        10           Hf  tau(  10) = (   7.6645584   5.3050994  14.7375173  )
        11           Pt  tau(  11) = (   6.6479524   2.6023731  14.5552887  )
        12           Pt  tau(  12) = (   4.7769624   5.3054937  14.5552879  )

     number of k points=    74  Fermi-Dirac smearing, width (Ry)=  0.0100
                       cart. coord. in units 2pi/alat
        k(    1) = (   0.0000000   0.0000000   0.0000000), wk =   0.0138889
        k(    2) = (   0.0000000   0.0154143   0.0000000), wk =   0.0277778
        k(    3) = (   0.0000000   0.0308286   0.0000000), wk =   0.0277778
        k(    4) = (   0.0000000   0.0462429   0.0000000), wk =   0.0277778
        k(    5) = (   0.0000000   0.0616572   0.0000000), wk =   0.0277778
        k(    6) = (   0.0000000   0.0770715   0.0000000), wk =   0.0277778
        k(    7) = (   0.0000000  -0.0924858   0.0000000), wk =   0.0138889
        k(    8) = (   0.0144267  -0.0054287   0.0000000), wk =   0.0277778
        k(    9) = (   0.0144267   0.0099856   0.0000000), wk =   0.0277778
        k(   10) = (   0.0144267   0.0253999   0.0000000), wk =   0.0277778
        k(   11) = (   0.0144267   0.0408142   0.0000000), wk =   0.0277778
        k(   12) = (   0.0144267   0.0562285   0.0000000), wk =   0.0277778
        k(   13) = (   0.0144267   0.0716428   0.0000000), wk =   0.0277778
        k(   14) = (   0.0144267  -0.0979145   0.0000000), wk =   0.0277778
        k(   15) = (   0.0144267  -0.0825002   0.0000000), wk =   0.0277778
        k(   16) = (   0.0144267  -0.0670859   0.0000000), wk =   0.0277778
        k(   17) = (   0.0144267  -0.0516716   0.0000000), wk =   0.0277778
        k(   18) = (   0.0144267  -0.0362573   0.0000000), wk =   0.0277778
        k(   19) = (   0.0144267  -0.0208430   0.0000000), wk =   0.0277778
        k(   20) = (   0.0288534  -0.0108574   0.0000000), wk =   0.0277778
        k(   21) = (   0.0288534   0.0045569   0.0000000), wk =   0.0277778
        k(   22) = (   0.0288534   0.0199712   0.0000000), wk =   0.0277778
        k(   23) = (   0.0288534   0.0353854   0.0000000), wk =   0.0277778
        k(   24) = (   0.0288534   0.0507997   0.0000000), wk =   0.0277778
        k(   25) = (   0.0288534   0.0662140   0.0000000), wk =   0.0277778
        k(   26) = (   0.0288534  -0.1033432   0.0000000), wk =   0.0277778
        k(   27) = (   0.0288534  -0.0879289   0.0000000), wk =   0.0277778
        k(   28) = (   0.0288534  -0.0725146   0.0000000), wk =   0.0277778
        k(   29) = (   0.0288534  -0.0571003   0.0000000), wk =   0.0277778
        k(   30) = (   0.0288534  -0.0416860   0.0000000), wk =   0.0277778
        k(   31) = (   0.0288534  -0.0262717   0.0000000), wk =   0.0277778
        k(   32) = (   0.0432801  -0.0162862   0.0000000), wk =   0.0277778
        k(   33) = (   0.0432801  -0.0008719   0.0000000), wk =   0.0277778
        k(   34) = (   0.0432801   0.0145424   0.0000000), wk =   0.0277778
        k(   35) = (   0.0432801   0.0299567   0.0000000), wk =   0.0277778
        k(   36) = (   0.0432801   0.0453710   0.0000000), wk =   0.0277778
        k(   37) = (   0.0432801   0.0607853   0.0000000), wk =   0.0277778
        k(   38) = (   0.0432801  -0.1087719   0.0000000), wk =   0.0277778
        k(   39) = (   0.0432801  -0.0933576   0.0000000), wk =   0.0277778
        k(   40) = (   0.0432801  -0.0779433   0.0000000), wk =   0.0277778
        k(   41) = (   0.0432801  -0.0625290   0.0000000), wk =   0.0277778
        k(   42) = (   0.0432801  -0.0471147   0.0000000), wk =   0.0277778
        k(   43) = (   0.0432801  -0.0317004   0.0000000), wk =   0.0277778
        k(   44) = (   0.0577068  -0.0217149   0.0000000), wk =   0.0277778
        k(   45) = (   0.0577068  -0.0063006   0.0000000), wk =   0.0277778
        k(   46) = (   0.0577068   0.0091137   0.0000000), wk =   0.0277778
        k(   47) = (   0.0577068   0.0245280   0.0000000), wk =   0.0277778
        k(   48) = (   0.0577068   0.0399423   0.0000000), wk =   0.0277778
        k(   49) = (   0.0577068   0.0553566   0.0000000), wk =   0.0277778
        k(   50) = (   0.0577068  -0.1142006   0.0000000), wk =   0.0277778
        k(   51) = (   0.0577068  -0.0987863   0.0000000), wk =   0.0277778
        k(   52) = (   0.0577068  -0.0833721   0.0000000), wk =   0.0277778
        k(   53) = (   0.0577068  -0.0679578   0.0000000), wk =   0.0277778
        k(   54) = (   0.0577068  -0.0525435   0.0000000), wk =   0.0277778
        k(   55) = (   0.0577068  -0.0371292   0.0000000), wk =   0.0277778
        k(   56) = (   0.0721335  -0.0271436   0.0000000), wk =   0.0277778
        k(   57) = (   0.0721335  -0.0117293   0.0000000), wk =   0.0277778
        k(   58) = (   0.0721335   0.0036850   0.0000000), wk =   0.0277778
        k(   59) = (   0.0721335   0.0190993   0.0000000), wk =   0.0277778
        k(   60) = (   0.0721335   0.0345136   0.0000000), wk =   0.0277778
        k(   61) = (   0.0721335   0.0499279   0.0000000), wk =   0.0277778
        k(   62) = (   0.0721335  -0.1196294   0.0000000), wk =   0.0277778
        k(   63) = (   0.0721335  -0.1042151   0.0000000), wk =   0.0277778
        k(   64) = (   0.0721335  -0.0888008   0.0000000), wk =   0.0277778
        k(   65) = (   0.0721335  -0.0733865   0.0000000), wk =   0.0277778
        k(   66) = (   0.0721335  -0.0579722   0.0000000), wk =   0.0277778
        k(   67) = (   0.0721335  -0.0425579   0.0000000), wk =   0.0277778
        k(   68) = (  -0.0865602   0.0325723   0.0000000), wk =   0.0138889
        k(   69) = (  -0.0865602   0.0479866   0.0000000), wk =   0.0277778
        k(   70) = (  -0.0865602   0.0634009   0.0000000), wk =   0.0277778
        k(   71) = (  -0.0865602   0.0788152   0.0000000), wk =   0.0277778
        k(   72) = (  -0.0865602   0.0942295   0.0000000), wk =   0.0277778
        k(   73) = (  -0.0865602   0.1096438   0.0000000), wk =   0.0277778
        k(   74) = (  -0.0865602  -0.0599135   0.0000000), wk =   0.0138889

     Dense  grid:  1139733 G-vectors     FFT dimensions: (  81,  81, 360)

     Smooth grid:   288467 G-vectors     FFT dimensions: (  54,  54, 225)

     Estimated max dynamical RAM per process >     210.22 MB

     Estimated total dynamical RAM >       7.60 GB

     Initial potential from superposition of free atoms

     starting charge  131.98735, renormalised to  132.00000

     negative rho (up, down):  7.761E-04 0.000E+00


     %%%%%%%%%%%%%%%%%%%%%%%%%%%%%%%%%%%%%%%%%%%%%%%%%%%%%%%%%%%%%%%%%%%%%%%%
     %                                                                      %
     % You are using vdW-DF, which was implemented by the Thonhauser group. %
     % Please cite the following two papers that made this development      %
     % possible and the two reviews that describe the various versions:     %
     %                                                                      %
     %   T. Thonhauser et al., PRL 115, 136402 (2015).                      %
     %   T. Thonhauser et al., PRB 76, 125112 (2007).                       %
     %   K. Berland et al., Rep. Prog. Phys. 78, 066501 (2015).             %
     %   D.C. Langreth et al., J. Phys.: Condens. Matter 21, 084203 (2009). %
     %                                                                      %
     %                                                                      %
     % If you are calculating the stress with vdW-DF, please also cite:     %
     %                                                                      %
     %   R. Sabatini et al., J. Phys.: Condens. Matter 24, 424209 (2012).   %
     %                                                                      %
     %%%%%%%%%%%%%%%%%%%%%%%%%%%%%%%%%%%%%%%%%%%%%%%%%%%%%%%%%%%%%%%%%%%%%%%%



     Adding external electric field

     Computed dipole along edir(3) : 
        Dipole                0.0005 Ry au,          0.0014 Debye
        Dipole field          0.0000 Ry au, 

        Potential amp.       -0.0001 Ry
        Total length         45.5930 bohr

     Starting wfcs are  114 randomized atomic wfcs

     total cpu time spent up to now is      111.0 secs

     Self-consistent Calculation

     iteration #  1     ecut=    55.12 Ry     beta= 0.10
     Davidson diagonalization with overlap
     ethr =  1.00E-02,  avg # of iterations =  2.0

     Threshold (ethr) on eigenvalues was too large:
     Diagonalizing with lowered threshold

     Davidson diagonalization with overlap
     ethr =  7.41E-04,  avg # of iterations =  4.2

     negative rho (up, down):  7.442E-04 0.000E+00

     Adding external electric field

     Computed dipole along edir(3) : 
        Dipole                0.1216 Ry au,          0.3090 Debye
        Dipole field          0.0003 Ry au, 

        Potential amp.       -0.0267 Ry
        Total length         45.5930 bohr


     total cpu time spent up to now is      480.5 secs

     total energy              =   -1154.75608459 Ry
     estimated scf accuracy    <       1.26336404 Ry

     iteration #  2     ecut=    55.12 Ry     beta= 0.10
     Davidson diagonalization with overlap
     ethr =  9.57E-04,  avg # of iterations =  2.1

     negative rho (up, down):  7.136E-04 0.000E+00

     Adding external electric field

     Computed dipole along edir(3) : 
        Dipole               -0.1595 Ry au,         -0.4055 Debye
        Dipole field         -0.0004 Ry au, 

        Potential amp.        0.0351 Ry
        Total length         45.5930 bohr


     total cpu time spent up to now is      617.9 secs

     total energy              =   -1154.78895902 Ry
     estimated scf accuracy    <       0.48306970 Ry

     iteration #  3     ecut=    55.12 Ry     beta= 0.10
     Davidson diagonalization with overlap
     ethr =  3.66E-04,  avg # of iterations =  3.4

     negative rho (up, down):  6.975E-04 0.000E+00

     Adding external electric field

     Computed dipole along edir(3) : 
        Dipole                0.1007 Ry au,          0.2558 Debye
        Dipole field          0.0002 Ry au, 

        Potential amp.       -0.0221 Ry
        Total length         45.5930 bohr


     total cpu time spent up to now is      747.5 secs

     total energy              =   -1154.78055820 Ry
     estimated scf accuracy    <       1.07584512 Ry

     iteration #  4     ecut=    55.12 Ry     beta= 0.10
     Davidson diagonalization with overlap
     ethr =  3.66E-04,  avg # of iterations =  1.6

     negative rho (up, down):  6.613E-04 0.000E+00

     Adding external electric field

     Computed dipole along edir(3) : 
        Dipole                0.0998 Ry au,          0.2536 Debye
        Dipole field          0.0002 Ry au, 

        Potential amp.       -0.0219 Ry
        Total length         45.5930 bohr


     total cpu time spent up to now is      932.2 secs

     total energy              =   -1154.75009629 Ry
     estimated scf accuracy    <       0.25332292 Ry

     iteration #  5     ecut=    55.12 Ry     beta= 0.10
     Davidson diagonalization with overlap
     ethr =  1.92E-04,  avg # of iterations =  2.0

     negative rho (up, down):  6.773E-04 0.000E+00

     Adding external electric field

     Computed dipole along edir(3) : 
        Dipole                0.0813 Ry au,          0.2067 Debye
        Dipole field          0.0002 Ry au, 

        Potential amp.       -0.0179 Ry
        Total length         45.5930 bohr


     total cpu time spent up to now is     1060.5 secs

     total energy              =   -1154.74797790 Ry
     estimated scf accuracy    <       0.08500680 Ry

     iteration #  6     ecut=    55.12 Ry     beta= 0.10
     Davidson diagonalization with overlap
     c_bands:  1 eigenvalues not converged
     ethr =  6.44E-05,  avg # of iterations =  8.6

     negative rho (up, down):  6.382E-04 0.000E+00

     Adding external electric field

     Computed dipole along edir(3) : 
        Dipole                0.0737 Ry au,          0.1873 Debye
        Dipole field          0.0002 Ry au, 

        Potential amp.       -0.0162 Ry
        Total length         45.5930 bohr


     total cpu time spent up to now is     1296.7 secs

     total energy              =   -1154.75710037 Ry
     estimated scf accuracy    <       0.09251080 Ry

     iteration #  7     ecut=    55.12 Ry     beta= 0.10
     Davidson diagonalization with overlap
     ethr =  6.44E-05,  avg # of iterations =  2.0

     negative rho (up, down):  6.387E-04 0.000E+00

     Adding external electric field

     Computed dipole along edir(3) : 
        Dipole                0.0715 Ry au,          0.1816 Debye
        Dipole field          0.0002 Ry au, 

        Potential amp.       -0.0157 Ry
        Total length         45.5930 bohr


     total cpu time spent up to now is     1426.2 secs

     total energy              =   -1154.76255825 Ry
     estimated scf accuracy    <       0.01204675 Ry

     iteration #  8     ecut=    55.12 Ry     beta= 0.10
     Davidson diagonalization with overlap
     c_bands:  1 eigenvalues not converged
     c_bands:  1 eigenvalues not converged
     c_bands:  1 eigenvalues not converged
     c_bands:  1 eigenvalues not converged
     c_bands:  1 eigenvalues not converged
     c_bands:  1 eigenvalues not converged
     c_bands:  1 eigenvalues not converged
     c_bands:  1 eigenvalues not converged
     c_bands:  1 eigenvalues not converged
     c_bands:  2 eigenvalues not converged
     c_bands:  1 eigenvalues not converged
     c_bands:  1 eigenvalues not converged
     c_bands:  2 eigenvalues not converged
     c_bands:  2 eigenvalues not converged
     c_bands:  1 eigenvalues not converged
     ethr =  9.13E-06,  avg # of iterations = 11.3

     negative rho (up, down):  6.259E-04 0.000E+00

     Adding external electric field

     Computed dipole along edir(3) : 
        Dipole                0.0719 Ry au,          0.1829 Debye
        Dipole field          0.0002 Ry au, 

        Potential amp.       -0.0158 Ry
        Total length         45.5930 bohr


     total cpu time spent up to now is     1636.7 secs

     total energy              =   -1154.76390030 Ry
     estimated scf accuracy    <       0.00905268 Ry

     iteration #  9     ecut=    55.12 Ry     beta= 0.10
     Davidson diagonalization with overlap
     c_bands:  1 eigenvalues not converged
     c_bands:  1 eigenvalues not converged
     c_bands:  1 eigenvalues not converged
     c_bands:  1 eigenvalues not converged
     c_bands:  1 eigenvalues not converged
     c_bands:  3 eigenvalues not converged
     c_bands:  1 eigenvalues not converged
     ethr =  6.86E-06,  avg # of iterations =  9.6

     negative rho (up, down):  6.105E-04 0.000E+00

     Adding external electric field

     Computed dipole along edir(3) : 
        Dipole                0.0598 Ry au,          0.1519 Debye
        Dipole field          0.0001 Ry au, 

        Potential amp.       -0.0131 Ry
        Total length         45.5930 bohr


     total cpu time spent up to now is     1799.1 secs

     total energy              =   -1154.76400163 Ry
     estimated scf accuracy    <       0.00559257 Ry

     iteration # 10     ecut=    55.12 Ry     beta= 0.10
     Davidson diagonalization with overlap
     c_bands:  2 eigenvalues not converged
     c_bands:  1 eigenvalues not converged
     ethr =  4.24E-06,  avg # of iterations =  5.3

     negative rho (up, down):  6.145E-04 0.000E+00

     Adding external electric field

     Computed dipole along edir(3) : 
        Dipole                0.0674 Ry au,          0.1713 Debye
        Dipole field          0.0002 Ry au, 

        Potential amp.       -0.0148 Ry
        Total length         45.5930 bohr


     total cpu time spent up to now is     1970.6 secs

     total energy              =   -1154.76517359 Ry
     estimated scf accuracy    <       0.00202051 Ry

     iteration # 11     ecut=    55.12 Ry     beta= 0.10
     Davidson diagonalization with overlap
     c_bands:  1 eigenvalues not converged
     c_bands:  1 eigenvalues not converged
     ethr =  1.53E-06,  avg # of iterations =  2.6

     negative rho (up, down):  6.028E-04 0.000E+00

     Adding external electric field

     Computed dipole along edir(3) : 
        Dipole                0.0703 Ry au,          0.1787 Debye
        Dipole field          0.0002 Ry au, 

        Potential amp.       -0.0154 Ry
        Total length         45.5930 bohr


     total cpu time spent up to now is     2167.1 secs

     total energy              =   -1154.76526937 Ry
     estimated scf accuracy    <       0.00035346 Ry

     iteration # 12     ecut=    55.12 Ry     beta= 0.10
     Davidson diagonalization with overlap
     c_bands:  1 eigenvalues not converged
     c_bands:  1 eigenvalues not converged
     c_bands:  1 eigenvalues not converged
     c_bands:  2 eigenvalues not converged
     c_bands:  1 eigenvalues not converged
     ethr =  2.68E-07,  avg # of iterations =  7.8

     negative rho (up, down):  5.909E-04 0.000E+00

     Adding external electric field

     Computed dipole along edir(3) : 
        Dipole                0.0671 Ry au,          0.1706 Debye
        Dipole field          0.0002 Ry au, 

        Potential amp.       -0.0147 Ry
        Total length         45.5930 bohr


     total cpu time spent up to now is     2358.2 secs

     total energy              =   -1154.76533352 Ry
     estimated scf accuracy    <       0.00025235 Ry

     iteration # 13     ecut=    55.12 Ry     beta= 0.10
     Davidson diagonalization with overlap
     c_bands:  1 eigenvalues not converged
     ethr =  1.91E-07,  avg # of iterations =  2.8

     negative rho (up, down):  5.813E-04 0.000E+00

     Adding external electric field

     Computed dipole along edir(3) : 
        Dipole                0.0684 Ry au,          0.1739 Debye
        Dipole field          0.0002 Ry au, 

        Potential amp.       -0.0150 Ry
        Total length         45.5930 bohr


     total cpu time spent up to now is     2493.0 secs

     total energy              =   -1154.76536297 Ry
     estimated scf accuracy    <       0.00002555 Ry

     iteration # 14     ecut=    55.12 Ry     beta= 0.10
     Davidson diagonalization with overlap
     ethr =  1.94E-08,  avg # of iterations =  7.9

     negative rho (up, down):  5.729E-04 0.000E+00

     Adding external electric field

     Computed dipole along edir(3) : 
        Dipole                0.0681 Ry au,          0.1730 Debye
        Dipole field          0.0002 Ry au, 

        Potential amp.       -0.0150 Ry
        Total length         45.5930 bohr


     total cpu time spent up to now is     2697.8 secs

     total energy              =   -1154.76536986 Ry
     estimated scf accuracy    <       0.00002783 Ry

     iteration # 15     ecut=    55.12 Ry     beta= 0.10
     Davidson diagonalization with overlap
     ethr =  1.94E-08,  avg # of iterations =  2.6

     negative rho (up, down):  5.656E-04 0.000E+00

     Adding external electric field

     Computed dipole along edir(3) : 
        Dipole                0.0676 Ry au,          0.1717 Debye
        Dipole field          0.0002 Ry au, 

        Potential amp.       -0.0148 Ry
        Total length         45.5930 bohr


     total cpu time spent up to now is     2832.1 secs

     total energy              =   -1154.76536906 Ry
     estimated scf accuracy    <       0.00001754 Ry

     iteration # 16     ecut=    55.12 Ry     beta= 0.10
     Davidson diagonalization with overlap
     ethr =  1.33E-08,  avg # of iterations =  2.5

     negative rho (up, down):  5.291E-04 0.000E+00

     Adding external electric field

     Computed dipole along edir(3) : 
        Dipole                0.0605 Ry au,          0.1538 Debye
        Dipole field          0.0001 Ry au, 

        Potential amp.       -0.0133 Ry
        Total length         45.5930 bohr


     total cpu time spent up to now is     2963.4 secs

     End of self-consistent calculation

          k = 0.0000 0.0000 0.0000 ( 36033 PWs)   bands (ev):

   -61.8571 -61.8458 -61.7944 -61.7831 -61.4854 -61.4737 -30.4056 -30.3812
   -30.3336 -30.3080 -30.3024 -30.2680 -30.2472 -30.2406 -30.2087 -30.1866
   -30.1177 -30.0311 -29.9697 -29.9448 -29.9224 -29.9135 -29.8876 -29.8298
    -6.6073  -4.8761  -4.2385  -3.9985  -3.9496  -3.8769  -3.8520  -3.7978
    -3.5905  -3.5393  -3.2097  -3.0115  -2.9239  -2.6252  -2.5800  -2.4334
    -2.3644  -2.2899  -2.1566  -2.1393  -2.0701  -1.9427  -1.8574  -1.5582
    -1.5394  -1.5015  -1.4399  -1.2615  -0.8981  -0.7248  -0.6670  -0.3874
    -0.3608   0.3465   0.3501   0.4474   0.7078   1.2212   1.5471   1.8146
     1.8841   1.9184   2.2221   2.3276   2.3330   2.4113   2.6265   2.6930
     2.7273   2.9588   3.2936   3.5212   3.6912   3.7461   3.7981

          k = 0.0000 0.0154 0.0000 ( 36003 PWs)   bands (ev):

   -61.8569 -61.8460 -61.7942 -61.7833 -61.4852 -61.4739 -30.4052 -30.3816
   -30.3333 -30.3086 -30.2980 -30.2678 -30.2478 -30.2362 -30.2087 -30.1874
   -30.1130 -30.0359 -29.9745 -29.9443 -29.9219 -29.9143 -29.8883 -29.8350
    -6.5565  -4.8269  -4.1913  -4.0008  -3.9243  -3.8446  -3.8280  -3.7737
    -3.5630  -3.5195  -3.1864  -2.9777  -2.9002  -2.6086  -2.5626  -2.4312
    -2.3517  -2.2780  -2.1620  -2.1480  -2.0515  -1.9404  -1.8556  -1.5785
    -1.5574  -1.4987  -1.4702  -1.2461  -0.9213  -0.7353  -0.6843  -0.3949
    -0.3864  -0.1323   0.1849   0.4799   0.8332   1.4772   1.5134   1.8060
     1.8304   1.8703   2.1867   2.3287   2.3626   2.4378   2.5605   2.6224
     2.7256   2.9546   3.1623   3.3897   3.5863   3.7893   3.8894

          k = 0.0000 0.0308 0.0000 ( 36011 PWs)   bands (ev):

   -61.8563 -61.8465 -61.7936 -61.7838 -61.4846 -61.4745 -30.4041 -30.3830
   -30.3324 -30.3102 -30.2852 -30.2671 -30.2492 -30.2234 -30.2089 -30.1896
   -30.0993 -30.0502 -29.9889 -29.9430 -29.9205 -29.9163 -29.8901 -29.8501
    -6.4065  -4.6841  -4.0546  -4.0496  -3.8262  -3.7701  -3.7490  -3.6920
    -3.4889  -3.4564  -3.1396  -2.8785  -2.8139  -2.5598  -2.5131  -2.4269
    -2.3169  -2.2420  -2.2018  -2.1513  -2.0208  -1.9111  -1.8523  -1.6311
    -1.6310  -1.5325  -1.4696  -1.2380  -0.9801  -0.8095  -0.7637  -0.6108
    -0.4547  -0.3782  -0.2525   0.1351   1.2129   1.2696   1.5563   1.7399
     1.8653   1.8687   2.1480   2.2680   2.3129   2.4273   2.4868   2.6151
     2.7188   2.9310   2.9365   3.1782   3.5557   3.6309   3.7717

          k = 0.0000 0.0462 0.0000 ( 36033 PWs)   bands (ev):

   -61.8554 -61.8474 -61.7927 -61.7847 -61.4837 -61.4754 -30.4023 -30.3850
   -30.3308 -30.3127 -30.2660 -30.2648 -30.2512 -30.2088 -30.2032 -30.1927
   -30.0774 -30.0728 -30.0114 -29.9410 -29.9194 -29.9182 -29.8931 -29.8740
    -6.1655  -4.4637  -4.1694  -3.8454  -3.7326  -3.6432  -3.5938  -3.5572
    -3.3977  -3.3358  -3.1019  -2.7209  -2.6706  -2.4741  -2.4431  -2.4256
    -2.2692  -2.2657  -2.1842  -2.1602  -2.0156  -1.8520  -1.8217  -1.7357
    -1.6863  -1.5993  -1.4527  -1.2671  -1.2303  -1.0523  -0.8657  -0.8007
    -0.6813  -0.5744  -0.3496  -0.1878   0.9488   1.1880   1.4956   1.5744
     1.7807   1.8821   2.1347   2.1359   2.3027   2.3964   2.5348   2.7132
     2.7436   2.7712   2.9048   2.9971   3.4132   3.5078   3.5576

          k = 0.0000 0.0617 0.0000 ( 36007 PWs)   bands (ev):

   -61.8542 -61.8485 -61.7915 -61.7858 -61.4824 -61.4766 -30.3999 -30.3877
   -30.3287 -30.3158 -30.2644 -30.2545 -30.2371 -30.2081 -30.1971 -30.1756
   -30.1019 -30.0486 -30.0405 -29.9384 -29.9233 -29.9150 -29.9045 -29.8969
    -5.8476  -4.3851  -4.1979  -3.6835  -3.6025  -3.4632  -3.3960  -3.3856
    -3.2954  -3.1767  -3.0746  -2.5638  -2.5200  -2.4333  -2.3910  -2.3388
    -2.3339  -2.2256  -2.1797  -2.1123  -1.9965  -1.8818  -1.8134  -1.7348
    -1.6936  -1.6799  -1.6041  -1.4872  -1.3106  -1.2849  -1.1336  -0.9882
    -0.8337  -0.6987  -0.3978  -0.2963   0.5919   0.9231   1.2539   1.3815
     1.7835   1.8341   1.9840   2.1340   2.3355   2.4609   2.5897   2.6667
     2.7248   2.8557   2.8566   2.8815   3.1708   3.3034   3.4176

          k = 0.0000 0.0771 0.0000 ( 36011 PWs)   bands (ev):

   -61.8528 -61.8499 -61.7901 -61.7872 -61.4810 -61.4780 -30.3970 -30.3907
   -30.3259 -30.3193 -30.2623 -30.2572 -30.2066 -30.2053 -30.2009 -30.1438
   -30.1353 -30.0739 -30.0148 -29.9414 -29.9341 -29.9273 -29.9106 -29.9014
    -5.4744  -4.6985  -3.9408  -3.6790  -3.3903  -3.3201  -3.2487  -3.2416
    -3.1112  -3.0523  -3.0005  -2.5532  -2.4581  -2.4020  -2.3858  -2.3111
    -2.2886  -2.1928  -2.1742  -2.0490  -1.9712  -1.9388  -1.8809  -1.8182
    -1.7658  -1.6884  -1.5875  -1.5621  -1.5402  -1.3709  -1.3361  -1.2286
    -0.8495  -0.7343  -0.5145  -0.2899   0.3718   0.8192   0.8455   1.1532
     1.7745   1.8546   1.9196   2.1170   2.3942   2.4319   2.6107   2.6177
     2.7075   2.8083   2.8289   2.8884   3.0256   3.1840   3.3186

          k = 0.0000-0.0925 0.0000 ( 36056 PWs)   bands (ev):

   -61.8514 -61.8514 -61.7887 -61.7887 -61.4795 -61.4795 -30.3939 -30.3939
   -30.3228 -30.3228 -30.2599 -30.2599 -30.2042 -30.2042 -30.1706 -30.1706
   -30.1092 -30.1091 -29.9780 -29.9779 -29.9313 -29.9313 -29.9061 -29.9060
    -5.0774  -5.0774  -3.7574  -3.7574  -3.2757  -3.2757  -3.2068  -3.2068
    -3.0257  -3.0257  -2.7314  -2.7314  -2.4675  -2.4675  -2.3610  -2.3610
    -2.1923  -2.1923  -2.0625  -2.0625  -1.9795  -1.9795  -1.8651  -1.8651
    -1.7919  -1.7919  -1.6084  -1.6084  -1.4705  -1.4705  -1.3362  -1.3362
    -0.8185  -0.8185  -0.4289  -0.4289   0.4869   0.4869   0.9405   0.9405
     1.7791   1.7791   2.0415   2.0415   2.4020   2.4020   2.5913   2.5913
     2.7417   2.7417   2.8571   2.8571   3.1138   3.1139   3.2322

          k = 0.0144-0.0054 0.0000 ( 36003 PWs)   bands (ev):

   -61.8569 -61.8460 -61.7942 -61.7833 -61.4852 -61.4739 -30.4052 -30.3816
   -30.3333 -30.3086 -30.2980 -30.2678 -30.2478 -30.2362 -30.2087 -30.1874
   -30.1130 -30.0359 -29.9745 -29.9443 -29.9219 -29.9143 -29.8883 -29.8350
    -6.5565  -4.8269  -4.1913  -4.0008  -3.9244  -3.8446  -3.8280  -3.7737
    -3.5630  -3.5195  -3.1864  -2.9777  -2.9002  -2.6086  -2.5626  -2.4312
    -2.3517  -2.2780  -2.1620  -2.1480  -2.0515  -1.9404  -1.8556  -1.5785
    -1.5574  -1.4987  -1.4702  -1.2461  -0.9213  -0.7353  -0.6843  -0.3949
    -0.3864  -0.1323   0.1849   0.4799   0.8332   1.4772   1.5134   1.8060
     1.8304   1.8703   2.1867   2.3287   2.3626   2.4378   2.5605   2.6224
     2.7256   2.9546   3.1623   3.3897   3.5863   3.7903   3.8889

          k = 0.0144 0.0100 0.0000 ( 36009 PWs)   bands (ev):

   -61.8571 -61.8458 -61.7944 -61.7831 -61.4854 -61.4737 -30.4059 -30.3809
   -30.3342 -30.3083 -30.3029 -30.2685 -30.2466 -30.2411 -30.2102 -30.1871
   -30.1180 -30.0312 -29.9698 -29.9447 -29.9223 -29.9140 -29.8883 -29.8301
    -6.5401  -4.8117  -4.1814  -3.9757  -3.9130  -3.8658  -3.8122  -3.7511
    -3.5659  -3.5112  -3.1742  -2.9864  -2.9033  -2.5844  -2.5726  -2.3934
    -2.3580  -2.2736  -2.1694  -2.1312  -2.0433  -1.9383  -1.8190  -1.5631
    -1.5187  -1.5096  -1.4458  -1.2662  -0.8950  -0.7668  -0.6584  -0.3810
    -0.3795   0.2400   0.3442   0.4476   0.7013   1.1550   1.2623   1.7487
     1.7582   1.8759   2.1185   2.1354   2.2762   2.4851   2.5280   2.5957
     2.7602   2.8462   3.0388   3.5533   3.7161   3.7699   3.8534

          k = 0.0144 0.0254 0.0000 ( 36028 PWs)   bands (ev):

   -61.8569 -61.8460 -61.7942 -61.7833 -61.4852 -61.4739 -30.4058 -30.3812
   -30.3344 -30.3091 -30.2990 -30.2688 -30.2467 -30.2373 -30.2116 -30.1883
   -30.1136 -30.0362 -29.9748 -29.9442 -29.9215 -29.9151 -29.8895 -29.8355
    -6.4238  -4.7017  -4.0806  -3.9952  -3.8252  -3.8235  -3.7548  -3.6774
    -3.5140  -3.4652  -3.1315  -2.9290  -2.8505  -2.5499  -2.5270  -2.3549
    -2.3383  -2.2455  -2.1839  -2.1358  -2.0145  -1.9203  -1.7839  -1.5832
    -1.5630  -1.4911  -1.4635  -1.2570  -0.9167  -0.8144  -0.6685  -0.4382
    -0.3651  -0.2291   0.1497   0.4488   0.7591   0.9877   1.3525   1.5921
     1.5937   1.8833   1.9821   2.0762   2.2207   2.3560   2.5061   2.5209
     2.7105   2.8025   2.8460   3.4286   3.6559   3.6959   3.9167

          k = 0.0144 0.0408 0.0000 ( 36036 PWs)   bands (ev):

   -61.8563 -61.8465 -61.7936 -61.7838 -61.4846 -61.4745 -30.4049 -30.3824
   -30.3337 -30.3107 -30.2865 -30.2688 -30.2478 -30.2248 -30.2125 -30.1906
   -30.1001 -30.0505 -29.9891 -29.9431 -29.9197 -29.9174 -29.8919 -29.8507
    -6.2142  -4.5098  -4.0864  -3.8997  -3.7283  -3.7152  -3.6305  -3.5537
    -3.4141  -3.3850  -3.0955  -2.8106  -2.7379  -2.5000  -2.4357  -2.3267
    -2.2960  -2.2105  -2.1942  -2.1614  -2.0123  -1.8438  -1.7624  -1.6488
    -1.6189  -1.5528  -1.4300  -1.2586  -0.9820  -0.8630  -0.8629  -0.6586
    -0.4972  -0.3307  -0.2966   0.0458   0.6651   1.0867   1.3395   1.3892
     1.5057   1.8892   1.8940   2.0503   2.1916   2.2117   2.4651   2.5128
     2.6317   2.7046   2.7745   3.2438   3.4894   3.6114   3.6181

          k = 0.0144 0.0562 0.0000 ( 36012 PWs)   bands (ev):

   -61.8553 -61.8474 -61.7926 -61.7847 -61.4836 -61.4754 -30.4033 -30.3843
   -30.3321 -30.3130 -30.2683 -30.2663 -30.2495 -30.2125 -30.2048 -30.1932
   -30.0782 -30.0729 -30.0115 -29.9413 -29.9206 -29.9168 -29.8952 -29.8745
    -5.9230  -4.2638  -4.2623  -3.6605  -3.6487  -3.5864  -3.4431  -3.4038
    -3.3060  -3.2526  -3.0639  -2.6439  -2.6328  -2.4487  -2.3240  -2.3163
    -2.2562  -2.2359  -2.1945  -2.1238  -2.0114  -1.8005  -1.7346  -1.7106
    -1.6282  -1.6279  -1.4322  -1.3143  -1.2978  -1.0728  -0.9492  -0.8947
    -0.7081  -0.5624  -0.3392  -0.2861   0.3487   1.1129   1.1433   1.1667
     1.4555   1.7917   1.9043   2.0614   2.1989   2.2533   2.4690   2.4850
     2.5721   2.6962   2.7571   3.0801   3.2231   3.3480   3.4936

          k = 0.0144 0.0716 0.0000 ( 36044 PWs)   bands (ev):

   -61.8542 -61.8486 -61.7915 -61.7859 -61.4824 -61.4766 -30.4010 -30.3868
   -30.3297 -30.3158 -30.2671 -30.2530 -30.2382 -30.2114 -30.1972 -30.1769
   -30.1017 -30.0494 -30.0403 -29.9388 -29.9242 -29.9131 -29.9048 -29.8992
    -5.5684  -4.5410  -4.0035  -3.6156  -3.4515  -3.3761  -3.2961  -3.2491
    -3.2136  -3.0795  -3.0222  -2.5900  -2.4610  -2.4360  -2.3589  -2.2791
    -2.2274  -2.2221  -2.1971  -2.0497  -1.9690  -1.9010  -1.7575  -1.7230
    -1.6829  -1.6271  -1.5204  -1.4939  -1.3839  -1.3657  -1.1764  -1.0928
    -0.9056  -0.7012  -0.4195  -0.3614   0.2411   0.7965   0.8729   1.0577
     1.6449   1.6894   1.9060   2.1139   2.2477   2.3364   2.4204   2.4636
     2.5405   2.7746   2.7852   2.9704   3.0322   3.1927   3.3807

          k = 0.0144-0.0979 0.0000 ( 36059 PWs)   bands (ev):

   -61.8528 -61.8499 -61.7901 -61.7872 -61.4810 -61.4780 -30.3982 -30.3898
   -30.3265 -30.3188 -30.2653 -30.2556 -30.2089 -30.2064 -30.1998 -30.1450
   -30.1348 -30.0734 -30.0152 -29.9416 -29.9341 -29.9280 -29.9084 -29.9036
    -5.1768  -4.8988  -3.7940  -3.6530  -3.3508  -3.2309  -3.2008  -3.1779
    -3.1163  -2.9618  -2.8770  -2.6140  -2.4745  -2.4067  -2.3423  -2.3351
    -2.2449  -2.1514  -2.1369  -2.0276  -2.0011  -1.9322  -1.8758  -1.8472
    -1.7346  -1.7162  -1.5795  -1.5761  -1.4653  -1.4462  -1.3565  -1.2961
    -0.8751  -0.7887  -0.5658  -0.3390   0.4462   0.5158   0.6337   1.1225
     1.6416   1.8258   1.9286   2.1635   2.2752   2.3672   2.3892   2.5429
     2.6005   2.8165   2.8717   2.9108   3.0780   3.1669   3.1709

          k = 0.0144-0.0825 0.0000 ( 36024 PWs)   bands (ev):

   -61.8514 -61.8513 -61.7887 -61.7886 -61.4795 -61.4795 -30.3950 -30.3930
   -30.3228 -30.3218 -30.2628 -30.2584 -30.2053 -30.2021 -30.1714 -30.1699
   -30.1100 -30.1083 -29.9781 -29.9777 -29.9317 -29.9312 -29.9081 -29.9038
    -5.2937  -4.7849  -3.7995  -3.6801  -3.3788  -3.2995  -3.2324  -3.1944
    -3.0292  -2.9575  -2.8029  -2.6212  -2.5257  -2.4508  -2.4232  -2.2524
    -2.2144  -2.1490  -2.0836  -2.0784  -2.0026  -1.9532  -1.9044  -1.9010
    -1.8211  -1.8014  -1.6730  -1.6255  -1.5674  -1.4014  -1.3827  -1.2710
    -0.8184  -0.8124  -0.6100  -0.2798   0.4968   0.5013   0.8103   1.2495
     1.7176   1.9505   1.9984   2.1010   2.3395   2.4671   2.4888   2.7073
     2.7263   2.7793   2.8831   2.9766   3.0031   3.2199   3.3452

          k = 0.0144-0.0671 0.0000 ( 36022 PWs)   bands (ev):

   -61.8529 -61.8499 -61.7902 -61.7872 -61.4810 -61.4780 -30.3962 -30.3917
   -30.3247 -30.3190 -30.2611 -30.2598 -30.2045 -30.2038 -30.2010 -30.1429
   -30.1357 -30.0744 -30.0143 -29.9408 -29.9348 -29.9270 -29.9122 -29.8993
    -5.6797  -4.4397  -4.0448  -3.6578  -3.5148  -3.4807  -3.3654  -3.2668
    -3.1180  -3.0699  -3.0099  -2.5241  -2.4902  -2.4356  -2.4170  -2.3435
    -2.2752  -2.1898  -2.1245  -2.0975  -1.9721  -1.9579  -1.9164  -1.9092
    -1.8040  -1.7127  -1.6784  -1.5734  -1.5320  -1.3435  -1.2967  -1.1749
    -0.8160  -0.7918  -0.4202  -0.3268   0.5518   0.7776   1.2595   1.3643
     1.9035   1.9975   2.0076   2.1468   2.4475   2.4845   2.6258   2.7477
     2.7700   2.7846   2.9314   3.0591   3.1188   3.2536   3.4320

          k = 0.0144-0.0517 0.0000 ( 35979 PWs)   bands (ev):

   -61.8542 -61.8485 -61.7915 -61.7858 -61.4824 -61.4766 -30.3992 -30.3885
   -30.3273 -30.3153 -30.2634 -30.2564 -30.2364 -30.2051 -30.1965 -30.1747
   -30.1020 -30.0481 -30.0407 -29.9385 -29.9227 -29.9159 -29.9045 -29.8952
    -6.0202  -4.3233  -4.1850  -3.7149  -3.7078  -3.6698  -3.5276  -3.4039
    -3.3546  -3.2300  -3.0296  -2.5877  -2.5766  -2.5070  -2.4940  -2.3614
    -2.3578  -2.2318  -2.1474  -2.1192  -1.9936  -1.9349  -1.8318  -1.8155
    -1.7660  -1.6318  -1.6029  -1.5053  -1.3241  -1.2317  -1.0954  -0.9311
    -0.7750  -0.7603  -0.3769  -0.2505   0.8338   1.1658   1.4884   1.6853
     1.9575   1.9778   2.0659   2.3008   2.4143   2.5422   2.6448   2.7171
     2.7368   2.7651   3.0507   3.1251   3.2797   3.2939   3.5673

          k = 0.0144-0.0363 0.0000 ( 35981 PWs)   bands (ev):

   -61.8554 -61.8474 -61.7927 -61.7847 -61.4837 -61.4754 -30.4017 -30.3855
   -30.3297 -30.3122 -30.2652 -30.2638 -30.2528 -30.2062 -30.2021 -30.1923
   -30.0770 -30.0728 -30.0114 -29.9411 -29.9188 -29.9187 -29.8919 -29.8737
    -6.2897  -4.5696  -4.0363  -3.9409  -3.8489  -3.7312  -3.6718  -3.6125
    -3.4456  -3.3772  -3.0772  -2.7659  -2.7585  -2.5567  -2.4881  -2.4464
    -2.2794  -2.2791  -2.2092  -2.1227  -1.9867  -1.9145  -1.9137  -1.7230
    -1.7078  -1.5652  -1.4904  -1.2711  -1.1895  -1.0365  -0.8216  -0.7355
    -0.7083  -0.5492  -0.3952  -0.1026   1.2499   1.5006   1.6121   1.6358
     1.9333   2.0896   2.2382   2.4107   2.4177   2.5012   2.5389   2.6779
     2.6836   2.8099   3.0504   3.1676   3.3506   3.5107   3.6515

          k = 0.0144-0.0208 0.0000 ( 36009 PWs)   bands (ev):

   -61.8563 -61.8465 -61.7936 -61.7838 -61.4846 -61.4745 -30.4038 -30.3832
   -30.3317 -30.3099 -30.2847 -30.2667 -30.2499 -30.2229 -30.2074 -30.1892
   -30.0991 -30.0501 -29.9888 -29.9431 -29.9207 -29.9159 -29.8895 -29.8499
    -6.4717  -4.7440  -4.1082  -3.9880  -3.9278  -3.7905  -3.7599  -3.7543
    -3.5147  -3.4802  -3.1447  -2.9028  -2.8583  -2.5987  -2.5190  -2.4631
    -2.3224  -2.2568  -2.2077  -2.1365  -2.0195  -1.9444  -1.8879  -1.6320
    -1.6228  -1.5172  -1.4968  -1.2343  -0.9783  -0.8029  -0.7254  -0.5881
    -0.4395  -0.3934  -0.2332   0.1598   1.2647   1.6031   1.6474   1.7640
     1.9161   1.9969   2.1154   2.3882   2.4544   2.4713   2.5908   2.6390
     2.6785   2.9791   3.0752   3.1877   3.4226   3.6838   3.8132

          k = 0.0289-0.0109 0.0000 ( 36011 PWs)   bands (ev):

   -61.8563 -61.8465 -61.7936 -61.7838 -61.4846 -61.4745 -30.4041 -30.3830
   -30.3324 -30.3102 -30.2852 -30.2671 -30.2492 -30.2234 -30.2089 -30.1896
   -30.0993 -30.0502 -29.9889 -29.9430 -29.9205 -29.9163 -29.8901 -29.8501
    -6.4065  -4.6841  -4.0546  -4.0496  -3.8262  -3.7701  -3.7490  -3.6920
    -3.4889  -3.4564  -3.1396  -2.8785  -2.8139  -2.5598  -2.5131  -2.4269
    -2.3169  -2.2420  -2.2018  -2.1513  -2.0208  -1.9111  -1.8523  -1.6311
    -1.6310  -1.5325  -1.4696  -1.2380  -0.9801  -0.8095  -0.7637  -0.6108
    -0.4547  -0.3782  -0.2525   0.1351   1.2129   1.2696   1.5563   1.7399
     1.8653   1.8687   2.1480   2.2680   2.3129   2.4273   2.4868   2.6151
     2.7188   2.9310   2.9365   3.1782   3.5556   3.6308   3.7704

          k = 0.0289 0.0046 0.0000 ( 36028 PWs)   bands (ev):

   -61.8569 -61.8460 -61.7942 -61.7833 -61.4852 -61.4739 -30.4058 -30.3812
   -30.3344 -30.3091 -30.2990 -30.2688 -30.2467 -30.2373 -30.2116 -30.1883
   -30.1136 -30.0362 -29.9748 -29.9442 -29.9215 -29.9151 -29.8895 -29.8355
    -6.4238  -4.7017  -4.0806  -3.9952  -3.8252  -3.8235  -3.7548  -3.6774
    -3.5140  -3.4652  -3.1315  -2.9290  -2.8506  -2.5499  -2.5270  -2.3549
    -2.3383  -2.2455  -2.1839  -2.1358  -2.0145  -1.9203  -1.7839  -1.5832
    -1.5630  -1.4911  -1.4635  -1.2570  -0.9167  -0.8144  -0.6685  -0.4382
    -0.3651  -0.2291   0.1497   0.4488   0.7591   0.9877   1.3525   1.5921
     1.5937   1.8833   1.9821   2.0762   2.2207   2.3560   2.5061   2.5209
     2.7105   2.8026   2.8461   3.4286   3.6560   3.6958   3.9150

          k = 0.0289 0.0200 0.0000 ( 36011 PWs)   bands (ev):

   -61.8570 -61.8458 -61.7943 -61.7831 -61.4854 -61.4737 -30.4067 -30.3804
   -30.3355 -30.3088 -30.3043 -30.2704 -30.2455 -30.2426 -30.2141 -30.1884
   -30.1188 -30.0315 -29.9701 -29.9448 -29.9215 -29.9152 -29.8900 -29.8307
    -6.3418  -4.6244  -4.0200  -3.9106  -3.8412  -3.8067  -3.6974  -3.6169
    -3.4940  -3.4277  -3.0747  -2.9155  -2.8480  -2.5504  -2.4684  -2.3341
    -2.2791  -2.2234  -2.2053  -2.1025  -1.9720  -1.9377  -1.7165  -1.5688
    -1.5400  -1.4686  -1.4677  -1.2749  -0.8833  -0.8818  -0.6434  -0.4264
    -0.3515  -0.0471   0.3392   0.4436   0.6753   0.6796   0.9558   1.3604
     1.4660   1.6237   1.8858   1.9751   2.1412   2.1955   2.4674   2.5232
     2.5845   2.6483   2.8260   3.5065   3.5884   3.6290   3.8919

          k = 0.0289 0.0354 0.0000 ( 36047 PWs)   bands (ev):

   -61.8568 -61.8459 -61.7941 -61.7833 -61.4852 -61.4739 -30.4069 -30.3806
   -30.3357 -30.3094 -30.3007 -30.2717 -30.2457 -30.2391 -30.2160 -30.1895
   -30.1146 -30.0366 -29.9751 -29.9447 -29.9202 -29.9166 -29.8916 -29.8362
    -6.1655  -4.4633  -3.9460  -3.8895  -3.7933  -3.6738  -3.6079  -3.5056
    -3.4207  -3.3578  -3.0246  -2.8412  -2.7786  -2.5219  -2.3828  -2.3007
    -2.2348  -2.2128  -2.1771  -2.0955  -1.9831  -1.8773  -1.6709  -1.5927
    -1.5760  -1.5126  -1.4272  -1.2742  -0.9473  -0.9023  -0.6597  -0.5279
    -0.4061  -0.3241   0.0846   0.3530   0.3700   0.6669   1.0575   1.1042
     1.2986   1.4917   1.8153   1.9620   2.0368   2.0910   2.3317   2.4129
     2.5104   2.5574   2.8046   3.3709   3.4473   3.5477   3.7128

          k = 0.0289 0.0508 0.0000 ( 36043 PWs)   bands (ev):

   -61.8562 -61.8465 -61.7935 -61.7838 -61.4846 -61.4744 -30.4063 -30.3817
   -30.3347 -30.3106 -30.2883 -30.2724 -30.2470 -30.2267 -30.2166 -30.1914
   -30.1011 -30.0508 -29.9893 -29.9439 -29.9190 -29.9179 -29.8942 -29.8514
    -5.9048  -4.2403  -4.0829  -3.7565  -3.6402  -3.5636  -3.4388  -3.3670
    -3.2996  -3.2664  -2.9910  -2.7166  -2.6846  -2.4819  -2.2979  -2.2748
    -2.2192  -2.1820  -2.1141  -2.1110  -2.0132  -1.7718  -1.7217  -1.6362
    -1.5755  -1.5570  -1.4160  -1.3001  -1.0139  -0.9927  -0.9637  -0.7045
    -0.5741  -0.3238  -0.3195  -0.1326   0.0999   0.8289   0.9143   1.0360
     1.1857   1.5133   1.7861   1.9731   2.0319   2.0702   2.2178   2.3362
     2.4926   2.5133   2.7562   3.1724   3.1747   3.4727   3.4990

          k = 0.0289 0.0662 0.0000 ( 36048 PWs)   bands (ev):

   -61.8553 -61.8474 -61.7926 -61.7847 -61.4836 -61.4753 -30.4047 -30.3836
   -30.3327 -30.3125 -30.2724 -30.2679 -30.2491 -30.2159 -30.2065 -30.1933
   -30.0792 -30.0730 -30.0116 -29.9422 -29.9220 -29.9146 -29.8976 -29.8751
    -5.5749  -4.3194  -3.9920  -3.6474  -3.4992  -3.4003  -3.2569  -3.2339
    -3.1832  -3.1321  -2.9494  -2.6330  -2.5679  -2.4688  -2.3208  -2.2326
    -2.1965  -2.1448  -2.1246  -2.0526  -2.0006  -1.8269  -1.7095  -1.6625
    -1.5835  -1.5497  -1.4618  -1.4223  -1.3525  -1.0837  -1.0729  -0.9900
    -0.7985  -0.6737  -0.5038  -0.3399   0.1367   0.5485   0.7129   1.0631
     1.3107   1.5473   1.8297   1.9772   2.0877   2.1056   2.2464   2.3011
     2.4692   2.5770   2.7491   2.9259   3.0352   3.3546   3.4087

          k = 0.0289-0.1033 0.0000 ( 36051 PWs)   bands (ev):

   -61.8541 -61.8486 -61.7914 -61.7859 -61.4824 -61.4765 -30.4024 -30.3862
   -30.3297 -30.3148 -30.2714 -30.2527 -30.2397 -30.2137 -30.1962 -30.1784
   -30.1016 -30.0500 -30.0401 -29.9396 -29.9254 -29.9109 -29.9052 -29.9014
    -5.1972  -4.6487  -3.7723  -3.5661  -3.4916  -3.1638  -3.1587  -3.1278
    -3.1182  -2.9471  -2.8995  -2.6302  -2.5019  -2.4614  -2.3064  -2.2388
    -2.1694  -2.1477  -2.1379  -2.0224  -1.9553  -1.9396  -1.8025  -1.7897
    -1.6690  -1.5627  -1.5447  -1.5117  -1.4324  -1.4166  -1.2405  -1.2148
    -0.9745  -0.7719  -0.7243  -0.2964   0.3038   0.3928   0.5108   1.0728
     1.5438   1.6160   1.9065   1.9940   2.1422   2.1962   2.3246   2.3775
     2.4367   2.7087   2.8346   2.9393   2.9830   3.2858   3.2958

          k = 0.0289-0.0879 0.0000 ( 36066 PWs)   bands (ev):

   -61.8527 -61.8499 -61.7900 -61.7872 -61.4810 -61.4779 -30.3995 -30.3892
   -30.3261 -30.3175 -30.2692 -30.2554 -30.2101 -30.2075 -30.1981 -30.1461
   -30.1345 -30.0730 -30.0156 -29.9412 -29.9350 -29.9289 -29.9064 -29.9054
    -5.0336  -4.8024  -3.6406  -3.5902  -3.5571  -3.1765  -3.1753  -3.1192
    -2.9461  -2.8802  -2.7320  -2.6501  -2.5522  -2.3728  -2.3705  -2.3477
    -2.1360  -2.1019  -2.0713  -2.0504  -2.0390  -1.9988  -1.8994  -1.8559
    -1.8229  -1.7968  -1.7170  -1.6206  -1.5259  -1.3979  -1.3518  -1.3232
    -0.9453  -0.7863  -0.7200  -0.2965   0.1482   0.5581   0.7566   1.1136
     1.7272   1.7793   1.9204   2.1388   2.2244   2.3395   2.3746   2.5138
     2.5932   2.8163   2.9470   3.0136   3.1257   3.1342   3.2708

          k = 0.0289-0.0725 0.0000 ( 36033 PWs)   bands (ev):

   -61.8514 -61.8513 -61.7887 -61.7886 -61.4795 -61.4795 -30.3960 -30.3925
   -30.3222 -30.3204 -30.2659 -30.2582 -30.2057 -30.1999 -30.1720 -30.1694
   -30.1107 -30.1078 -29.9781 -29.9775 -29.9324 -29.9314 -29.9094 -29.9021
    -5.4260  -4.4329  -3.8124  -3.6759  -3.5694  -3.3110  -3.3035  -3.1874
    -2.9568  -2.8814  -2.8129  -2.5901  -2.5212  -2.5051  -2.3877  -2.2412
    -2.1560  -2.1483  -2.0909  -2.0653  -2.0536  -2.0283  -1.9830  -1.9560
    -1.8923  -1.7759  -1.7424  -1.6546  -1.6199  -1.4422  -1.3722  -1.2351
    -0.9428  -0.7646  -0.4551  -0.3569   0.1236   0.8481   1.1877   1.1933
     1.8255   1.9540   1.9835   2.2692   2.3595   2.4476   2.5371   2.6812
     2.7566   2.7947   2.9076   3.1227   3.2078   3.2515   3.4370

          k = 0.0289-0.0571 0.0000 ( 36004 PWs)   bands (ev):

   -61.8529 -61.8499 -61.7902 -61.7872 -61.4810 -61.4780 -30.3958 -30.3923
   -30.3235 -30.3184 -30.2617 -30.2609 -30.2040 -30.2018 -30.2008 -30.1424
   -30.1360 -30.0746 -30.0140 -29.9403 -29.9356 -29.9268 -29.9130 -29.8981
    -5.7841  -4.1404  -4.0976  -3.8093  -3.5923  -3.5242  -3.4679  -3.2851
    -3.1565  -3.0813  -2.8972  -2.5762  -2.5219  -2.4603  -2.4488  -2.3803
    -2.2623  -2.2120  -2.0799  -2.0785  -2.0054  -1.9685  -1.9539  -1.9202
    -1.8615  -1.7864  -1.6576  -1.5916  -1.5172  -1.3763  -1.2755  -1.1458
    -0.8898  -0.7399  -0.3993  -0.2549   0.3548   1.2235   1.3175   1.6645
     1.8108   1.9676   2.1851   2.3453   2.4618   2.4829   2.5958   2.7589
     2.7792   2.8426   3.0005   3.0683   3.2862   3.3774   3.6734

          k = 0.0289-0.0417 0.0000 ( 35965 PWs)   bands (ev):

   -61.8543 -61.8485 -61.7916 -61.7858 -61.4824 -61.4766 -30.3989 -30.3887
   -30.3267 -30.3150 -30.2632 -30.2572 -30.2361 -30.2038 -30.1962 -30.1744
   -30.1021 -30.0479 -30.0407 -29.9387 -29.9225 -29.9162 -29.9045 -29.8946
    -6.0785  -4.3664  -3.9871  -3.9051  -3.7526  -3.6412  -3.6150  -3.4151
    -3.3761  -3.2468  -2.9719  -2.6744  -2.5979  -2.5369  -2.5140  -2.3693
    -2.3549  -2.2424  -2.1487  -2.0952  -1.9668  -1.9486  -1.8948  -1.8248
    -1.7897  -1.5984  -1.5968  -1.5262  -1.3430  -1.2156  -1.0820  -0.9121
    -0.8029  -0.7286  -0.4075  -0.1889   0.8042   1.4514   1.6113   1.7253
     1.8404   2.1592   2.2567   2.3625   2.3960   2.5429   2.6503   2.6800
     2.7111   2.7617   3.1355   3.2349   3.2781   3.4222   3.5256

          k = 0.0289-0.0263 0.0000 ( 35981 PWs)   bands (ev):

   -61.8554 -61.8474 -61.7927 -61.7847 -61.4837 -61.4754 -30.4017 -30.3855
   -30.3297 -30.3122 -30.2652 -30.2638 -30.2528 -30.2062 -30.2021 -30.1923
   -30.0770 -30.0728 -30.0114 -29.9411 -29.9188 -29.9187 -29.8919 -29.8737
    -6.2897  -4.5696  -4.0363  -3.9409  -3.8489  -3.7311  -3.6718  -3.6125
    -3.4456  -3.3772  -3.0772  -2.7659  -2.7586  -2.5567  -2.4881  -2.4464
    -2.2794  -2.2791  -2.2092  -2.1227  -1.9867  -1.9145  -1.9137  -1.7230
    -1.7078  -1.5652  -1.4904  -1.2711  -1.1895  -1.0365  -0.8216  -0.7355
    -0.7083  -0.5492  -0.3952  -0.1026   1.2499   1.5006   1.6121   1.6358
     1.9333   2.0896   2.2382   2.4107   2.4177   2.5012   2.5389   2.6778
     2.6836   2.8098   3.0503   3.1676   3.3505   3.5107   3.6520

          k = 0.0433-0.0163 0.0000 ( 36033 PWs)   bands (ev):

   -61.8554 -61.8474 -61.7927 -61.7847 -61.4837 -61.4754 -30.4023 -30.3850
   -30.3308 -30.3127 -30.2660 -30.2648 -30.2512 -30.2088 -30.2032 -30.1927
   -30.0774 -30.0728 -30.0114 -29.9410 -29.9194 -29.9182 -29.8931 -29.8740
    -6.1655  -4.4637  -4.1694  -3.8454  -3.7326  -3.6432  -3.5938  -3.5572
    -3.3977  -3.3358  -3.1019  -2.7209  -2.6706  -2.4741  -2.4431  -2.4256
    -2.2692  -2.2657  -2.1842  -2.1602  -2.0156  -1.8520  -1.8217  -1.7357
    -1.6863  -1.5993  -1.4527  -1.2671  -1.2303  -1.0523  -0.8657  -0.8007
    -0.6813  -0.5744  -0.3496  -0.1878   0.9488   1.1880   1.4956   1.5744
     1.7807   1.8821   2.1347   2.1359   2.3027   2.3964   2.5348   2.7132
     2.7436   2.7712   2.9048   2.9972   3.4132   3.5080   3.5571

          k = 0.0433-0.0009 0.0000 ( 36036 PWs)   bands (ev):

   -61.8563 -61.8465 -61.7936 -61.7838 -61.4846 -61.4745 -30.4049 -30.3824
   -30.3337 -30.3107 -30.2865 -30.2688 -30.2478 -30.2248 -30.2125 -30.1906
   -30.1001 -30.0505 -29.9891 -29.9431 -29.9197 -29.9174 -29.8919 -29.8507
    -6.2142  -4.5098  -4.0864  -3.8997  -3.7283  -3.7152  -3.6305  -3.5537
    -3.4141  -3.3850  -3.0955  -2.8106  -2.7379  -2.5000  -2.4357  -2.3267
    -2.2960  -2.2105  -2.1942  -2.1614  -2.0123  -1.8438  -1.7624  -1.6488
    -1.6189  -1.5528  -1.4300  -1.2586  -0.9820  -0.8630  -0.8629  -0.6586
    -0.4972  -0.3307  -0.2966   0.0458   0.6651   1.0867   1.3395   1.3892
     1.5057   1.8892   1.8940   2.0503   2.1916   2.2117   2.4651   2.5128
     2.6317   2.7046   2.7745   3.2440   3.4887   3.6105   3.6183

          k = 0.0433 0.0145 0.0000 ( 36047 PWs)   bands (ev):

   -61.8568 -61.8459 -61.7941 -61.7833 -61.4852 -61.4739 -30.4069 -30.3806
   -30.3357 -30.3094 -30.3007 -30.2717 -30.2457 -30.2391 -30.2160 -30.1895
   -30.1146 -30.0366 -29.9751 -29.9447 -29.9202 -29.9166 -29.8916 -29.8362
    -6.1655  -4.4633  -3.9460  -3.8895  -3.7933  -3.6738  -3.6079  -3.5056
    -3.4207  -3.3578  -3.0246  -2.8412  -2.7786  -2.5219  -2.3828  -2.3007
    -2.2348  -2.2128  -2.1771  -2.0955  -1.9831  -1.8773  -1.6709  -1.5927
    -1.5760  -1.5126  -1.4272  -1.2742  -0.9473  -0.9023  -0.6597  -0.5279
    -0.4061  -0.3241   0.0846   0.3530   0.3700   0.6669   1.0575   1.1042
     1.2986   1.4917   1.8153   1.9620   2.0368   2.0910   2.3317   2.4129
     2.5104   2.5574   2.8046   3.3709   3.4472   3.5476   3.7135

          k = 0.0433 0.0300 0.0000 ( 36081 PWs)   bands (ev):

   -61.8569 -61.8458 -61.7943 -61.7831 -61.4853 -61.4736 -30.4082 -30.3798
   -30.3366 -30.3087 -30.3062 -30.2744 -30.2451 -30.2446 -30.2186 -30.1895
   -30.1200 -30.0320 -29.9705 -29.9458 -29.9197 -29.9171 -29.8924 -29.8317
    -6.0236  -4.3348  -3.8861  -3.8160  -3.7280  -3.6415  -3.5242  -3.4089
    -3.3820  -3.2923  -2.9370  -2.8133  -2.7728  -2.5105  -2.3094  -2.2808
    -2.2592  -2.1333  -2.1158  -2.0415  -1.9723  -1.8783  -1.5999  -1.5903
    -1.5542  -1.5273  -1.4162  -1.2628  -1.0340  -0.8597  -0.6539  -0.4521
    -0.4303  -0.3300   0.0553   0.3316   0.4187   0.6297   0.6546   0.8061
     1.0574   1.1646   1.6557   1.8409   1.9200   2.0211   2.2640   2.2645
     2.2776   2.5525   2.7927   3.3243   3.3573   3.4301   3.6688

          k = 0.0433 0.0454 0.0000 ( 36080 PWs)   bands (ev):

   -61.8567 -61.8459 -61.7940 -61.7832 -61.4851 -61.4738 -30.4085 -30.3800
   -30.3362 -30.3088 -30.3026 -30.2765 -30.2459 -30.2411 -30.2199 -30.1902
   -30.1158 -30.0370 -29.9756 -29.9461 -29.9185 -29.9181 -29.8940 -29.8372
    -5.7970  -4.1451  -3.8783  -3.8686  -3.5633  -3.4832  -3.4179  -3.2940
    -3.2774  -3.2037  -2.8890  -2.7355  -2.7114  -2.4788  -2.2961  -2.2566
    -2.1970  -2.0702  -2.0656  -2.0187  -2.0048  -1.8039  -1.6703  -1.5996
    -1.5345  -1.5335  -1.3983  -1.2628  -1.0882  -0.8788  -0.8021  -0.6829
    -0.4659  -0.4428  -0.0731  -0.0089   0.1914   0.5111   0.5824   0.7191
     1.0011   1.1436   1.5613   1.7755   1.8759   1.9559   2.0540   2.2259
     2.2276   2.5127   2.7367   3.1137   3.1260   3.3987   3.4951

          k = 0.0433 0.0608 0.0000 ( 36065 PWs)   bands (ev):

   -61.8561 -61.8465 -61.7934 -61.7838 -61.4845 -61.4744 -30.4079 -30.3812
   -30.3347 -30.3096 -30.2900 -30.2776 -30.2478 -30.2286 -30.2198 -30.1914
   -30.1022 -30.0511 -29.9896 -29.9453 -29.9207 -29.9157 -29.8965 -29.8522
    -5.4980  -4.0546  -3.9404  -3.8362  -3.3628  -3.3459  -3.2509  -3.1629
    -3.1488  -3.1106  -2.8520  -2.6653  -2.6303  -2.4634  -2.3436  -2.2106
    -2.1008  -2.0571  -2.0567  -2.0232  -1.9965  -1.7639  -1.7094  -1.6712
    -1.5603  -1.4919  -1.4142  -1.2933  -1.2361  -1.1086  -0.9638  -0.7546
    -0.6930  -0.6868  -0.4292  -0.2476   0.0535   0.2360   0.5653   0.8705
     0.9768   1.3585   1.5571   1.8294   1.8828   1.9398   1.9835   2.2171
     2.2688   2.4976   2.7032   2.8459   2.9529   3.3689   3.4008

          k = 0.0433-0.1088 0.0000 ( 36046 PWs)   bands (ev):

   -61.8552 -61.8474 -61.7925 -61.7847 -61.4836 -61.4753 -30.4062 -30.3831
   -30.3322 -30.3112 -30.2773 -30.2692 -30.2502 -30.2181 -30.2078 -30.1928
   -30.0800 -30.0731 -30.0116 -29.9434 -29.9234 -29.9125 -29.8995 -29.8756
    -5.1443  -4.3455  -3.8650  -3.6818  -3.3083  -3.1007  -3.1003  -3.0577
    -3.0524  -2.9951  -2.8136  -2.6654  -2.5459  -2.4991  -2.3640  -2.1615
    -2.1093  -2.0865  -2.0489  -2.0115  -1.9652  -1.8704  -1.7384  -1.6511
    -1.6464  -1.5725  -1.5074  -1.4176  -1.3526  -1.2120  -1.1248  -1.0879
    -0.9608  -0.8770  -0.7640  -0.2763   0.0125   0.3124   0.4459   0.8953
     1.2265   1.5761   1.6325   1.7818   1.9471   2.0204   2.1659   2.2319
     2.4151   2.5175   2.7592   2.7897   2.9018   3.3560   3.3765

          k = 0.0433-0.0934 0.0000 ( 36059 PWs)   bands (ev):

   -61.8541 -61.8486 -61.7914 -61.7859 -61.4824 -61.4765 -30.4036 -30.3858
   -30.3290 -30.3134 -30.2754 -30.2532 -30.2410 -30.2149 -30.1949 -30.1797
   -30.1015 -30.0505 -30.0400 -29.9402 -29.9264 -29.9090 -29.9056 -29.9029
    -4.7598  -4.7106  -3.8783  -3.5376  -3.3478  -3.0803  -3.0495  -3.0233
    -2.8574  -2.8147  -2.8084  -2.6738  -2.5626  -2.5147  -2.2748  -2.2038
    -2.1519  -2.0821  -2.0696  -2.0343  -1.9925  -1.9610  -1.8373  -1.8174
    -1.7596  -1.6969  -1.6553  -1.5036  -1.4678  -1.4135  -1.3192  -1.2393
    -1.0784  -0.8811  -0.7713  -0.3095  -0.1285   0.5197   0.6531   0.9215
     1.4930   1.6883   1.7566   1.8851   2.1297   2.1646   2.2903   2.4151
     2.4987   2.6181   2.9423   2.9452   3.0107   3.2463   3.3627

          k = 0.0433-0.0779 0.0000 ( 36063 PWs)   bands (ev):

   -61.8527 -61.8499 -61.7900 -61.7872 -61.4810 -61.4779 -30.4002 -30.3889
   -30.3255 -30.3163 -30.2719 -30.2558 -30.2106 -30.2081 -30.1967 -30.1468
   -30.1343 -30.0727 -30.0158 -29.9406 -29.9360 -29.9295 -29.9064 -29.9052
    -5.1011  -4.3802  -3.9432  -3.5312  -3.4827  -3.2020  -3.1288  -3.0828
    -2.8544  -2.7509  -2.6654  -2.5963  -2.5629  -2.4201  -2.4158  -2.3063
    -2.1411  -2.1184  -2.0814  -2.0685  -2.0212  -2.0117  -1.9981  -1.9044
    -1.8642  -1.8110  -1.7624  -1.6904  -1.6014  -1.3862  -1.3784  -1.3139
    -1.0551  -0.7526  -0.5946  -0.3680  -0.1993   0.7651   1.0030   1.0394
     1.6665   1.7383   1.9239   2.1125   2.3061   2.4048   2.4390   2.4703
     2.6718   2.8087   2.8925   3.2072   3.2104   3.2643   3.3906

          k = 0.0433-0.0625 0.0000 ( 36069 PWs)   bands (ev):

   -61.8514 -61.8513 -61.7887 -61.7886 -61.4795 -61.4795 -30.3964 -30.3923
   -30.3218 -30.3198 -30.2672 -30.2584 -30.2057 -30.1990 -30.1722 -30.1692
   -30.1109 -30.1076 -29.9781 -29.9774 -29.9327 -29.9315 -29.9098 -29.9015
    -5.4704  -4.0900  -3.9999  -3.8133  -3.5078  -3.3560  -3.3104  -3.1862
    -2.9661  -2.8038  -2.7804  -2.6291  -2.5457  -2.4209  -2.3653  -2.2701
    -2.2134  -2.1864  -2.1610  -2.0881  -2.0243  -2.0011  -1.9789  -1.9584
    -1.9314  -1.7914  -1.7060  -1.6722  -1.6691  -1.4535  -1.3924  -1.2232
    -0.9897  -0.7378  -0.4005  -0.2507  -0.1349   1.0433   1.1494   1.4202
     1.7389   1.8249   2.0848   2.3404   2.4085   2.4565   2.6321   2.6630
     2.7277   2.8031   2.9159   3.0658   3.3398   3.4185   3.7145

          k = 0.0433-0.0471 0.0000 ( 36004 PWs)   bands (ev):

   -61.8529 -61.8499 -61.7902 -61.7872 -61.4810 -61.4780 -30.3958 -30.3923
   -30.3235 -30.3184 -30.2617 -30.2609 -30.2040 -30.2018 -30.2008 -30.1424
   -30.1360 -30.0746 -30.0140 -29.9403 -29.9356 -29.9268 -29.9130 -29.8981
    -5.7841  -4.1404  -4.0976  -3.8093  -3.5923  -3.5242  -3.4679  -3.2851
    -3.1565  -3.0813  -2.8972  -2.5762  -2.5219  -2.4603  -2.4488  -2.3803
    -2.2623  -2.2120  -2.0799  -2.0785  -2.0054  -1.9685  -1.9539  -1.9202
    -1.8615  -1.7864  -1.6576  -1.5916  -1.5172  -1.3763  -1.2755  -1.1458
    -0.8898  -0.7399  -0.3993  -0.2549   0.3548   1.2235   1.3175   1.6645
     1.8108   1.9676   2.1851   2.3453   2.4618   2.4829   2.5958   2.7589
     2.7792   2.8426   3.0005   3.0683   3.2862   3.3775   3.6728

          k = 0.0433-0.0317 0.0000 ( 35979 PWs)   bands (ev):

   -61.8542 -61.8485 -61.7915 -61.7858 -61.4824 -61.4766 -30.3992 -30.3885
   -30.3273 -30.3153 -30.2634 -30.2564 -30.2364 -30.2051 -30.1965 -30.1747
   -30.1020 -30.0481 -30.0407 -29.9385 -29.9227 -29.9159 -29.9045 -29.8952
    -6.0202  -4.3233  -4.1850  -3.7149  -3.7078  -3.6698  -3.5276  -3.4039
    -3.3546  -3.2300  -3.0296  -2.5877  -2.5766  -2.5070  -2.4940  -2.3614
    -2.3578  -2.2318  -2.1474  -2.1192  -1.9936  -1.9349  -1.8318  -1.8155
    -1.7660  -1.6318  -1.6029  -1.5053  -1.3241  -1.2317  -1.0954  -0.9311
    -0.7750  -0.7603  -0.3769  -0.2505   0.8338   1.1658   1.4884   1.6853
     1.9575   1.9778   2.0659   2.3008   2.4143   2.5422   2.6448   2.7171
     2.7368   2.7650   3.0506   3.1251   3.2796   3.2940   3.5687

          k = 0.0577-0.0217 0.0000 ( 36007 PWs)   bands (ev):

   -61.8542 -61.8485 -61.7915 -61.7858 -61.4824 -61.4766 -30.3999 -30.3877
   -30.3287 -30.3158 -30.2644 -30.2545 -30.2371 -30.2081 -30.1971 -30.1756
   -30.1019 -30.0486 -30.0405 -29.9384 -29.9233 -29.9150 -29.9045 -29.8969
    -5.8476  -4.3851  -4.1979  -3.6835  -3.6025  -3.4632  -3.3960  -3.3856
    -3.2954  -3.1767  -3.0746  -2.5638  -2.5200  -2.4333  -2.3910  -2.3388
    -2.3339  -2.2256  -2.1797  -2.1123  -1.9965  -1.8818  -1.8134  -1.7348
    -1.6936  -1.6799  -1.6041  -1.4872  -1.3106  -1.2849  -1.1336  -0.9882
    -0.8337  -0.6987  -0.3978  -0.2963   0.5919   0.9231   1.2539   1.3815
     1.7835   1.8341   1.9840   2.1340   2.3355   2.4609   2.5897   2.6669
     2.7248   2.8559   2.8566   2.8812   3.1708   3.3033   3.4150

          k = 0.0577-0.0063 0.0000 ( 36012 PWs)   bands (ev):

   -61.8553 -61.8474 -61.7926 -61.7847 -61.4836 -61.4754 -30.4033 -30.3843
   -30.3321 -30.3130 -30.2683 -30.2663 -30.2495 -30.2125 -30.2048 -30.1932
   -30.0782 -30.0729 -30.0115 -29.9413 -29.9206 -29.9168 -29.8952 -29.8745
    -5.9230  -4.2638  -4.2623  -3.6605  -3.6487  -3.5864  -3.4431  -3.4038
    -3.3060  -3.2526  -3.0638  -2.6439  -2.6328  -2.4487  -2.3240  -2.3163
    -2.2562  -2.2359  -2.1945  -2.1238  -2.0114  -1.8005  -1.7346  -1.7105
    -1.6282  -1.6279  -1.4322  -1.3143  -1.2978  -1.0728  -0.9492  -0.8947
    -0.7081  -0.5624  -0.3392  -0.2861   0.3487   1.1129   1.1433   1.1667
     1.4555   1.7917   1.9043   2.0614   2.1989   2.2533   2.4690   2.4850
     2.5721   2.6962   2.7571   3.0801   3.2232   3.3480   3.4935

          k = 0.0577 0.0091 0.0000 ( 36043 PWs)   bands (ev):

   -61.8562 -61.8465 -61.7935 -61.7838 -61.4846 -61.4744 -30.4063 -30.3817
   -30.3347 -30.3106 -30.2883 -30.2724 -30.2470 -30.2267 -30.2166 -30.1914
   -30.1011 -30.0508 -29.9893 -29.9439 -29.9190 -29.9179 -29.8942 -29.8514
    -5.9048  -4.2403  -4.0829  -3.7565  -3.6402  -3.5636  -3.4388  -3.3670
    -3.2996  -3.2664  -2.9910  -2.7166  -2.6846  -2.4819  -2.2979  -2.2748
    -2.2192  -2.1820  -2.1141  -2.1110  -2.0132  -1.7718  -1.7217  -1.6362
    -1.5755  -1.5570  -1.4160  -1.3001  -1.0139  -0.9927  -0.9637  -0.7045
    -0.5741  -0.3238  -0.3195  -0.1326   0.0999   0.8289   0.9143   1.0360
     1.1857   1.5133   1.7861   1.9731   2.0319   2.0702   2.2178   2.3362
     2.4926   2.5133   2.7561   3.1725   3.1747   3.4727   3.4991

          k = 0.0577 0.0245 0.0000 ( 36080 PWs)   bands (ev):

   -61.8567 -61.8459 -61.7940 -61.7832 -61.4851 -61.4738 -30.4085 -30.3800
   -30.3362 -30.3088 -30.3026 -30.2765 -30.2459 -30.2411 -30.2199 -30.1902
   -30.1158 -30.0370 -29.9756 -29.9461 -29.9185 -29.9181 -29.8940 -29.8372
    -5.7970  -4.1451  -3.8783  -3.8686  -3.5633  -3.4832  -3.4179  -3.2940
    -3.2774  -3.2037  -2.8890  -2.7355  -2.7114  -2.4788  -2.2961  -2.2566
    -2.1970  -2.0702  -2.0656  -2.0187  -2.0048  -1.8039  -1.6703  -1.5996
    -1.5345  -1.5335  -1.3983  -1.2628  -1.0882  -0.8788  -0.8021  -0.6829
    -0.4659  -0.4428  -0.0731  -0.0089   0.1914   0.5111   0.5824   0.7191
     1.0011   1.1436   1.5613   1.7755   1.8759   1.9559   2.0540   2.2259
     2.2276   2.5127   2.7367   3.1137   3.1256   3.3987   3.4937

          k = 0.0577 0.0399 0.0000 ( 36109 PWs)   bands (ev):

   -61.8569 -61.8457 -61.7942 -61.7830 -61.4853 -61.4736 -30.4099 -30.3793
   -30.3366 -30.3081 -30.3077 -30.2799 -30.2467 -30.2462 -30.2220 -30.1898
   -30.1211 -30.0325 -29.9710 -29.9475 -29.9190 -29.9175 -29.8947 -29.8326
    -5.6069  -4.0315  -3.9318  -3.7159  -3.4416  -3.4319  -3.3255  -3.2465
    -3.1474  -3.1143  -2.8166  -2.7055  -2.6962  -2.4470  -2.3259  -2.1791
    -2.1750  -2.0659  -2.0059  -2.0006  -1.8852  -1.7932  -1.6829  -1.6338
    -1.5309  -1.4965  -1.3532  -1.2059  -1.1920  -0.8390  -0.8278  -0.7052
    -0.6639  -0.4311  -0.1024   0.2153   0.3006   0.3272   0.3611   0.5158
     0.5465   1.0215   1.4011   1.5599   1.7629   1.8329   1.9363   2.0071
     2.2127   2.4630   2.6628   2.9379   3.0550   3.3493   3.4066

          k = 0.0577 0.0554 0.0000 ( 36089 PWs)   bands (ev):

   -61.8567 -61.8459 -61.7940 -61.7832 -61.4851 -61.4738 -30.4101 -30.3797
   -30.3358 -30.3075 -30.3042 -30.2821 -30.2474 -30.2429 -30.2226 -30.1901
   -30.1168 -30.0374 -29.9759 -29.9477 -29.9202 -29.9160 -29.8961 -29.8380
    -5.3456  -4.0705  -3.7905  -3.7838  -3.2804  -3.2611  -3.2302  -3.1575
    -3.0161  -3.0130  -2.7847  -2.6665  -2.6450  -2.4203  -2.3681  -2.1833
    -2.1090  -2.0492  -1.9807  -1.9527  -1.8531  -1.7448  -1.7332  -1.6923
    -1.5509  -1.4450  -1.3479  -1.2575  -1.1848  -1.1355  -0.9062  -0.8356
    -0.7414  -0.4682  -0.1421  -0.0424  -0.0284   0.0054   0.3820   0.5554
     0.6804   1.1350   1.3368   1.6038   1.6534   1.7879   1.7967   1.9550
     2.2176   2.4335   2.5818   2.7792   2.8700   3.2416   3.3203

          k = 0.0577-0.1142 0.0000 ( 36077 PWs)   bands (ev):

   -61.8561 -61.8465 -61.7934 -61.7838 -61.4845 -61.4743 -30.4092 -30.3809
   -30.3340 -30.3083 -30.2913 -30.2824 -30.2493 -30.2299 -30.2216 -30.1909
   -30.1029 -30.0513 -29.9898 -29.9466 -29.9220 -29.9139 -29.8981 -29.8528
    -5.0273  -4.1369  -4.0235  -3.6086  -3.1682  -3.0966  -3.0682  -3.0333
    -2.9406  -2.9189  -2.7506  -2.6788  -2.5874  -2.4556  -2.4169  -2.2041
    -2.0710  -1.9771  -1.9651  -1.9394  -1.9370  -1.7891  -1.7048  -1.6873
    -1.6267  -1.4662  -1.4517  -1.3919  -1.2874  -1.2376  -1.0463  -0.9279
    -0.8347  -0.7680  -0.6233  -0.2440  -0.2119   0.2129   0.3318   0.6892
     0.8783   1.3746   1.4574   1.5814   1.7349   1.8351   1.8740   2.0235
     2.2297   2.5072   2.5900   2.7185   2.7735   3.1801   3.3114

          k = 0.0577-0.0988 0.0000 ( 36113 PWs)   bands (ev):

   -61.8552 -61.8474 -61.7925 -61.7847 -61.4836 -61.4753 -30.4071 -30.3830
   -30.3315 -30.3101 -30.2808 -30.2699 -30.2514 -30.2190 -30.2086 -30.1923
   -30.0804 -30.0732 -30.0117 -29.9441 -29.9242 -29.9113 -29.9006 -29.8760
    -4.6710  -4.3541  -4.2107  -3.4806  -3.1533  -2.9885  -2.9581  -2.9014
    -2.8905  -2.8544  -2.7441  -2.7130  -2.5579  -2.5334  -2.4189  -2.2111
    -2.0694  -2.0493  -1.9768  -1.9736  -1.8930  -1.8784  -1.7573  -1.7565
    -1.6683  -1.6382  -1.5758  -1.4241  -1.4093  -1.2787  -1.2244  -1.0824
    -1.0822  -1.0315  -0.7718  -0.2998  -0.2939   0.4033   0.4961   0.7458
     1.1933   1.4669   1.6342   1.6907   1.9259   1.9649   2.1098   2.2539
     2.2696   2.5993   2.7580   2.7758   2.8379   3.2611   3.3289

          k = 0.0577-0.0834 0.0000 ( 36109 PWs)   bands (ev):

   -61.8541 -61.8486 -61.7914 -61.7859 -61.4824 -61.4765 -30.4041 -30.3857
   -30.3286 -30.3128 -30.2771 -30.2536 -30.2415 -30.2152 -30.1942 -30.1802
   -30.1015 -30.0507 -30.0400 -29.9405 -29.9268 -29.9083 -29.9059 -29.9035
    -4.7306  -4.3340  -4.2591  -3.4386  -3.2752  -3.0670  -2.9937  -2.9699
    -2.8023  -2.7522  -2.6970  -2.6501  -2.5912  -2.5797  -2.2860  -2.1975
    -2.1806  -2.0704  -2.0405  -2.0111  -1.9892  -1.9858  -1.9255  -1.8296
    -1.7689  -1.7308  -1.6685  -1.5515  -1.5251  -1.4296  -1.3195  -1.2414
    -1.1409  -0.8734  -0.7578  -0.3480  -0.2977   0.5825   0.7922   0.8492
     1.4696   1.5722   1.8070   1.8407   2.1617   2.1926   2.2983   2.4198
     2.5449   2.5678   2.9139   3.0499   3.1116   3.2320   3.3846

          k = 0.0577-0.0680 0.0000 ( 36063 PWs)   bands (ev):

   -61.8527 -61.8499 -61.7900 -61.7872 -61.4810 -61.4779 -30.4002 -30.3889
   -30.3255 -30.3163 -30.2719 -30.2558 -30.2106 -30.2081 -30.1967 -30.1468
   -30.1343 -30.0727 -30.0158 -29.9406 -29.9359 -29.9295 -29.9064 -29.9052
    -5.1011  -4.3801  -3.9432  -3.5312  -3.4827  -3.2020  -3.1288  -3.0828
    -2.8544  -2.7509  -2.6654  -2.5963  -2.5629  -2.4201  -2.4158  -2.3063
    -2.1411  -2.1184  -2.0814  -2.0685  -2.0212  -2.0117  -1.9981  -1.9044
    -1.8642  -1.8110  -1.7624  -1.6904  -1.6014  -1.3862  -1.3784  -1.3139
    -1.0551  -0.7526  -0.5946  -0.3680  -0.1993   0.7651   1.0030   1.0394
     1.6665   1.7383   1.9239   2.1125   2.3061   2.4048   2.4390   2.4703
     2.6718   2.8088   2.8925   3.2070   3.2104   3.2639   3.3904

          k = 0.0577-0.0525 0.0000 ( 36033 PWs)   bands (ev):

   -61.8514 -61.8513 -61.7887 -61.7886 -61.4795 -61.4795 -30.3960 -30.3925
   -30.3222 -30.3204 -30.2659 -30.2582 -30.2057 -30.1999 -30.1720 -30.1694
   -30.1107 -30.1078 -29.9781 -29.9775 -29.9324 -29.9314 -29.9094 -29.9021
    -5.4260  -4.4329  -3.8124  -3.6759  -3.5694  -3.3110  -3.3035  -3.1874
    -2.9568  -2.8814  -2.8129  -2.5901  -2.5212  -2.5051  -2.3877  -2.2412
    -2.1560  -2.1483  -2.0909  -2.0653  -2.0536  -2.0283  -1.9830  -1.9560
    -1.8923  -1.7759  -1.7424  -1.6546  -1.6199  -1.4422  -1.3723  -1.2351
    -0.9428  -0.7646  -0.4551  -0.3569   0.1236   0.8481   1.1877   1.1933
     1.8255   1.9539   1.9835   2.2692   2.3595   2.4476   2.5372   2.6812
     2.7566   2.7947   2.9075   3.1227   3.2078   3.2515   3.4368

          k = 0.0577-0.0371 0.0000 ( 36022 PWs)   bands (ev):

   -61.8529 -61.8499 -61.7902 -61.7872 -61.4810 -61.4780 -30.3962 -30.3917
   -30.3247 -30.3190 -30.2611 -30.2598 -30.2045 -30.2038 -30.2010 -30.1429
   -30.1357 -30.0744 -30.0143 -29.9408 -29.9348 -29.9270 -29.9122 -29.8993
    -5.6797  -4.4397  -4.0448  -3.6578  -3.5148  -3.4807  -3.3654  -3.2668
    -3.1180  -3.0699  -3.0099  -2.5241  -2.4902  -2.4356  -2.4170  -2.3435
    -2.2752  -2.1898  -2.1245  -2.0975  -1.9721  -1.9579  -1.9164  -1.9092
    -1.8040  -1.7127  -1.6784  -1.5734  -1.5320  -1.3435  -1.2967  -1.1749
    -0.8160  -0.7918  -0.4202  -0.3268   0.5518   0.7776   1.2595   1.3643
     1.9035   1.9975   2.0076   2.1468   2.4476   2.4845   2.6261   2.7477
     2.7700   2.7858   2.9314   3.0598   3.1192   3.2528   3.4326

          k = 0.0721-0.0271 0.0000 ( 36011 PWs)   bands (ev):

   -61.8528 -61.8499 -61.7901 -61.7872 -61.4810 -61.4780 -30.3970 -30.3907
   -30.3259 -30.3193 -30.2623 -30.2572 -30.2066 -30.2053 -30.2009 -30.1438
   -30.1353 -30.0739 -30.0148 -29.9414 -29.9341 -29.9273 -29.9106 -29.9014
    -5.4744  -4.6985  -3.9408  -3.6790  -3.3903  -3.3201  -3.2487  -3.2416
    -3.1112  -3.0523  -3.0005  -2.5532  -2.4581  -2.4020  -2.3858  -2.3111
    -2.2886  -2.1928  -2.1742  -2.0490  -1.9712  -1.9388  -1.8809  -1.8182
    -1.7658  -1.6884  -1.5875  -1.5621  -1.5402  -1.3709  -1.3361  -1.2286
    -0.8495  -0.7343  -0.5145  -0.2899   0.3718   0.8192   0.8455   1.1532
     1.7745   1.8546   1.9196   2.1170   2.3942   2.4318   2.6106   2.6177
     2.7075   2.8084   2.8289   2.8884   3.0257   3.1840   3.3107

          k = 0.0721-0.0117 0.0000 ( 36044 PWs)   bands (ev):

   -61.8542 -61.8486 -61.7915 -61.7859 -61.4824 -61.4766 -30.4010 -30.3868
   -30.3297 -30.3158 -30.2671 -30.2530 -30.2382 -30.2114 -30.1972 -30.1769
   -30.1017 -30.0494 -30.0403 -29.9388 -29.9242 -29.9131 -29.9048 -29.8992
    -5.5684  -4.5410  -4.0035  -3.6155  -3.4515  -3.3761  -3.2961  -3.2491
    -3.2136  -3.0795  -3.0222  -2.5900  -2.4610  -2.4360  -2.3589  -2.2791
    -2.2274  -2.2221  -2.1971  -2.0497  -1.9690  -1.9010  -1.7575  -1.7230
    -1.6829  -1.6271  -1.5204  -1.4939  -1.3839  -1.3657  -1.1764  -1.0928
    -0.9056  -0.7012  -0.4195  -0.3614   0.2411   0.7965   0.8729   1.0577
     1.6449   1.6894   1.9060   2.1139   2.2477   2.3364   2.4204   2.4636
     2.5405   2.7746   2.7852   2.9704   3.0322   3.1927   3.3806

          k = 0.0721 0.0037 0.0000 ( 36048 PWs)   bands (ev):

   -61.8553 -61.8474 -61.7926 -61.7847 -61.4836 -61.4753 -30.4047 -30.3836
   -30.3327 -30.3125 -30.2724 -30.2679 -30.2491 -30.2159 -30.2065 -30.1933
   -30.0792 -30.0730 -30.0116 -29.9422 -29.9220 -29.9146 -29.8976 -29.8751
    -5.5749  -4.3194  -3.9920  -3.6474  -3.4992  -3.4003  -3.2569  -3.2339
    -3.1832  -3.1321  -2.9494  -2.6330  -2.5679  -2.4688  -2.3208  -2.2326
    -2.1965  -2.1448  -2.1246  -2.0526  -2.0006  -1.8269  -1.7095  -1.6625
    -1.5835  -1.5497  -1.4618  -1.4223  -1.3525  -1.0837  -1.0729  -0.9900
    -0.7985  -0.6737  -0.5038  -0.3399   0.1367   0.5485   0.7129   1.0631
     1.3107   1.5473   1.8297   1.9772   2.0877   2.1056   2.2464   2.3011
     2.4692   2.5770   2.7491   2.9259   3.0352   3.3547   3.4090

          k = 0.0721 0.0191 0.0000 ( 36065 PWs)   bands (ev):

   -61.8561 -61.8465 -61.7934 -61.7838 -61.4845 -61.4744 -30.4079 -30.3812
   -30.3347 -30.3096 -30.2900 -30.2776 -30.2478 -30.2286 -30.2198 -30.1914
   -30.1022 -30.0511 -29.9896 -29.9453 -29.9207 -29.9157 -29.8965 -29.8522
    -5.4980  -4.0546  -3.9404  -3.8362  -3.3628  -3.3459  -3.2509  -3.1629
    -3.1488  -3.1106  -2.8520  -2.6653  -2.6303  -2.4634  -2.3436  -2.2106
    -2.1008  -2.0571  -2.0567  -2.0232  -1.9965  -1.7639  -1.7094  -1.6712
    -1.5603  -1.4919  -1.4142  -1.2933  -1.2361  -1.1086  -0.9638  -0.7546
    -0.6930  -0.6868  -0.4292  -0.2476   0.0535   0.2360   0.5653   0.8705
     0.9768   1.3585   1.5571   1.8294   1.8828   1.9398   1.9835   2.2171
     2.2688   2.4976   2.7032   2.8459   2.9529   3.3689   3.4007

          k = 0.0721 0.0345 0.0000 ( 36089 PWs)   bands (ev):

   -61.8567 -61.8459 -61.7940 -61.7832 -61.4851 -61.4738 -30.4101 -30.3797
   -30.3358 -30.3075 -30.3042 -30.2821 -30.2474 -30.2429 -30.2226 -30.1901
   -30.1168 -30.0374 -29.9759 -29.9477 -29.9202 -29.9160 -29.8961 -29.8380
    -5.3456  -4.0705  -3.7905  -3.7838  -3.2804  -3.2611  -3.2302  -3.1575
    -3.0161  -3.0130  -2.7847  -2.6665  -2.6450  -2.4203  -2.3681  -2.1833
    -2.1090  -2.0492  -1.9807  -1.9527  -1.8531  -1.7448  -1.7332  -1.6923
    -1.5509  -1.4450  -1.3479  -1.2575  -1.1848  -1.1355  -0.9062  -0.8356
    -0.7414  -0.4682  -0.1421  -0.0424  -0.0284   0.0054   0.3820   0.5554
     0.6804   1.1350   1.3368   1.6038   1.6534   1.7879   1.7967   1.9550
     2.2176   2.4335   2.5818   2.7792   2.8700   3.2416   3.3204

          k = 0.0721 0.0499 0.0000 ( 36070 PWs)   bands (ev):

   -61.8568 -61.8457 -61.7941 -61.7830 -61.4853 -61.4735 -30.4112 -30.3791
   -30.3358 -30.3095 -30.3063 -30.2850 -30.2481 -30.2479 -30.2241 -30.1896
   -30.1220 -30.0328 -29.9713 -29.9490 -29.9204 -29.9157 -29.8963 -29.8333
    -5.1280  -4.2419  -3.6607  -3.6394  -3.2583  -3.1620  -3.1519  -3.1200
    -2.9082  -2.8639  -2.7748  -2.6397  -2.6254  -2.4008  -2.3628  -2.2698
    -2.0333  -2.0009  -1.9361  -1.9201  -1.7676  -1.7524  -1.7361  -1.7359
    -1.5215  -1.3915  -1.3601  -1.3092  -1.2076  -1.1232  -1.0717  -0.8035
    -0.7662  -0.3947  -0.2426   0.0132   0.0696   0.1831   0.2073   0.2894
     0.4235   1.0591   1.2070   1.3966   1.5094   1.7065   1.7113   1.7491
     2.2104   2.3596   2.4629   2.6241   2.8498   3.2000   3.2097

          k = 0.0721-0.1196 0.0000 ( 36065 PWs)   bands (ev):

   -61.8566 -61.8459 -61.7939 -61.7832 -61.4851 -61.4737 -30.4111 -30.3795
   -30.3350 -30.3065 -30.3051 -30.2858 -30.2488 -30.2439 -30.2239 -30.1898
   -30.1174 -30.0376 -29.9761 -29.9488 -29.9212 -29.9147 -29.8972 -29.8384
    -4.8579  -4.4004  -3.7416  -3.5511  -3.1458  -3.0859  -3.0631  -3.0512
    -2.8222  -2.7887  -2.7393  -2.6398  -2.5994  -2.4467  -2.4054  -2.2938
    -1.9995  -1.9301  -1.9296  -1.8959  -1.8244  -1.7522  -1.7420  -1.7094
    -1.5445  -1.4228  -1.4166  -1.3632  -1.3405  -1.1913  -1.1044  -0.8355
    -0.7868  -0.4856  -0.3544  -0.2812  -0.1301   0.1229   0.2172   0.4536
     0.5745   1.1911   1.2380   1.4360   1.5295   1.6343   1.7096   1.7319
     2.2118   2.3820   2.4363   2.5617   2.8321   3.0290   3.3384

          k = 0.0721-0.1042 0.0000 ( 36084 PWs)   bands (ev):

   -61.8561 -61.8465 -61.7934 -61.7838 -61.4845 -61.4743 -30.4097 -30.3808
   -30.3336 -30.3076 -30.2917 -30.2844 -30.2500 -30.2304 -30.2222 -30.1907
   -30.1032 -30.0514 -29.9899 -29.9471 -29.9225 -29.9132 -29.8987 -29.8530
    -4.5758  -4.5165  -4.0103  -3.4835  -3.0904  -3.0117  -2.9755  -2.9568
    -2.8334  -2.8043  -2.7158  -2.6808  -2.5482  -2.4988  -2.4810  -2.2701
    -1.9978  -1.9640  -1.9599  -1.9259  -1.8216  -1.7617  -1.7508  -1.6560
    -1.6330  -1.5685  -1.5424  -1.4529  -1.3469  -1.2301  -1.1031  -0.9369
    -0.8802  -0.7838  -0.7012  -0.3677  -0.2576   0.2767   0.3041   0.6012
     0.8607   1.2884   1.4757   1.6228   1.6375   1.7980   1.8085   1.8945
     2.2361   2.5225   2.5399   2.6175   2.8261   3.0174   3.4466

          k = 0.0721-0.0888 0.0000 ( 36113 PWs)   bands (ev):

   -61.8552 -61.8474 -61.7925 -61.7847 -61.4836 -61.4753 -30.4071 -30.3830
   -30.3315 -30.3101 -30.2808 -30.2699 -30.2514 -30.2190 -30.2086 -30.1923
   -30.0804 -30.0732 -30.0117 -29.9441 -29.9242 -29.9113 -29.9006 -29.8760
    -4.6710  -4.3541  -4.2107  -3.4806  -3.1533  -2.9885  -2.9581  -2.9014
    -2.8905  -2.8544  -2.7441  -2.7130  -2.5579  -2.5334  -2.4189  -2.2111
    -2.0694  -2.0493  -1.9768  -1.9736  -1.8930  -1.8784  -1.7573  -1.7565
    -1.6683  -1.6382  -1.5758  -1.4241  -1.4093  -1.2787  -1.2244  -1.0824
    -1.0822  -1.0315  -0.7718  -0.2998  -0.2939   0.4033   0.4961   0.7458
     1.1933   1.4669   1.6342   1.6907   1.9259   1.9649   2.1098   2.2539
     2.2696   2.5993   2.7579   2.7758   2.8377   3.2609   3.3291

          k = 0.0721-0.0734 0.0000 ( 36059 PWs)   bands (ev):

   -61.8541 -61.8486 -61.7914 -61.7859 -61.4824 -61.4765 -30.4036 -30.3858
   -30.3290 -30.3134 -30.2754 -30.2532 -30.2410 -30.2149 -30.1949 -30.1797
   -30.1015 -30.0505 -30.0400 -29.9402 -29.9264 -29.9090 -29.9056 -29.9029
    -4.7598  -4.7106  -3.8783  -3.5376  -3.3478  -3.0803  -3.0495  -3.0233
    -2.8574  -2.8147  -2.8084  -2.6738  -2.5626  -2.5147  -2.2748  -2.2038
    -2.1519  -2.0821  -2.0696  -2.0343  -1.9925  -1.9610  -1.8373  -1.8174
    -1.7596  -1.6969  -1.6553  -1.5036  -1.4678  -1.4135  -1.3192  -1.2393
    -1.0784  -0.8811  -0.7713  -0.3095  -0.1285   0.5197   0.6531   0.9215
     1.4930   1.6883   1.7566   1.8851   2.1297   2.1646   2.2903   2.4151
     2.4987   2.6181   2.9423   2.9452   3.0107   3.2464   3.3626

          k = 0.0721-0.0580 0.0000 ( 36066 PWs)   bands (ev):

   -61.8527 -61.8499 -61.7900 -61.7872 -61.4810 -61.4779 -30.3995 -30.3892
   -30.3261 -30.3175 -30.2692 -30.2554 -30.2101 -30.2075 -30.1981 -30.1461
   -30.1345 -30.0730 -30.0156 -29.9413 -29.9350 -29.9289 -29.9064 -29.9054
    -5.0336  -4.8024  -3.6406  -3.5902  -3.5571  -3.1765  -3.1753  -3.1192
    -2.9461  -2.8802  -2.7320  -2.6501  -2.5522  -2.3728  -2.3705  -2.3477
    -2.1360  -2.1019  -2.0713  -2.0504  -2.0390  -1.9988  -1.8994  -1.8559
    -1.8229  -1.7968  -1.7170  -1.6206  -1.5259  -1.3979  -1.3518  -1.3232
    -0.9453  -0.7863  -0.7200  -0.2965   0.1482   0.5581   0.7566   1.1136
     1.7272   1.7793   1.9204   2.1388   2.2244   2.3395   2.3746   2.5138
     2.5932   2.8163   2.9470   3.0136   3.1258   3.1342   3.2708

          k = 0.0721-0.0426 0.0000 ( 36024 PWs)   bands (ev):

   -61.8514 -61.8513 -61.7887 -61.7886 -61.4795 -61.4795 -30.3950 -30.3930
   -30.3228 -30.3218 -30.2628 -30.2584 -30.2053 -30.2021 -30.1714 -30.1699
   -30.1100 -30.1083 -29.9781 -29.9777 -29.9317 -29.9312 -29.9081 -29.9038
    -5.2937  -4.7849  -3.7995  -3.6801  -3.3788  -3.2994  -3.2324  -3.1944
    -3.0292  -2.9575  -2.8029  -2.6212  -2.5257  -2.4508  -2.4232  -2.2524
    -2.2144  -2.1490  -2.0837  -2.0784  -2.0026  -1.9532  -1.9044  -1.9010
    -1.8211  -1.8014  -1.6730  -1.6255  -1.5674  -1.4014  -1.3827  -1.2710
    -0.8184  -0.8124  -0.6100  -0.2798   0.4968   0.5013   0.8103   1.2494
     1.7176   1.9505   1.9984   2.1010   2.3395   2.4671   2.4889   2.7073
     2.7263   2.7793   2.8831   2.9765   3.0031   3.2202   3.3450

          k =-0.0866 0.0326 0.0000 ( 36056 PWs)   bands (ev):

   -61.8514 -61.8514 -61.7887 -61.7887 -61.4795 -61.4795 -30.3939 -30.3939
   -30.3228 -30.3228 -30.2599 -30.2599 -30.2042 -30.2042 -30.1706 -30.1706
   -30.1092 -30.1091 -29.9780 -29.9779 -29.9313 -29.9313 -29.9061 -29.9060
    -5.0774  -5.0774  -3.7574  -3.7574  -3.2757  -3.2757  -3.2068  -3.2068
    -3.0257  -3.0257  -2.7314  -2.7314  -2.4675  -2.4675  -2.3610  -2.3610
    -2.1923  -2.1923  -2.0625  -2.0625  -1.9795  -1.9795  -1.8651  -1.8651
    -1.7919  -1.7919  -1.6084  -1.6084  -1.4705  -1.4705  -1.3362  -1.3362
    -0.8185  -0.8185  -0.4289  -0.4289   0.4869   0.4869   0.9405   0.9405
     1.7791   1.7791   2.0415   2.0415   2.4020   2.4020   2.5913   2.5914
     2.7417   2.7418   2.8571   2.8572   3.1138   3.1141   3.2322

          k =-0.0866 0.0480 0.0000 ( 36059 PWs)   bands (ev):

   -61.8528 -61.8499 -61.7901 -61.7872 -61.4810 -61.4780 -30.3982 -30.3898
   -30.3265 -30.3188 -30.2653 -30.2556 -30.2089 -30.2064 -30.1998 -30.1450
   -30.1348 -30.0734 -30.0152 -29.9416 -29.9341 -29.9280 -29.9084 -29.9036
    -5.1768  -4.8988  -3.7940  -3.6530  -3.3508  -3.2309  -3.2007  -3.1779
    -3.1163  -2.9618  -2.8770  -2.6140  -2.4745  -2.4067  -2.3423  -2.3351
    -2.2449  -2.1514  -2.1369  -2.0276  -2.0011  -1.9322  -1.8758  -1.8472
    -1.7346  -1.7162  -1.5795  -1.5761  -1.4653  -1.4462  -1.3565  -1.2961
    -0.8751  -0.7887  -0.5658  -0.3390   0.4462   0.5158   0.6337   1.1225
     1.6416   1.8258   1.9286   2.1635   2.2752   2.3672   2.3892   2.5429
     2.6005   2.8165   2.8717   2.9109   3.0780   3.1669   3.1711

          k =-0.0866 0.0634 0.0000 ( 36051 PWs)   bands (ev):

   -61.8541 -61.8486 -61.7914 -61.7859 -61.4824 -61.4765 -30.4024 -30.3862
   -30.3297 -30.3148 -30.2714 -30.2527 -30.2397 -30.2137 -30.1962 -30.1784
   -30.1016 -30.0500 -30.0401 -29.9396 -29.9254 -29.9109 -29.9052 -29.9014
    -5.1972  -4.6487  -3.7723  -3.5661  -3.4916  -3.1638  -3.1587  -3.1278
    -3.1182  -2.9471  -2.8995  -2.6302  -2.5019  -2.4614  -2.3064  -2.2388
    -2.1694  -2.1477  -2.1379  -2.0224  -1.9553  -1.9396  -1.8025  -1.7897
    -1.6690  -1.5627  -1.5447  -1.5117  -1.4324  -1.4166  -1.2405  -1.2148
    -0.9745  -0.7719  -0.7243  -0.2964   0.3038   0.3928   0.5108   1.0728
     1.5438   1.6160   1.9065   1.9940   2.1422   2.1962   2.3246   2.3775
     2.4367   2.7087   2.8346   2.9393   2.9830   3.2857   3.2958

          k =-0.0866 0.0788 0.0000 ( 36046 PWs)   bands (ev):

   -61.8552 -61.8474 -61.7925 -61.7847 -61.4836 -61.4753 -30.4062 -30.3831
   -30.3322 -30.3112 -30.2773 -30.2692 -30.2502 -30.2181 -30.2078 -30.1928
   -30.0800 -30.0731 -30.0116 -29.9434 -29.9234 -29.9125 -29.8995 -29.8756
    -5.1443  -4.3455  -3.8650  -3.6818  -3.3083  -3.1007  -3.1003  -3.0577
    -3.0524  -2.9951  -2.8136  -2.6654  -2.5459  -2.4991  -2.3640  -2.1615
    -2.1093  -2.0865  -2.0489  -2.0115  -1.9652  -1.8704  -1.7384  -1.6511
    -1.6464  -1.5725  -1.5074  -1.4176  -1.3526  -1.2120  -1.1248  -1.0879
    -0.9608  -0.8770  -0.7640  -0.2763   0.0125   0.3124   0.4459   0.8953
     1.2265   1.5761   1.6325   1.7818   1.9471   2.0204   2.1659   2.2319
     2.4151   2.5175   2.7592   2.7896   2.9018   3.3559   3.3768

          k =-0.0866 0.0942 0.0000 ( 36077 PWs)   bands (ev):

   -61.8561 -61.8465 -61.7934 -61.7838 -61.4845 -61.4743 -30.4092 -30.3809
   -30.3340 -30.3083 -30.2913 -30.2824 -30.2493 -30.2299 -30.2216 -30.1909
   -30.1029 -30.0513 -29.9898 -29.9466 -29.9220 -29.9139 -29.8981 -29.8528
    -5.0273  -4.1369  -4.0235  -3.6086  -3.1682  -3.0966  -3.0682  -3.0333
    -2.9406  -2.9189  -2.7506  -2.6788  -2.5874  -2.4556  -2.4169  -2.2041
    -2.0710  -1.9771  -1.9651  -1.9394  -1.9370  -1.7891  -1.7048  -1.6873
    -1.6267  -1.4662  -1.4517  -1.3919  -1.2874  -1.2376  -1.0463  -0.9279
    -0.8347  -0.7680  -0.6233  -0.2440  -0.2119   0.2129   0.3318   0.6892
     0.8783   1.3746   1.4574   1.5814   1.7349   1.8351   1.8740   2.0235
     2.2297   2.5072   2.5899   2.7184   2.7736   3.1797   3.3115

          k =-0.0866 0.1096 0.0000 ( 36065 PWs)   bands (ev):

   -61.8566 -61.8459 -61.7939 -61.7832 -61.4851 -61.4737 -30.4111 -30.3795
   -30.3350 -30.3065 -30.3051 -30.2858 -30.2488 -30.2439 -30.2239 -30.1898
   -30.1174 -30.0376 -29.9761 -29.9488 -29.9212 -29.9147 -29.8972 -29.8384
    -4.8579  -4.4004  -3.7416  -3.5511  -3.1458  -3.0859  -3.0631  -3.0512
    -2.8222  -2.7887  -2.7393  -2.6398  -2.5994  -2.4467  -2.4054  -2.2938
    -1.9995  -1.9301  -1.9296  -1.8959  -1.8244  -1.7522  -1.7420  -1.7094
    -1.5445  -1.4228  -1.4166  -1.3632  -1.3405  -1.1913  -1.1044  -0.8355
    -0.7868  -0.4856  -0.3544  -0.2812  -0.1301   0.1229   0.2172   0.4536
     0.5745   1.1911   1.2380   1.4360   1.5295   1.6343   1.7096   1.7319
     2.2118   2.3820   2.4363   2.5617   2.8321   3.0290   3.3384

          k =-0.0866-0.0599 0.0000 ( 36072 PWs)   bands (ev):

   -61.8568 -61.8457 -61.7941 -61.7830 -61.4853 -61.4735 -30.4118 -30.3791
   -30.3354 -30.3100 -30.3057 -30.2871 -30.2487 -30.2487 -30.2247 -30.1894
   -30.1223 -30.0330 -29.9715 -29.9495 -29.9209 -29.9150 -29.8969 -29.8335
    -4.6715  -4.6178  -3.6106  -3.5309  -3.1814  -3.0689  -3.0663  -3.0548
    -2.7874  -2.7594  -2.6603  -2.6295  -2.6104  -2.4538  -2.4201  -2.3129
    -1.9710  -1.9205  -1.9032  -1.8566  -1.8071  -1.7677  -1.7672  -1.7031
    -1.4876  -1.4487  -1.3976  -1.3260  -1.3113  -1.2504  -1.0816  -0.7975
    -0.7962  -0.4042  -0.3781  -0.0309   0.0508   0.0854   0.1536   0.2439
     0.4087   1.1141   1.1234   1.3537   1.3797   1.6141   1.6303   1.6666
     2.1852   2.3372   2.3731   2.5027   2.7965   3.1420   3.1546

     the Fermi energy is     1.7472 ev

!    total energy              =   -1154.76536721 Ry
     estimated scf accuracy    <       0.00000482 Ry
     smearing contrib. (-TS)   =      -0.05449768 Ry
     internal energy E=F+TS    =   -1154.71086953 Ry

     The total energy is F=E-TS. E is the sum of the following terms:
     one-electron contribution =   -8096.02856189 Ry
     hartree contribution      =    4077.09771203 Ry
     xc contribution           =    -404.73512674 Ry
     ewald contribution        =    3268.95509823 Ry
     electric field correction =       0.00000882 Ry

     convergence has been achieved in  16 iterations

     negative rho (up, down):  5.291E-04 0.000E+00

     Forces acting on atoms (cartesian axes, Ry/au):

     atom    1 type  1   force =    -0.00152848   -0.00105442   -0.00218168
     atom    2 type  1   force =    -0.00152985   -0.00105930   -0.00217578
     atom    3 type  2   force =    -0.00184202   -0.00127707    0.03187755
     atom    4 type  2   force =    -0.00184497   -0.00127500    0.03186236
     atom    5 type  1   force =     0.00096075    0.00066401   -0.02577307
     atom    6 type  1   force =     0.00094879    0.00065995   -0.02577189
     atom    7 type  2   force =    -0.00057066   -0.00040509    0.00194015
     atom    8 type  2   force =    -0.00058403   -0.00040577    0.00193255
     atom    9 type  1   force =     0.00136045    0.00094300   -0.00234665
     atom   10 type  1   force =     0.00136488    0.00094728   -0.00235018
     atom   11 type  2   force =     0.00163411    0.00113078   -0.00351008
     atom   12 type  2   force =     0.00163103    0.00113164   -0.00350328

     Total force =     0.058707     Total SCF correction =     0.010896
     SCF correction compared to forces is large: reduce conv_thr to get better values

     Writing output data file ./Hf2Pt2/Hf2Pt2_beef.save/

     init_run     :     91.40s CPU     91.89s WALL (       1 calls)
     electrons    :   2833.35s CPU   2852.58s WALL (       1 calls)
     forces       :     44.37s CPU     44.57s WALL (       1 calls)

     Called by init_run:
     wfcinit      :     74.44s CPU     74.76s WALL (       1 calls)
     potinit      :     10.37s CPU     10.43s WALL (       1 calls)
     hinit0       :      4.48s CPU      4.48s WALL (       1 calls)

     Called by electrons:
     c_bands      :   2523.52s CPU   2537.39s WALL (      17 calls)
     sum_band     :    271.70s CPU    274.60s WALL (      17 calls)
     v_of_rho     :     29.75s CPU     30.59s WALL (      17 calls)
     newd         :     14.87s CPU     16.50s WALL (      17 calls)
     mix_rho      :      2.09s CPU      2.10s WALL (      17 calls)
     vdW_kernel   :      6.56s CPU      6.56s WALL (       1 calls)

     Called by c_bands:
     init_us_2    :     10.66s CPU     10.73s WALL (    2664 calls)
     cegterg      :   2494.41s CPU   2506.74s WALL (    1258 calls)

     Called by *egterg:
     cdiaghg      :    113.24s CPU    113.39s WALL (    6961 calls)
     h_psi        :   1462.26s CPU   1472.71s WALL (    7109 calls)
     s_psi        :    382.36s CPU    382.70s WALL (    7109 calls)
     g_psi        :      1.17s CPU      1.18s WALL (    5777 calls)

     Called by h_psi:
     h_psi:calbec :    407.16s CPU    408.18s WALL (    7109 calls)
     vloc_psi     :    641.62s CPU    650.69s WALL (    7109 calls)
     add_vuspsi   :    409.60s CPU    409.93s WALL (    7109 calls)

     General routines
     calbec       :    601.54s CPU    602.96s WALL (    8663 calls)
     fft          :     21.21s CPU     21.59s WALL (    1131 calls)
     ffts         :      0.21s CPU      0.22s WALL (      34 calls)
     fftw         :    702.26s CPU    711.99s WALL (  596146 calls)
     interpolate  :      0.47s CPU      0.48s WALL (      17 calls)

     Parallel routines
     fft_scatt_xy :     37.90s CPU     38.39s WALL (  597311 calls)
     fft_scatt_yz :    330.82s CPU    336.14s WALL (  597311 calls)

     PWSCF        :  50m 9.01s CPU  50m49.81s WALL


   This run was terminated on:  16:41:20  24Jun2022            

=------------------------------------------------------------------------------=
   JOB DONE.
=------------------------------------------------------------------------------=
