
     Program PWSCF v.6.6 starts on 24Jun2022 at 16:41:23 

     This program is part of the open-source Quantum ESPRESSO suite
     for quantum simulation of materials; please cite
         "P. Giannozzi et al., J. Phys.:Condens. Matter 21 395502 (2009);
         "P. Giannozzi et al., J. Phys.:Condens. Matter 29 465901 (2017);
          URL http://www.quantum-espresso.org", 
     in publications or presentations arising from this work. More details at
     http://www.quantum-espresso.org/quote

     Parallel version (MPI), running on    37 processors

     MPI processes distributed on     1 nodes
     R & G space division:  proc/nbgrp/npool/nimage =      37
     Fft bands division:     nmany     =       1
     Reading input from Hf2Re2.in
Warning: card &CELL ignored
Warning: card / ignored

     Current dimensions of program PWSCF are:
     Max number of different atomic species (ntypx) = 10
     Max number of k-points (npk) =  40000
     Max angular momentum in pseudopotentials (lmaxx) =  3
     Presently stress not available with electric field and gates

     Message from routine cell_base_init:
     DEPRECATED: use true lattice parameter, not A to a.u. conversion factor

     **************************************************************************
     Initializing libbeef V0.1.2 with the BEEF-vdW functional.
     Citation: Wellendorff et al., PRB 85, 235149 (2012).
     **************************************************************************


     IMPORTANT: XC functional enforced from input :
     Exchange-correlation= BEEF-VDW
                           (   1   4  43  14   2   0   0)
     Any further DFT definition will be discarded
     Please, verify this is what you really want


     Subspace diagonalization in iterative solution of the eigenvalue problem:
     a serial algorithm will be used

     Found symmetry operation: I + ( -0.5000  0.5000  0.0000)
     This is a supercell, fractional translations are disabled

     Parallelization info
     --------------------
     sticks:   dense  smooth     PW     G-vecs:    dense   smooth      PW
     Min         128      51     14                29760     7527    1122
     Max         129      52     15                29775     7548    1145
     Sum        4747    1905    537              1101401   278857   41877



     bravais-lattice index     =            0
     lattice parameter (alat)  =       1.8897  a.u.
     unit-cell volume          =    5040.6921 (a.u.)^3
     number of atoms/cell      =           12
     number of atomic types    =            2
     number of electrons       =       162.00
     number of Kohn-Sham states=           97
     kinetic-energy cutoff     =      55.1240  Ry
     charge density cutoff     =     551.2396  Ry
     convergence threshold     =      1.0E-05
     mixing beta               =       0.1000
     number of iterations used =           10  plain     mixing
     Exchange-correlation= BEEF-VDW
                           (   1   4  43  14   2   0   0)

     celldm(1)=   1.889726  celldm(2)=   0.000000  celldm(3)=   0.000000
     celldm(4)=   0.000000  celldm(5)=   0.000000  celldm(6)=   0.000000

     crystal axes: (cart. coord. in units of alat)
               a(1) = (   5.673930   0.000000   0.000000 )  
               a(2) = (   1.908729   5.343242   0.000000 )  
               a(3) = (   0.000000   0.000000  24.637965 )  

     reciprocal axes: (cart. coord. in units 2 pi/alat)
               b(1) = (  0.176245 -0.062959  0.000000 )  
               b(2) = (  0.000000  0.187152  0.000000 )  
               b(3) = (  0.000000  0.000000  0.040588 )  


     PseudoPot. # 1 for Hf read from file:
     ../pseudo/Hf.pbe-spn-rrkjus_psl.1.0.0.UPF
     MD5 check sum: 9605440c6f839e558204c6a924125fd0
     Pseudo is Ultrasoft + core correction, Zval = 12.0
     Generated using "atomic" code by A. Dal Corso v.6.2.2
     Using radial grid of 1271 points,  6 beta functions with: 
                l(1) =   0
                l(2) =   0
                l(3) =   1
                l(4) =   1
                l(5) =   2
                l(6) =   2
     Q(r) pseudized with 0 coefficients 


     PseudoPot. # 2 for Re read from file:
     ../pseudo/Re.pbe-spn-rrkjus_psl.1.0.0.UPF
     MD5 check sum: 1282f1ec51ad523723a04c61ae80a9e6
     Pseudo is Ultrasoft + core correction, Zval = 15.0
     Generated using "atomic" code by A. Dal Corso v.6.2.2
     Using radial grid of 1275 points,  6 beta functions with: 
                l(1) =   0
                l(2) =   0
                l(3) =   1
                l(4) =   1
                l(5) =   2
                l(6) =   2
     Q(r) pseudized with 0 coefficients 


     atomic species   valence    mass     pseudopotential
        Hf            12.00   178.49000     Hf( 1.00)
        Re            15.00   186.20700     Re( 1.00)

     No symmetry found



   Cartesian axes

     site n.     atom                  positions (alat units)
         1           Hf  tau(   1) = (   0.0000000   0.0000000  10.0000000  )
         2           Hf  tau(   2) = (   3.7913296   2.6716208  10.0000000  )
         3           Re  tau(   3) = (   2.8369648   0.0000000  10.0000000  )
         4           Re  tau(   4) = (   0.9543647   2.6716208  10.0000000  )
         5           Hf  tau(   5) = (   5.6739297   3.9982249  12.3189823  )
         6           Hf  tau(   6) = (   1.8826001   1.3266041  12.3189823  )
         7           Re  tau(   7) = (   2.8369648   3.9982249  12.3189823  )
         8           Re  tau(   8) = (   4.7195649   1.3266041  12.3189823  )
         9           Hf  tau(   9) = (   3.7709748   2.6572679  14.6237532  )
        10           Hf  tau(  10) = (   7.5622819   5.3288899  14.6237526  )
        11           Re  tau(  11) = (   6.6045255   2.6548832  14.5655231  )
        12           Re  tau(  12) = (   4.7219471   5.3264914  14.5654751  )

     number of k points=    74  Fermi-Dirac smearing, width (Ry)=  0.0100
                       cart. coord. in units 2pi/alat
        k(    1) = (   0.0000000   0.0000000   0.0000000), wk =   0.0138889
        k(    2) = (   0.0000000   0.0155960   0.0000000), wk =   0.0277778
        k(    3) = (   0.0000000   0.0311920   0.0000000), wk =   0.0277778
        k(    4) = (   0.0000000   0.0467881   0.0000000), wk =   0.0277778
        k(    5) = (   0.0000000   0.0623841   0.0000000), wk =   0.0277778
        k(    6) = (   0.0000000   0.0779801   0.0000000), wk =   0.0277778
        k(    7) = (   0.0000000  -0.0935761   0.0000000), wk =   0.0138889
        k(    8) = (   0.0146871  -0.0052466   0.0000000), wk =   0.0277778
        k(    9) = (   0.0146871   0.0103495   0.0000000), wk =   0.0277778
        k(   10) = (   0.0146871   0.0259455   0.0000000), wk =   0.0277778
        k(   11) = (   0.0146871   0.0415415   0.0000000), wk =   0.0277778
        k(   12) = (   0.0146871   0.0571375   0.0000000), wk =   0.0277778
        k(   13) = (   0.0146871   0.0727336   0.0000000), wk =   0.0277778
        k(   14) = (   0.0146871  -0.0988227   0.0000000), wk =   0.0277778
        k(   15) = (   0.0146871  -0.0832267   0.0000000), wk =   0.0277778
        k(   16) = (   0.0146871  -0.0676307   0.0000000), wk =   0.0277778
        k(   17) = (   0.0146871  -0.0520346   0.0000000), wk =   0.0277778
        k(   18) = (   0.0146871  -0.0364386   0.0000000), wk =   0.0277778
        k(   19) = (   0.0146871  -0.0208426   0.0000000), wk =   0.0277778
        k(   20) = (   0.0293741  -0.0104931   0.0000000), wk =   0.0277778
        k(   21) = (   0.0293741   0.0051029   0.0000000), wk =   0.0277778
        k(   22) = (   0.0293741   0.0206989   0.0000000), wk =   0.0277778
        k(   23) = (   0.0293741   0.0362950   0.0000000), wk =   0.0277778
        k(   24) = (   0.0293741   0.0518910   0.0000000), wk =   0.0277778
        k(   25) = (   0.0293741   0.0674870   0.0000000), wk =   0.0277778
        k(   26) = (   0.0293741  -0.1040693   0.0000000), wk =   0.0277778
        k(   27) = (   0.0293741  -0.0884732   0.0000000), wk =   0.0277778
        k(   28) = (   0.0293741  -0.0728772   0.0000000), wk =   0.0277778
        k(   29) = (   0.0293741  -0.0572812   0.0000000), wk =   0.0277778
        k(   30) = (   0.0293741  -0.0416852   0.0000000), wk =   0.0277778
        k(   31) = (   0.0293741  -0.0260891   0.0000000), wk =   0.0277778
        k(   32) = (   0.0440612  -0.0157397   0.0000000), wk =   0.0277778
        k(   33) = (   0.0440612  -0.0001436   0.0000000), wk =   0.0277778
        k(   34) = (   0.0440612   0.0154524   0.0000000), wk =   0.0277778
        k(   35) = (   0.0440612   0.0310484   0.0000000), wk =   0.0277778
        k(   36) = (   0.0440612   0.0466444   0.0000000), wk =   0.0277778
        k(   37) = (   0.0440612   0.0622405   0.0000000), wk =   0.0277778
        k(   38) = (   0.0440612  -0.1093158   0.0000000), wk =   0.0277778
        k(   39) = (   0.0440612  -0.0937198   0.0000000), wk =   0.0277778
        k(   40) = (   0.0440612  -0.0781238   0.0000000), wk =   0.0277778
        k(   41) = (   0.0440612  -0.0625277   0.0000000), wk =   0.0277778
        k(   42) = (   0.0440612  -0.0469317   0.0000000), wk =   0.0277778
        k(   43) = (   0.0440612  -0.0313357   0.0000000), wk =   0.0277778
        k(   44) = (   0.0587482  -0.0209862   0.0000000), wk =   0.0277778
        k(   45) = (   0.0587482  -0.0053902   0.0000000), wk =   0.0277778
        k(   46) = (   0.0587482   0.0102058   0.0000000), wk =   0.0277778
        k(   47) = (   0.0587482   0.0258019   0.0000000), wk =   0.0277778
        k(   48) = (   0.0587482   0.0413979   0.0000000), wk =   0.0277778
        k(   49) = (   0.0587482   0.0569939   0.0000000), wk =   0.0277778
        k(   50) = (   0.0587482  -0.1145624   0.0000000), wk =   0.0277778
        k(   51) = (   0.0587482  -0.0989663   0.0000000), wk =   0.0277778
        k(   52) = (   0.0587482  -0.0833703   0.0000000), wk =   0.0277778
        k(   53) = (   0.0587482  -0.0677743   0.0000000), wk =   0.0277778
        k(   54) = (   0.0587482  -0.0521783   0.0000000), wk =   0.0277778
        k(   55) = (   0.0587482  -0.0365822   0.0000000), wk =   0.0277778
        k(   56) = (   0.0734353  -0.0262328   0.0000000), wk =   0.0277778
        k(   57) = (   0.0734353  -0.0106367   0.0000000), wk =   0.0277778
        k(   58) = (   0.0734353   0.0049593   0.0000000), wk =   0.0277778
        k(   59) = (   0.0734353   0.0205553   0.0000000), wk =   0.0277778
        k(   60) = (   0.0734353   0.0361513   0.0000000), wk =   0.0277778
        k(   61) = (   0.0734353   0.0517473   0.0000000), wk =   0.0277778
        k(   62) = (   0.0734353  -0.1198089   0.0000000), wk =   0.0277778
        k(   63) = (   0.0734353  -0.1042129   0.0000000), wk =   0.0277778
        k(   64) = (   0.0734353  -0.0886169   0.0000000), wk =   0.0277778
        k(   65) = (   0.0734353  -0.0730208   0.0000000), wk =   0.0277778
        k(   66) = (   0.0734353  -0.0574248   0.0000000), wk =   0.0277778
        k(   67) = (   0.0734353  -0.0418288   0.0000000), wk =   0.0277778
        k(   68) = (  -0.0881223   0.0314793   0.0000000), wk =   0.0138889
        k(   69) = (  -0.0881223   0.0470754   0.0000000), wk =   0.0277778
        k(   70) = (  -0.0881223   0.0626714   0.0000000), wk =   0.0277778
        k(   71) = (  -0.0881223   0.0782674   0.0000000), wk =   0.0277778
        k(   72) = (  -0.0881223   0.0938634   0.0000000), wk =   0.0277778
        k(   73) = (  -0.0881223   0.1094595   0.0000000), wk =   0.0277778
        k(   74) = (  -0.0881223  -0.0620968   0.0000000), wk =   0.0138889

     Dense  grid:  1101401 G-vectors     FFT dimensions: (  81,  81, 360)

     Smooth grid:   278857 G-vectors     FFT dimensions: (  54,  54, 225)

     Estimated max dynamical RAM per process >     222.77 MB

     Estimated total dynamical RAM >       8.05 GB

     Initial potential from superposition of free atoms

     starting charge  161.98657, renormalised to  162.00000

     negative rho (up, down):  4.636E-04 0.000E+00


     %%%%%%%%%%%%%%%%%%%%%%%%%%%%%%%%%%%%%%%%%%%%%%%%%%%%%%%%%%%%%%%%%%%%%%%%
     %                                                                      %
     % You are using vdW-DF, which was implemented by the Thonhauser group. %
     % Please cite the following two papers that made this development      %
     % possible and the two reviews that describe the various versions:     %
     %                                                                      %
     %   T. Thonhauser et al., PRL 115, 136402 (2015).                      %
     %   T. Thonhauser et al., PRB 76, 125112 (2007).                       %
     %   K. Berland et al., Rep. Prog. Phys. 78, 066501 (2015).             %
     %   D.C. Langreth et al., J. Phys.: Condens. Matter 21, 084203 (2009). %
     %                                                                      %
     %                                                                      %
     % If you are calculating the stress with vdW-DF, please also cite:     %
     %                                                                      %
     %   R. Sabatini et al., J. Phys.: Condens. Matter 24, 424209 (2012).   %
     %                                                                      %
     %%%%%%%%%%%%%%%%%%%%%%%%%%%%%%%%%%%%%%%%%%%%%%%%%%%%%%%%%%%%%%%%%%%%%%%%



     Adding external electric field

     Computed dipole along edir(3) : 
        Dipole                0.0002 Ry au,          0.0005 Debye
        Dipole field          0.0000 Ry au, 

        Potential amp.       -0.0000 Ry
        Total length         45.3950 bohr

     Starting wfcs are  120 randomized atomic wfcs

     total cpu time spent up to now is       86.1 secs

     Self-consistent Calculation

     iteration #  1     ecut=    55.12 Ry     beta= 0.10
     Davidson diagonalization with overlap
     ethr =  1.00E-02,  avg # of iterations =  2.8

     negative rho (up, down):  3.623E-04 0.000E+00

     Adding external electric field

     Computed dipole along edir(3) : 
        Dipole               -0.1016 Ry au,         -0.2581 Debye
        Dipole field         -0.0003 Ry au, 

        Potential amp.        0.0230 Ry
        Total length         45.3950 bohr


     total cpu time spent up to now is      289.6 secs

     total energy              =   -1832.74255181 Ry
     estimated scf accuracy    <       4.38748026 Ry

     iteration #  2     ecut=    55.12 Ry     beta= 0.10
     Davidson diagonalization with overlap
     ethr =  2.71E-03,  avg # of iterations =  2.7

     negative rho (up, down):  2.956E-04 0.000E+00

     Adding external electric field

     Computed dipole along edir(3) : 
        Dipole                0.5613 Ry au,          1.4267 Debye
        Dipole field          0.0014 Ry au, 

        Potential amp.       -0.1270 Ry
        Total length         45.3950 bohr


     total cpu time spent up to now is      515.5 secs

     total energy              =   -1832.87883189 Ry
     estimated scf accuracy    <       1.23680345 Ry

     iteration #  3     ecut=    55.12 Ry     beta= 0.10
     Davidson diagonalization with overlap
     ethr =  7.63E-04,  avg # of iterations =  6.3

     negative rho (up, down):  2.637E-04 0.000E+00

     Adding external electric field

     Computed dipole along edir(3) : 
        Dipole               -0.0538 Ry au,         -0.1368 Debye
        Dipole field         -0.0001 Ry au, 

        Potential amp.        0.0122 Ry
        Total length         45.3950 bohr


     total cpu time spent up to now is      715.2 secs

     total energy              =   -1832.77341505 Ry
     estimated scf accuracy    <      14.89446558 Ry

     iteration #  4     ecut=    55.12 Ry     beta= 0.10
     Davidson diagonalization with overlap
     ethr =  7.63E-04,  avg # of iterations =  1.8

     negative rho (up, down):  2.302E-04 0.000E+00

     Adding external electric field

     Computed dipole along edir(3) : 
        Dipole                0.0020 Ry au,          0.0050 Debye
        Dipole field          0.0000 Ry au, 

        Potential amp.       -0.0004 Ry
        Total length         45.3950 bohr


     total cpu time spent up to now is      924.5 secs

     total energy              =   -1832.99682160 Ry
     estimated scf accuracy    <       0.36372539 Ry

     iteration #  5     ecut=    55.12 Ry     beta= 0.10
     Davidson diagonalization with overlap
     ethr =  2.25E-04,  avg # of iterations =  2.1

     negative rho (up, down):  2.504E-04 0.000E+00

     Adding external electric field

     Computed dipole along edir(3) : 
        Dipole                0.0207 Ry au,          0.0526 Debye
        Dipole field          0.0001 Ry au, 

        Potential amp.       -0.0047 Ry
        Total length         45.3950 bohr


     total cpu time spent up to now is     1091.0 secs

     total energy              =   -1832.96598104 Ry
     estimated scf accuracy    <       0.13882894 Ry

     iteration #  6     ecut=    55.12 Ry     beta= 0.10
     Davidson diagonalization with overlap
     ethr =  8.57E-05,  avg # of iterations =  9.7

     negative rho (up, down):  2.141E-04 0.000E+00

     Adding external electric field

     Computed dipole along edir(3) : 
        Dipole                0.0205 Ry au,          0.0520 Debye
        Dipole field          0.0001 Ry au, 

        Potential amp.       -0.0046 Ry
        Total length         45.3950 bohr


     total cpu time spent up to now is     1349.8 secs

     total energy              =   -1832.98489007 Ry
     estimated scf accuracy    <       0.03507673 Ry

     iteration #  7     ecut=    55.12 Ry     beta= 0.10
     Davidson diagonalization with overlap
     c_bands:  1 eigenvalues not converged
     ethr =  2.17E-05,  avg # of iterations =  7.4

     negative rho (up, down):  2.707E-04 0.000E+00

     Adding external electric field

     Computed dipole along edir(3) : 
        Dipole                0.0248 Ry au,          0.0631 Debye
        Dipole field          0.0001 Ry au, 

        Potential amp.       -0.0056 Ry
        Total length         45.3950 bohr


     total cpu time spent up to now is     1553.5 secs

     total energy              =   -1832.98972033 Ry
     estimated scf accuracy    <       0.02627477 Ry

     iteration #  8     ecut=    55.12 Ry     beta= 0.10
     Davidson diagonalization with overlap
     ethr =  1.62E-05,  avg # of iterations =  2.2

     negative rho (up, down):  2.900E-04 0.000E+00

     Adding external electric field

     Computed dipole along edir(3) : 
        Dipole                0.0144 Ry au,          0.0366 Debye
        Dipole field          0.0000 Ry au, 

        Potential amp.       -0.0033 Ry
        Total length         45.3950 bohr


     total cpu time spent up to now is     1764.0 secs

     total energy              =   -1832.99192955 Ry
     estimated scf accuracy    <       0.00576256 Ry

     iteration #  9     ecut=    55.12 Ry     beta= 0.10
     Davidson diagonalization with overlap
     c_bands:  1 eigenvalues not converged
     c_bands:  2 eigenvalues not converged
     c_bands:  1 eigenvalues not converged
     c_bands:  1 eigenvalues not converged
     ethr =  3.56E-06,  avg # of iterations =  8.8

     negative rho (up, down):  2.724E-04 0.000E+00

     Adding external electric field

     Computed dipole along edir(3) : 
        Dipole                0.0187 Ry au,          0.0474 Debye
        Dipole field          0.0000 Ry au, 

        Potential amp.       -0.0042 Ry
        Total length         45.3950 bohr


     total cpu time spent up to now is     2429.2 secs

     total energy              =   -1832.99234628 Ry
     estimated scf accuracy    <       0.00547651 Ry

     iteration # 10     ecut=    55.12 Ry     beta= 0.10
     Davidson diagonalization with overlap
     c_bands:  1 eigenvalues not converged
     ethr =  3.38E-06,  avg # of iterations =  3.0

     negative rho (up, down):  2.753E-04 0.000E+00

     Adding external electric field

     Computed dipole along edir(3) : 
        Dipole                0.0230 Ry au,          0.0584 Debye
        Dipole field          0.0001 Ry au, 

        Potential amp.       -0.0052 Ry
        Total length         45.3950 bohr


     total cpu time spent up to now is     2643.5 secs

     total energy              =   -1832.99246814 Ry
     estimated scf accuracy    <       0.00140736 Ry

     iteration # 11     ecut=    55.12 Ry     beta= 0.10
     Davidson diagonalization with overlap
     ethr =  8.69E-07,  avg # of iterations =  5.6

     negative rho (up, down):  2.693E-04 0.000E+00

     Adding external electric field

     Computed dipole along edir(3) : 
        Dipole                0.0236 Ry au,          0.0599 Debye
        Dipole field          0.0001 Ry au, 

        Potential amp.       -0.0053 Ry
        Total length         45.3950 bohr


     total cpu time spent up to now is     2853.8 secs

     total energy              =   -1832.99274948 Ry
     estimated scf accuracy    <       0.00095804 Ry

     iteration # 12     ecut=    55.12 Ry     beta= 0.10
     Davidson diagonalization with overlap
     ethr =  5.91E-07,  avg # of iterations =  2.3

     negative rho (up, down):  2.475E-04 0.000E+00

     Adding external electric field

     Computed dipole along edir(3) : 
        Dipole                0.0209 Ry au,          0.0532 Debye
        Dipole field          0.0001 Ry au, 

        Potential amp.       -0.0047 Ry
        Total length         45.3950 bohr


     total cpu time spent up to now is     3087.7 secs

     total energy              =   -1832.99274791 Ry
     estimated scf accuracy    <       0.00071909 Ry

     iteration # 13     ecut=    55.12 Ry     beta= 0.10
     Davidson diagonalization with overlap
     ethr =  4.44E-07,  avg # of iterations =  2.0

     negative rho (up, down):  2.299E-04 0.000E+00

     Adding external electric field

     Computed dipole along edir(3) : 
        Dipole                0.0204 Ry au,          0.0520 Debye
        Dipole field          0.0001 Ry au, 

        Potential amp.       -0.0046 Ry
        Total length         45.3950 bohr


     total cpu time spent up to now is     3306.5 secs

     total energy              =   -1832.99278996 Ry
     estimated scf accuracy    <       0.00009777 Ry

     iteration # 14     ecut=    55.12 Ry     beta= 0.10
     Davidson diagonalization with overlap
     ethr =  6.04E-08,  avg # of iterations =  3.2

     negative rho (up, down):  2.140E-04 0.000E+00

     Adding external electric field

     Computed dipole along edir(3) : 
        Dipole                0.0207 Ry au,          0.0526 Debye
        Dipole field          0.0001 Ry au, 

        Potential amp.       -0.0047 Ry
        Total length         45.3950 bohr


     total cpu time spent up to now is     3583.3 secs

     total energy              =   -1832.99280093 Ry
     estimated scf accuracy    <       0.00001050 Ry

     iteration # 15     ecut=    55.12 Ry     beta= 0.10
     Davidson diagonalization with overlap
     ethr =  6.48E-09,  avg # of iterations =  5.2

     negative rho (up, down):  2.001E-04 0.000E+00

     Adding external electric field

     Computed dipole along edir(3) : 
        Dipole                0.0204 Ry au,          0.0518 Debye
        Dipole field          0.0001 Ry au, 

        Potential amp.       -0.0046 Ry
        Total length         45.3950 bohr


     total cpu time spent up to now is     3874.5 secs

     total energy              =   -1832.99280423 Ry
     estimated scf accuracy    <       0.00001171 Ry

     iteration # 16     ecut=    55.12 Ry     beta= 0.10
     Davidson diagonalization with overlap
     ethr =  6.48E-09,  avg # of iterations =  4.1

     negative rho (up, down):  1.049E-04 0.000E+00

     Adding external electric field

     Computed dipole along edir(3) : 
        Dipole                0.0246 Ry au,          0.0625 Debye
        Dipole field          0.0001 Ry au, 

        Potential amp.       -0.0056 Ry
        Total length         45.3950 bohr


     total cpu time spent up to now is     4133.3 secs

     End of self-consistent calculation

          k = 0.0000 0.0000 0.0000 ( 34885 PWs)   bands (ev):

   -77.7382 -77.7348 -77.6102 -77.6070 -77.5727 -77.5694 -60.0172 -60.0061
   -60.0043 -59.9932 -59.3013 -59.2879 -39.5221 -39.5213 -39.5210 -39.5169
   -39.5042 -39.4323 -39.4213 -39.4081 -39.4011 -39.3915 -39.3769 -39.3758
   -39.2902 -39.2899 -39.2771 -39.2692 -39.2634 -39.2545 -28.6340 -28.6292
   -28.6220 -28.6106 -28.6027 -28.5999 -28.4499 -28.4351 -28.4349 -28.4163
   -28.3354 -28.3219 -28.0181 -27.8671 -27.8636 -27.8429 -27.8309 -27.7134
    -5.3282  -3.6146  -2.6894  -2.3255  -2.1434  -2.0819  -2.0502  -1.9349
    -1.7664  -1.6455  -1.1972  -1.1668  -1.1357  -0.0530   0.0076   0.0545
     0.0807   0.1173   0.1354   0.2013   0.2530   0.5206   0.8310   1.0786
     1.0943   1.5262   1.5451   1.6898   1.9199   2.1973   2.2546   2.3123
     2.5879   2.7663   2.9684   3.0984   3.7228   3.7441   3.8441   4.0506
     4.2542   4.3803   4.5369   4.6150   4.8080   4.8955   5.1059   5.1375
     5.5264

          k = 0.0000 0.0156 0.0000 ( 34885 PWs)   bands (ev):

   -77.7382 -77.7349 -77.6102 -77.6070 -77.5726 -77.5694 -60.0170 -60.0059
   -60.0045 -59.9934 -59.3011 -59.2882 -39.5210 -39.5207 -39.5200 -39.5165
   -39.5044 -39.4321 -39.4215 -39.4099 -39.3991 -39.3914 -39.3773 -39.3737
   -39.2917 -39.2897 -39.2770 -39.2688 -39.2653 -39.2545 -28.6336 -28.6250
   -28.6218 -28.6070 -28.6028 -28.6002 -28.4506 -28.4363 -28.4361 -28.4180
   -28.3410 -28.3277 -28.0137 -27.8664 -27.8643 -27.8443 -27.8314 -27.7194
    -5.2716  -3.5589  -2.6313  -2.3204  -2.1162  -2.0657  -2.0106  -1.9047
    -1.7258  -1.6206  -1.1728  -1.1191  -1.0877  -0.0353   0.0261   0.0589
     0.1053   0.1265   0.1482   0.2124   0.2923   0.4961   0.8368   1.0620
     1.0630   1.5139   1.5601   1.6695   1.7815   2.1712   2.2279   2.2804
     2.5183   2.5933   2.9758   3.0226   3.3814   3.6307   3.8554   4.0169
     4.2947   4.4752   4.6022   4.6651   4.8043   4.8680   5.0277   5.1273
     5.4274

          k = 0.0000 0.0312 0.0000 ( 34879 PWs)   bands (ev):

   -77.7380 -77.7350 -77.6101 -77.6072 -77.5725 -77.5696 -60.0164 -60.0053
   -60.0052 -59.9941 -59.3004 -59.2889 -39.5201 -39.5198 -39.5157 -39.5139
   -39.5049 -39.4315 -39.4220 -39.4153 -39.3932 -39.3911 -39.3783 -39.3677
   -39.2970 -39.2881 -39.2767 -39.2707 -39.2673 -39.2547 -28.6324 -28.6209
   -28.6131 -28.6053 -28.6016 -28.5933 -28.4523 -28.4397 -28.4395 -28.4227
   -28.3574 -28.3443 -28.0005 -27.8662 -27.8641 -27.8481 -27.8329 -27.7367
    -5.1051  -3.3971  -2.4616  -2.3636  -2.0554  -1.9771  -1.8947  -1.8059
    -1.6070  -1.5483  -1.1474  -0.9777  -0.9011   0.0081   0.0648   0.0658
     0.1493   0.1727   0.1872   0.2574   0.4095   0.4238   0.8509   0.9874
     1.0121   1.4507   1.4770   1.5257   1.7124   2.0422   2.1267   2.2035
     2.2117   2.4004   2.7656   2.8039   2.9537   3.3992   3.8002   3.9058
     4.2290   4.4163   4.5682   4.7876   4.8077   4.8147   5.0926   5.2041
     5.2208

          k = 0.0000 0.0468 0.0000 ( 34864 PWs)   bands (ev):

   -77.7377 -77.7353 -77.6098 -77.6074 -77.5722 -77.5698 -60.0154 -60.0062
   -60.0043 -59.9952 -59.2994 -59.2900 -39.5187 -39.5185 -39.5145 -39.5058
   -39.5043 -39.4306 -39.4239 -39.4227 -39.3904 -39.3841 -39.3796 -39.3584
   -39.3054 -39.2858 -39.2792 -39.2765 -39.2654 -39.2551 -28.6305 -28.6195
   -28.6089 -28.6049 -28.5902 -28.5739 -28.4546 -28.4446 -28.4440 -28.4293
   -28.3827 -28.3699 -27.9792 -27.8687 -27.8607 -27.8533 -27.8354 -27.7634
    -4.8380  -3.1451  -2.5246  -2.1950  -2.0017  -1.7931  -1.7128  -1.6367
    -1.4400  -1.4170  -1.1138  -0.7480  -0.6102   0.0409   0.0581   0.0797
     0.1730   0.2413   0.2737   0.3093   0.3695   0.5937   0.8649   0.9182
     0.9323   1.1548   1.3285   1.4028   1.6859   1.8603   1.9285   2.0066
     2.0343   2.1286   2.3517   2.4617   2.8842   3.1360   3.3720   3.8289
     3.9810   4.4418   4.6116   4.7541   4.7608   4.8494   5.0498   5.0848
     5.2671

          k = 0.0000 0.0624 0.0000 ( 34830 PWs)   bands (ev):

   -77.7374 -77.7356 -77.6094 -77.6078 -77.5719 -77.5702 -60.0141 -60.0076
   -60.0030 -59.9966 -59.2981 -59.2914 -39.5173 -39.5172 -39.5131 -39.5070
   -39.4920 -39.4352 -39.4293 -39.4237 -39.3894 -39.3821 -39.3718 -39.3464
   -39.3164 -39.2904 -39.2831 -39.2766 -39.2630 -39.2558 -28.6278 -28.6176
   -28.6124 -28.6071 -28.5633 -28.5476 -28.4573 -28.4499 -28.4483 -28.4364
   -28.4140 -28.4015 -27.9511 -27.8712 -27.8587 -27.8565 -27.8387 -27.7970
    -4.4863  -2.8327  -2.8088  -1.9888  -1.8597  -1.5570  -1.4881  -1.4317
    -1.3103  -1.1786  -1.0787  -0.4392  -0.3219   0.0079   0.0234   0.0652
     0.1670   0.1841   0.3023   0.3522   0.5369   0.8083   0.8144   0.8262
     0.8960   1.0767   1.1653   1.2607   1.2638   1.5427   1.7406   1.7653
     1.9634   2.0810   2.0824   2.3038   2.7917   2.8344   2.9243   3.3759
     4.0892   4.4898   4.6189   4.6826   4.7662   4.7886   4.9810   4.9819
     5.0613

          k = 0.0000 0.0780 0.0000 ( 34835 PWs)   bands (ev):

   -77.7369 -77.7361 -77.6090 -77.6082 -77.5714 -77.5706 -60.0126 -60.0092
   -60.0015 -59.9982 -59.2965 -59.2930 -39.5161 -39.5161 -39.5117 -39.5085
   -39.4780 -39.4485 -39.4278 -39.4249 -39.3880 -39.3842 -39.3581 -39.3326
   -39.3295 -39.3036 -39.2806 -39.2772 -39.2607 -39.2570 -28.6244 -28.6164
   -28.6152 -28.6098 -28.5307 -28.5163 -28.4658 -28.4575 -28.4511 -28.4432
   -28.4423 -28.4327 -27.9179 -27.8738 -27.8626 -27.8519 -27.8427 -27.8334
    -4.0727  -3.1911  -2.5071  -2.0544  -1.5068  -1.3307  -1.2783  -1.2514
    -1.1991  -1.0895  -0.9153  -0.3508  -0.0682  -0.0440  -0.0074   0.0351
     0.0769   0.1770   0.2733   0.4570   0.6478   0.6976   0.7918   0.9332
     0.9424   1.0079   1.0153   1.1153   1.1826   1.2886   1.4611   1.7334
     1.8358   1.9383   2.1367   2.1625   2.4253   2.7244   2.7856   2.9651
     4.2339   4.5064   4.5149   4.5991   4.6646   4.6812   4.7850   4.7915
     4.8486

          k = 0.0000-0.0936 0.0000 ( 34846 PWs)   bands (ev):

   -77.7365 -77.7365 -77.6086 -77.6086 -77.5710 -77.5710 -60.0109 -60.0109
   -59.9999 -59.9999 -59.2948 -59.2948 -39.5157 -39.5157 -39.5102 -39.5102
   -39.4631 -39.4631 -39.4263 -39.4263 -39.3862 -39.3862 -39.3437 -39.3437
   -39.3180 -39.3180 -39.2786 -39.2786 -39.2586 -39.2586 -28.6206 -28.6206
   -28.6126 -28.6126 -28.4953 -28.4953 -28.4827 -28.4827 -28.4511 -28.4511
   -28.4445 -28.4445 -27.8855 -27.8855 -27.8602 -27.8602 -27.8471 -27.8471
    -3.6279  -3.6279  -2.2301  -2.2301  -1.2274  -1.2274  -1.2039  -1.2038
    -1.1628  -1.1628  -0.6327  -0.6327  -0.0532  -0.0532   0.0443   0.0443
     0.1919   0.1919   0.3438   0.3439   0.5761   0.5761   0.8875   0.8875
     0.9885   0.9885   1.0084   1.0084   1.2191   1.2191   1.6552   1.6552
     1.8596   1.8596   1.9300   1.9300   2.6176   2.6176   2.7289   2.7289
     4.4048   4.4049   4.4407   4.4407   4.6377   4.6378   4.6732   4.6734
     4.9099

          k = 0.0147-0.0052 0.0000 ( 34885 PWs)   bands (ev):

   -77.7382 -77.7349 -77.6102 -77.6070 -77.5726 -77.5694 -60.0170 -60.0059
   -60.0045 -59.9934 -59.3011 -59.2882 -39.5210 -39.5207 -39.5200 -39.5165
   -39.5044 -39.4321 -39.4215 -39.4099 -39.3991 -39.3914 -39.3773 -39.3737
   -39.2917 -39.2897 -39.2770 -39.2688 -39.2653 -39.2545 -28.6336 -28.6250
   -28.6218 -28.6070 -28.6028 -28.6002 -28.4506 -28.4363 -28.4361 -28.4180
   -28.3410 -28.3277 -28.0137 -27.8664 -27.8643 -27.8443 -27.8314 -27.7194
    -5.2716  -3.5589  -2.6313  -2.3204  -2.1162  -2.0657  -2.0106  -1.9047
    -1.7258  -1.6206  -1.1728  -1.1191  -1.0877  -0.0353   0.0261   0.0589
     0.1053   0.1265   0.1482   0.2124   0.2923   0.4961   0.8368   1.0620
     1.0630   1.5139   1.5601   1.6695   1.7815   2.1712   2.2279   2.2804
     2.5183   2.5933   2.9758   3.0226   3.3814   3.6307   3.8554   4.0169
     4.2947   4.4752   4.6022   4.6651   4.8043   4.8680   5.0277   5.1268
     5.4271

          k = 0.0147 0.0103 0.0000 ( 34853 PWs)   bands (ev):

   -77.7382 -77.7348 -77.6102 -77.6070 -77.5727 -77.5694 -60.0172 -60.0062
   -60.0043 -59.9932 -59.3013 -59.2879 -39.5217 -39.5210 -39.5198 -39.5167
   -39.5044 -39.4320 -39.4211 -39.4080 -39.4006 -39.3916 -39.3776 -39.3752
   -39.2898 -39.2893 -39.2765 -39.2686 -39.2634 -39.2544 -28.6354 -28.6311
   -28.6215 -28.6124 -28.6028 -28.6000 -28.4519 -28.4395 -28.4353 -28.4189
   -28.3359 -28.3224 -28.0199 -27.8663 -27.8659 -27.8445 -27.8314 -27.7140
    -5.2516  -3.5391  -2.6184  -2.2954  -2.0871  -2.0439  -2.0395  -1.8821
    -1.7267  -1.6100  -1.1378  -1.1277  -1.0848  -0.0364   0.0099   0.0461
     0.0988   0.1651   0.1835   0.2209   0.3057   0.5413   0.8951   1.0904
     1.1033   1.5269   1.5971   1.6895   1.8712   2.2148   2.2347   2.3208
     2.3680   2.7186   2.8865   3.0409   3.5748   3.7422   3.7947   3.8455
     4.2365   4.3953   4.4707   4.4820   4.7112   4.7931   4.8565   5.0409
     5.1512

          k = 0.0147 0.0259 0.0000 ( 34892 PWs)   bands (ev):

   -77.7382 -77.7349 -77.6102 -77.6070 -77.5726 -77.5694 -60.0170 -60.0060
   -60.0045 -59.9935 -59.3011 -59.2882 -39.5205 -39.5194 -39.5181 -39.5163
   -39.5047 -39.4316 -39.4211 -39.4097 -39.3982 -39.3916 -39.3785 -39.3728
   -39.2917 -39.2879 -39.2759 -39.2677 -39.2651 -39.2544 -28.6364 -28.6285
   -28.6207 -28.6102 -28.6033 -28.6001 -28.4543 -28.4447 -28.4369 -28.4229
   -28.3419 -28.3286 -28.0170 -27.8692 -27.8644 -27.8471 -27.8324 -27.7204
    -5.1208  -3.4116  -2.4937  -2.2998  -2.0181  -1.9930  -1.9611  -1.7935
    -1.6472  -1.5521  -1.1138  -1.0421  -0.9301  -0.0091   0.0256   0.0397
     0.1420   0.2018   0.2516   0.2535   0.3992   0.5339   0.9584   1.0827
     1.0892   1.4956   1.6227   1.7108   1.7199   2.1385   2.1911   2.2464
     2.3034   2.5079   2.6711   2.9958   3.1470   3.5697   3.6096   3.8278
     4.1007   4.3834   4.4153   4.5363   4.5539   4.7833   4.9154   4.9315
     4.9339

          k = 0.0147 0.0415 0.0000 ( 34864 PWs)   bands (ev):

   -77.7380 -77.7350 -77.6100 -77.6072 -77.5725 -77.5696 -60.0164 -60.0054
   -60.0052 -59.9942 -59.3005 -59.2889 -39.5195 -39.5169 -39.5154 -39.5126
   -39.5054 -39.4309 -39.4215 -39.4151 -39.3920 -39.3911 -39.3799 -39.3665
   -39.2970 -39.2858 -39.2755 -39.2708 -39.2655 -39.2545 -28.6363 -28.6194
   -28.6174 -28.6065 -28.6010 -28.5978 -28.4574 -28.4506 -28.4399 -28.4289
   -28.3582 -28.3451 -28.0050 -27.8726 -27.8615 -27.8515 -27.8343 -27.7377
    -4.8869  -3.1895  -2.4184  -2.2700  -1.9516  -1.8787  -1.7733  -1.6299
    -1.4911  -1.4549  -1.0930  -0.8655  -0.6501   0.0179   0.0253   0.0431
     0.2183   0.2434   0.3150   0.3429   0.4656   0.5668   0.9903   1.0534
     1.0548   1.4092   1.4302   1.5243   1.8668   1.9170   2.0199   2.1513
     2.2186   2.2774   2.3929   2.5317   2.8722   3.1864   3.3188   3.7163
     3.8769   4.3734   4.4502   4.4735   4.5769   4.7058   4.8474   4.9341
     5.0235

          k = 0.0147 0.0571 0.0000 ( 34837 PWs)   bands (ev):

   -77.7377 -77.7353 -77.6098 -77.6074 -77.5722 -77.5698 -60.0155 -60.0063
   -60.0044 -59.9952 -59.2995 -59.2900 -39.5184 -39.5151 -39.5141 -39.5065
   -39.5029 -39.4300 -39.4237 -39.4224 -39.3901 -39.3835 -39.3809 -39.3570
   -39.3055 -39.2834 -39.2794 -39.2754 -39.2634 -39.2550 -28.6350 -28.6175
   -28.6085 -28.6058 -28.5948 -28.5790 -28.4610 -28.4553 -28.4434 -28.4354
   -28.3829 -28.3701 -27.9843 -27.8756 -27.8578 -27.8563 -27.8371 -27.7639
    -4.5636  -2.8979  -2.6605  -1.9709  -1.9176  -1.7137  -1.5231  -1.4220
    -1.3378  -1.2672  -1.0580  -0.6053  -0.3274  -0.0162  -0.0098   0.0413
     0.2805   0.3157   0.3333   0.3451   0.4920   0.7823   0.9149   0.9915
     1.0733   1.2372   1.2876   1.3714   1.5864   1.6639   1.8696   1.9697
     2.0469   2.1372   2.2033   2.2735   2.6911   2.7235   3.0178   3.2909
     3.9322   4.3708   4.4586   4.5072   4.5513   4.6422   4.7951   4.9281
     4.9421

          k = 0.0147 0.0727 0.0000 ( 34833 PWs)   bands (ev):

   -77.7373 -77.7357 -77.6094 -77.6078 -77.5719 -77.5702 -60.0142 -60.0076
   -60.0031 -59.9966 -59.2982 -59.2914 -39.5176 -39.5138 -39.5126 -39.5077
   -39.4908 -39.4352 -39.4290 -39.4237 -39.3886 -39.3838 -39.3705 -39.3451
   -39.3168 -39.2907 -39.2811 -39.2760 -39.2612 -39.2560 -28.6326 -28.6152
   -28.6111 -28.6077 -28.5682 -28.5525 -28.4650 -28.4575 -28.4467 -28.4407
   -28.4135 -28.4009 -27.9558 -27.8771 -27.8605 -27.8535 -27.8408 -27.7966
    -4.1704  -3.0103  -2.5763  -1.9493  -1.6475  -1.5209  -1.2673  -1.2292
    -1.2254  -1.0369  -1.0011  -0.2745  -0.1742  -0.0944  -0.0474   0.0151
     0.2020   0.2892   0.3049   0.3994   0.6406   0.8005   0.8491   0.9879
     1.0902   1.1522   1.1760   1.2080   1.3258   1.3936   1.4040   1.8695
     1.9230   2.0273   2.1304   2.1770   2.3952   2.6126   2.8082   2.9139
     4.0175   4.3627   4.4843   4.5231   4.5898   4.6008   4.6486   4.8135
     4.8273

          k = 0.0147-0.0988 0.0000 ( 34826 PWs)   bands (ev):

   -77.7369 -77.7361 -77.6090 -77.6082 -77.5714 -77.5706 -60.0126 -60.0092
   -60.0016 -59.9982 -59.2966 -59.2930 -39.5174 -39.5134 -39.5110 -39.5090
   -39.4770 -39.4489 -39.4278 -39.4253 -39.3867 -39.3855 -39.3570 -39.3314
   -39.3300 -39.3042 -39.2793 -39.2774 -39.2592 -39.2575 -28.6291 -28.6140
   -28.6126 -28.6109 -28.5344 -28.5199 -28.4699 -28.4605 -28.4494 -28.4437
   -28.4431 -28.4330 -27.9213 -27.8773 -27.8630 -27.8491 -27.8450 -27.8326
    -3.7337  -3.4313  -2.2806  -2.0862  -1.4783  -1.2556  -1.1814  -1.1292
    -1.1091  -1.0415  -0.7297  -0.4293  -0.1495  -0.0152   0.0532   0.0573
     0.1480   0.2134   0.2502   0.4986   0.5524   0.6810   0.7800   0.9385
     0.9651   1.0584   1.0853   1.1037   1.1688   1.2228   1.5475   1.6526
     1.8860   1.9170   1.9352   1.9481   2.5978   2.6145   2.6629   2.7423
     4.1689   4.3297   4.4645   4.5048   4.5938   4.6154   4.6612   4.6862
     4.7552

          k = 0.0147-0.0832 0.0000 ( 34831 PWs)   bands (ev):

   -77.7365 -77.7365 -77.6086 -77.6086 -77.5710 -77.5710 -60.0109 -60.0109
   -59.9999 -59.9998 -59.2949 -59.2947 -39.5178 -39.5142 -39.5101 -39.5092
   -39.4638 -39.4625 -39.4270 -39.4266 -39.3871 -39.3845 -39.3445 -39.3429
   -39.3187 -39.3171 -39.2796 -39.2781 -39.2595 -39.2575 -28.6247 -28.6172
   -28.6142 -28.6099 -28.4968 -28.4923 -28.4836 -28.4802 -28.4569 -28.4507
   -28.4451 -28.4420 -27.8852 -27.8831 -27.8619 -27.8610 -27.8496 -27.8447
    -3.8775  -3.2880  -2.3383  -2.0696  -1.5135  -1.3227  -1.2475  -1.1223
    -1.0366  -1.0288  -0.7677  -0.4816  -0.1141   0.0468   0.0487   0.1280
     0.1446   0.1798   0.2000   0.5215   0.5656   0.6065   0.7725   0.8170
     0.8377   0.8656   0.9236   1.1220   1.1618   1.2198   1.4633   1.6648
     1.6925   1.7402   2.1235   2.2080   2.4748   2.7129   2.7359   3.0052
     4.3524   4.3776   4.4545   4.6033   4.6447   4.6704   4.7097   4.7164
     4.8499

          k = 0.0147-0.0676 0.0000 ( 34806 PWs)   bands (ev):

   -77.7370 -77.7360 -77.6090 -77.6081 -77.5715 -77.5706 -60.0125 -60.0092
   -60.0015 -59.9982 -59.2964 -59.2931 -39.5186 -39.5158 -39.5112 -39.5076
   -39.4788 -39.4483 -39.4286 -39.4254 -39.3884 -39.3823 -39.3590 -39.3335
   -39.3290 -39.3030 -39.2822 -39.2775 -39.2618 -39.2563 -28.6207 -28.6198
   -28.6170 -28.6073 -28.5266 -28.5123 -28.4620 -28.4559 -28.4519 -28.4447
   -28.4402 -28.4339 -27.9138 -27.8691 -27.8634 -27.8544 -27.8407 -27.8358
    -4.3058  -2.8779  -2.6627  -1.9713  -1.6768  -1.6549  -1.4122  -1.2329
    -1.2175  -1.0509  -0.9757  -0.3637  -0.2112   0.0051   0.0659   0.0795
     0.1080   0.1470   0.3023   0.4324   0.5956   0.6714   0.7168   0.7597
     0.8092   0.8719   0.9835   1.0933   1.1693   1.2363   1.5862   1.7233
     1.7525   1.8841   2.0924   2.2946   2.7654   2.8262   2.9170   3.4264
     4.2083   4.5436   4.5660   4.6437   4.7083   4.8202   4.8851   5.0614
     5.1849

          k = 0.0147-0.0520 0.0000 ( 34852 PWs)   bands (ev):

   -77.7374 -77.7356 -77.6094 -77.6078 -77.5719 -77.5702 -60.0140 -60.0076
   -60.0030 -59.9966 -59.2980 -59.2914 -39.5196 -39.5176 -39.5127 -39.5063
   -39.4930 -39.4352 -39.4300 -39.4242 -39.3894 -39.3804 -39.3727 -39.3473
   -39.3161 -39.2901 -39.2849 -39.2773 -39.2643 -39.2555 -28.6243 -28.6191
   -28.6148 -28.6050 -28.5593 -28.5437 -28.4536 -28.4508 -28.4407 -28.4329
   -28.4155 -28.4028 -27.9472 -27.8663 -27.8588 -27.8578 -27.8372 -27.7978
    -4.6816  -2.9925  -2.5536  -2.0116  -1.9666  -1.8758  -1.6109  -1.4874
    -1.3718  -1.2890  -1.0043  -0.5764  -0.5523   0.0650   0.1016   0.1203
     0.1517   0.1538   0.3050   0.3452   0.4269   0.6425   0.7483   0.7529
     0.8255   0.8501   1.1709   1.3312   1.3572   1.6584   1.6887   1.7489
     1.9115   2.0228   2.3189   2.4045   2.7933   2.9506   3.4542   3.8891
     4.0950   4.4557   4.6112   4.7760   4.8421   4.9769   5.0839   5.1976
     5.2428

          k = 0.0147-0.0364 0.0000 ( 34872 PWs)   bands (ev):

   -77.7378 -77.7353 -77.6098 -77.6074 -77.5722 -77.5699 -60.0153 -60.0062
   -60.0043 -59.9952 -59.2993 -59.2900 -39.5204 -39.5192 -39.5143 -39.5054
   -39.5052 -39.4312 -39.4239 -39.4231 -39.3903 -39.3848 -39.3785 -39.3592
   -39.3053 -39.2873 -39.2790 -39.2773 -39.2664 -39.2550 -28.6279 -28.6205
   -28.6103 -28.6033 -28.5872 -28.5707 -28.4517 -28.4447 -28.4370 -28.4257
   -28.3829 -28.3700 -27.9762 -27.8646 -27.8625 -27.8517 -27.8344 -27.7633
    -4.9788  -3.2726  -2.3599  -2.3159  -2.0312  -2.0178  -1.7763  -1.7266
    -1.5001  -1.4903  -1.0482  -0.8672  -0.8253   0.0625   0.0683   0.1142
     0.1432   0.2125   0.2534   0.2923   0.2966   0.4551   0.7627   0.8467
     0.9232   1.1352   1.3547   1.4562   1.7028   1.7678   1.8769   1.9305
     2.2067   2.2474   2.5017   2.7992   2.8127   3.0682   3.9263   4.0102
     4.3211   4.3404   4.6091   4.8180   4.9254   5.0380   5.1509   5.2031
     5.2929

          k = 0.0147-0.0208 0.0000 ( 34903 PWs)   bands (ev):

   -77.7380 -77.7350 -77.6101 -77.6072 -77.5725 -77.5696 -60.0163 -60.0053
   -60.0052 -59.9941 -59.3004 -59.2889 -39.5209 -39.5203 -39.5157 -39.5144
   -39.5047 -39.4318 -39.4222 -39.4154 -39.3936 -39.3910 -39.3776 -39.3682
   -39.2970 -39.2890 -39.2772 -39.2706 -39.2680 -39.2547 -28.6310 -28.6214
   -28.6117 -28.6052 -28.6012 -28.5916 -28.4506 -28.4394 -28.4355 -28.4204
   -28.3572 -28.3441 -27.9988 -27.8652 -27.8638 -27.8469 -27.8324 -27.7364
    -5.1792  -3.4678  -2.5285  -2.3155  -2.0860  -2.0771  -1.9049  -1.8721
    -1.6463  -1.5811  -1.1028  -1.0526  -1.0169   0.0019   0.0770   0.0812
     0.0963   0.1584   0.1652   0.2325   0.3392   0.4099   0.7924   0.9660
     1.0040   1.4893   1.4928   1.5101   1.6433   2.0512   2.0926   2.2289
     2.2686   2.5763   2.8489   2.8644   3.0530   3.3153   3.9293   4.1678
     4.3098   4.3912   4.7909   4.8144   4.8668   4.9848   5.1073   5.1741
     5.4371

          k = 0.0294-0.0105 0.0000 ( 34879 PWs)   bands (ev):

   -77.7380 -77.7350 -77.6101 -77.6072 -77.5725 -77.5696 -60.0164 -60.0053
   -60.0052 -59.9941 -59.3004 -59.2889 -39.5201 -39.5198 -39.5157 -39.5139
   -39.5049 -39.4315 -39.4220 -39.4153 -39.3932 -39.3911 -39.3783 -39.3677
   -39.2970 -39.2881 -39.2767 -39.2707 -39.2673 -39.2547 -28.6324 -28.6209
   -28.6131 -28.6053 -28.6016 -28.5933 -28.4523 -28.4397 -28.4395 -28.4227
   -28.3574 -28.3443 -28.0005 -27.8662 -27.8641 -27.8481 -27.8329 -27.7367
    -5.1051  -3.3971  -2.4616  -2.3636  -2.0554  -1.9771  -1.8947  -1.8059
    -1.6070  -1.5483  -1.1474  -0.9777  -0.9011   0.0081   0.0648   0.0658
     0.1493   0.1727   0.1872   0.2574   0.4095   0.4238   0.8509   0.9874
     1.0121   1.4507   1.4770   1.5257   1.7124   2.0422   2.1267   2.2035
     2.2117   2.4004   2.7656   2.8039   2.9537   3.3992   3.8002   3.9058
     4.2290   4.4164   4.5681   4.7875   4.8079   4.8147   5.0927   5.2041
     5.2208

          k = 0.0294 0.0051 0.0000 ( 34892 PWs)   bands (ev):

   -77.7382 -77.7349 -77.6102 -77.6070 -77.5726 -77.5694 -60.0170 -60.0060
   -60.0045 -59.9935 -59.3011 -59.2882 -39.5205 -39.5194 -39.5181 -39.5163
   -39.5047 -39.4316 -39.4211 -39.4097 -39.3982 -39.3916 -39.3785 -39.3728
   -39.2917 -39.2879 -39.2759 -39.2677 -39.2651 -39.2544 -28.6364 -28.6285
   -28.6207 -28.6102 -28.6033 -28.6001 -28.4543 -28.4447 -28.4369 -28.4229
   -28.3419 -28.3286 -28.0170 -27.8692 -27.8644 -27.8471 -27.8324 -27.7204
    -5.1208  -3.4116  -2.4937  -2.2998  -2.0181  -1.9930  -1.9611  -1.7935
    -1.6472  -1.5521  -1.1138  -1.0421  -0.9301  -0.0091   0.0255   0.0397
     0.1420   0.2018   0.2516   0.2535   0.3992   0.5339   0.9584   1.0827
     1.0892   1.4956   1.6227   1.7108   1.7199   2.1385   2.1911   2.2464
     2.3034   2.5079   2.6711   2.9958   3.1469   3.5697   3.6096   3.8278
     4.1007   4.3833   4.4153   4.5363   4.5538   4.7834   4.9156   4.9322
     4.9339

          k = 0.0294 0.0207 0.0000 ( 34851 PWs)   bands (ev):

   -77.7382 -77.7348 -77.6103 -77.6069 -77.5727 -77.5693 -60.0173 -60.0063
   -60.0043 -59.9933 -59.3014 -59.2879 -39.5205 -39.5203 -39.5164 -39.5162
   -39.5048 -39.4316 -39.4207 -39.4077 -39.3993 -39.3917 -39.3793 -39.3739
   -39.2897 -39.2869 -39.2750 -39.2668 -39.2633 -39.2541 -28.6394 -28.6362
   -28.6200 -28.6173 -28.6045 -28.5984 -28.4578 -28.4511 -28.4368 -28.4261
   -28.3374 -28.3239 -28.0247 -27.8733 -27.8633 -27.8487 -27.8327 -27.7156
    -5.0263  -3.3179  -2.4173  -2.2118  -2.0197  -1.9359  -1.9224  -1.7284
    -1.6105  -1.5089  -1.0151  -0.9640  -0.9369   0.0056   0.0244   0.0268
     0.1570   0.2441   0.2762   0.3786   0.4437   0.6050   1.0775   1.1161
     1.1402   1.5174   1.6846   1.7407   1.7409   1.9955   2.1633   2.2555
     2.3687   2.4775   2.5668   2.8987   3.1383   3.2868   3.5911   3.8043
     3.8762   4.2915   4.3167   4.3350   4.4177   4.5924   4.7664   4.7829
     4.8182

          k = 0.0294 0.0363 0.0000 ( 34859 PWs)   bands (ev):

   -77.7382 -77.7349 -77.6102 -77.6070 -77.5726 -77.5694 -60.0171 -60.0061
   -60.0046 -59.9935 -59.3013 -59.2882 -39.5198 -39.5179 -39.5155 -39.5141
   -39.5052 -39.4313 -39.4209 -39.4093 -39.3966 -39.3913 -39.3804 -39.3712
   -39.2915 -39.2851 -39.2744 -39.2659 -39.2644 -39.2539 -28.6412 -28.6347
   -28.6188 -28.6160 -28.6060 -28.5977 -28.4628 -28.4571 -28.4387 -28.4311
   -28.3435 -28.3302 -28.0228 -27.8776 -27.8612 -27.8521 -27.8339 -27.7222
    -4.8279  -3.1272  -2.2505  -2.2472  -1.9740  -1.8255  -1.7857  -1.5858
    -1.4961  -1.4271  -0.9474  -0.8980  -0.6848   0.0145   0.0274   0.0413
     0.2144   0.2692   0.3512   0.4951   0.5717   0.6099   1.0878   1.1540
     1.1957   1.4688   1.5818   1.6275   1.7844   1.8786   2.1478   2.2221
     2.2542   2.3191   2.3844   2.7115   2.7283   2.9398   3.3676   3.5472
     3.7584   4.1979   4.2383   4.2856   4.3367   4.5436   4.6602   4.8158
     4.8561

          k = 0.0294 0.0519 0.0000 ( 34832 PWs)   bands (ev):

   -77.7380 -77.7350 -77.6100 -77.6072 -77.5725 -77.5696 -60.0165 -60.0055
   -60.0052 -59.9942 -59.3007 -59.2889 -39.5191 -39.5144 -39.5132 -39.5104
   -39.5058 -39.4309 -39.4217 -39.4147 -39.3904 -39.3904 -39.3817 -39.3648
   -39.2969 -39.2831 -39.2742 -39.2707 -39.2631 -39.2541 -28.6415 -28.6237
   -28.6171 -28.6097 -28.6037 -28.5981 -28.4688 -28.4608 -28.4421 -28.4363
   -28.3595 -28.3464 -28.0111 -27.8812 -27.8582 -27.8563 -27.8361 -27.7391
    -4.5372  -2.8601  -2.4390  -2.0456  -1.8360  -1.7631  -1.5355  -1.3800
    -1.3248  -1.3059  -0.9189  -0.6970  -0.3641  -0.0116   0.0015   0.0516
     0.2817   0.3089   0.4766   0.5285   0.5465   0.7632   1.0054   1.1365
     1.2778   1.3695   1.3818   1.5106   1.5588   1.8630   1.9855   2.0419
     2.1426   2.1716   2.1765   2.3897   2.5120   2.5542   3.0582   3.1852
     3.6780   4.1262   4.1670   4.2541   4.4227   4.5768   4.6098   4.6755
     4.9275

          k = 0.0294 0.0675 0.0000 ( 34828 PWs)   bands (ev):

   -77.7377 -77.7353 -77.6098 -77.6074 -77.5722 -77.5698 -60.0155 -60.0063
   -60.0045 -59.9953 -59.2997 -59.2899 -39.5186 -39.5130 -39.5113 -39.5067
   -39.5014 -39.4303 -39.4236 -39.4230 -39.3889 -39.3838 -39.3804 -39.3555
   -39.3056 -39.2812 -39.2794 -39.2747 -39.2611 -39.2548 -28.6402 -28.6150
   -28.6113 -28.6057 -28.5974 -28.5847 -28.4735 -28.4619 -28.4465 -28.4397
   -28.3836 -28.3708 -27.9899 -27.8829 -27.8602 -27.8546 -27.8391 -27.7648
    -4.1706  -2.7512  -2.5496  -1.8954  -1.7594  -1.5653  -1.2650  -1.2231
    -1.1691  -1.0591  -0.8812  -0.4243  -0.1090  -0.0683  -0.0500   0.0061
     0.3232   0.3750   0.3963   0.4709   0.6166   0.8914   0.9646   0.9818
     1.2241   1.2860   1.3351   1.3420   1.4009   1.4660   1.5013   1.9264
     1.9488   2.0440   2.1260   2.2293   2.4003   2.4383   2.7894   2.8705
     3.6712   4.0741   4.1823   4.3863   4.4718   4.5630   4.5636   4.6097
     4.8077

          k = 0.0294-0.1041 0.0000 ( 34816 PWs)   bands (ev):

   -77.7373 -77.7357 -77.6094 -77.6078 -77.5718 -77.5702 -60.0142 -60.0077
   -60.0032 -59.9966 -59.2983 -59.2913 -39.5185 -39.5114 -39.5113 -39.5071
   -39.4897 -39.4354 -39.4295 -39.4247 -39.3870 -39.3848 -39.3692 -39.3437
   -39.3170 -39.2910 -39.2797 -39.2760 -39.2592 -39.2560 -28.6374 -28.6135
   -28.6127 -28.6044 -28.5726 -28.5569 -28.4754 -28.4606 -28.4503 -28.4410
   -28.4139 -28.4013 -27.9600 -27.8823 -27.8629 -27.8507 -27.8428 -27.7969
    -3.7502  -3.1505  -2.2442  -1.8547  -1.8156  -1.2278  -1.1718  -1.0492
    -1.0166  -0.8747  -0.7786  -0.2096  -0.1814  -0.1081  -0.0545   0.0571
     0.2721   0.3142   0.3201   0.4522   0.6607   0.7371   0.7870   1.0030
     1.0185   1.0856   1.1562   1.1871   1.2611   1.2835   1.4784   1.5496
     1.8435   1.9192   2.0245   2.0778   2.4644   2.5909   2.6465   2.6901
     3.7905   4.1240   4.2141   4.5051   4.5225   4.5811   4.6473   4.6756
     4.7221

          k = 0.0294-0.0885 0.0000 ( 34819 PWs)   bands (ev):

   -77.7369 -77.7361 -77.6090 -77.6082 -77.5714 -77.5706 -60.0127 -60.0092
   -60.0016 -59.9982 -59.2967 -59.2929 -39.5188 -39.5125 -39.5098 -39.5075
   -39.4763 -39.4492 -39.4285 -39.4265 -39.3860 -39.3849 -39.3561 -39.3305
   -39.3304 -39.3046 -39.2787 -39.2781 -39.2578 -39.2577 -28.6330 -28.6157
   -28.6102 -28.6079 -28.5370 -28.5223 -28.4745 -28.4591 -28.4527 -28.4460
   -28.4407 -28.4347 -27.9234 -27.8791 -27.8642 -27.8470 -27.8468 -27.8330
    -3.5917  -3.3052  -2.0771  -2.0043  -1.8247  -1.2269  -1.0657  -0.9963
    -0.9121  -0.8845  -0.5263  -0.5029  -0.2326   0.0395   0.0461   0.1504
     0.1814   0.2196   0.3297   0.4423   0.5343   0.6893   0.6926   0.7370
     0.7816   0.8345   0.9235   1.1636   1.2278   1.2826   1.4024   1.5243
     1.5469   1.6959   2.0785   2.2792   2.5115   2.5830   2.6519   2.9922
     4.0182   4.2585   4.3296   4.5079   4.6056   4.6351   4.6832   4.7434
     4.8141

          k = 0.0294-0.0729 0.0000 ( 34810 PWs)   bands (ev):

   -77.7365 -77.7365 -77.6086 -77.6086 -77.5710 -77.5710 -60.0109 -60.0108
   -59.9999 -59.9998 -59.2949 -59.2947 -39.5194 -39.5143 -39.5087 -39.5083
   -39.4643 -39.4622 -39.4281 -39.4273 -39.3871 -39.3828 -39.3450 -39.3422
   -39.3193 -39.3164 -39.2806 -39.2781 -39.2600 -39.2566 -28.6277 -28.6178
   -28.6122 -28.6078 -28.4971 -28.4886 -28.4834 -28.4764 -28.4641 -28.4532
   -28.4462 -28.4392 -27.8831 -27.8783 -27.8663 -27.8636 -27.8515 -27.8429
    -4.0292  -2.8753  -2.3963  -1.9247  -1.8760  -1.3767  -1.3524  -1.1038
    -0.9698  -0.8535  -0.7629  -0.3788  -0.1471   0.0020   0.0734   0.1519
     0.1932   0.2029   0.2660   0.4528   0.5478   0.6167   0.6167   0.6709
     0.6743   0.7914   0.8059   0.9960   1.1418   1.2416   1.4874   1.5005
     1.5986   1.6663   2.1361   2.2726   2.6558   2.7128   2.9148   3.3988
     4.3085   4.3194   4.4550   4.5066   4.5749   4.7093   4.7322   5.0242
     5.0482

          k = 0.0294-0.0573 0.0000 ( 34824 PWs)   bands (ev):

   -77.7370 -77.7360 -77.6090 -77.6082 -77.5715 -77.5706 -60.0125 -60.0092
   -60.0014 -59.9982 -59.2964 -59.2931 -39.5201 -39.5161 -39.5104 -39.5070
   -39.4794 -39.4482 -39.4294 -39.4259 -39.3883 -39.3810 -39.3596 -39.3340
   -39.3286 -39.3027 -39.2833 -39.2778 -39.2625 -39.2558 -28.6217 -28.6199
   -28.6165 -28.6057 -28.5239 -28.5094 -28.4596 -28.4572 -28.4517 -28.4433
   -28.4391 -28.4365 -27.9108 -27.8653 -27.8644 -27.8558 -27.8395 -27.8382
    -4.4242  -2.7409  -2.5166  -2.0615  -1.8618  -1.7233  -1.5601  -1.2551
    -1.2135  -1.1198  -0.7761  -0.5356  -0.2903  -0.0074   0.0030   0.1957
     0.1982   0.2523   0.3733   0.3886   0.5000   0.5506   0.6247   0.6513
     0.7226   0.7335   0.9819   1.0901   1.1829   1.3467   1.4964   1.5209
     1.9094   1.9684   1.9764   2.4312   2.6587   2.8324   3.3792   3.8366
     4.2030   4.4681   4.4796   4.6215   4.7571   4.7903   4.9010   5.2430
     5.2970

          k = 0.0294-0.0417 0.0000 ( 34845 PWs)   bands (ev):

   -77.7374 -77.7356 -77.6094 -77.6078 -77.5719 -77.5702 -60.0140 -60.0076
   -60.0030 -59.9966 -59.2980 -59.2914 -39.5205 -39.5178 -39.5125 -39.5060
   -39.4934 -39.4352 -39.4304 -39.4245 -39.3893 -39.3797 -39.3730 -39.3476
   -39.3160 -39.2899 -39.2857 -39.2776 -39.2647 -39.2553 -28.6232 -28.6194
   -28.6157 -28.6042 -28.5578 -28.5421 -28.4522 -28.4519 -28.4366 -28.4316
   -28.4164 -28.4036 -27.9457 -27.8644 -27.8596 -27.8576 -27.8366 -27.7983
    -4.7476  -3.0466  -2.3347  -2.1174  -2.0625  -1.9306  -1.7006  -1.4947
    -1.3940  -1.3256  -0.8316  -0.8219  -0.5920   0.0200   0.1431   0.1463
     0.1656   0.2281   0.2738   0.3521   0.3987   0.5496   0.6953   0.7094
     0.7711   0.8281   1.1774   1.3747   1.4248   1.6327   1.6448   1.6989
     1.8435   2.1203   2.4433   2.5287   2.6829   2.9261   3.7646   4.1045
     4.2506   4.3732   4.4515   4.7984   4.8828   5.0271   5.0388   5.2347
     5.3063

          k = 0.0294-0.0261 0.0000 ( 34872 PWs)   bands (ev):

   -77.7378 -77.7353 -77.6098 -77.6074 -77.5722 -77.5699 -60.0153 -60.0062
   -60.0043 -59.9952 -59.2993 -59.2900 -39.5204 -39.5192 -39.5143 -39.5054
   -39.5052 -39.4312 -39.4239 -39.4231 -39.3903 -39.3848 -39.3785 -39.3592
   -39.3053 -39.2873 -39.2790 -39.2773 -39.2664 -39.2550 -28.6279 -28.6205
   -28.6103 -28.6033 -28.5872 -28.5707 -28.4517 -28.4447 -28.4370 -28.4257
   -28.3829 -28.3700 -27.9762 -27.8646 -27.8625 -27.8517 -27.8344 -27.7633
    -4.9788  -3.2726  -2.3599  -2.3159  -2.0312  -2.0178  -1.7763  -1.7266
    -1.5001  -1.4903  -1.0482  -0.8672  -0.8253   0.0625   0.0683   0.1142
     0.1432   0.2125   0.2534   0.2923   0.2966   0.4551   0.7627   0.8467
     0.9232   1.1352   1.3547   1.4562   1.7028   1.7678   1.8769   1.9305
     2.2067   2.2474   2.5017   2.7992   2.8127   3.0682   3.9263   4.0102
     4.3211   4.3404   4.6091   4.8179   4.9254   5.0380   5.1510   5.2028
     5.2926

          k = 0.0441-0.0157 0.0000 ( 34864 PWs)   bands (ev):

   -77.7377 -77.7353 -77.6098 -77.6074 -77.5722 -77.5698 -60.0154 -60.0062
   -60.0043 -59.9952 -59.2994 -59.2900 -39.5187 -39.5185 -39.5145 -39.5058
   -39.5043 -39.4306 -39.4239 -39.4227 -39.3904 -39.3841 -39.3796 -39.3584
   -39.3054 -39.2858 -39.2792 -39.2765 -39.2654 -39.2551 -28.6305 -28.6195
   -28.6089 -28.6049 -28.5902 -28.5739 -28.4546 -28.4446 -28.4440 -28.4293
   -28.3827 -28.3699 -27.9792 -27.8687 -27.8607 -27.8533 -27.8354 -27.7634
    -4.8380  -3.1451  -2.5246  -2.1950  -2.0017  -1.7931  -1.7128  -1.6367
    -1.4400  -1.4170  -1.1138  -0.7480  -0.6102   0.0409   0.0581   0.0797
     0.1730   0.2413   0.2737   0.3093   0.3695   0.5937   0.8649   0.9181
     0.9323   1.1548   1.3285   1.4028   1.6859   1.8603   1.9285   2.0066
     2.0343   2.1286   2.3517   2.4617   2.8842   3.1360   3.3720   3.8289
     3.9810   4.4418   4.6116   4.7541   4.7607   4.8494   5.0498   5.0850
     5.2668

          k = 0.0441-0.0001 0.0000 ( 34864 PWs)   bands (ev):

   -77.7380 -77.7350 -77.6100 -77.6072 -77.5725 -77.5696 -60.0164 -60.0054
   -60.0052 -59.9942 -59.3005 -59.2889 -39.5195 -39.5169 -39.5154 -39.5126
   -39.5054 -39.4309 -39.4215 -39.4151 -39.3920 -39.3911 -39.3799 -39.3665
   -39.2970 -39.2858 -39.2755 -39.2708 -39.2655 -39.2545 -28.6363 -28.6194
   -28.6174 -28.6065 -28.6010 -28.5978 -28.4574 -28.4506 -28.4399 -28.4289
   -28.3582 -28.3451 -28.0050 -27.8726 -27.8615 -27.8515 -27.8343 -27.7377
    -4.8869  -3.1895  -2.4184  -2.2700  -1.9516  -1.8787  -1.7733  -1.6299
    -1.4911  -1.4549  -1.0930  -0.8655  -0.6501   0.0179   0.0253   0.0431
     0.2183   0.2434   0.3150   0.3429   0.4656   0.5668   0.9903   1.0534
     1.0548   1.4092   1.4302   1.5243   1.8668   1.9170   2.0199   2.1513
     2.2186   2.2774   2.3929   2.5317   2.8722   3.1863   3.3188   3.7163
     3.8769   4.3734   4.4502   4.4735   4.5769   4.7058   4.8473   4.9340
     5.0233

          k = 0.0441 0.0155 0.0000 ( 34859 PWs)   bands (ev):

   -77.7382 -77.7349 -77.6102 -77.6070 -77.5726 -77.5694 -60.0171 -60.0061
   -60.0046 -59.9935 -59.3013 -59.2882 -39.5198 -39.5179 -39.5155 -39.5141
   -39.5052 -39.4313 -39.4209 -39.4093 -39.3966 -39.3913 -39.3804 -39.3712
   -39.2915 -39.2851 -39.2744 -39.2659 -39.2644 -39.2539 -28.6412 -28.6347
   -28.6188 -28.6160 -28.6060 -28.5977 -28.4628 -28.4571 -28.4387 -28.4311
   -28.3435 -28.3302 -28.0228 -27.8776 -27.8612 -27.8521 -27.8339 -27.7222
    -4.8279  -3.1272  -2.2505  -2.2472  -1.9740  -1.8255  -1.7857  -1.5858
    -1.4961  -1.4271  -0.9474  -0.8980  -0.6848   0.0145   0.0274   0.0413
     0.2144   0.2692   0.3512   0.4951   0.5717   0.6099   1.0878   1.1540
     1.1957   1.4688   1.5818   1.6275   1.7844   1.8786   2.1478   2.2221
     2.2542   2.3191   2.3844   2.7115   2.7283   2.9398   3.3676   3.5472
     3.7584   4.1979   4.2383   4.2856   4.3367   4.5436   4.6602   4.8158
     4.8562

          k = 0.0441 0.0310 0.0000 ( 34875 PWs)   bands (ev):

   -77.7382 -77.7348 -77.6103 -77.6070 -77.5727 -77.5694 -60.0174 -60.0064
   -60.0044 -59.9933 -59.3016 -59.2880 -39.5197 -39.5188 -39.5151 -39.5117
   -39.5052 -39.4316 -39.4210 -39.4072 -39.3975 -39.3910 -39.3811 -39.3721
   -39.2895 -39.2839 -39.2735 -39.2641 -39.2631 -39.2534 -28.6448 -28.6432
   -28.6241 -28.6178 -28.6076 -28.5953 -28.4706 -28.4623 -28.4404 -28.4346
   -28.3393 -28.3259 -28.0313 -27.8828 -27.8599 -27.8547 -27.8344 -27.7178
    -4.6663  -2.9677  -2.1910  -2.0943  -1.9591  -1.7765  -1.6607  -1.4903
    -1.4300  -1.3642  -0.8428  -0.7077  -0.6897   0.0138   0.0539   0.0631
     0.2477   0.2821   0.4099   0.6383   0.6835   0.7175   1.0978   1.2164
     1.3420   1.4677   1.5640   1.6494   1.6691   1.9305   2.0673   2.0686
     2.2875   2.3042   2.4736   2.5168   2.5746   2.6480   3.2322   3.3154
     3.5501   4.0439   4.0517   4.1491   4.2870   4.4154   4.5340   4.6059
     4.7816

          k = 0.0441 0.0466 0.0000 ( 34817 PWs)   bands (ev):

   -77.7381 -77.7349 -77.6102 -77.6070 -77.5726 -77.5694 -60.0172 -60.0062
   -60.0046 -59.9936 -59.3015 -59.2882 -39.5194 -39.5161 -39.5142 -39.5096
   -39.5051 -39.4317 -39.4217 -39.4089 -39.3948 -39.3901 -39.3818 -39.3693
   -39.2913 -39.2824 -39.2731 -39.2650 -39.2622 -39.2531 -28.6467 -28.6417
   -28.6228 -28.6164 -28.6092 -28.5943 -28.4782 -28.4659 -28.4445 -28.4374
   -28.3454 -28.3320 -28.0295 -27.8871 -27.8580 -27.8577 -27.8357 -27.7243
    -4.4119  -2.7291  -2.1718  -2.1654  -1.7866  -1.5856  -1.5432  -1.3092
    -1.2952  -1.2792  -0.7047  -0.6835  -0.3888   0.0066   0.0553   0.0760
     0.2852   0.3114   0.5080   0.7109   0.7786   0.8125   1.0152   1.2376
     1.4081   1.4366   1.4533   1.5225   1.5991   1.8918   2.0129   2.0382
     2.0773   2.1879   2.2466   2.2995   2.3300   2.5283   2.9809   3.0548
     3.3489   3.8082   3.9576   4.1491   4.3272   4.4274   4.4601   4.4738
     4.8327

          k = 0.0441 0.0622 0.0000 ( 34814 PWs)   bands (ev):

   -77.7379 -77.7351 -77.6100 -77.6072 -77.5725 -77.5696 -60.0166 -60.0056
   -60.0053 -59.9943 -59.3009 -59.2889 -39.5191 -39.5130 -39.5104 -39.5086
   -39.5045 -39.4316 -39.4230 -39.4144 -39.3888 -39.3888 -39.3826 -39.3632
   -39.2968 -39.2809 -39.2734 -39.2705 -39.2605 -39.2534 -28.6467 -28.6299
   -28.6147 -28.6137 -28.6088 -28.5947 -28.4835 -28.4674 -28.4493 -28.4393
   -28.3609 -28.3478 -28.0171 -27.8894 -27.8613 -27.8551 -27.8378 -27.7407
    -4.0788  -2.4388  -2.4332  -2.1563  -1.5102  -1.5051  -1.3047  -1.2054
    -1.0903  -1.0872  -0.6413  -0.4972  -0.1116  -0.0380  -0.0182   0.0680
     0.3349   0.3673   0.5988   0.6177   0.7266   0.9031   0.9535   1.1091
     1.2753   1.3479   1.4015   1.5187   1.5623   1.5641   1.6206   1.8638
     1.8773   2.0651   2.1660   2.1799   2.2204   2.5189   2.7255   2.8208
     3.2739   3.6866   3.9729   4.2167   4.3515   4.3971   4.4289   4.5280
     4.6611

          k = 0.0441-0.1093 0.0000 ( 34820 PWs)   bands (ev):

   -77.7377 -77.7353 -77.6097 -77.6074 -77.5722 -77.5698 -60.0156 -60.0063
   -60.0046 -59.9953 -59.2998 -59.2899 -39.5190 -39.5116 -39.5097 -39.5046
   -39.5002 -39.4312 -39.4246 -39.4235 -39.3871 -39.3842 -39.3792 -39.3541
   -39.3056 -39.2799 -39.2792 -39.2745 -39.2589 -39.2542 -28.6447 -28.6139
   -28.6127 -28.6088 -28.5959 -28.5892 -28.4854 -28.4661 -28.4530 -28.4402
   -28.3846 -28.3717 -27.9945 -27.8890 -27.8637 -27.8520 -27.8407 -27.7658
    -3.6849  -2.8025  -2.1646  -2.1362  -1.5573  -1.1859  -1.1588  -1.0558
    -0.9043  -0.8296  -0.6056  -0.2430  -0.2223  -0.0560  -0.0309   0.1045
     0.3636   0.4171   0.4529   0.5124   0.6721   0.7856   0.8061   1.0525
     1.0941   1.1422   1.1837   1.2858   1.3783   1.4402   1.4921   1.5564
     1.8151   1.8821   2.1328   2.1828   2.2610   2.5442   2.5858   2.6416
     3.3694   3.7137   4.0694   4.3273   4.4414   4.4833   4.5128   4.5790
     4.6525

          k = 0.0441-0.0937 0.0000 ( 34813 PWs)   bands (ev):

   -77.7373 -77.7357 -77.6094 -77.6078 -77.5718 -77.5702 -60.0143 -60.0077
   -60.0032 -59.9966 -59.2984 -59.2913 -39.5193 -39.5110 -39.5102 -39.5046
   -39.4890 -39.4355 -39.4303 -39.4262 -39.3853 -39.3849 -39.3682 -39.3427
   -39.3171 -39.2911 -39.2789 -39.2763 -39.2577 -39.2558 -28.6408 -28.6154
   -28.6106 -28.6017 -28.5754 -28.5598 -28.4832 -28.4620 -28.4550 -28.4401
   -28.4147 -28.4020 -27.9628 -27.8856 -27.8650 -27.8487 -27.8443 -27.7975
    -3.2540  -3.2316  -2.2050  -1.8822  -1.7465  -1.2214  -0.9096  -0.8303
    -0.8048  -0.6530  -0.5537  -0.3321  -0.2099  -0.0901   0.0387   0.0582
     0.2602   0.3026   0.3782   0.4785   0.5619   0.6361   0.7786   0.7860
     0.8270   0.9053   0.9195   1.2219   1.3023   1.3784   1.3955   1.4387
     1.4933   1.7875   2.0424   2.3542   2.4014   2.4664   2.5368   2.8880
     3.6035   3.8690   4.2165   4.4344   4.5432   4.6059   4.6158   4.7173
     4.7686

          k = 0.0441-0.0781 0.0000 ( 34806 PWs)   bands (ev):

   -77.7369 -77.7361 -77.6090 -77.6082 -77.5714 -77.5706 -60.0127 -60.0092
   -60.0016 -59.9982 -59.2967 -59.2929 -39.5196 -39.5126 -39.5090 -39.5058
   -39.4760 -39.4495 -39.4291 -39.4276 -39.3859 -39.3836 -39.3555 -39.3307
   -39.3298 -39.3048 -39.2786 -39.2785 -39.2578 -39.2568 -28.6353 -28.6170
   -28.6087 -28.6057 -28.5382 -28.5234 -28.4774 -28.4558 -28.4554 -28.4489
   -28.4392 -28.4364 -27.9242 -27.8797 -27.8654 -27.8482 -27.8455 -27.8337
    -3.6716  -2.8206  -2.2821  -2.0576  -1.7387  -1.3498  -0.9973  -0.9307
    -0.8119  -0.5363  -0.4913  -0.3618  -0.2825  -0.0493  -0.0349   0.0640
     0.2799   0.2927   0.3796   0.3960   0.5347   0.5526   0.6038   0.6138
     0.6658   0.6819   0.8661   1.1047   1.2497   1.3201   1.3373   1.3570
     1.4978   1.5185   2.2182   2.2635   2.4797   2.5618   2.8078   3.2486
     3.9224   4.1207   4.3481   4.4820   4.5860   4.5899   4.6670   4.7254
     4.9661

          k = 0.0441-0.0625 0.0000 ( 34799 PWs)   bands (ev):

   -77.7365 -77.7365 -77.6086 -77.6086 -77.5710 -77.5710 -60.0110 -60.0108
   -59.9999 -59.9998 -59.2949 -59.2946 -39.5200 -39.5144 -39.5079 -39.5079
   -39.4645 -39.4620 -39.4286 -39.4276 -39.3870 -39.3821 -39.3452 -39.3420
   -39.3195 -39.3162 -39.2811 -39.2782 -39.2602 -39.2562 -28.6287 -28.6183
   -28.6110 -28.6070 -28.4970 -28.4867 -28.4831 -28.4730 -28.4689 -28.4545
   -28.4470 -28.4382 -27.8817 -27.8723 -27.8722 -27.8651 -27.8522 -27.8423
    -4.0800  -2.4936  -2.4139  -2.3095  -1.7467  -1.4813  -1.3548  -1.0990
    -0.9627  -0.8800  -0.5165  -0.4218  -0.1584  -0.0482   0.0382   0.0753
     0.2581   0.2966   0.3100   0.3961   0.4523   0.5437   0.5809   0.6551
     0.7163   0.7483   0.8007   0.8748   1.1229   1.3333   1.3433   1.4207
     1.5961   1.7371   2.0640   2.4202   2.5160   2.7105   3.1433   3.5959
     4.2743   4.3254   4.4070   4.4323   4.5341   4.7309   4.7472   4.9635
     5.2009

          k = 0.0441-0.0469 0.0000 ( 34824 PWs)   bands (ev):

   -77.7370 -77.7360 -77.6090 -77.6082 -77.5715 -77.5706 -60.0125 -60.0092
   -60.0014 -59.9982 -59.2964 -59.2931 -39.5201 -39.5161 -39.5104 -39.5070
   -39.4794 -39.4482 -39.4294 -39.4259 -39.3883 -39.3810 -39.3596 -39.3340
   -39.3286 -39.3027 -39.2833 -39.2778 -39.2625 -39.2558 -28.6217 -28.6199
   -28.6165 -28.6057 -28.5239 -28.5094 -28.4596 -28.4572 -28.4517 -28.4433
   -28.4391 -28.4365 -27.9108 -27.8653 -27.8644 -27.8558 -27.8395 -27.8382
    -4.4242  -2.7409  -2.5166  -2.0615  -1.8618  -1.7233  -1.5601  -1.2551
    -1.2135  -1.1198  -0.7761  -0.5356  -0.2903  -0.0074   0.0030   0.1957
     0.1982   0.2523   0.3733   0.3886   0.5000   0.5506   0.6247   0.6513
     0.7226   0.7335   0.9819   1.0901   1.1829   1.3467   1.4964   1.5209
     1.9095   1.9684   1.9764   2.4312   2.6587   2.8324   3.3792   3.8366
     4.2030   4.4681   4.4796   4.6215   4.7572   4.7903   4.9010   5.2430
     5.2970

          k = 0.0441-0.0313 0.0000 ( 34852 PWs)   bands (ev):

   -77.7374 -77.7356 -77.6094 -77.6078 -77.5719 -77.5702 -60.0140 -60.0076
   -60.0030 -59.9966 -59.2980 -59.2914 -39.5196 -39.5176 -39.5127 -39.5063
   -39.4930 -39.4352 -39.4300 -39.4242 -39.3894 -39.3804 -39.3727 -39.3473
   -39.3161 -39.2901 -39.2849 -39.2773 -39.2643 -39.2555 -28.6243 -28.6191
   -28.6148 -28.6050 -28.5593 -28.5437 -28.4536 -28.4508 -28.4407 -28.4329
   -28.4155 -28.4028 -27.9472 -27.8663 -27.8588 -27.8578 -27.8372 -27.7978
    -4.6816  -2.9925  -2.5536  -2.0116  -1.9666  -1.8758  -1.6109  -1.4874
    -1.3718  -1.2890  -1.0043  -0.5764  -0.5523   0.0650   0.1016   0.1203
     0.1517   0.1538   0.3050   0.3452   0.4269   0.6425   0.7483   0.7529
     0.8255   0.8501   1.1709   1.3312   1.3572   1.6584   1.6887   1.7489
     1.9115   2.0228   2.3189   2.4045   2.7933   2.9506   3.4542   3.8891
     4.0950   4.4557   4.6112   4.7760   4.8421   4.9769   5.0840   5.1978
     5.2435

          k = 0.0587-0.0210 0.0000 ( 34830 PWs)   bands (ev):

   -77.7374 -77.7356 -77.6094 -77.6078 -77.5719 -77.5702 -60.0141 -60.0076
   -60.0030 -59.9966 -59.2981 -59.2914 -39.5173 -39.5172 -39.5131 -39.5070
   -39.4920 -39.4352 -39.4293 -39.4237 -39.3894 -39.3821 -39.3718 -39.3464
   -39.3164 -39.2904 -39.2831 -39.2766 -39.2630 -39.2558 -28.6278 -28.6176
   -28.6124 -28.6071 -28.5633 -28.5476 -28.4573 -28.4499 -28.4483 -28.4364
   -28.4140 -28.4015 -27.9511 -27.8712 -27.8587 -27.8565 -27.8387 -27.7970
    -4.4863  -2.8327  -2.8088  -1.9888  -1.8597  -1.5570  -1.4881  -1.4317
    -1.3103  -1.1786  -1.0787  -0.4392  -0.3219   0.0079   0.0234   0.0652
     0.1670   0.1841   0.3023   0.3522   0.5369   0.8083   0.8144   0.8262
     0.8960   1.0767   1.1653   1.2607   1.2638   1.5427   1.7406   1.7653
     1.9634   2.0810   2.0824   2.3038   2.7917   2.8344   2.9243   3.3759
     4.0892   4.4898   4.6189   4.6826   4.7662   4.7887   4.9819   4.9823
     5.0613

          k = 0.0587-0.0054 0.0000 ( 34837 PWs)   bands (ev):

   -77.7377 -77.7353 -77.6098 -77.6074 -77.5722 -77.5698 -60.0155 -60.0063
   -60.0044 -59.9952 -59.2995 -59.2900 -39.5184 -39.5151 -39.5141 -39.5065
   -39.5029 -39.4300 -39.4237 -39.4224 -39.3901 -39.3835 -39.3809 -39.3570
   -39.3055 -39.2834 -39.2794 -39.2754 -39.2634 -39.2550 -28.6350 -28.6175
   -28.6085 -28.6058 -28.5948 -28.5790 -28.4610 -28.4553 -28.4434 -28.4354
   -28.3829 -28.3701 -27.9843 -27.8756 -27.8578 -27.8563 -27.8371 -27.7639
    -4.5636  -2.8979  -2.6605  -1.9709  -1.9176  -1.7137  -1.5231  -1.4220
    -1.3378  -1.2672  -1.0580  -0.6053  -0.3274  -0.0162  -0.0098   0.0413
     0.2805   0.3157   0.3333   0.3451   0.4920   0.7823   0.9149   0.9915
     1.0733   1.2372   1.2876   1.3714   1.5864   1.6639   1.8696   1.9697
     2.0469   2.1372   2.2033   2.2735   2.6911   2.7235   3.0178   3.2909
     3.9322   4.3708   4.4586   4.5072   4.5513   4.6422   4.7951   4.9281
     4.9421

          k = 0.0587 0.0102 0.0000 ( 34832 PWs)   bands (ev):

   -77.7380 -77.7350 -77.6100 -77.6072 -77.5725 -77.5696 -60.0165 -60.0055
   -60.0052 -59.9942 -59.3007 -59.2889 -39.5191 -39.5144 -39.5132 -39.5104
   -39.5058 -39.4309 -39.4217 -39.4147 -39.3904 -39.3904 -39.3817 -39.3648
   -39.2969 -39.2831 -39.2742 -39.2707 -39.2631 -39.2541 -28.6415 -28.6237
   -28.6171 -28.6097 -28.6037 -28.5981 -28.4688 -28.4608 -28.4421 -28.4363
   -28.3595 -28.3464 -28.0111 -27.8812 -27.8582 -27.8563 -27.8361 -27.7391
    -4.5372  -2.8601  -2.4390  -2.0456  -1.8360  -1.7631  -1.5355  -1.3800
    -1.3248  -1.3059  -0.9189  -0.6970  -0.3641  -0.0116   0.0015   0.0516
     0.2817   0.3089   0.4766   0.5285   0.5465   0.7632   1.0054   1.1365
     1.2778   1.3695   1.3818   1.5106   1.5588   1.8630   1.9855   2.0419
     2.1426   2.1716   2.1765   2.3897   2.5120   2.5542   3.0582   3.1852
     3.6780   4.1262   4.1670   4.2541   4.4227   4.5768   4.6097   4.6755
     4.9275

          k = 0.0587 0.0258 0.0000 ( 34817 PWs)   bands (ev):

   -77.7381 -77.7349 -77.6102 -77.6070 -77.5726 -77.5694 -60.0172 -60.0062
   -60.0046 -59.9936 -59.3015 -59.2882 -39.5194 -39.5161 -39.5142 -39.5096
   -39.5051 -39.4317 -39.4217 -39.4089 -39.3948 -39.3901 -39.3818 -39.3693
   -39.2913 -39.2824 -39.2731 -39.2650 -39.2622 -39.2531 -28.6467 -28.6417
   -28.6228 -28.6164 -28.6092 -28.5943 -28.4782 -28.4659 -28.4445 -28.4374
   -28.3454 -28.3320 -28.0295 -27.8871 -27.8580 -27.8577 -27.8357 -27.7243
    -4.4119  -2.7291  -2.1718  -2.1654  -1.7866  -1.5856  -1.5432  -1.3092
    -1.2952  -1.2792  -0.7047  -0.6835  -0.3888   0.0066   0.0553   0.0760
     0.2852   0.3114   0.5080   0.7109   0.7786   0.8125   1.0152   1.2376
     1.4081   1.4366   1.4533   1.5225   1.5991   1.8918   2.0129   2.0382
     2.0773   2.1879   2.2466   2.2995   2.3300   2.5283   2.9809   3.0547
     3.3489   3.8082   3.9576   4.1491   4.3272   4.4274   4.4601   4.4738
     4.8327

          k = 0.0587 0.0414 0.0000 ( 34795 PWs)   bands (ev):

   -77.7382 -77.7348 -77.6102 -77.6069 -77.5727 -77.5693 -60.0175 -60.0065
   -60.0044 -59.9934 -59.3018 -59.2880 -39.5193 -39.5171 -39.5136 -39.5082
   -39.5038 -39.4324 -39.4223 -39.4068 -39.3957 -39.3894 -39.3820 -39.3702
   -39.2893 -39.2814 -39.2724 -39.2629 -39.2611 -39.2524 -28.6502 -28.6501
   -28.6308 -28.6154 -28.6106 -28.5918 -28.4867 -28.4701 -28.4488 -28.4387
   -28.3413 -28.3278 -28.0379 -27.8921 -27.8606 -27.8566 -27.8360 -27.7199
    -4.1969  -2.5219  -2.2880  -1.9733  -1.6290  -1.6001  -1.3229  -1.2401
    -1.2130  -1.2041  -0.6261  -0.4306  -0.3427   0.0266   0.0953   0.1350
     0.2152   0.3547   0.5858   0.8456   0.8459   0.8805   1.0944   1.2886
     1.3556   1.3856   1.5387   1.5512   1.5936   1.7934   1.9468   2.0239
     2.0645   2.0661   2.0914   2.1084   2.2356   2.6449   2.7956   2.8993
     3.0511   3.5578   3.8223   4.0797   4.2062   4.3012   4.3464   4.4287
     4.7653

          k = 0.0587 0.0570 0.0000 ( 34809 PWs)   bands (ev):

   -77.7381 -77.7349 -77.6102 -77.6070 -77.5726 -77.5694 -60.0173 -60.0063
   -60.0047 -59.9936 -59.3016 -59.2882 -39.5192 -39.5147 -39.5127 -39.5080
   -39.5023 -39.4327 -39.4234 -39.4086 -39.3932 -39.3884 -39.3824 -39.3677
   -39.2911 -39.2804 -39.2724 -39.2647 -39.2597 -39.2522 -28.6515 -28.6478
   -28.6286 -28.6141 -28.6119 -28.5910 -28.4926 -28.4724 -28.4530 -28.4398
   -28.3471 -28.3337 -28.0353 -27.8951 -27.8632 -27.8550 -27.8371 -27.7261
    -3.9042  -2.3976  -2.2619  -2.0977  -1.4044  -1.3950  -1.2181  -1.2076
    -1.0785  -1.0067  -0.4761  -0.3646  -0.0998   0.0278   0.0281   0.1151
     0.2675   0.4075   0.6677   0.6838   0.8859   0.9447   1.0473   1.2018
     1.3493   1.3699   1.4115   1.5769   1.6339   1.6708   1.6926   1.7898
     1.7955   1.9491   2.1239   2.1562   2.1761   2.5754   2.6703   2.7778
     2.9008   3.3803   3.8056   4.0613   4.0963   4.2721   4.3444   4.4841
     4.6301

          k = 0.0587-0.1146 0.0000 ( 34827 PWs)   bands (ev):

   -77.7379 -77.7351 -77.6100 -77.6072 -77.5725 -77.5696 -60.0167 -60.0057
   -60.0053 -59.9943 -59.3010 -59.2889 -39.5192 -39.5117 -39.5090 -39.5085
   -39.5014 -39.4326 -39.4247 -39.4142 -39.3877 -39.3872 -39.3827 -39.3619
   -39.2966 -39.2796 -39.2731 -39.2703 -39.2585 -39.2526 -28.6505 -28.6345
   -28.6172 -28.6127 -28.6118 -28.5919 -28.4946 -28.4720 -28.4560 -28.4405
   -28.3621 -28.3489 -28.0214 -27.8953 -27.8651 -27.8529 -27.8390 -27.7420
    -3.5490  -2.4996  -2.4185  -1.9850  -1.2371  -1.2154  -1.1292  -1.1284
    -0.8879  -0.7988  -0.3105  -0.2849  -0.2019  -0.0059   0.0072   0.1869
     0.3654   0.4259   0.5128   0.6963   0.7770   0.8363   0.8988   1.0061
     1.1562   1.2257   1.3122   1.3718   1.4104   1.4565   1.6505   1.7413
     1.8479   1.8762   2.0769   2.1881   2.1930   2.3906   2.5544   2.6691
     2.9710   3.3599   3.9016   4.1238   4.2275   4.3308   4.4398   4.5469
     4.5666

          k = 0.0587-0.0990 0.0000 ( 34803 PWs)   bands (ev):

   -77.7376 -77.7353 -77.6097 -77.6074 -77.5722 -77.5698 -60.0157 -60.0063
   -60.0046 -59.9953 -59.2999 -59.2899 -39.5194 -39.5107 -39.5097 -39.5019
   -39.4998 -39.4319 -39.4259 -39.4234 -39.3859 -39.3840 -39.3785 -39.3533
   -39.3055 -39.2794 -39.2790 -39.2746 -39.2576 -39.2538 -28.6472 -28.6155
   -28.6112 -28.6111 -28.5947 -28.5912 -28.4923 -28.4684 -28.4573 -28.4404
   -28.3853 -28.3724 -27.9970 -27.8923 -27.8659 -27.8505 -27.8416 -27.7664
    -3.1513  -2.8245  -2.5993  -1.7472  -1.3945  -1.2706  -0.9353  -0.8235
    -0.6518  -0.6507  -0.4127  -0.3040  -0.1044  -0.0731  -0.0671   0.2167
     0.3566   0.4146   0.4379   0.4821   0.5149   0.6465   0.8036   0.9206
     0.9500   0.9836   1.1102   1.2411   1.2775   1.3191   1.4575   1.6847
     1.6984   1.9507   2.0245   2.1836   2.2740   2.3701   2.5328   2.6984
     3.2048   3.5072   4.0781   4.1816   4.4811   4.5661   4.6118   4.6558
     4.7800

          k = 0.0587-0.0834 0.0000 ( 34844 PWs)   bands (ev):

   -77.7373 -77.7357 -77.6094 -77.6078 -77.5718 -77.5702 -60.0143 -60.0077
   -60.0033 -59.9966 -59.2984 -59.2913 -39.5196 -39.5111 -39.5098 -39.5033
   -39.4888 -39.4355 -39.4307 -39.4269 -39.3848 -39.3846 -39.3679 -39.3424
   -39.3172 -39.2911 -39.2787 -39.2765 -39.2571 -39.2557 -28.6420 -28.6162
   -28.6098 -28.6007 -28.5763 -28.5607 -28.4861 -28.4623 -28.4569 -28.4398
   -28.4151 -28.4023 -27.9637 -27.8867 -27.8659 -27.8480 -27.8448 -27.7977
    -3.2580  -2.7923  -2.6365  -1.6959  -1.6490  -1.3341  -0.8603  -0.7348
    -0.5248  -0.5179  -0.4081  -0.3866  -0.2236  -0.1657  -0.0833   0.0982
     0.1947   0.3219   0.3909   0.4831   0.5116   0.6117   0.6992   0.7076
     0.7783   0.8053   0.8979   1.2295   1.2496   1.2814   1.3570   1.4311
     1.5766   1.6155   2.2485   2.2529   2.3705   2.3771   2.6088   2.9916
     3.5380   3.7777   4.2552   4.3472   4.5136   4.5971   4.6450   4.7508
     4.8335

          k = 0.0587-0.0678 0.0000 ( 34806 PWs)   bands (ev):

   -77.7369 -77.7361 -77.6090 -77.6082 -77.5714 -77.5706 -60.0127 -60.0092
   -60.0016 -59.9982 -59.2967 -59.2929 -39.5196 -39.5126 -39.5090 -39.5058
   -39.4760 -39.4495 -39.4291 -39.4276 -39.3859 -39.3836 -39.3555 -39.3307
   -39.3298 -39.3048 -39.2786 -39.2785 -39.2578 -39.2568 -28.6353 -28.6170
   -28.6087 -28.6057 -28.5382 -28.5234 -28.4774 -28.4558 -28.4554 -28.4489
   -28.4392 -28.4364 -27.9242 -27.8797 -27.8654 -27.8482 -27.8455 -27.8337
    -3.6716  -2.8206  -2.2821  -2.0576  -1.7387  -1.3498  -0.9973  -0.9307
    -0.8119  -0.5363  -0.4913  -0.3618  -0.2825  -0.0493  -0.0349   0.0640
     0.2799   0.2927   0.3796   0.3960   0.5347   0.5526   0.6038   0.6138
     0.6658   0.6819   0.8661   1.1047   1.2497   1.3201   1.3373   1.3570
     1.4978   1.5185   2.2182   2.2635   2.4797   2.5618   2.8078   3.2486
     3.9224   4.1207   4.3481   4.4819   4.5860   4.5900   4.6669   4.7254
     4.9660

          k = 0.0587-0.0522 0.0000 ( 34810 PWs)   bands (ev):

   -77.7365 -77.7365 -77.6086 -77.6086 -77.5710 -77.5710 -60.0109 -60.0108
   -59.9999 -59.9998 -59.2949 -59.2947 -39.5194 -39.5143 -39.5087 -39.5083
   -39.4643 -39.4622 -39.4281 -39.4273 -39.3871 -39.3828 -39.3450 -39.3422
   -39.3193 -39.3164 -39.2806 -39.2781 -39.2600 -39.2566 -28.6277 -28.6178
   -28.6122 -28.6078 -28.4971 -28.4886 -28.4834 -28.4763 -28.4641 -28.4532
   -28.4462 -28.4392 -27.8831 -27.8783 -27.8663 -27.8636 -27.8515 -27.8429
    -4.0292  -2.8753  -2.3963  -1.9247  -1.8760  -1.3767  -1.3524  -1.1038
    -0.9698  -0.8535  -0.7629  -0.3788  -0.1471   0.0020   0.0734   0.1519
     0.1932   0.2029   0.2660   0.4528   0.5478   0.6167   0.6167   0.6709
     0.6743   0.7914   0.8059   0.9960   1.1418   1.2416   1.4874   1.5005
     1.5986   1.6663   2.1361   2.2726   2.6558   2.7128   2.9148   3.3988
     4.3086   4.3194   4.4550   4.5066   4.5749   4.7092   4.7322   5.0239
     5.0481

          k = 0.0587-0.0366 0.0000 ( 34806 PWs)   bands (ev):

   -77.7370 -77.7360 -77.6090 -77.6081 -77.5715 -77.5706 -60.0125 -60.0092
   -60.0015 -59.9982 -59.2964 -59.2931 -39.5186 -39.5158 -39.5112 -39.5076
   -39.4788 -39.4483 -39.4286 -39.4254 -39.3884 -39.3823 -39.3590 -39.3335
   -39.3290 -39.3030 -39.2822 -39.2775 -39.2618 -39.2563 -28.6207 -28.6198
   -28.6170 -28.6073 -28.5266 -28.5123 -28.4620 -28.4559 -28.4519 -28.4447
   -28.4402 -28.4339 -27.9138 -27.8691 -27.8634 -27.8544 -27.8407 -27.8358
    -4.3058  -2.8779  -2.6627  -1.9713  -1.6768  -1.6549  -1.4122  -1.2329
    -1.2175  -1.0509  -0.9757  -0.3637  -0.2112   0.0051   0.0659   0.0795
     0.1080   0.1470   0.3023   0.4324   0.5956   0.6714   0.7168   0.7597
     0.8092   0.8719   0.9835   1.0933   1.1693   1.2363   1.5862   1.7233
     1.7525   1.8841   2.0924   2.2946   2.7654   2.8262   2.9170   3.4263
     4.2083   4.5436   4.5660   4.6437   4.7082   4.8201   4.8851   5.0617
     5.1850

          k = 0.0734-0.0262 0.0000 ( 34835 PWs)   bands (ev):

   -77.7369 -77.7361 -77.6090 -77.6082 -77.5714 -77.5706 -60.0126 -60.0092
   -60.0015 -59.9982 -59.2965 -59.2930 -39.5161 -39.5161 -39.5117 -39.5085
   -39.4780 -39.4485 -39.4278 -39.4249 -39.3880 -39.3842 -39.3581 -39.3326
   -39.3295 -39.3036 -39.2806 -39.2772 -39.2607 -39.2570 -28.6244 -28.6164
   -28.6152 -28.6098 -28.5307 -28.5163 -28.4658 -28.4575 -28.4511 -28.4432
   -28.4423 -28.4327 -27.9179 -27.8738 -27.8626 -27.8519 -27.8427 -27.8334
    -4.0727  -3.1911  -2.5071  -2.0544  -1.5068  -1.3307  -1.2783  -1.2514
    -1.1991  -1.0895  -0.9153  -0.3508  -0.0682  -0.0440  -0.0074   0.0351
     0.0769   0.1770   0.2733   0.4570   0.6478   0.6976   0.7918   0.9332
     0.9424   1.0079   1.0153   1.1153   1.1826   1.2886   1.4611   1.7334
     1.8358   1.9383   2.1367   2.1625   2.4253   2.7244   2.7856   2.9651
     4.2339   4.5064   4.5150   4.5991   4.6645   4.6812   4.7850   4.7915
     4.8484

          k = 0.0734-0.0106 0.0000 ( 34833 PWs)   bands (ev):

   -77.7373 -77.7357 -77.6094 -77.6078 -77.5719 -77.5702 -60.0142 -60.0076
   -60.0031 -59.9966 -59.2982 -59.2914 -39.5176 -39.5138 -39.5126 -39.5077
   -39.4908 -39.4352 -39.4290 -39.4237 -39.3886 -39.3838 -39.3705 -39.3451
   -39.3168 -39.2907 -39.2811 -39.2760 -39.2612 -39.2560 -28.6326 -28.6152
   -28.6111 -28.6077 -28.5682 -28.5525 -28.4650 -28.4575 -28.4467 -28.4407
   -28.4135 -28.4009 -27.9558 -27.8771 -27.8605 -27.8535 -27.8408 -27.7966
    -4.1704  -3.0103  -2.5763  -1.9493  -1.6475  -1.5209  -1.2673  -1.2292
    -1.2254  -1.0369  -1.0011  -0.2745  -0.1742  -0.0944  -0.0474   0.0151
     0.2020   0.2892   0.3049   0.3994   0.6406   0.8005   0.8491   0.9879
     1.0902   1.1522   1.1760   1.2080   1.3258   1.3936   1.4040   1.8695
     1.9230   2.0273   2.1304   2.1770   2.3952   2.6126   2.8082   2.9139
     4.0175   4.3627   4.4843   4.5231   4.5898   4.6008   4.6486   4.8125
     4.8272

          k = 0.0734 0.0050 0.0000 ( 34828 PWs)   bands (ev):

   -77.7377 -77.7353 -77.6098 -77.6074 -77.5722 -77.5698 -60.0155 -60.0063
[...]
     3.6712   4.0741   4.1823   4.3863   4.4718   4.5629   4.5636   4.6097
     4.8077

          k = 0.0734 0.0206 0.0000 ( 34814 PWs)   bands (ev):

   -77.7379 -77.7351 -77.6100 -77.6072 -77.5725 -77.5696 -60.0166 -60.0056
   -60.0053 -59.9943 -59.3009 -59.2889 -39.5191 -39.5130 -39.5104 -39.5086
   -39.5045 -39.4316 -39.4230 -39.4144 -39.3888 -39.3888 -39.3826 -39.3632
   -39.2968 -39.2809 -39.2734 -39.2705 -39.2605 -39.2534 -28.6467 -28.6299
   -28.6147 -28.6137 -28.6088 -28.5947 -28.4835 -28.4674 -28.4493 -28.4393
   -28.3609 -28.3478 -28.0171 -27.8894 -27.8613 -27.8551 -27.8378 -27.7407
    -4.0788  -2.4388  -2.4332  -2.1563  -1.5102  -1.5051  -1.3047  -1.2054
    -1.0903  -1.0872  -0.6413  -0.4972  -0.1116  -0.0380  -0.0182   0.0680
     0.3349   0.3673   0.5988   0.6177   0.7266   0.9031   0.9535   1.1091
     1.2753   1.3479   1.4015   1.5187   1.5623   1.5641   1.6206   1.8638
     1.8773   2.0651   2.1660   2.1799   2.2204   2.5189   2.7255   2.8208
     3.2739   3.6866   3.9729   4.2167   4.3515   4.3971   4.4290   4.5280
     4.6611

          k = 0.0734 0.0362 0.0000 ( 34809 PWs)   bands (ev):

   -77.7381 -77.7349 -77.6102 -77.6070 -77.5726 -77.5694 -60.0173 -60.0063
   -60.0047 -59.9936 -59.3016 -59.2882 -39.5192 -39.5147 -39.5127 -39.5080
   -39.5023 -39.4327 -39.4234 -39.4086 -39.3932 -39.3884 -39.3824 -39.3677
   -39.2911 -39.2804 -39.2724 -39.2647 -39.2597 -39.2522 -28.6515 -28.6478
   -28.6286 -28.6141 -28.6119 -28.5910 -28.4926 -28.4724 -28.4530 -28.4398
   -28.3471 -28.3337 -28.0353 -27.8951 -27.8632 -27.8550 -27.8371 -27.7261
    -3.9042  -2.3976  -2.2619  -2.0977  -1.4044  -1.3950  -1.2181  -1.2076
    -1.0785  -1.0067  -0.4761  -0.3646  -0.0998   0.0278   0.0281   0.1151
     0.2675   0.4075   0.6677   0.6838   0.8859   0.9447   1.0473   1.2018
     1.3493   1.3699   1.4115   1.5769   1.6339   1.6708   1.6926   1.7898
     1.7955   1.9491   2.1239   2.1562   2.1761   2.5754   2.6703   2.7778
     2.9008   3.3803   3.8056   4.0613   4.0963   4.2721   4.3444   4.4841
     4.6301

          k = 0.0734 0.0517 0.0000 ( 34826 PWs)   bands (ev):

   -77.7382 -77.7348 -77.6102 -77.6069 -77.5727 -77.5693 -60.0176 -60.0066
   -60.0045 -59.9934 -59.3019 -59.2880 -39.5192 -39.5160 -39.5122 -39.5078
   -39.5003 -39.4334 -39.4242 -39.4065 -39.3944 -39.3878 -39.3822 -39.3689
   -39.2891 -39.2798 -39.2720 -39.2627 -39.2588 -39.2515 -28.6553 -28.6540
   -28.6357 -28.6134 -28.6128 -28.5891 -28.4989 -28.4757 -28.4564 -28.4406
   -28.3428 -28.3292 -28.0427 -27.8988 -27.8650 -27.8545 -27.8371 -27.7215
    -3.6586  -2.6158  -2.0448  -1.8824  -1.4566  -1.2685  -1.2413  -1.0287
    -0.9487  -0.9460  -0.3734  -0.1752  -0.0306   0.0124   0.0611   0.1665
     0.2550   0.4549   0.5373   0.7352   0.9333   0.9950   1.2184   1.2236
     1.2690   1.4633   1.4867   1.5452   1.5503   1.5917   1.6367   1.7001
     1.7613   1.8230   2.1234   2.1534   2.3104   2.3698   2.6275   2.7548
     2.7845   3.1710   3.7386   3.8973   3.9414   4.1585   4.3414   4.4781
     4.6506

          k = 0.0734-0.1198 0.0000 ( 34834 PWs)   bands (ev):

   -77.7381 -77.7349 -77.6102 -77.6070 -77.5726 -77.5694 -60.0174 -60.0064
   -60.0047 -59.9937 -59.3017 -59.2882 -39.5192 -39.5138 -39.5117 -39.5081
   -39.4994 -39.4335 -39.4250 -39.4084 -39.3923 -39.3872 -39.3823 -39.3668
   -39.2910 -39.2794 -39.2722 -39.2646 -39.2581 -39.2515 -28.6542 -28.6514
   -28.6320 -28.6134 -28.6126 -28.5890 -28.5011 -28.4762 -28.4584 -28.4411
   -28.3480 -28.3346 -28.0386 -27.8997 -27.8662 -27.8535 -27.8379 -27.7271
    -3.3565  -2.8099  -2.0518  -1.8251  -1.3081  -1.2782  -1.1034  -0.9567
    -0.9365  -0.7287  -0.2389  -0.1938  -0.1075   0.0394   0.0522   0.2667
     0.3463   0.3973   0.4766   0.7496   0.9033   1.0010   1.0272   1.0460
     1.2772   1.2788   1.3026   1.4179   1.5095   1.5552   1.6929   1.7566
     1.8417   1.8605   2.1104   2.1122   2.2169   2.2549   2.6490   2.6979
     2.7157   3.1088   3.7858   3.9072   3.9967   4.1271   4.4111   4.5308
     4.6103

          k = 0.0734-0.1042 0.0000 ( 34798 PWs)   bands (ev):

   -77.7379 -77.7351 -77.6100 -77.6072 -77.5724 -77.5696 -60.0167 -60.0057
   -60.0053 -59.9943 -59.3010 -59.2889 -39.5193 -39.5112 -39.5087 -39.5084
   -39.4999 -39.4330 -39.4256 -39.4141 -39.3872 -39.3865 -39.3826 -39.3614
   -39.2966 -39.2791 -39.2731 -39.2703 -39.2577 -39.2523 -28.6518 -28.6362
   -28.6186 -28.6128 -28.6119 -28.5908 -28.4987 -28.4736 -28.4586 -28.4409
   -28.3625 -28.3494 -28.0230 -27.8974 -27.8665 -27.8522 -27.8394 -27.7425
    -3.0653  -2.9236  -2.4114  -1.6922  -1.3381  -1.1086  -1.0597  -0.9437
    -0.8040  -0.5909  -0.3822  -0.1448  -0.0757  -0.0464  -0.0091   0.3276
     0.3633   0.4053   0.4504   0.6390   0.7136   0.7689   0.9289   0.9415
     1.0519   1.1134   1.2773   1.3325   1.3472   1.3740   1.5945   1.8985
     1.9486   1.9974   2.0242   2.0772   2.0817   2.2621   2.5566   2.6297
     2.8703   3.2348   3.9128   4.0322   4.2830   4.3427   4.5155   4.5805
     4.6103

          k = 0.0734-0.0886 0.0000 ( 34803 PWs)   bands (ev):

   -77.7376 -77.7353 -77.6097 -77.6074 -77.5722 -77.5698 -60.0157 -60.0063
   -60.0046 -59.9953 -59.2999 -59.2899 -39.5194 -39.5107 -39.5097 -39.5019
   -39.4998 -39.4319 -39.4259 -39.4234 -39.3859 -39.3840 -39.3785 -39.3533
   -39.3055 -39.2794 -39.2790 -39.2746 -39.2576 -39.2538 -28.6472 -28.6155
   -28.6112 -28.6111 -28.5947 -28.5912 -28.4923 -28.4684 -28.4573 -28.4404
   -28.3853 -28.3724 -27.9970 -27.8923 -27.8659 -27.8505 -27.8416 -27.7664
    -3.1513  -2.8245  -2.5993  -1.7472  -1.3945  -1.2706  -0.9353  -0.8235
    -0.6518  -0.6507  -0.4127  -0.3040  -0.1044  -0.0731  -0.0671   0.2167
     0.3566   0.4146   0.4379   0.4821   0.5149   0.6465   0.8036   0.9206
     0.9500   0.9836   1.1102   1.2411   1.2775   1.3191   1.4575   1.6847
     1.6984   1.9507   2.0245   2.1836   2.2740   2.3701   2.5328   2.6984
     3.2048   3.5072   4.0781   4.1816   4.4811   4.5660   4.6118   4.6558
     4.7735

          k = 0.0734-0.0730 0.0000 ( 34813 PWs)   bands (ev):

   -77.7373 -77.7357 -77.6094 -77.6078 -77.5718 -77.5702 -60.0143 -60.0077
   -60.0032 -59.9966 -59.2984 -59.2913 -39.5193 -39.5110 -39.5102 -39.5046
   -39.4890 -39.4355 -39.4303 -39.4262 -39.3853 -39.3849 -39.3682 -39.3427
   -39.3171 -39.2911 -39.2789 -39.2763 -39.2577 -39.2558 -28.6408 -28.6154
   -28.6106 -28.6017 -28.5754 -28.5598 -28.4832 -28.4620 -28.4550 -28.4401
   -28.4147 -28.4020 -27.9628 -27.8856 -27.8650 -27.8487 -27.8443 -27.7975
    -3.2540  -3.2316  -2.2050  -1.8822  -1.7465  -1.2214  -0.9096  -0.8303
    -0.8048  -0.6530  -0.5537  -0.3321  -0.2099  -0.0901   0.0387   0.0582
     0.2602   0.3026   0.3782   0.4785   0.5619   0.6361   0.7786   0.7860
     0.8270   0.9053   0.9195   1.2219   1.3023   1.3784   1.3955   1.4387
     1.4933   1.7875   2.0424   2.3542   2.4014   2.4664   2.5368   2.8880
     3.6035   3.8691   4.2165   4.4344   4.5432   4.6058   4.6158   4.7174
     4.7686

          k = 0.0734-0.0574 0.0000 ( 34819 PWs)   bands (ev):

   -77.7369 -77.7361 -77.6090 -77.6082 -77.5714 -77.5706 -60.0127 -60.0092
   -60.0016 -59.9982 -59.2967 -59.2929 -39.5188 -39.5125 -39.5098 -39.5075
   -39.4763 -39.4492 -39.4285 -39.4265 -39.3860 -39.3849 -39.3561 -39.3305
   -39.3304 -39.3046 -39.2787 -39.2781 -39.2578 -39.2577 -28.6330 -28.6157
   -28.6102 -28.6079 -28.5370 -28.5223 -28.4745 -28.4591 -28.4527 -28.4460
   -28.4407 -28.4347 -27.9234 -27.8791 -27.8642 -27.8470 -27.8468 -27.8330
    -3.5917  -3.3052  -2.0771  -2.0043  -1.8247  -1.2269  -1.0657  -0.9963
    -0.9121  -0.8845  -0.5263  -0.5029  -0.2326   0.0395   0.0461   0.1504
     0.1814   0.2196   0.3297   0.4423   0.5343   0.6893   0.6926   0.7370
     0.7816   0.8345   0.9235   1.1636   1.2278   1.2827   1.4024   1.5243
     1.5469   1.6959   2.0785   2.2792   2.5115   2.5830   2.6519   2.9922
     4.0182   4.2585   4.3296   4.5079   4.6056   4.6351   4.6832   4.7434
     4.8141

          k = 0.0734-0.0418 0.0000 ( 34831 PWs)   bands (ev):

   -77.7365 -77.7365 -77.6086 -77.6086 -77.5710 -77.5710 -60.0109 -60.0109
   -59.9999 -59.9998 -59.2949 -59.2947 -39.5178 -39.5142 -39.5101 -39.5092
   -39.4638 -39.4625 -39.4270 -39.4266 -39.3871 -39.3845 -39.3445 -39.3429
   -39.3187 -39.3171 -39.2796 -39.2781 -39.2595 -39.2575 -28.6247 -28.6172
   -28.6142 -28.6099 -28.4968 -28.4923 -28.4836 -28.4802 -28.4569 -28.4507
   -28.4451 -28.4420 -27.8852 -27.8831 -27.8619 -27.8610 -27.8496 -27.8447
    -3.8775  -3.2880  -2.3383  -2.0696  -1.5135  -1.3227  -1.2475  -1.1223
    -1.0366  -1.0288  -0.7677  -0.4816  -0.1141   0.0468   0.0487   0.1280
     0.1446   0.1798   0.2000   0.5215   0.5656   0.6065   0.7725   0.8170
     0.8377   0.8656   0.9236   1.1220   1.1618   1.2198   1.4633   1.6648
     1.6925   1.7402   2.1235   2.2080   2.4748   2.7129   2.7359   3.0052
     4.3524   4.3775   4.4545   4.6033   4.6447   4.6704   4.7097   4.7164
     4.8499

          k =-0.0881 0.0315 0.0000 ( 34846 PWs)   bands (ev):

   -77.7365 -77.7365 -77.6086 -77.6086 -77.5710 -77.5710 -60.0109 -60.0109
   -59.9999 -59.9999 -59.2948 -59.2948 -39.5157 -39.5157 -39.5102 -39.5102
   -39.4631 -39.4631 -39.4263 -39.4263 -39.3862 -39.3862 -39.3437 -39.3437
   -39.3180 -39.3180 -39.2786 -39.2786 -39.2586 -39.2586 -28.6206 -28.6206
   -28.6126 -28.6126 -28.4953 -28.4953 -28.4827 -28.4827 -28.4511 -28.4511
   -28.4445 -28.4445 -27.8855 -27.8855 -27.8602 -27.8602 -27.8471 -27.8471
    -3.6279  -3.6279  -2.2301  -2.2301  -1.2274  -1.2274  -1.2039  -1.2038
    -1.1628  -1.1628  -0.6327  -0.6327  -0.0532  -0.0532   0.0443   0.0443
     0.1919   0.1919   0.3438   0.3439   0.5761   0.5761   0.8875   0.8875
     0.9885   0.9885   1.0084   1.0084   1.2191   1.2191   1.6551   1.6552
     1.8596   1.8596   1.9300   1.9300   2.6176   2.6176   2.7289   2.7289
     4.4049   4.4049   4.4407   4.4407   4.6378   4.6379   4.6732   4.6736
     4.9099

          k =-0.0881 0.0471 0.0000 ( 34826 PWs)   bands (ev):

   -77.7369 -77.7361 -77.6090 -77.6082 -77.5714 -77.5706 -60.0126 -60.0092
   -60.0016 -59.9982 -59.2966 -59.2930 -39.5174 -39.5134 -39.5110 -39.5090
   -39.4770 -39.4489 -39.4278 -39.4253 -39.3867 -39.3855 -39.3570 -39.3314
   -39.3300 -39.3042 -39.2793 -39.2774 -39.2592 -39.2575 -28.6291 -28.6140
   -28.6126 -28.6109 -28.5344 -28.5199 -28.4699 -28.4605 -28.4494 -28.4437
   -28.4431 -28.4330 -27.9213 -27.8773 -27.8630 -27.8491 -27.8450 -27.8326
    -3.7337  -3.4313  -2.2806  -2.0862  -1.4783  -1.2556  -1.1814  -1.1292
    -1.1091  -1.0415  -0.7297  -0.4293  -0.1495  -0.0152   0.0532   0.0573
     0.1480   0.2134   0.2502   0.4986   0.5524   0.6810   0.7800   0.9385
     0.9651   1.0584   1.0853   1.1037   1.1688   1.2228   1.5475   1.6526
     1.8860   1.9170   1.9352   1.9481   2.5978   2.6145   2.6629   2.7423
     4.1689   4.3297   4.4645   4.5048   4.5938   4.6154   4.6612   4.6862
     4.7552

          k =-0.0881 0.0627 0.0000 ( 34816 PWs)   bands (ev):

   -77.7373 -77.7357 -77.6094 -77.6078 -77.5718 -77.5702 -60.0142 -60.0077
   -60.0032 -59.9966 -59.2983 -59.2913 -39.5185 -39.5114 -39.5113 -39.5071
   -39.4897 -39.4354 -39.4295 -39.4247 -39.3870 -39.3848 -39.3692 -39.3437
   -39.3170 -39.2910 -39.2797 -39.2760 -39.2592 -39.2560 -28.6374 -28.6135
   -28.6127 -28.6044 -28.5726 -28.5569 -28.4754 -28.4606 -28.4503 -28.4410
   -28.4139 -28.4013 -27.9600 -27.8823 -27.8629 -27.8507 -27.8428 -27.7969
    -3.7502  -3.1505  -2.2442  -1.8547  -1.8156  -1.2278  -1.1718  -1.0492
    -1.0166  -0.8747  -0.7786  -0.2096  -0.1814  -0.1081  -0.0545   0.0571
     0.2721   0.3142   0.3201   0.4522   0.6607   0.7371   0.7870   1.0030
     1.0185   1.0856   1.1562   1.1871   1.2611   1.2835   1.4784   1.5496
     1.8435   1.9192   2.0245   2.0778   2.4644   2.5909   2.6465   2.6901
     3.7905   4.1240   4.2141   4.5051   4.5225   4.5811   4.6475   4.6756
     4.7221

          k =-0.0881 0.0783 0.0000 ( 34820 PWs)   bands (ev):

   -77.7377 -77.7353 -77.6097 -77.6074 -77.5722 -77.5698 -60.0156 -60.0063
   -60.0046 -59.9953 -59.2998 -59.2899 -39.5190 -39.5116 -39.5097 -39.5046
   -39.5002 -39.4312 -39.4246 -39.4235 -39.3871 -39.3842 -39.3792 -39.3541
   -39.3056 -39.2799 -39.2792 -39.2745 -39.2589 -39.2542 -28.6447 -28.6139
   -28.6127 -28.6088 -28.5959 -28.5892 -28.4854 -28.4661 -28.4530 -28.4402
   -28.3846 -28.3717 -27.9945 -27.8890 -27.8637 -27.8520 -27.8407 -27.7658
    -3.6849  -2.8025  -2.1646  -2.1362  -1.5573  -1.1859  -1.1588  -1.0558
    -0.9043  -0.8296  -0.6056  -0.2430  -0.2223  -0.0560  -0.0309   0.1045
     0.3636   0.4171   0.4529   0.5124   0.6722   0.7856   0.8061   1.0525
     1.0941   1.1422   1.1837   1.2858   1.3783   1.4402   1.4921   1.5564
     1.8151   1.8821   2.1328   2.1828   2.2610   2.5442   2.5858   2.6416
     3.3694   3.7137   4.0694   4.3273   4.4414   4.4833   4.5128   4.5790
     4.6527

          k =-0.0881 0.0939 0.0000 ( 34827 PWs)   bands (ev):

   -77.7379 -77.7351 -77.6100 -77.6072 -77.5725 -77.5696 -60.0167 -60.0057
   -60.0053 -59.9943 -59.3010 -59.2889 -39.5192 -39.5117 -39.5090 -39.5085
   -39.5014 -39.4326 -39.4247 -39.4142 -39.3877 -39.3872 -39.3827 -39.3619
   -39.2966 -39.2796 -39.2731 -39.2703 -39.2585 -39.2526 -28.6505 -28.6345
   -28.6172 -28.6127 -28.6118 -28.5919 -28.4946 -28.4720 -28.4560 -28.4405
   -28.3621 -28.3489 -28.0214 -27.8953 -27.8651 -27.8529 -27.8390 -27.7420
    -3.5490  -2.4996  -2.4185  -1.9850  -1.2371  -1.2154  -1.1292  -1.1284
    -0.8879  -0.7988  -0.3105  -0.2849  -0.2019  -0.0059   0.0072   0.1869
     0.3654   0.4259   0.5128   0.6963   0.7770   0.8363   0.8988   1.0061
     1.1562   1.2257   1.3122   1.3718   1.4104   1.4565   1.6505   1.7413
     1.8479   1.8762   2.0769   2.1881   2.1930   2.3906   2.5544   2.6691
     2.9710   3.3599   3.9016   4.1238   4.2275   4.3308   4.4398   4.5469
     4.5667

          k =-0.0881 0.1095 0.0000 ( 34834 PWs)   bands (ev):

   -77.7381 -77.7349 -77.6102 -77.6070 -77.5726 -77.5694 -60.0174 -60.0064
   -60.0047 -59.9937 -59.3017 -59.2882 -39.5192 -39.5138 -39.5117 -39.5081
   -39.4994 -39.4335 -39.4250 -39.4084 -39.3923 -39.3872 -39.3823 -39.3668
   -39.2910 -39.2794 -39.2722 -39.2646 -39.2581 -39.2515 -28.6542 -28.6514
   -28.6320 -28.6134 -28.6126 -28.5890 -28.5011 -28.4762 -28.4584 -28.4411
   -28.3480 -28.3346 -28.0386 -27.8997 -27.8662 -27.8535 -27.8379 -27.7271
    -3.3565  -2.8099  -2.0518  -1.8251  -1.3081  -1.2782  -1.1034  -0.9567
    -0.9365  -0.7287  -0.2389  -0.1938  -0.1075   0.0394   0.0522   0.2667
     0.3463   0.3973   0.4766   0.7496   0.9033   1.0010   1.0272   1.0460
     1.2772   1.2788   1.3026   1.4179   1.5095   1.5552   1.6929   1.7566
     1.8417   1.8605   2.1104   2.1122   2.2169   2.2549   2.6490   2.6979
     2.7157   3.1088   3.7858   3.9072   3.9967   4.1271   4.4111   4.5308
     4.6106

          k =-0.0881-0.0621 0.0000 ( 34878 PWs)   bands (ev):

   -77.7382 -77.7348 -77.6103 -77.6069 -77.5727 -77.5693 -60.0176 -60.0066
   -60.0045 -59.9934 -59.3019 -59.2880 -39.5192 -39.5155 -39.5117 -39.5079
   -39.4987 -39.4339 -39.4251 -39.4064 -39.3939 -39.3872 -39.3822 -39.3685
   -39.2891 -39.2793 -39.2719 -39.2627 -39.2580 -39.2511 -28.6572 -28.6555
   -28.6375 -28.6136 -28.6126 -28.5880 -28.5034 -28.4777 -28.4593 -28.4413
   -28.3433 -28.3298 -28.0445 -27.9013 -27.8666 -27.8537 -27.8375 -27.7221
    -3.1715  -3.0337  -1.8488  -1.7394  -1.4003  -1.3731  -1.0942  -0.9563
    -0.8367  -0.7030  -0.2114  -0.1957  -0.0625   0.0675   0.0748   0.3161
     0.3287   0.3598   0.5004   0.7862   0.8483   1.0789   1.0875   1.1449
     1.2901   1.3728   1.3795   1.4421   1.5332   1.5557   1.5994   1.7514
     1.7682   1.9327   1.9930   2.1498   2.1531   2.4498   2.4659   2.7400
     2.7967   3.0117   3.7451   3.7741   3.8676   4.0518   4.4071   4.4171
     4.4830

     the Fermi energy is     2.0389 ev

!    total energy              =   -1832.99280515 Ry
     estimated scf accuracy    <       0.00000309 Ry
     smearing contrib. (-TS)   =      -0.06625030 Ry
     internal energy E=F+TS    =   -1832.92655485 Ry

     The total energy is F=E-TS. E is the sum of the following terms:
     one-electron contribution =  -12842.46760874 Ry
     hartree contribution      =    6407.77005204 Ry
     xc contribution           =    -502.68671007 Ry
     ewald contribution        =    5104.45771042 Ry
     electric field correction =       0.00000151 Ry

     convergence has been achieved in  16 iterations

     negative rho (up, down):  1.049E-04 0.000E+00

     Forces acting on atoms (cartesian axes, Ry/au):

     atom    1 type  1   force =    -0.00152849   -0.00107861    0.00366739
     atom    2 type  1   force =    -0.00152947   -0.00107644    0.00367004
     atom    3 type  2   force =    -0.00006416   -0.00004691    0.01828582
     atom    4 type  2   force =    -0.00006350   -0.00004352    0.01828833
     atom    5 type  1   force =     0.00043647    0.00030631   -0.01253187
     atom    6 type  1   force =     0.00042889    0.00030366   -0.01252753
     atom    7 type  2   force =     0.00031183    0.00022899   -0.00537845
     atom    8 type  2   force =     0.00031935    0.00021523   -0.00537631
     atom    9 type  1   force =     0.00044115    0.00031403   -0.00390478
     atom   10 type  1   force =     0.00045836    0.00031962   -0.00390192
     atom   11 type  2   force =     0.00040383    0.00026837   -0.00015226
     atom   12 type  2   force =     0.00038575    0.00028927   -0.00013846

     Total force =     0.033272     Total SCF correction =     0.008868
     SCF correction compared to forces is large: reduce conv_thr to get better values

     Writing output data file ./Hf2Re2/Hf2Re2_beef.save/

     init_run     :     81.54s CPU     82.07s WALL (       1 calls)
     electrons    :   3993.32s CPU   4047.41s WALL (       1 calls)
     forces       :     50.10s CPU     50.32s WALL (       1 calls)

     Called by init_run:
     wfcinit      :     69.37s CPU     69.71s WALL (       1 calls)
     potinit      :      7.67s CPU      7.73s WALL (       1 calls)
     hinit0       :      2.44s CPU      2.46s WALL (       1 calls)

     Called by electrons:
     c_bands      :   3593.09s CPU   3641.59s WALL (      16 calls)
     sum_band     :    372.50s CPU    375.53s WALL (      16 calls)
     v_of_rho     :     20.10s CPU     21.04s WALL (      17 calls)
     newd         :     14.10s CPU     15.70s WALL (      17 calls)
     mix_rho      :      0.51s CPU      0.53s WALL (      16 calls)
     vdW_kernel   :      5.72s CPU      5.73s WALL (       1 calls)

     Called by c_bands:
     init_us_2    :      9.50s CPU      9.57s WALL (    2516 calls)
     cegterg      :   3561.16s CPU   3607.70s WALL (    1184 calls)

     Called by *egterg:
     cdiaghg      :    172.48s CPU    172.91s WALL (    6282 calls)
     h_psi        :   2107.46s CPU   2147.91s WALL (    6356 calls)
     s_psi        :    386.80s CPU    387.50s WALL (    6356 calls)
     g_psi        :      1.20s CPU      1.22s WALL (    5098 calls)

     Called by h_psi:
     h_psi:calbec :    459.73s CPU    462.04s WALL (    6356 calls)
     vloc_psi     :   1240.18s CPU   1277.34s WALL (    6356 calls)
     add_vuspsi   :    402.90s CPU    403.78s WALL (    6356 calls)

     General routines
     calbec       :    681.92s CPU    684.64s WALL (    7836 calls)
     fft          :     11.18s CPU     11.57s WALL (    1130 calls)
     ffts         :      0.06s CPU      0.07s WALL (      33 calls)
     fftw         :   1379.09s CPU   1417.09s WALL (  664224 calls)
     interpolate  :      0.18s CPU      0.18s WALL (      17 calls)

     Parallel routines
     fft_scatt_xy :     42.20s CPU     42.76s WALL (  665387 calls)
     fft_scatt_yz :    953.21s CPU    986.14s WALL (  665387 calls)

     PWSCF        :      1h14m CPU      1h15m WALL


   This run was terminated on:  17:56:50  24Jun2022            

=------------------------------------------------------------------------------=
   JOB DONE.
=------------------------------------------------------------------------------=
