
     Program PWSCF v.6.6 starts on 24Jun2022 at 20:28:40 

     This program is part of the open-source Quantum ESPRESSO suite
     for quantum simulation of materials; please cite
         "P. Giannozzi et al., J. Phys.:Condens. Matter 21 395502 (2009);
         "P. Giannozzi et al., J. Phys.:Condens. Matter 29 465901 (2017);
          URL http://www.quantum-espresso.org", 
     in publications or presentations arising from this work. More details at
     http://www.quantum-espresso.org/quote

     Parallel version (MPI), running on    37 processors

     MPI processes distributed on     1 nodes
     R & G space division:  proc/nbgrp/npool/nimage =      37
     Fft bands division:     nmany     =       1
     Reading input from Hf2W2.in
Warning: card &CELL ignored
Warning: card / ignored

     Current dimensions of program PWSCF are:
     Max number of different atomic species (ntypx) = 10
     Max number of k-points (npk) =  40000
     Max angular momentum in pseudopotentials (lmaxx) =  3
     Presently stress not available with electric field and gates

     Message from routine cell_base_init:
     DEPRECATED: use true lattice parameter, not A to a.u. conversion factor
     Message from routine emend_upf/check:
     BEWARE !!! Possible out of bounds while fixing pseudo
     Message from routine emend_upf/check:
     BEWARE !!! Possible out of bounds while fixing pseudo
     Message from routine read_upf:
     Pseudo file W.pbe-spn-rrkjus_psl.0.2.3.UPF has been fixed on the fly.
     To avoid this message in the future, permanently fix 
     your pseudo files following these instructions: 
     https://gitlab.com/QEF/q-e/blob/master/upftools/how_to_fix_upf.md

     **************************************************************************
     Initializing libbeef V0.1.2 with the BEEF-vdW functional.
     Citation: Wellendorff et al., PRB 85, 235149 (2012).
     **************************************************************************


     IMPORTANT: XC functional enforced from input :
     Exchange-correlation= BEEF-VDW
                           (   1   4  43  14   2   0   0)
     Any further DFT definition will be discarded
     Please, verify this is what you really want


     Subspace diagonalization in iterative solution of the eigenvalue problem:
     a serial algorithm will be used

     Found symmetry operation: I + ( -0.5000  0.0000  0.0000)
     This is a supercell, fractional translations are disabled

     Parallelization info
     --------------------
     sticks:   dense  smooth     PW     G-vecs:    dense   smooth      PW
     Min         131      52     15                30663     7752    1193
     Max         133      53     16                30671     7767    1207
     Sum        4855    1945    559              1134657   287065   44441



     bravais-lattice index     =            0
     lattice parameter (alat)  =       1.8897  a.u.
     unit-cell volume          =    5191.3129 (a.u.)^3
     number of atoms/cell      =           12
     number of atomic types    =            2
     number of electrons       =       156.00
     number of Kohn-Sham states=           94
     kinetic-energy cutoff     =      55.1240  Ry
     charge density cutoff     =     551.2396  Ry
     convergence threshold     =      1.0E-05
     mixing beta               =       0.1000
     number of iterations used =           10  plain     mixing
     Exchange-correlation= BEEF-VDW
                           (   1   4  43  14   2   0   0)

     celldm(1)=   1.889726  celldm(2)=   0.000000  celldm(3)=   0.000000
     celldm(4)=   0.000000  celldm(5)=   0.000000  celldm(6)=   0.000000

     crystal axes: (cart. coord. in units of alat)
               a(1) = (   5.663236   0.000000   0.000000 )  
               a(2) = (  -2.831618   5.467451   0.000000 )  
               a(3) = (   0.000000   0.000000  24.844550 )  

     reciprocal axes: (cart. coord. in units 2 pi/alat)
               b(1) = (  0.176577  0.091450 -0.000000 )  
               b(2) = (  0.000000  0.182901  0.000000 )  
               b(3) = (  0.000000 -0.000000  0.040250 )  


     PseudoPot. # 1 for Hf read from file:
     ../pseudo/Hf.pbe-spn-rrkjus_psl.1.0.0.UPF
     MD5 check sum: 9605440c6f839e558204c6a924125fd0
     Pseudo is Ultrasoft + core correction, Zval = 12.0
     Generated using "atomic" code by A. Dal Corso v.6.2.2
     Using radial grid of 1271 points,  6 beta functions with: 
                l(1) =   0
                l(2) =   0
                l(3) =   1
                l(4) =   1
                l(5) =   2
                l(6) =   2
     Q(r) pseudized with 0 coefficients 


     PseudoPot. # 2 for W  read from file:
     ../pseudo/W.pbe-spn-rrkjus_psl.0.2.3.UPF
     MD5 check sum: 25b665cf2bbae626ad8d9f1bc024df95
     Pseudo is Ultrasoft + core correction, Zval = 14.0
     Generated using "atomic" code by A. Dal Corso v.5.0.2 svn rev. 10551
     Using radial grid of 1273 points,  6 beta functions with: 
                l(1) =   0
                l(2) =   0
                l(3) =   1
                l(4) =   1
                l(5) =   2
                l(6) =   2
     Q(r) pseudized with 0 coefficients 


     atomic species   valence    mass     pseudopotential
        Hf            12.00   178.49000     Hf( 1.00)
        W             14.00   183.84000     W ( 1.00)

     No symmetry found



   Cartesian axes

     site n.     atom                  positions (alat units)
         1           Hf  tau(   1) = (   0.0000000   0.0000000  10.0000000  )
         2           Hf  tau(   2) = (   2.8316181   0.0000000  10.0000000  )
         3           W   tau(   3) = (   1.4158091   2.7337256  10.0000000  )
         4           W   tau(   4) = (  -1.4158091   2.7337256  10.0000000  )
         5           Hf  tau(   5) = (   2.8316181   1.4665081  12.4222748  )
         6           Hf  tau(   6) = (   0.0000000   1.4665081  12.4222748  )
         7           W   tau(   7) = (  -1.4158091   4.2002337  12.4222748  )
         8           W   tau(   8) = (   1.4158091   4.2002337  12.4222748  )
         9           Hf  tau(   9) = (  -0.0000012   3.0082879  14.9697706  )
        10           Hf  tau(  10) = (   2.8316210   3.0082932  14.9697723  )
        11           W   tau(  11) = (   4.2474259   0.1349403  14.6238757  )
        12           W   tau(  12) = (   1.4158068   0.1349385  14.6238759  )

     number of k points=    74  Fermi-Dirac smearing, width (Ry)=  0.0100
                       cart. coord. in units 2pi/alat
        k(    1) = (   0.0000000   0.0000000   0.0000000), wk =   0.0138889
        k(    2) = (   0.0000000   0.0152417   0.0000000), wk =   0.0277778
        k(    3) = (   0.0000000   0.0304834   0.0000000), wk =   0.0277778
        k(    4) = (   0.0000000   0.0457251   0.0000000), wk =   0.0277778
        k(    5) = (   0.0000000   0.0609669   0.0000000), wk =   0.0277778
        k(    6) = (   0.0000000   0.0762086   0.0000000), wk =   0.0277778
        k(    7) = (   0.0000000  -0.0914503   0.0000000), wk =   0.0138889
        k(    8) = (   0.0147148   0.0076209   0.0000000), wk =   0.0277778
        k(    9) = (   0.0147148   0.0228626   0.0000000), wk =   0.0277778
        k(   10) = (   0.0147148   0.0381043   0.0000000), wk =   0.0277778
        k(   11) = (   0.0147148   0.0533460   0.0000000), wk =   0.0277778
        k(   12) = (   0.0147148   0.0685877   0.0000000), wk =   0.0277778
        k(   13) = (   0.0147148   0.0838294   0.0000000), wk =   0.0277778
        k(   14) = (   0.0147148  -0.0838294   0.0000000), wk =   0.0277778
        k(   15) = (   0.0147148  -0.0685877   0.0000000), wk =   0.0277778
        k(   16) = (   0.0147148  -0.0533460   0.0000000), wk =   0.0277778
        k(   17) = (   0.0147148  -0.0381043   0.0000000), wk =   0.0277778
        k(   18) = (   0.0147148  -0.0228626   0.0000000), wk =   0.0277778
        k(   19) = (   0.0147148  -0.0076209   0.0000000), wk =   0.0277778
        k(   20) = (   0.0294296   0.0152417   0.0000000), wk =   0.0277778
        k(   21) = (   0.0294296   0.0304834   0.0000000), wk =   0.0277778
        k(   22) = (   0.0294296   0.0457251   0.0000000), wk =   0.0277778
        k(   23) = (   0.0294296   0.0609669   0.0000000), wk =   0.0277778
        k(   24) = (   0.0294296   0.0762086   0.0000000), wk =   0.0277778
        k(   25) = (   0.0294296   0.0914503   0.0000000), wk =   0.0277778
        k(   26) = (   0.0294296  -0.0762086   0.0000000), wk =   0.0277778
        k(   27) = (   0.0294296  -0.0609669   0.0000000), wk =   0.0277778
        k(   28) = (   0.0294296  -0.0457251   0.0000000), wk =   0.0277778
        k(   29) = (   0.0294296  -0.0304834   0.0000000), wk =   0.0277778
        k(   30) = (   0.0294296  -0.0152417   0.0000000), wk =   0.0277778
        k(   31) = (   0.0294296  -0.0000000   0.0000000), wk =   0.0277778
        k(   32) = (   0.0441444   0.0228626   0.0000000), wk =   0.0277778
        k(   33) = (   0.0441444   0.0381043   0.0000000), wk =   0.0277778
        k(   34) = (   0.0441444   0.0533460   0.0000000), wk =   0.0277778
        k(   35) = (   0.0441444   0.0685877   0.0000000), wk =   0.0277778
        k(   36) = (   0.0441444   0.0838294   0.0000000), wk =   0.0277778
        k(   37) = (   0.0441444   0.0990712   0.0000000), wk =   0.0277778
        k(   38) = (   0.0441444  -0.0685877   0.0000000), wk =   0.0277778
        k(   39) = (   0.0441444  -0.0533460   0.0000000), wk =   0.0277778
        k(   40) = (   0.0441444  -0.0381043   0.0000000), wk =   0.0277778
        k(   41) = (   0.0441444  -0.0228626   0.0000000), wk =   0.0277778
        k(   42) = (   0.0441444  -0.0076209   0.0000000), wk =   0.0277778
        k(   43) = (   0.0441444   0.0076209   0.0000000), wk =   0.0277778
        k(   44) = (   0.0588592   0.0304834   0.0000000), wk =   0.0277778
        k(   45) = (   0.0588592   0.0457251   0.0000000), wk =   0.0277778
        k(   46) = (   0.0588592   0.0609669   0.0000000), wk =   0.0277778
        k(   47) = (   0.0588592   0.0762086   0.0000000), wk =   0.0277778
        k(   48) = (   0.0588592   0.0914503   0.0000000), wk =   0.0277778
        k(   49) = (   0.0588592   0.1066920   0.0000000), wk =   0.0277778
        k(   50) = (   0.0588592  -0.0609669   0.0000000), wk =   0.0277778
        k(   51) = (   0.0588592  -0.0457251   0.0000000), wk =   0.0277778
        k(   52) = (   0.0588592  -0.0304834   0.0000000), wk =   0.0277778
        k(   53) = (   0.0588592  -0.0152417   0.0000000), wk =   0.0277778
        k(   54) = (   0.0588592   0.0000000   0.0000000), wk =   0.0277778
        k(   55) = (   0.0588592   0.0152417   0.0000000), wk =   0.0277778
        k(   56) = (   0.0735740   0.0381043   0.0000000), wk =   0.0277778
        k(   57) = (   0.0735740   0.0533460   0.0000000), wk =   0.0277778
        k(   58) = (   0.0735740   0.0685877   0.0000000), wk =   0.0277778
        k(   59) = (   0.0735740   0.0838294   0.0000000), wk =   0.0277778
        k(   60) = (   0.0735740   0.0990712   0.0000000), wk =   0.0277778
        k(   61) = (   0.0735740   0.1143129   0.0000000), wk =   0.0277778
        k(   62) = (   0.0735740  -0.0533460   0.0000000), wk =   0.0277778
        k(   63) = (   0.0735740  -0.0381043   0.0000000), wk =   0.0277778
        k(   64) = (   0.0735740  -0.0228626   0.0000000), wk =   0.0277778
        k(   65) = (   0.0735740  -0.0076209   0.0000000), wk =   0.0277778
        k(   66) = (   0.0735740   0.0076209   0.0000000), wk =   0.0277778
        k(   67) = (   0.0735740   0.0228626   0.0000000), wk =   0.0277778
        k(   68) = (  -0.0882887  -0.0457251   0.0000000), wk =   0.0138889
        k(   69) = (  -0.0882887  -0.0304834   0.0000000), wk =   0.0277778
        k(   70) = (  -0.0882887  -0.0152417   0.0000000), wk =   0.0277778
        k(   71) = (  -0.0882887   0.0000000   0.0000000), wk =   0.0277778
        k(   72) = (  -0.0882887   0.0152417   0.0000000), wk =   0.0277778
        k(   73) = (  -0.0882887   0.0304834   0.0000000), wk =   0.0277778
        k(   74) = (  -0.0882887  -0.1371754   0.0000000), wk =   0.0138889

     Dense  grid:  1134657 G-vectors     FFT dimensions: (  80,  90, 360)

     Smooth grid:   287065 G-vectors     FFT dimensions: (  54,  60, 225)

     Estimated max dynamical RAM per process >     226.30 MB

     Estimated total dynamical RAM >       8.18 GB

     Initial potential from superposition of free atoms

     starting charge  155.98503, renormalised to  156.00000

     negative rho (up, down):  8.793E-04 0.000E+00


     %%%%%%%%%%%%%%%%%%%%%%%%%%%%%%%%%%%%%%%%%%%%%%%%%%%%%%%%%%%%%%%%%%%%%%%%
     %                                                                      %
     % You are using vdW-DF, which was implemented by the Thonhauser group. %
     % Please cite the following two papers that made this development      %
     % possible and the two reviews that describe the various versions:     %
     %                                                                      %
     %   T. Thonhauser et al., PRL 115, 136402 (2015).                      %
     %   T. Thonhauser et al., PRB 76, 125112 (2007).                       %
     %   K. Berland et al., Rep. Prog. Phys. 78, 066501 (2015).             %
     %   D.C. Langreth et al., J. Phys.: Condens. Matter 21, 084203 (2009). %
     %                                                                      %
     %                                                                      %
     % If you are calculating the stress with vdW-DF, please also cite:     %
     %                                                                      %
     %   R. Sabatini et al., J. Phys.: Condens. Matter 24, 424209 (2012).   %
     %                                                                      %
     %%%%%%%%%%%%%%%%%%%%%%%%%%%%%%%%%%%%%%%%%%%%%%%%%%%%%%%%%%%%%%%%%%%%%%%%



     Adding external electric field

     Computed dipole along edir(3) : 
        Dipole                0.0010 Ry au,          0.0026 Debye
        Dipole field          0.0000 Ry au, 

        Potential amp.       -0.0002 Ry
        Total length         45.7757 bohr

     Starting wfcs are  138 randomized atomic wfcs

     total cpu time spent up to now is      143.5 secs

     Self-consistent Calculation

     iteration #  1     ecut=    55.12 Ry     beta= 0.10
     Davidson diagonalization with overlap
     ethr =  1.00E-02,  avg # of iterations =  2.0

     negative rho (up, down):  8.456E-04 0.000E+00

     Adding external electric field

     Computed dipole along edir(3) : 
        Dipole               -0.1502 Ry au,         -0.3817 Debye
        Dipole field         -0.0004 Ry au, 

        Potential amp.        0.0333 Ry
        Total length         45.7757 bohr


     total cpu time spent up to now is      453.4 secs

     total energy              =   -1711.45228212 Ry
     estimated scf accuracy    <       4.87423721 Ry

     iteration #  2     ecut=    55.12 Ry     beta= 0.10
     Davidson diagonalization with overlap
     ethr =  3.12E-03,  avg # of iterations =  2.0

     negative rho (up, down):  9.586E-04 0.000E+00

     Adding external electric field

     Computed dipole along edir(3) : 
        Dipole                0.7873 Ry au,          2.0010 Debye
        Dipole field          0.0019 Ry au, 

        Potential amp.       -0.1745 Ry
        Total length         45.7757 bohr


     total cpu time spent up to now is      634.4 secs

     total energy              =   -1711.62525470 Ry
     estimated scf accuracy    <       4.08778002 Ry

     iteration #  3     ecut=    55.12 Ry     beta= 0.10
     Davidson diagonalization with overlap
     ethr =  2.62E-03,  avg # of iterations =  1.8

     negative rho (up, down):  1.274E-03 0.000E+00

     Adding external electric field

     Computed dipole along edir(3) : 
        Dipole                0.0647 Ry au,          0.1644 Debye
        Dipole field          0.0002 Ry au, 

        Potential amp.       -0.0143 Ry
        Total length         45.7757 bohr


     total cpu time spent up to now is      815.6 secs

     total energy              =   -1711.57896311 Ry
     estimated scf accuracy    <      24.85985895 Ry

     iteration #  4     ecut=    55.12 Ry     beta= 0.10
     Davidson diagonalization with overlap
     ethr =  2.62E-03,  avg # of iterations =  1.0

     negative rho (up, down):  8.721E-04 0.000E+00

     Adding external electric field

     Computed dipole along edir(3) : 
        Dipole                0.0814 Ry au,          0.2068 Debye
        Dipole field          0.0002 Ry au, 

        Potential amp.       -0.0180 Ry
        Total length         45.7757 bohr


     total cpu time spent up to now is     1017.6 secs

     total energy              =   -1711.84857397 Ry
     estimated scf accuracy    <       0.37329206 Ry

     iteration #  5     ecut=    55.12 Ry     beta= 0.10
     Davidson diagonalization with overlap
     ethr =  2.39E-04,  avg # of iterations =  3.1

     negative rho (up, down):  1.383E-03 0.000E+00

     Adding external electric field

     Computed dipole along edir(3) : 
        Dipole                0.1320 Ry au,          0.3356 Debye
        Dipole field          0.0003 Ry au, 

        Potential amp.       -0.0293 Ry
        Total length         45.7757 bohr


     total cpu time spent up to now is     1246.1 secs

     total energy              =   -1711.84627357 Ry
     estimated scf accuracy    <       0.14337065 Ry

     iteration #  6     ecut=    55.12 Ry     beta= 0.10
     Davidson diagonalization with overlap
     ethr =  9.19E-05,  avg # of iterations =  8.6

     negative rho (up, down):  1.368E-03 0.000E+00

     Adding external electric field

     Computed dipole along edir(3) : 
        Dipole                0.0767 Ry au,          0.1949 Debye
        Dipole field          0.0002 Ry au, 

        Potential amp.       -0.0170 Ry
        Total length         45.7757 bohr


     total cpu time spent up to now is     1552.2 secs

     total energy              =   -1711.85530084 Ry
     estimated scf accuracy    <       0.09670621 Ry

     iteration #  7     ecut=    55.12 Ry     beta= 0.10
     Davidson diagonalization with overlap
     ethr =  6.20E-05,  avg # of iterations =  2.1

     negative rho (up, down):  5.191E-03 0.000E+00

     Adding external electric field

     Computed dipole along edir(3) : 
        Dipole                0.1154 Ry au,          0.2932 Debye
        Dipole field          0.0003 Ry au, 

        Potential amp.       -0.0256 Ry
        Total length         45.7757 bohr


     total cpu time spent up to now is     1750.4 secs

     total energy              =   -1711.86506567 Ry
     estimated scf accuracy    <       0.09602015 Ry

     iteration #  8     ecut=    55.12 Ry     beta= 0.10
     Davidson diagonalization with overlap
     ethr =  6.16E-05,  avg # of iterations =  2.0

     negative rho (up, down):  4.443E-03 0.000E+00

     Adding external electric field

     Computed dipole along edir(3) : 
        Dipole                0.1207 Ry au,          0.3067 Debye
        Dipole field          0.0003 Ry au, 

        Potential amp.       -0.0267 Ry
        Total length         45.7757 bohr


     total cpu time spent up to now is     1986.6 secs

     total energy              =   -1711.86114497 Ry
     estimated scf accuracy    <       0.07301679 Ry

     iteration #  9     ecut=    55.12 Ry     beta= 0.10
     Davidson diagonalization with overlap
     ethr =  4.68E-05,  avg # of iterations =  1.1

     negative rho (up, down):  3.860E-03 0.000E+00

     Adding external electric field

     Computed dipole along edir(3) : 
        Dipole                0.1243 Ry au,          0.3160 Debye
        Dipole field          0.0003 Ry au, 

        Potential amp.       -0.0276 Ry
        Total length         45.7757 bohr


     total cpu time spent up to now is     2150.4 secs

     total energy              =   -1711.86413386 Ry
     estimated scf accuracy    <       0.01080077 Ry

     iteration # 10     ecut=    55.12 Ry     beta= 0.10
     Davidson diagonalization with overlap
     c_bands:  1 eigenvalues not converged
     c_bands:  1 eigenvalues not converged
     ethr =  6.92E-06,  avg # of iterations =  7.9

     negative rho (up, down):  3.418E-03 0.000E+00

     Adding external electric field

     Computed dipole along edir(3) : 
        Dipole                0.1144 Ry au,          0.2908 Debye
        Dipole field          0.0003 Ry au, 

        Potential amp.       -0.0254 Ry
        Total length         45.7757 bohr


     total cpu time spent up to now is     2392.2 secs

     total energy              =   -1711.86475935 Ry
     estimated scf accuracy    <       0.00179557 Ry

     iteration # 11     ecut=    55.12 Ry     beta= 0.10
     Davidson diagonalization with overlap
     c_bands:  1 eigenvalues not converged
     c_bands:  1 eigenvalues not converged
     ethr =  1.15E-06,  avg # of iterations =  7.6

     negative rho (up, down):  3.770E-03 0.000E+00

     Adding external electric field

     Computed dipole along edir(3) : 
        Dipole                0.1117 Ry au,          0.2839 Debye
        Dipole field          0.0003 Ry au, 

        Potential amp.       -0.0248 Ry
        Total length         45.7757 bohr


     total cpu time spent up to now is     2631.2 secs

     total energy              =   -1711.86462745 Ry
     estimated scf accuracy    <       0.00296516 Ry

     iteration # 12     ecut=    55.12 Ry     beta= 0.10
     Davidson diagonalization with overlap
     c_bands:  1 eigenvalues not converged
     c_bands:  1 eigenvalues not converged
     ethr =  1.15E-06,  avg # of iterations =  4.1

     negative rho (up, down):  3.487E-03 0.000E+00

     Adding external electric field

     Computed dipole along edir(3) : 
        Dipole                0.1162 Ry au,          0.2952 Debye
        Dipole field          0.0003 Ry au, 

        Potential amp.       -0.0257 Ry
        Total length         45.7757 bohr


     total cpu time spent up to now is     2905.4 secs

     total energy              =   -1711.86504393 Ry
     estimated scf accuracy    <       0.00077501 Ry

     iteration # 13     ecut=    55.12 Ry     beta= 0.10
     Davidson diagonalization with overlap
     ethr =  4.97E-07,  avg # of iterations =  2.0

     negative rho (up, down):  3.230E-03 0.000E+00

     Adding external electric field

     Computed dipole along edir(3) : 
        Dipole                0.1224 Ry au,          0.3111 Debye
        Dipole field          0.0003 Ry au, 

        Potential amp.       -0.0271 Ry
        Total length         45.7757 bohr


     total cpu time spent up to now is     3140.4 secs

     total energy              =   -1711.86511533 Ry
     estimated scf accuracy    <       0.00014355 Ry

     iteration # 14     ecut=    55.12 Ry     beta= 0.10
     Davidson diagonalization with overlap
     ethr =  9.20E-08,  avg # of iterations =  4.8

     negative rho (up, down):  2.945E-03 0.000E+00

     Adding external electric field

     Computed dipole along edir(3) : 
        Dipole                0.1188 Ry au,          0.3019 Debye
        Dipole field          0.0003 Ry au, 

        Potential amp.       -0.0263 Ry
        Total length         45.7757 bohr


     total cpu time spent up to now is     3427.7 secs

     total energy              =   -1711.86510390 Ry
     estimated scf accuracy    <       0.00028453 Ry

     iteration # 15     ecut=    55.12 Ry     beta= 0.10
     Davidson diagonalization with overlap
     ethr =  9.20E-08,  avg # of iterations =  2.6

     negative rho (up, down):  2.720E-03 0.000E+00

     Adding external electric field

     Computed dipole along edir(3) : 
        Dipole                0.1197 Ry au,          0.3043 Debye
        Dipole field          0.0003 Ry au, 

        Potential amp.       -0.0265 Ry
        Total length         45.7757 bohr


     total cpu time spent up to now is     3615.1 secs

     total energy              =   -1711.86513699 Ry
     estimated scf accuracy    <       0.00003710 Ry

     iteration # 16     ecut=    55.12 Ry     beta= 0.10
     Davidson diagonalization with overlap
     ethr =  2.38E-08,  avg # of iterations =  2.5

     negative rho (up, down):  2.526E-03 0.000E+00

     Adding external electric field

     Computed dipole along edir(3) : 
        Dipole                0.1198 Ry au,          0.3044 Debye
        Dipole field          0.0003 Ry au, 

        Potential amp.       -0.0265 Ry
        Total length         45.7757 bohr


     total cpu time spent up to now is     3824.8 secs

     total energy              =   -1711.86514721 Ry
     estimated scf accuracy    <       0.00001253 Ry

     iteration # 17     ecut=    55.12 Ry     beta= 0.10
     Davidson diagonalization with overlap
     ethr =  8.03E-09,  avg # of iterations =  3.9

     negative rho (up, down):  1.043E-03 0.000E+00

     Adding external electric field

     Computed dipole along edir(3) : 
        Dipole                0.1167 Ry au,          0.2966 Debye
        Dipole field          0.0003 Ry au, 

        Potential amp.       -0.0259 Ry
        Total length         45.7757 bohr


     total cpu time spent up to now is     4217.7 secs

     End of self-consistent calculation

          k = 0.0000 0.0000 0.0000 ( 35891 PWs)   bands (ev):

   -72.2831 -72.2461 -72.1507 -72.1141 -72.0148 -71.9778 -60.3863 -60.3075
   -60.2139 -60.1343 -59.8201 -59.7392 -36.6473 -36.6304 -36.5696 -36.4309
   -36.3450 -36.3179 -36.2456 -36.2420 -36.1818 -36.1775 -36.1104 -36.0829
   -36.0107 -36.0101 -35.8861 -35.8287 -35.8204 -35.7282 -29.3612 -29.2528
   -29.1073 -28.9722 -28.9575 -28.9524 -28.8243 -28.8201 -28.6976 -28.6692
   -28.5440 -28.3253 -28.2672 -28.2601 -28.1974 -28.1502 -28.1424 -27.8389
    -5.3555  -3.6918  -2.6667  -2.1612  -2.1408  -2.0692  -1.9409  -1.8652
    -1.5972  -1.2946  -1.0647  -0.9653  -0.9323  -0.9307  -0.8308  -0.0027
     0.4358   0.4743   0.6342   0.8743   0.9328   1.3766   1.6550   1.8101
     1.9400   2.0592   2.0950   2.1438   2.3810   2.5929   2.6220   2.8020
     2.8369   2.8370   3.0067   3.2400   3.2732   3.3153   3.4181   3.7080
     3.7233   3.9480   3.9688   4.1334   4.1541   4.4353

          k = 0.0000 0.0152 0.0000 ( 35867 PWs)   bands (ev):

   -72.2831 -72.2461 -72.1507 -72.1140 -72.0148 -71.9778 -60.3863 -60.3075
   -60.2139 -60.1343 -59.8201 -59.7392 -36.6470 -36.6302 -36.5695 -36.4308
   -36.3449 -36.3175 -36.2454 -36.2421 -36.1814 -36.1776 -36.1103 -36.0826
   -36.0107 -36.0100 -35.8861 -35.8287 -35.8204 -35.7282 -29.3617 -29.2533
   -29.1079 -28.9724 -28.9575 -28.9528 -28.8243 -28.8214 -28.6980 -28.6704
   -28.5445 -28.3260 -28.2672 -28.2603 -28.1976 -28.1502 -28.1425 -27.8389
    -5.3031  -3.6424  -2.6152  -2.1688  -2.1303  -2.0294  -1.9402  -1.8273
    -1.5583  -1.2723  -1.0221  -0.9494  -0.9142  -0.8555  -0.7940  -0.0124
     0.4401   0.4829   0.6492   0.8665   0.8704   1.3259   1.6177   1.7730
     1.9234   2.0100   2.0468   2.1594   2.3684   2.4564   2.5499   2.7193
     2.8544   2.9057   2.9513   3.0871   3.2260   3.2635   3.5442   3.7116
     3.7752   3.8675   3.8830   4.0215   4.0447   4.4246

          k = 0.0000 0.0305 0.0000 ( 35883 PWs)   bands (ev):

   -72.2831 -72.2461 -72.1507 -72.1141 -72.0148 -71.9778 -60.3863 -60.3075
   -60.2139 -60.1343 -59.8201 -59.7392 -36.6463 -36.6297 -36.5692 -36.4305
   -36.3446 -36.3164 -36.2448 -36.2424 -36.1802 -36.1777 -36.1100 -36.0819
   -36.0106 -36.0099 -35.8860 -35.8287 -35.8204 -35.7282 -29.3630 -29.2547
   -29.1094 -28.9729 -28.9574 -28.9538 -28.8249 -28.8243 -28.6994 -28.6737
   -28.5457 -28.3280 -28.2674 -28.2608 -28.1984 -28.1504 -28.1426 -27.8390
    -5.1487  -3.4997  -2.4821  -2.2487  -2.0430  -1.9325  -1.9142  -1.7165
    -1.4473  -1.2108  -0.8991  -0.8639  -0.8620  -0.6884  -0.6706  -0.0391
     0.4504   0.5056   0.6780   0.7158   0.8276   1.1734   1.4766   1.7365
     1.8283   1.9141   1.9259   2.1413   2.2046   2.2723   2.4735   2.4838
     2.7355   2.8808   2.9025   2.9063   3.0860   3.3309   3.5760   3.6174
     3.6714   3.7355   3.7597   3.8530   3.8873   4.3952

          k = 0.0000 0.0457 0.0000 ( 35872 PWs)   bands (ev):

   -72.2831 -72.2461 -72.1507 -72.1140 -72.0148 -71.9778 -60.3863 -60.3075
   -60.2139 -60.1343 -59.8201 -59.7392 -36.6453 -36.6291 -36.5689 -36.4300
   -36.3442 -36.3150 -36.2441 -36.2427 -36.1786 -36.1778 -36.1096 -36.0808
   -36.0106 -36.0098 -35.8858 -35.8287 -35.8204 -35.7282 -29.3648 -29.2567
   -29.1115 -28.9736 -28.9573 -28.9552 -28.8297 -28.8243 -28.7012 -28.6783
   -28.5474 -28.3309 -28.2675 -28.2613 -28.1995 -28.1506 -28.1427 -27.8392
    -4.9008  -3.2843  -2.5171  -2.1530  -1.9251  -1.9157  -1.7384  -1.5417
    -1.2805  -1.1234  -0.7816  -0.7116  -0.7077  -0.5429  -0.3902  -0.0601
     0.4548   0.4669   0.5361   0.7276   0.7316   0.9780   1.3045   1.5710
     1.6380   1.7482   1.7903   1.9911   1.9999   2.1718   2.2721   2.3294
     2.4822   2.6127   2.8201   2.9698   3.0305   3.1809   3.2508   3.4327
     3.5037   3.5900   3.7124   3.8429   4.0436   4.3582

          k = 0.0000 0.0610 0.0000 ( 35882 PWs)   bands (ev):

   -72.2831 -72.2461 -72.1506 -72.1140 -72.0148 -71.9778 -60.3864 -60.3075
   -60.2139 -60.1343 -59.8201 -59.7392 -36.6443 -36.6284 -36.5685 -36.4296
   -36.3438 -36.3136 -36.2433 -36.2430 -36.1779 -36.1769 -36.1092 -36.0798
   -36.0105 -36.0097 -35.8857 -35.8287 -35.8203 -35.7281 -29.3665 -29.2587
   -29.1136 -28.9743 -28.9571 -28.9567 -28.8344 -28.8244 -28.7031 -28.6828
   -28.5491 -28.3341 -28.2677 -28.2616 -28.2006 -28.1508 -28.1429 -27.8394
    -4.5753  -3.0957  -2.6985  -1.9713  -1.8309  -1.7755  -1.5325  -1.3237
    -1.0855  -1.0319  -0.6867  -0.5008  -0.4914  -0.4611  -0.0437   0.0173
     0.1947   0.4149   0.5538   0.6184   0.6690   0.8852   1.1640   1.2368
     1.3891   1.5338   1.6388   1.7608   1.8036   2.0511   2.1549   2.2199
     2.2852   2.3085   2.6372   2.7121   2.8890   3.0396   3.0803   3.4216
     3.5090   3.5512   3.6429   3.9254   4.2155   4.3436

          k = 0.0000 0.0762 0.0000 ( 35918 PWs)   bands (ev):

   -72.2831 -72.2461 -72.1506 -72.1140 -72.0148 -71.9778 -60.3864 -60.3075
   -60.2140 -60.1343 -59.8202 -59.7392 -36.6436 -36.6280 -36.5683 -36.4293
   -36.3435 -36.3126 -36.2433 -36.2427 -36.1780 -36.1757 -36.1089 -36.0790
   -36.0105 -36.0096 -35.8856 -35.8287 -35.8203 -35.7281 -29.3678 -29.2601
   -29.1151 -28.9749 -28.9577 -28.9571 -28.8379 -28.8244 -28.7044 -28.6861
   -28.5504 -28.3364 -28.2678 -28.2618 -28.2015 -28.1509 -28.1429 -27.8395
    -4.2032  -3.2839  -2.5544  -2.0723  -1.6607  -1.5086  -1.3521  -1.1076
    -0.9736  -0.9069  -0.6066  -0.5163  -0.2946  -0.2843  -0.0639   0.1884
     0.2259   0.3272   0.5057   0.6183   0.6868   0.8768   0.9443   1.0238
     1.1446   1.3783   1.5039   1.5392   1.6774   1.8093   1.9851   2.0676
     2.0895   2.2362   2.2984   2.4050   2.8568   3.0929   3.1931   3.4314
     3.4995   3.5940   3.6579   3.9578   3.9811   4.1712

          k = 0.0000-0.0915 0.0000 ( 35888 PWs)   bands (ev):

   -72.2831 -72.2461 -72.1506 -72.1141 -72.0148 -71.9778 -60.3864 -60.3075
   -60.2140 -60.1343 -59.8202 -59.7392 -36.6433 -36.6278 -36.5682 -36.4292
   -36.3434 -36.3122 -36.2434 -36.2425 -36.1781 -36.1752 -36.1088 -36.0787
   -36.0104 -36.0096 -35.8856 -35.8287 -35.8203 -35.7281 -29.3683 -29.2606
   -29.1157 -28.9751 -28.9581 -28.9570 -28.8392 -28.8244 -28.7049 -28.6873
   -28.5508 -28.3373 -28.2679 -28.2618 -28.2018 -28.1510 -28.1430 -27.8395
    -3.9356  -3.5317  -2.3180  -2.2461  -1.6149  -1.3296  -1.2769  -0.9988
    -0.9745  -0.8262  -0.5802  -0.5701  -0.1953  -0.1916  -0.1775   0.1275
     0.3530   0.3624   0.4453   0.6583   0.8057   0.8732   0.8827   0.8922
     1.0970   1.3831   1.3869   1.4545   1.5262   1.6291   1.9083   1.9708
     2.0149   2.2203   2.2536   2.2723   2.8800   3.1130   3.2594   3.5125
     3.5135   3.5681   3.7057   3.7665   3.9539   4.0543

          k = 0.0147 0.0076 0.0000 ( 35910 PWs)   bands (ev):

   -72.2825 -72.2467 -72.1500 -72.1147 -72.0142 -71.9785 -60.3850 -60.3088
   -60.2125 -60.1357 -59.8187 -59.7406 -36.6459 -36.6202 -36.5708 -36.4209
   -36.3349 -36.3165 -36.2467 -36.2410 -36.1805 -36.1787 -36.1115 -36.0816
   -36.0216 -36.0112 -35.8851 -35.8312 -35.8297 -35.7391 -29.3440 -29.2355
   -29.1053 -28.9747 -28.9553 -28.9349 -28.8265 -28.8185 -28.7001 -28.6675
   -28.5466 -28.3234 -28.2875 -28.2581 -28.1998 -28.1706 -28.1445 -27.8596
    -5.2912  -3.6277  -2.6014  -2.1381  -2.0950  -2.0666  -1.8897  -1.8425
    -1.5656  -1.2232  -1.0477  -0.9343  -0.9057  -0.8986  -0.7690   0.0147
     0.4507   0.4799   0.6743   0.8667   0.9199   1.3957   1.6779   1.7943
     1.8746   2.0627   2.1336   2.1782   2.3596   2.4106   2.5206   2.7355
     2.8147   2.8476   3.0278   3.0996   3.1676   3.3619   3.4139   3.6277
     3.6728   3.9181   3.9410   4.0105   4.1001   4.3030

          k = 0.0147 0.0229 0.0000 ( 35897 PWs)   bands (ev):

   -72.2825 -72.2467 -72.1500 -72.1147 -72.0142 -71.9785 -60.3850 -60.3088
   -60.2125 -60.1357 -59.8187 -59.7406 -36.6454 -36.6199 -36.5707 -36.4207
   -36.3347 -36.3158 -36.2463 -36.2412 -36.1797 -36.1787 -36.1113 -36.0811
   -36.0216 -36.0112 -35.8850 -35.8312 -35.8297 -35.7391 -29.3449 -29.2365
   -29.1063 -28.9751 -28.9552 -28.9356 -28.8266 -28.8209 -28.7010 -28.6698
   -28.5474 -28.3248 -28.2876 -28.2585 -28.2003 -28.1707 -28.1446 -27.8596
    -5.1876  -3.5307  -2.5020  -2.1536  -2.0915  -1.9980  -1.8852  -1.7505
    -1.4906  -1.1808  -0.9776  -0.8716  -0.8632  -0.7922  -0.6794  -0.0037
     0.4553   0.4978   0.6972   0.8048   0.8488   1.2884   1.5568   1.7766
     1.8161   1.9757   2.0551   2.1612   2.2826   2.3060   2.3956   2.6045
     2.7385   2.8536   2.9689   2.9921   3.0403   3.3376   3.4942   3.6528
     3.7414   3.7537   3.7836   3.8580   3.9765   4.2946

          k = 0.0147 0.0381 0.0000 ( 35872 PWs)   bands (ev):

   -72.2825 -72.2467 -72.1500 -72.1147 -72.0142 -71.9785 -60.3850 -60.3088
   -60.2126 -60.1357 -59.8187 -59.7406 -36.6445 -36.6193 -36.5704 -36.4203
   -36.3343 -36.3145 -36.2457 -36.2414 -36.1788 -36.1782 -36.1109 -36.0801
   -36.0216 -36.0111 -35.8849 -35.8312 -35.8297 -35.7391 -29.3465 -29.2382
   -29.1081 -28.9757 -28.9551 -28.9369 -28.8266 -28.8251 -28.7025 -28.6738
   -28.5489 -28.3272 -28.2877 -28.2590 -28.2012 -28.1708 -28.1447 -27.8597
    -4.9859  -3.3480  -2.3980  -2.2006  -1.9921  -1.8824  -1.8742  -1.5760
    -1.3520  -1.1052  -0.8336  -0.7960  -0.7377  -0.6232  -0.4847  -0.0323
     0.4577   0.5259   0.6007   0.7368   0.7885   1.0914   1.3824   1.6445
     1.7147   1.8690   1.8916   2.0340   2.0773   2.2208   2.3209   2.3486
     2.5382   2.7331   2.8157   2.9392   3.0216   3.3078   3.3960   3.3977
     3.6166   3.6533   3.7763   3.7856   3.9325   4.2746

          k = 0.0147 0.0533 0.0000 ( 35864 PWs)   bands (ev):

   -72.2824 -72.2467 -72.1500 -72.1147 -72.0142 -71.9785 -60.3850 -60.3088
   -60.2126 -60.1357 -59.8188 -59.7406 -36.6435 -36.6186 -36.5700 -36.4198
   -36.3339 -36.3131 -36.2449 -36.2418 -36.1790 -36.1766 -36.1106 -36.0791
   -36.0215 -36.0110 -35.8848 -35.8312 -35.8297 -35.7391 -29.3483 -29.2402
   -29.1102 -28.9763 -28.9550 -28.9384 -28.8299 -28.8266 -28.7043 -28.6783
   -28.5505 -28.3303 -28.2878 -28.2595 -28.2023 -28.1710 -28.1448 -27.8598
    -4.6977  -3.1195  -2.5693  -1.9669  -1.8716  -1.8541  -1.7390  -1.3436
    -1.1697  -1.0129  -0.7061  -0.6277  -0.5480  -0.4692  -0.1996  -0.0160
     0.3425   0.4346   0.5562   0.6819   0.7266   0.9184   1.2211   1.3562
     1.5184   1.6714   1.7202   1.8459   1.8607   2.0885   2.1948   2.2111
     2.3714   2.4325   2.7092   2.8527   2.9555   3.0444   3.0768   3.4564
     3.5037   3.6031   3.6781   3.8613   4.1027   4.2677

          k = 0.0147 0.0686 0.0000 ( 35893 PWs)   bands (ev):

   -72.2824 -72.2467 -72.1500 -72.1147 -72.0142 -71.9785 -60.3850 -60.3088
   -60.2126 -60.1357 -59.8188 -59.7406 -36.6426 -36.6181 -36.5698 -36.4194
   -36.3335 -36.3119 -36.2443 -36.2421 -36.1791 -36.1751 -36.1102 -36.0782
   -36.0215 -36.0109 -35.8847 -35.8312 -35.8297 -35.7391 -29.3498 -29.2419
   -29.1121 -28.9769 -28.9549 -28.9396 -28.8341 -28.8266 -28.7059 -28.6823
   -28.5519 -28.3331 -28.2880 -28.2597 -28.2033 -28.1711 -28.1449 -27.8599
    -4.3442  -3.0929  -2.6200  -1.9530  -1.7136  -1.6152  -1.5938  -1.1010
    -0.9696  -0.9321  -0.6134  -0.4507  -0.3926  -0.3386   0.0623   0.0877
     0.1615   0.3428   0.5560   0.6238   0.6305   0.8766   1.0605   1.0998
     1.2172   1.4519   1.5641   1.5779   1.6936   2.0006   2.0183   2.1021
     2.1830   2.2753   2.3252   2.6103   2.8309   3.0557   3.1412   3.4171
     3.4548   3.6495   3.6573   3.9056   4.1621   4.1831

          k = 0.0147 0.0838 0.0000 ( 35923 PWs)   bands (ev):

   -72.2824 -72.2467 -72.1500 -72.1147 -72.0142 -71.9785 -60.3851 -60.3088
   -60.2126 -60.1357 -59.8188 -59.7406 -36.6421 -36.6177 -36.5696 -36.4192
   -36.3333 -36.3111 -36.2439 -36.2423 -36.1792 -36.1743 -36.1100 -36.0776
   -36.0214 -36.0108 -35.8846 -35.8311 -35.8297 -35.7391 -29.3507 -29.2429
   -29.1131 -28.9773 -28.9548 -28.9404 -28.8365 -28.8267 -28.7068 -28.6846
   -28.5528 -28.3347 -28.2880 -28.2598 -28.2039 -28.1712 -28.1450 -27.8600
    -3.9804  -3.3962  -2.3685  -2.1084  -1.6221  -1.4940  -1.3199  -0.9314
    -0.9100  -0.8015  -0.5598  -0.5154  -0.2074  -0.1910  -0.1440   0.1525
     0.3232   0.3505   0.4636   0.6369   0.7604   0.8713   0.8787   0.9154
     1.0911   1.2592   1.3966   1.4859   1.6204   1.6529   1.9722   1.9840
     2.0101   2.2247   2.2290   2.3351   2.8793   3.1636   3.1961   3.4028
     3.4485   3.6509   3.7076   3.8628   3.8853   4.0938

          k = 0.0147-0.0838 0.0000 ( 35923 PWs)   bands (ev):

   -72.2824 -72.2467 -72.1500 -72.1147 -72.0142 -71.9785 -60.3851 -60.3088
   -60.2126 -60.1357 -59.8188 -59.7406 -36.6421 -36.6177 -36.5696 -36.4192
   -36.3333 -36.3111 -36.2439 -36.2423 -36.1792 -36.1743 -36.1100 -36.0776
   -36.0214 -36.0108 -35.8846 -35.8311 -35.8297 -35.7391 -29.3507 -29.2429
   -29.1131 -28.9773 -28.9548 -28.9404 -28.8365 -28.8267 -28.7068 -28.6846
   -28.5528 -28.3347 -28.2880 -28.2598 -28.2039 -28.1712 -28.1450 -27.8600
    -3.9804  -3.3962  -2.3685  -2.1084  -1.6221  -1.4940  -1.3199  -0.9314
    -0.9100  -0.8015  -0.5598  -0.5154  -0.2074  -0.1910  -0.1440   0.1525
     0.3232   0.3505   0.4636   0.6369   0.7604   0.8713   0.8787   0.9154
     1.0911   1.2592   1.3966   1.4859   1.6204   1.6529   1.9722   1.9840
     2.0101   2.2247   2.2290   2.3351   2.8793   3.1636   3.1960   3.4028
     3.4485   3.6508   3.7076   3.8628   3.8853   4.0938

          k = 0.0147-0.0686 0.0000 ( 35893 PWs)   bands (ev):

   -72.2824 -72.2467 -72.1500 -72.1147 -72.0142 -71.9785 -60.3850 -60.3088
   -60.2126 -60.1357 -59.8188 -59.7406 -36.6426 -36.6181 -36.5698 -36.4194
   -36.3335 -36.3119 -36.2443 -36.2421 -36.1791 -36.1751 -36.1102 -36.0782
   -36.0215 -36.0109 -35.8847 -35.8312 -35.8297 -35.7391 -29.3498 -29.2419
   -29.1121 -28.9769 -28.9549 -28.9396 -28.8341 -28.8266 -28.7059 -28.6823
   -28.5519 -28.3331 -28.2880 -28.2597 -28.2033 -28.1711 -28.1449 -27.8599
    -4.3442  -3.0929  -2.6200  -1.9530  -1.7136  -1.6152  -1.5938  -1.1010
    -0.9696  -0.9321  -0.6134  -0.4507  -0.3926  -0.3386   0.0623   0.0877
     0.1615   0.3428   0.5560   0.6238   0.6305   0.8766   1.0605   1.0998
     1.2172   1.4519   1.5641   1.5779   1.6936   2.0006   2.0183   2.1021
     2.1830   2.2753   2.3252   2.6103   2.8309   3.0556   3.1412   3.4171
     3.4548   3.6495   3.6573   3.9057   4.1622   4.1832

          k = 0.0147-0.0533 0.0000 ( 35864 PWs)   bands (ev):

   -72.2824 -72.2467 -72.1500 -72.1147 -72.0142 -71.9785 -60.3850 -60.3088
   -60.2126 -60.1357 -59.8188 -59.7406 -36.6435 -36.6186 -36.5700 -36.4198
   -36.3339 -36.3131 -36.2449 -36.2418 -36.1790 -36.1766 -36.1106 -36.0791
   -36.0215 -36.0110 -35.8848 -35.8312 -35.8297 -35.7391 -29.3483 -29.2402
   -29.1102 -28.9763 -28.9550 -28.9384 -28.8299 -28.8266 -28.7043 -28.6783
   -28.5505 -28.3303 -28.2878 -28.2595 -28.2023 -28.1710 -28.1448 -27.8598
    -4.6977  -3.1195  -2.5693  -1.9669  -1.8716  -1.8541  -1.7390  -1.3436
    -1.1697  -1.0129  -0.7061  -0.6277  -0.5480  -0.4692  -0.1996  -0.0160
     0.3425   0.4346   0.5562   0.6819   0.7266   0.9184   1.2211   1.3562
     1.5184   1.6714   1.7202   1.8459   1.8607   2.0885   2.1948   2.2111
     2.3714   2.4325   2.7092   2.8527   2.9555   3.0444   3.0768   3.4564
     3.5037   3.6031   3.6781   3.8613   4.1027   4.2677

          k = 0.0147-0.0381 0.0000 ( 35872 PWs)   bands (ev):

   -72.2825 -72.2467 -72.1500 -72.1147 -72.0142 -71.9785 -60.3850 -60.3088
   -60.2126 -60.1357 -59.8187 -59.7406 -36.6445 -36.6193 -36.5704 -36.4203
   -36.3343 -36.3145 -36.2457 -36.2414 -36.1788 -36.1782 -36.1109 -36.0801
   -36.0216 -36.0111 -35.8849 -35.8312 -35.8297 -35.7391 -29.3465 -29.2382
   -29.1081 -28.9757 -28.9551 -28.9369 -28.8266 -28.8251 -28.7025 -28.6738
   -28.5489 -28.3272 -28.2877 -28.2590 -28.2012 -28.1708 -28.1447 -27.8597
    -4.9859  -3.3480  -2.3980  -2.2006  -1.9921  -1.8824  -1.8742  -1.5760
    -1.3520  -1.1052  -0.8336  -0.7960  -0.7377  -0.6232  -0.4847  -0.0323
     0.4577   0.5259   0.6007   0.7368   0.7885   1.0914   1.3824   1.6445
     1.7147   1.8690   1.8916   2.0340   2.0773   2.2208   2.3209   2.3486
     2.5382   2.7331   2.8157   2.9392   3.0216   3.3078   3.3960   3.3977
     3.6166   3.6533   3.7763   3.7856   3.9325   4.2746

          k = 0.0147-0.0229 0.0000 ( 35897 PWs)   bands (ev):

   -72.2825 -72.2467 -72.1500 -72.1147 -72.0142 -71.9785 -60.3850 -60.3088
   -60.2125 -60.1357 -59.8187 -59.7406 -36.6454 -36.6199 -36.5707 -36.4207
   -36.3347 -36.3158 -36.2463 -36.2412 -36.1797 -36.1787 -36.1113 -36.0811
   -36.0216 -36.0112 -35.8850 -35.8312 -35.8297 -35.7391 -29.3449 -29.2365
   -29.1063 -28.9751 -28.9552 -28.9356 -28.8266 -28.8209 -28.7010 -28.6698
   -28.5474 -28.3248 -28.2876 -28.2585 -28.2003 -28.1707 -28.1446 -27.8596
    -5.1876  -3.5307  -2.5020  -2.1536  -2.0915  -1.9980  -1.8852  -1.7505
    -1.4906  -1.1808  -0.9776  -0.8716  -0.8632  -0.7922  -0.6794  -0.0037
     0.4553   0.4978   0.6972   0.8048   0.8488   1.2884   1.5568   1.7766
     1.8161   1.9757   2.0551   2.1612   2.2826   2.3060   2.3956   2.6045
     2.7385   2.8536   2.9689   2.9921   3.0403   3.3376   3.4942   3.6528
     3.7414   3.7537   3.7836   3.8580   3.9765   4.2946

          k = 0.0147-0.0076 0.0000 ( 35910 PWs)   bands (ev):

   -72.2825 -72.2467 -72.1500 -72.1147 -72.0142 -71.9785 -60.3850 -60.3088
   -60.2125 -60.1357 -59.8187 -59.7406 -36.6459 -36.6202 -36.5708 -36.4209
   -36.3349 -36.3165 -36.2467 -36.2410 -36.1805 -36.1787 -36.1115 -36.0816
   -36.0216 -36.0112 -35.8851 -35.8312 -35.8297 -35.7391 -29.3440 -29.2355
   -29.1053 -28.9747 -28.9553 -28.9349 -28.8265 -28.8185 -28.7001 -28.6675
   -28.5466 -28.3234 -28.2875 -28.2581 -28.1998 -28.1706 -28.1445 -27.8596
    -5.2912  -3.6277  -2.6014  -2.1381  -2.0950  -2.0666  -1.8897  -1.8425
    -1.5656  -1.2232  -1.0477  -0.9343  -0.9057  -0.8986  -0.7690   0.0147
     0.4507   0.4799   0.6743   0.8667   0.9199   1.3957   1.6779   1.7943
     1.8746   2.0627   2.1336   2.1782   2.3596   2.4106   2.5206   2.7355
     2.8147   2.8476   3.0278   3.0996   3.1676   3.3619   3.4139   3.6277
     3.6728   3.9181   3.9410   4.0105   4.1001   4.3030

          k = 0.0294 0.0152 0.0000 ( 35915 PWs)   bands (ev):

   -72.2806 -72.2486 -72.1482 -72.1165 -72.0124 -71.9803 -60.3811 -60.3128
   -60.2086 -60.1397 -59.8147 -59.7446 -36.6418 -36.5903 -36.5744 -36.3914
   -36.3125 -36.3051 -36.2499 -36.2379 -36.1820 -36.1766 -36.1147 -36.0778
   -36.0536 -36.0147 -35.8823 -35.8628 -35.8325 -35.7711 -29.2933 -29.1844
   -29.0991 -28.9820 -28.9487 -28.8836 -28.8331 -28.8136 -28.7074 -28.6625
   -28.5541 -28.3466 -28.3176 -28.2531 -28.2295 -28.2070 -28.1506 -27.9197
    -5.1019  -3.4401  -2.4107  -2.1543  -2.0124  -1.9669  -1.7605  -1.7403
    -1.4764  -1.0183  -1.0021  -0.8641  -0.7947  -0.7844  -0.6107   0.0642
     0.4867   0.4915   0.7865   0.8456   0.8823   1.4286   1.6208   1.7324
     1.8250   2.0211   2.1030   2.1842   2.2558   2.2774   2.3382   2.6310
     2.6536   2.7512   2.8626   2.9406   3.0777   3.3109   3.3171   3.4427
     3.6055   3.6817   3.8161   3.8513   3.9461   4.1645

          k = 0.0294 0.0305 0.0000 ( 35892 PWs)   bands (ev):

   -72.2806 -72.2486 -72.1482 -72.1165 -72.0124 -71.9803 -60.3811 -60.3128
   -60.2086 -60.1397 -59.8147 -59.7446 -36.6411 -36.5899 -36.5742 -36.3911
   -36.3116 -36.3049 -36.2495 -36.2381 -36.1820 -36.1755 -36.1145 -36.0771
   -36.0536 -36.0146 -35.8822 -35.8628 -35.8326 -35.7711 -29.2945 -29.1858
   -29.1005 -28.9824 -28.9486 -28.8846 -28.8331 -28.8168 -28.7084 -28.6655
   -28.5550 -28.3466 -28.3195 -28.2535 -28.2295 -28.2076 -28.1507 -27.9197
    -4.9506  -3.3001  -2.2758  -2.1469  -2.0554  -1.9157  -1.7288  -1.5920
    -1.3733  -0.9615  -0.9122  -0.7431  -0.7344  -0.6668  -0.4648   0.0414
     0.4732   0.5202   0.7213   0.8044   0.8231   1.2479   1.4413   1.6312
     1.7784   1.9442   1.9843   2.0002   2.1240   2.1675   2.3218   2.4266
     2.5285   2.6906   2.7748   2.7906   3.0828   3.2993   3.3363   3.3668
     3.5570   3.7081   3.7287   3.8154   3.8298   4.1387

          k = 0.0294 0.0457 0.0000 ( 35881 PWs)   bands (ev):

   -72.2806 -72.2486 -72.1482 -72.1165 -72.0124 -71.9803 -60.3811 -60.3128
   -60.2086 -60.1397 -59.8147 -59.7446 -36.6402 -36.5893 -36.5740 -36.3907
   -36.3103 -36.3045 -36.2488 -36.2384 -36.1822 -36.1740 -36.1142 -36.0761
   -36.0536 -36.0146 -35.8821 -35.8628 -35.8326 -35.7711 -29.2961 -29.1876
   -29.1024 -28.9830 -28.9485 -28.8860 -28.8331 -28.8211 -28.7098 -28.6696
   -28.5563 -28.3467 -28.3222 -28.2540 -28.2296 -28.2084 -28.1508 -27.9197
    -4.7073  -3.0877  -2.3158  -2.0909  -1.9623  -1.7998  -1.7194  -1.3531
    -1.2172  -0.8791  -0.7379  -0.6626  -0.5682  -0.4943  -0.2423   0.0276
     0.4359   0.4923   0.5655   0.7644   0.7889   1.0136   1.2743   1.4186
     1.6104   1.7699   1.7948   1.8549   1.9292   2.0203   2.1956   2.2201
     2.4293   2.5223   2.6629   2.7642   2.9021   3.1235   3.1535   3.4159
     3.6014   3.6495   3.7154   3.7689   3.9580   4.1389

          k = 0.0294 0.0610 0.0000 ( 35850 PWs)   bands (ev):

   -72.2806 -72.2486 -72.1482 -72.1165 -72.0124 -71.9803 -60.3811 -60.3128
   -60.2086 -60.1397 -59.8148 -59.7446 -36.6393 -36.5887 -36.5737 -36.3903
   -36.3090 -36.3041 -36.2482 -36.2387 -36.1823 -36.1724 -36.1139 -36.0751
   -36.0536 -36.0145 -35.8820 -35.8628 -35.8326 -35.7711 -29.2978 -29.1894
   -29.1042 -28.9835 -28.9484 -28.8873 -28.8331 -28.8254 -28.7113 -28.6737
   -28.5575 -28.3467 -28.3250 -28.2543 -28.2297 -28.2092 -28.1508 -27.9197
    -4.3867  -2.9008  -2.5079  -2.0058  -1.7571  -1.6738  -1.6414  -1.1163
    -1.0015  -0.7902  -0.5657  -0.5034  -0.3990  -0.3354  -0.0382   0.1406
     0.2200   0.3528   0.5853   0.6915   0.6946   0.8791   1.1342   1.1655
     1.2960   1.5439   1.5917   1.6591   1.6698   1.9429   2.0639   2.0964
     2.2783   2.3835   2.3842   2.7391   2.8331   2.8386   3.2027   3.4382
     3.4700   3.6719   3.7054   3.8306   4.0996   4.2330

          k = 0.0294 0.0762 0.0000 ( 35886 PWs)   bands (ev):

   -72.2806 -72.2486 -72.1482 -72.1165 -72.0124 -71.9803 -60.3811 -60.3128
   -60.2087 -60.1397 -59.8148 -59.7446 -36.6386 -36.5882 -36.5736 -36.3900
   -36.3081 -36.3038 -36.2478 -36.2390 -36.1823 -36.1713 -36.1137 -36.0744
   -36.0536 -36.0145 -35.8819 -35.8628 -35.8326 -35.7711 -29.2990 -29.1908
   -29.1056 -28.9839 -28.9483 -28.8883 -28.8331 -28.8286 -28.7123 -28.6767
   -28.5585 -28.3467 -28.3271 -28.2545 -28.2297 -28.2099 -28.1509 -27.9197
    -4.0183  -3.0966  -2.3614  -1.9269  -1.8644  -1.5676  -1.2944  -0.9482
    -0.7536  -0.7348  -0.4889  -0.4028  -0.2429  -0.1942  -0.0470   0.1778
     0.2462   0.3084   0.5085   0.6184   0.6989   0.8540   0.9506   0.9801
     1.0694   1.2440   1.3994   1.4733   1.5873   1.7786   1.9332   2.0116
     2.1237   2.1865   2.3133   2.4893   2.8368   2.9780   3.2624   3.3561
     3.4286   3.6829   3.7057   3.8148   4.0120   4.0918

          k = 0.0294 0.0915 0.0000 ( 35900 PWs)   bands (ev):

   -72.2806 -72.2486 -72.1482 -72.1165 -72.0124 -71.9803 -60.3811 -60.3128
   -60.2087 -60.1397 -59.8148 -59.7446 -36.6384 -36.5881 -36.5735 -36.3899
   -36.3077 -36.3037 -36.2476 -36.2390 -36.1824 -36.1709 -36.1137 -36.0741
   -36.0536 -36.0145 -35.8819 -35.8628 -35.8326 -35.7711 -29.2994 -29.1913
   -29.1061 -28.9840 -28.9483 -28.8887 -28.8331 -28.8298 -28.7127 -28.6778
   -28.5588 -28.3467 -28.3279 -28.2545 -28.2297 -28.2101 -28.1509 -27.9198
    -3.7515  -3.3481  -2.1174  -2.0466  -1.8942  -1.5243  -1.0769  -0.8780
    -0.7562  -0.6285  -0.4811  -0.4297  -0.1506  -0.1501  -0.1075   0.1206
     0.3242   0.4238   0.4761   0.6323   0.6448   0.8523   0.8523   0.8564
     1.0356   1.1504   1.3387   1.3696   1.5516   1.6193   1.9106   2.0211
     2.0599   2.1556   2.2643   2.3324   2.9101   3.0857   3.2578   3.2943
     3.4133   3.6795   3.6861   3.8131   3.9167   4.0297

          k = 0.0294-0.0762 0.0000 ( 35886 PWs)   bands (ev):

   -72.2806 -72.2486 -72.1482 -72.1165 -72.0124 -71.9803 -60.3811 -60.3128
   -60.2087 -60.1397 -59.8148 -59.7446 -36.6386 -36.5882 -36.5736 -36.3900
   -36.3081 -36.3038 -36.2478 -36.2390 -36.1823 -36.1713 -36.1137 -36.0744
   -36.0536 -36.0145 -35.8819 -35.8628 -35.8326 -35.7711 -29.2990 -29.1908
   -29.1056 -28.9839 -28.9483 -28.8883 -28.8331 -28.8286 -28.7123 -28.6767
   -28.5585 -28.3467 -28.3271 -28.2545 -28.2297 -28.2099 -28.1509 -27.9197
    -4.0183  -3.0966  -2.3614  -1.9269  -1.8644  -1.5676  -1.2944  -0.9482
    -0.7536  -0.7348  -0.4889  -0.4028  -0.2429  -0.1942  -0.0470   0.1778
     0.2462   0.3084   0.5085   0.6184   0.6989   0.8540   0.9506   0.9801
     1.0694   1.2440   1.3994   1.4733   1.5873   1.7786   1.9332   2.0116
     2.1237   2.1865   2.3133   2.4893   2.8368   2.9780   3.2624   3.3561
     3.4286   3.6829   3.7057   3.8148   4.0120   4.0918

          k = 0.0294-0.0610 0.0000 ( 35850 PWs)   bands (ev):

   -72.2806 -72.2486 -72.1482 -72.1165 -72.0124 -71.9803 -60.3811 -60.3128
   -60.2086 -60.1397 -59.8148 -59.7446 -36.6393 -36.5887 -36.5737 -36.3903
   -36.3090 -36.3041 -36.2482 -36.2387 -36.1823 -36.1724 -36.1139 -36.0751
   -36.0536 -36.0145 -35.8820 -35.8628 -35.8326 -35.7711 -29.2978 -29.1894
   -29.1042 -28.9835 -28.9484 -28.8873 -28.8331 -28.8254 -28.7113 -28.6737
   -28.5575 -28.3467 -28.3250 -28.2543 -28.2297 -28.2092 -28.1508 -27.9197
    -4.3867  -2.9008  -2.5079  -2.0058  -1.7571  -1.6738  -1.6414  -1.1163
    -1.0015  -0.7902  -0.5657  -0.5034  -0.3990  -0.3354  -0.0382   0.1406
     0.2200   0.3528   0.5853   0.6915   0.6946   0.8791   1.1342   1.1655
     1.2960   1.5439   1.5917   1.6591   1.6698   1.9429   2.0639   2.0964
     2.2783   2.3835   2.3842   2.7391   2.8331   2.8386   3.2027   3.4382
     3.4700   3.6719   3.7054   3.8306   4.0996   4.2330

          k = 0.0294-0.0457 0.0000 ( 35881 PWs)   bands (ev):

   -72.2806 -72.2486 -72.1482 -72.1165 -72.0124 -71.9803 -60.3811 -60.3128
   -60.2086 -60.1397 -59.8147 -59.7446 -36.6402 -36.5893 -36.5740 -36.3907
   -36.3103 -36.3045 -36.2488 -36.2384 -36.1822 -36.1740 -36.1142 -36.0761
   -36.0536 -36.0146 -35.8821 -35.8628 -35.8326 -35.7711 -29.2961 -29.1876
   -29.1024 -28.9830 -28.9485 -28.8860 -28.8331 -28.8211 -28.7098 -28.6696
   -28.5563 -28.3467 -28.3222 -28.2540 -28.2296 -28.2084 -28.1508 -27.9197
    -4.7073  -3.0877  -2.3158  -2.0909  -1.9623  -1.7998  -1.7194  -1.3531
    -1.2172  -0.8791  -0.7379  -0.6626  -0.5682  -0.4943  -0.2423   0.0276
     0.4359   0.4923   0.5655   0.7644   0.7889   1.0136   1.2743   1.4186
     1.6104   1.7699   1.7948   1.8549   1.9292   2.0203   2.1956   2.2201
     2.4293   2.5223   2.6629   2.7642   2.9021   3.1235   3.1535   3.4159
     3.6014   3.6495   3.7154   3.7689   3.9580   4.1388

          k = 0.0294-0.0305 0.0000 ( 35892 PWs)   bands (ev):

   -72.2806 -72.2486 -72.1482 -72.1165 -72.0124 -71.9803 -60.3811 -60.3128
   -60.2086 -60.1397 -59.8147 -59.7446 -36.6411 -36.5899 -36.5742 -36.3911
   -36.3116 -36.3049 -36.2495 -36.2381 -36.1820 -36.1755 -36.1145 -36.0771
   -36.0536 -36.0146 -35.8822 -35.8628 -35.8326 -35.7711 -29.2945 -29.1858
   -29.1005 -28.9824 -28.9486 -28.8846 -28.8331 -28.8168 -28.7084 -28.6655
   -28.5550 -28.3466 -28.3195 -28.2535 -28.2295 -28.2076 -28.1507 -27.9197
    -4.9506  -3.3001  -2.2758  -2.1469  -2.0554  -1.9157  -1.7288  -1.5920
    -1.3733  -0.9615  -0.9122  -0.7431  -0.7344  -0.6668  -0.4648   0.0414
     0.4732   0.5202   0.7213   0.8044   0.8231   1.2479   1.4413   1.6312
     1.7784   1.9442   1.9843   2.0002   2.1240   2.1675   2.3218   2.4266
     2.5285   2.6906   2.7748   2.7906   3.0828   3.2993   3.3363   3.3668
     3.5570   3.7081   3.7287   3.8154   3.8298   4.1387

          k = 0.0294-0.0152 0.0000 ( 35915 PWs)   bands (ev):

   -72.2806 -72.2486 -72.1482 -72.1165 -72.0124 -71.9803 -60.3811 -60.3128
   -60.2086 -60.1397 -59.8147 -59.7446 -36.6418 -36.5903 -36.5744 -36.3914
   -36.3125 -36.3051 -36.2499 -36.2379 -36.1820 -36.1766 -36.1147 -36.0778
   -36.0536 -36.0147 -35.8823 -35.8628 -35.8325 -35.7711 -29.2933 -29.1844
   -29.0991 -28.9820 -28.9487 -28.8836 -28.8331 -28.8136 -28.7074 -28.6625
   -28.5541 -28.3466 -28.3176 -28.2531 -28.2295 -28.2070 -28.1506 -27.9197
    -5.1019  -3.4401  -2.4107  -2.1543  -2.0124  -1.9669  -1.7605  -1.7403
    -1.4764  -1.0183  -1.0021  -0.8641  -0.7947  -0.7844  -0.6107   0.0642
     0.4867   0.4915   0.7865   0.8456   0.8823   1.4286   1.6208   1.7324
     1.8250   2.0211   2.1030   2.1842   2.2558   2.2774   2.3382   2.6310
     2.6536   2.7512   2.8626   2.9406   3.0777   3.3109   3.3171   3.4427
     3.6055   3.6817   3.8161   3.8513   3.9461   4.1645

          k = 0.0294-0.0000 0.0000 ( 35919 PWs)   bands (ev):

   -72.2806 -72.2486 -72.1482 -72.1165 -72.0124 -71.9803 -60.3811 -60.3128
   -60.2086 -60.1397 -59.8147 -59.7446 -36.6420 -36.5905 -36.5745 -36.3915
   -36.3128 -36.3052 -36.2501 -36.2378 -36.1819 -36.1770 -36.1147 -36.0780
   -36.0536 -36.0147 -35.8823 -35.8628 -35.8325 -35.7711 -29.2929 -29.1839
   -29.0986 -28.9819 -28.9488 -28.8833 -28.8331 -28.8125 -28.7070 -28.6614
   -28.5537 -28.3466 -28.3170 -28.2529 -28.2295 -28.2067 -28.1506 -27.9197
    -5.1531  -3.4884  -2.4617  -2.1281  -2.0737  -1.9369  -1.8199  -1.7429
    -1.5132  -1.0386  -1.0214  -0.9235  -0.8232  -0.8124  -0.6589   0.0725
     0.4810   0.4903   0.7811   0.8490   0.9384   1.4845   1.7474   1.7581
     1.7878   2.0787   2.1293   2.2297   2.2958   2.3084   2.4495   2.5421
     2.6991   2.8698   2.9088   3.0368   3.0876   3.2041   3.3374   3.4326
     3.5316   3.8088   3.8780   3.8836   3.9676   4.1750

          k = 0.0441 0.0229 0.0000 ( 35878 PWs)   bands (ev):

   -72.2777 -72.2515 -72.1453 -72.1194 -72.0094 -71.9833 -60.3748 -60.3191
   -60.2023 -60.1460 -59.8083 -59.7511 -36.6353 -36.5805 -36.5423 -36.3443
   -36.3062 -36.2577 -36.2550 -36.2330 -36.1872 -36.1705 -36.1198 -36.1042
   -36.0717 -36.0202 -35.9128 -35.8777 -35.8371 -35.8216 -29.2119 -29.1025
   -29.0892 -28.9935 -28.9382 -28.8446 -28.8056 -28.8001 -28.7186 -28.6542
   -28.5656 -28.4393 -28.3242 -28.3084 -28.2431 -28.2182 -28.1602 -28.0142
    -4.7985  -3.1442  -2.3006  -2.1119  -1.8865  -1.7835  -1.6236  -1.5097
    -1.3450  -0.9342  -0.7435  -0.7192  -0.6049  -0.5831  -0.3750   0.1373
     0.4880   0.5129   0.8148   0.8228   0.9481   1.3548   1.4877   1.5668
     1.6549   1.9206   1.9786   2.0476   2.1190   2.1955   2.3685   2.4206
     2.4866   2.5367   2.6588   2.7482   3.0519   3.1899   3.1947   3.2707
     3.3075   3.5769   3.6133   3.7731   3.7846   4.1098

          k = 0.0441 0.0381 0.0000 ( 35900 PWs)   bands (ev):

   -72.2777 -72.2515 -72.1453 -72.1194 -72.0094 -71.9833 -60.3749 -60.3191
   -60.2023 -60.1460 -59.8083 -59.7511 -36.6346 -36.5804 -36.5418 -36.3440
   -36.3052 -36.2574 -36.2546 -36.2332 -36.1873 -36.1693 -36.1198 -36.1042
   -36.0709 -36.0202 -35.9128 -35.8776 -35.8371 -35.8216 -29.2132 -29.1040
   -29.0906 -28.9938 -28.9382 -28.8447 -28.8091 -28.8011 -28.7195 -28.6574
   -28.5663 -28.4392 -28.3241 -28.3105 -28.2435 -28.2186 -28.1603 -28.0141
    -4.6059  -2.9700  -2.3501  -2.0060  -1.8531  -1.7863  -1.4949  -1.3956
    -1.2223  -0.8206  -0.6621  -0.5968  -0.5335  -0.4445  -0.1895   0.1204
     0.4510   0.5235   0.6415   0.8189   0.8919   1.1126   1.3314   1.4525
     1.6175   1.6944   1.8096   1.9015   1.9848   1.9974   2.1886   2.2318
     2.4559   2.4825   2.5768   2.6857   2.9098   3.0509   3.1393   3.3594
     3.4970   3.5408   3.7291   3.7399   3.8589   4.0728

          k = 0.0441 0.0533 0.0000 ( 35858 PWs)   bands (ev):

   -72.2777 -72.2515 -72.1453 -72.1194 -72.0094 -71.9833 -60.3749 -60.3191
   -60.2023 -60.1460 -59.8084 -59.7511 -36.6338 -36.5802 -36.5413 -36.3436
   -36.3041 -36.2570 -36.2542 -36.2335 -36.1873 -36.1678 -36.1196 -36.1043
   -36.0700 -36.0203 -35.9129 -35.8774 -35.8371 -35.8217 -29.2147 -29.1057
   -29.0923 -28.9941 -28.9380 -28.8448 -28.8130 -28.8022 -28.7205 -28.6612
   -28.5671 -28.4391 -28.3239 -28.3130 -28.2439 -28.2192 -28.1603 -28.0140
    -4.3292  -2.7493  -2.3604  -2.2063  -1.6825  -1.6062  -1.4990  -1.1606
    -1.0247  -0.6226  -0.5874  -0.4362  -0.4358  -0.2747  -0.0293   0.1789
     0.3627   0.3876   0.5766   0.7769   0.7970   0.9060   1.1684   1.2650
     1.3423   1.5402   1.6022   1.7102   1.7530   1.8518   1.9985   2.1204
     2.3533   2.3965   2.5626   2.6313   2.6749   2.9057   3.1414   3.4227
     3.4702   3.6543   3.7336   3.8522   3.9559   4.1572

          k = 0.0441 0.0686 0.0000 ( 35876 PWs)   bands (ev):

   -72.2777 -72.2515 -72.1453 -72.1194 -72.0094 -71.9833 -60.3749 -60.3191
   -60.2024 -60.1460 -59.8084 -59.7511 -36.6330 -36.5801 -36.5408 -36.3432
   -36.3031 -36.2567 -36.2538 -36.2337 -36.1874 -36.1666 -36.1196 -36.1043
   -36.0692 -36.0203 -35.9130 -35.8773 -35.8371 -35.8217 -29.2161 -29.1072
   -29.0938 -28.9944 -28.9380 -28.8450 -28.8164 -28.8031 -28.7213 -28.6644
   -28.5679 -28.4390 -28.3238 -28.3152 -28.2441 -28.2197 -28.1603 -28.0139
    -3.9868  -2.7335  -2.3482  -2.2676  -1.5788  -1.5685  -1.2602  -0.9927
    -0.7576  -0.5139  -0.4079  -0.3347  -0.2888  -0.1578   0.0976   0.0982
     0.2176   0.3628   0.5488   0.6419   0.7857   0.8178   1.0078   1.0714
     1.0733   1.3063   1.3129   1.5656   1.5731   1.8136   1.8539   2.0419
     2.1176   2.2828   2.5042   2.5748   2.7490   2.7724   3.2440   3.3639
     3.4192   3.6893   3.7387   3.8248   4.0440   4.0905

          k = 0.0441 0.0838 0.0000 ( 35899 PWs)   bands (ev):

   -72.2777 -72.2515 -72.1453 -72.1194 -72.0094 -71.9833 -60.3749 -60.3191
   -60.2024 -60.1460 -59.8084 -59.7511 -36.6326 -36.5800 -36.5405 -36.3430
   -36.3025 -36.2565 -36.2536 -36.2339 -36.1874 -36.1659 -36.1195 -36.1044
   -36.0688 -36.0204 -35.9130 -35.8773 -35.8372 -35.8217 -29.2168 -29.1080
   -29.0947 -28.9946 -28.9379 -28.8451 -28.8183 -28.8037 -28.7218 -28.6662
   -28.5683 -28.4389 -28.3238 -28.3165 -28.2442 -28.2200 -28.1603 -28.0138
    -3.6303  -3.0483  -2.3346  -2.0092  -1.7366  -1.5091  -0.9027  -0.8791
    -0.5695  -0.5059  -0.3487  -0.3243  -0.1922  -0.0605  -0.0534   0.1180
     0.3444   0.3777   0.4017   0.6021   0.7551   0.8135   0.8205   0.8705
     0.9907   1.1564   1.2147   1.4639   1.4859   1.6274   1.8348   2.0680
     2.0705   2.1732   2.3588   2.4117   2.8834   2.9597   3.2123   3.2146
     3.4967   3.6269   3.6919   3.7789   3.9507   4.0221

          k = 0.0441 0.0991 0.0000 ( 35899 PWs)   bands (ev):

   -72.2777 -72.2515 -72.1453 -72.1194 -72.0094 -71.9833 -60.3749 -60.3191
   -60.2024 -60.1460 -59.8084 -59.7511 -36.6326 -36.5800 -36.5405 -36.3430
   -36.3025 -36.2565 -36.2536 -36.2339 -36.1874 -36.1659 -36.1195 -36.1044
   -36.0688 -36.0204 -35.9130 -35.8773 -35.8372 -35.8217 -29.2168 -29.1080
   -29.0947 -28.9946 -28.9379 -28.8451 -28.8183 -28.8037 -28.7218 -28.6662
   -28.5683 -28.4389 -28.3238 -28.3165 -28.2442 -28.2200 -28.1603 -28.0138
    -3.6303  -3.0483  -2.3346  -2.0092  -1.7366  -1.5091  -0.9027  -0.8791
    -0.5695  -0.5059  -0.3487  -0.3243  -0.1921  -0.0605  -0.0534   0.1180
     0.3444   0.3777   0.4017   0.6021   0.7551   0.8135   0.8205   0.8705
     0.9907   1.1564   1.2147   1.4639   1.4859   1.6274   1.8348   2.0680
     2.0705   2.1732   2.3588   2.4117   2.8834   2.9597   3.2123   3.2146
     3.4968   3.6269   3.6920   3.7789   3.9507   4.0221

          k = 0.0441-0.0686 0.0000 ( 35876 PWs)   bands (ev):

   -72.2777 -72.2515 -72.1453 -72.1194 -72.0094 -71.9833 -60.3749 -60.3191
   -60.2024 -60.1460 -59.8084 -59.7511 -36.6330 -36.5801 -36.5408 -36.3432
   -36.3031 -36.2567 -36.2538 -36.2337 -36.1874 -36.1666 -36.1196 -36.1043
   -36.0692 -36.0203 -35.9130 -35.8773 -35.8371 -35.8217 -29.2161 -29.1072
   -29.0938 -28.9944 -28.9380 -28.8450 -28.8164 -28.8031 -28.7213 -28.6644
   -28.5679 -28.4390 -28.3238 -28.3152 -28.2441 -28.2197 -28.1603 -28.0139
    -3.9868  -2.7335  -2.3482  -2.2676  -1.5788  -1.5685  -1.2602  -0.9927
    -0.7576  -0.5139  -0.4079  -0.3347  -0.2888  -0.1578   0.0976   0.0982
     0.2176   0.3628   0.5488   0.6419   0.7857   0.8178   1.0078   1.0714
     1.0733   1.3063   1.3129   1.5656   1.5731   1.8136   1.8539   2.0419
     2.1176   2.2828   2.5042   2.5748   2.7490   2.7724   3.2440   3.3639
     3.4192   3.6893   3.7387   3.8248   4.0439   4.0905

          k = 0.0441-0.0533 0.0000 ( 35858 PWs)   bands (ev):

   -72.2777 -72.2515 -72.1453 -72.1194 -72.0094 -71.9833 -60.3749 -60.3191
   -60.2023 -60.1460 -59.8084 -59.7511 -36.6338 -36.5802 -36.5413 -36.3436
   -36.3041 -36.2570 -36.2542 -36.2335 -36.1873 -36.1678 -36.1196 -36.1043
   -36.0700 -36.0203 -35.9129 -35.8774 -35.8371 -35.8217 -29.2147 -29.1057
   -29.0923 -28.9941 -28.9380 -28.8448 -28.8130 -28.8022 -28.7205 -28.6612
   -28.5671 -28.4391 -28.3239 -28.3130 -28.2439 -28.2192 -28.1603 -28.0140
    -4.3292  -2.7493  -2.3604  -2.2063  -1.6825  -1.6062  -1.4990  -1.1606
    -1.0247  -0.6226  -0.5874  -0.4362  -0.4358  -0.2747  -0.0293   0.1789
     0.3627   0.3876   0.5766   0.7769   0.7970   0.9060   1.1684   1.2650
     1.3423   1.5402   1.6022   1.7102   1.7530   1.8518   1.9985   2.1204
     2.3533   2.3965   2.5626   2.6313   2.6749   2.9057   3.1414   3.4227
     3.4701   3.6543   3.7336   3.8522   3.9559   4.1572

          k = 0.0441-0.0381 0.0000 ( 35900 PWs)   bands (ev):

   -72.2777 -72.2515 -72.1453 -72.1194 -72.0094 -71.9833 -60.3749 -60.3191
   -60.2023 -60.1460 -59.8083 -59.7511 -36.6346 -36.5804 -36.5418 -36.3440
   -36.3052 -36.2574 -36.2546 -36.2332 -36.1873 -36.1693 -36.1198 -36.1042
   -36.0709 -36.0202 -35.9128 -35.8776 -35.8371 -35.8216 -29.2132 -29.1040
   -29.0906 -28.9938 -28.9382 -28.8447 -28.8091 -28.8011 -28.7195 -28.6574
   -28.5663 -28.4392 -28.3241 -28.3105 -28.2435 -28.2186 -28.1603 -28.0141
    -4.6059  -2.9700  -2.3501  -2.0060  -1.8531  -1.7863  -1.4949  -1.3956
    -1.2223  -0.8206  -0.6621  -0.5968  -0.5335  -0.4445  -0.1895   0.1204
     0.4510   0.5235   0.6415   0.8189   0.8919   1.1126   1.3314   1.4525
     1.6175   1.6944   1.8096   1.9015   1.9848   1.9974   2.1886   2.2318
     2.4559   2.4825   2.5768   2.6857   2.9098   3.0509   3.1393   3.3594
     3.4970   3.5407   3.7291   3.7399   3.8589   4.0728

          k = 0.0441-0.0229 0.0000 ( 35878 PWs)   bands (ev):

   -72.2777 -72.2515 -72.1453 -72.1194 -72.0094 -71.9833 -60.3748 -60.3191
   -60.2023 -60.1460 -59.8083 -59.7511 -36.6353 -36.5805 -36.5423 -36.3443
   -36.3062 -36.2577 -36.2550 -36.2330 -36.1872 -36.1705 -36.1198 -36.1042
   -36.0717 -36.0202 -35.9128 -35.8777 -35.8371 -35.8216 -29.2119 -29.1025
   -29.0892 -28.9935 -28.9382 -28.8446 -28.8056 -28.8001 -28.7186 -28.6542
   -28.5656 -28.4393 -28.3242 -28.3084 -28.2431 -28.2182 -28.1602 -28.0142
    -4.7985  -3.1442  -2.3006  -2.1119  -1.8865  -1.7835  -1.6236  -1.5097
    -1.3450  -0.9342  -0.7435  -0.7192  -0.6049  -0.5831  -0.3750   0.1373
     0.4880   0.5129   0.8148   0.8228   0.9481   1.3548   1.4877   1.5668
     1.6549   1.9206   1.9786   2.0476   2.1190   2.1955   2.3685   2.4206
     2.4866   2.5367   2.6588   2.7482   3.0519   3.1899   3.1947   3.2707
     3.3075   3.5769   3.6133   3.7731   3.7846   4.1098

          k = 0.0441-0.0076 0.0000 ( 35869 PWs)   bands (ev):

   -72.2777 -72.2515 -72.1453 -72.1194 -72.0094 -71.9833 -60.3748 -60.3191
   -60.2023 -60.1460 -59.8083 -59.7511 -36.6358 -36.5805 -36.5426 -36.3445
   -36.3068 -36.2579 -36.2553 -36.2328 -36.1872 -36.1712 -36.1199 -36.1041
   -36.0722 -36.0201 -35.9127 -35.8777 -35.8371 -35.8215 -29.2111 -29.1016
   -29.0883 -28.9933 -28.9383 -28.8445 -28.8037 -28.7996 -28.7182 -28.6523
   -28.5652 -28.4394 -28.3243 -28.3073 -28.2428 -28.2179 -28.1602 -28.0143
    -4.8971  -3.2360  -2.2148  -2.2081  -2.0058  -1.7389  -1.7165  -1.5182
    -1.4132  -0.9607  -0.8523  -0.7501  -0.6589  -0.6422  -0.4763   0.1502
     0.4672   0.5460   0.8152   0.9169   0.9626   1.5115   1.5964   1.5998
     1.6746   1.9826   2.1418   2.1669   2.2242   2.2813   2.4062   2.4333
     2.5210   2.6931   2.8042   2.8181   3.0140   3.0950   3.1278   3.2509
     3.4251   3.4362   3.6917   3.7523   3.8178   4.1366

          k = 0.0441 0.0076 0.0000 ( 35869 PWs)   bands (ev):

   -72.2777 -72.2515 -72.1453 -72.1194 -72.0094 -71.9833 -60.3748 -60.3191
   -60.2023 -60.1460 -59.8083 -59.7511 -36.6358 -36.5805 -36.5426 -36.3445
   -36.3068 -36.2579 -36.2553 -36.2328 -36.1872 -36.1712 -36.1199 -36.1041
   -36.0722 -36.0201 -35.9127 -35.8777 -35.8371 -35.8215 -29.2111 -29.1016
   -29.0883 -28.9933 -28.9383 -28.8445 -28.8037 -28.7996 -28.7182 -28.6523
   -28.5652 -28.4394 -28.3243 -28.3073 -28.2428 -28.2179 -28.1602 -28.0143
    -4.8971  -3.2360  -2.2148  -2.2081  -2.0058  -1.7389  -1.7165  -1.5182
    -1.4132  -0.9607  -0.8523  -0.7501  -0.6589  -0.6422  -0.4763   0.1502
     0.4671   0.5460   0.8152   0.9169   0.9626   1.5115   1.5964   1.5998
     1.6746   1.9826   2.1418   2.1669   2.2242   2.2813   2.4062   2.4333
     2.5210   2.6931   2.8042   2.8181   3.0140   3.0950   3.1278   3.2509
     3.4251   3.4362   3.6917   3.7523   3.8178   4.1367

          k = 0.0589 0.0305 0.0000 ( 35848 PWs)   bands (ev):

   -72.2739 -72.2553 -72.1415 -72.1232 -72.0056 -71.9871 -60.3667 -60.3273
   -60.1941 -60.1543 -59.8000 -59.7595 -36.6270 -36.5882 -36.4796 -36.2982
   -36.2825 -36.2620 -36.2267 -36.1959 -36.1934 -36.1702 -36.1619 -36.1267
   -36.0639 -36.0274 -35.9774 -35.8872 -35.8715 -35.8430 -29.1042 -29.0759
   -29.0088 -28.9936 -28.9246 -28.8581 -28.7947 -28.7340 -28.6901 -28.6429
   -28.5802 -28.5582 -28.4439 -28.2964 -28.2325 -28.2314 -28.1727 -28.1353
    -4.4002  -2.7681  -2.5758  -1.7701  -1.7410  -1.5837  -1.4819  -1.2375
    -1.1882  -0.8583  -0.5914  -0.4283  -0.3195  -0.2966  -0.0814   0.2175
     0.4274   0.4967   0.7429   0.8164   1.0007   1.1531   1.3786   1.4329
     1.5149   1.6250   1.7299   1.8552   1.9850   2.0444   2.0742   2.2492
     2.3723   2.4279   2.4687   2.7640   2.7702   2.9322   3.0817   3.2534
     3.3990   3.4047   3.6002   3.7429   3.8802   4.1444

          k = 0.0589 0.0457 0.0000 ( 35850 PWs)   bands (ev):

   -72.2739 -72.2553 -72.1415 -72.1232 -72.0056 -71.9871 -60.3667 -60.3273
   -60.1941 -60.1543 -59.8000 -59.7595 -36.6263 -36.5882 -36.4791 -36.2973
   -36.2822 -36.2618 -36.2269 -36.1955 -36.1934 -36.1701 -36.1609 -36.1269
   -36.0631 -36.0276 -35.9775 -35.8873 -35.8714 -35.8430 -29.1055 -29.0773
   -29.0087 -28.9951 -28.9245 -28.8582 -28.7978 -28.7340 -28.6913 -28.6459
   -28.5803 -28.5579 -28.4435 -28.2983 -28.2326 -28.2318 -28.1726 -28.1349
    -4.1761  -2.6864  -2.5770  -1.8220  -1.7126  -1.5024  -1.2336  -1.2292
    -1.0448  -0.7409  -0.4601  -0.3807  -0.2221  -0.1756   0.0654   0.2574
     0.4105   0.4583   0.5588   0.8495   0.8563   0.9689   1.1929   1.3407
     1.3611   1.4808   1.6073   1.7188   1.8116   1.8510   1.9252   2.1606
     2.2702   2.3322   2.4724   2.5707   2.8294   2.8979   2.9413   3.4059
     3.4283   3.5726   3.7257   3.8378   3.9893   4.1455

          k = 0.0589 0.0610 0.0000 ( 35881 PWs)   bands (ev):

   -72.2739 -72.2553 -72.1415 -72.1232 -72.0056 -71.9871 -60.3668 -60.3273
   -60.1942 -60.1543 -59.8000 -59.7595 -36.6257 -36.5882 -36.4787 -36.2965
   -36.2818 -36.2616 -36.2272 -36.1951 -36.1935 -36.1701 -36.1599 -36.1270
   -36.0624 -36.0278 -35.9776 -35.8874 -35.8713 -35.8431 -29.1068 -29.0786
   -29.0087 -28.9967 -28.9244 -28.8582 -28.8009 -28.7340 -28.6925 -28.6488
   -28.5805 -28.5576 -28.4432 -28.3003 -28.2327 -28.2321 -28.1725 -28.1346
    -3.8778  -2.7565  -2.4088  -2.0465  -1.6618  -1.2783  -1.2098  -1.0299
    -0.8193  -0.5753  -0.3363  -0.3159  -0.1398  -0.0779   0.1370   0.2878
     0.2945   0.4394   0.5029   0.7131   0.8125   0.9057   0.9969   1.1151
     1.1928   1.2519   1.4068   1.6220   1.6252   1.7857   1.8335   2.0970
     2.1146   2.2675   2.4513   2.5473   2.7237   2.8472   3.0812   3.3558
     3.3987   3.7293   3.7750   3.9452   3.9879   4.0235

          k = 0.0589 0.0762 0.0000 ( 35927 PWs)   bands (ev):

   -72.2739 -72.2553 -72.1415 -72.1232 -72.0056 -71.9871 -60.3668 -60.3273
   -60.1942 -60.1543 -59.8000 -59.7595 -36.6252 -36.5882 -36.4783 -36.2958
   -36.2816 -36.2615 -36.2274 -36.1946 -36.1938 -36.1701 -36.1591 -36.1271
   -36.0618 -36.0279 -35.9777 -35.8875 -35.8712 -35.8431 -29.1077 -29.0796
   -29.0086 -28.9978 -28.9244 -28.8583 -28.8032 -28.7341 -28.6934 -28.6510
   -28.5806 -28.5574 -28.4429 -28.3018 -28.2328 -28.2322 -28.1725 -28.1344
    -3.5303  -2.7935  -2.6254  -1.9083  -1.6166  -1.3981  -0.8801  -0.8751
    -0.6226  -0.4541  -0.2512  -0.2104  -0.1338  -0.0805   0.0748   0.1877
     0.3597   0.4133   0.4897   0.5637   0.7445   0.8966   0.9410   0.9608
     0.9851   1.0941   1.2946   1.4795   1.5492   1.7019   1.7627   2.0185
     2.1253   2.1922   2.3135   2.5672   2.7671   2.9412   3.2081   3.2410
     3.3367   3.6899   3.7059   3.8451   3.8586   3.9646

          k = 0.0589 0.0915 0.0000 ( 35918 PWs)   bands (ev):

   -72.2738 -72.2553 -72.1415 -72.1232 -72.0056 -71.9871 -60.3668 -60.3273
   -60.1942 -60.1543 -59.8001 -59.7595 -36.6250 -36.5882 -36.4782 -36.2956
   -36.2815 -36.2614 -36.2274 -36.1943 -36.1940 -36.1701 -36.1589 -36.1271
   -36.0616 -36.0280 -35.9778 -35.8875 -35.8712 -35.8431 -29.1081 -29.0800
   -29.0086 -28.9983 -28.9243 -28.8583 -28.8040 -28.7341 -28.6938 -28.6518
   -28.5807 -28.5573 -28.4429 -28.3024 -28.2328 -28.2323 -28.1725 -28.1344
    -3.2747  -2.8796  -2.8049  -1.6696  -1.5977  -1.5861  -0.8003  -0.6141
    -0.5899  -0.3963  -0.3336  -0.2173  -0.1461  -0.0765   0.1003   0.1749
     0.2882   0.4155   0.5060   0.6240   0.6962   0.7647   0.8582   0.9270
     0.9692   1.0282   1.3214   1.4264   1.5016   1.7088   1.7387   1.9623
     2.1259   2.1592   2.2511   2.5538   2.9347   3.0210   3.0431   3.2035
     3.4360   3.5937   3.6367   3.7746   3.8512   3.9097

          k = 0.0589 0.1067 0.0000 ( 35927 PWs)   bands (ev):

   -72.2739 -72.2553 -72.1415 -72.1232 -72.0056 -71.9871 -60.3668 -60.3273
   -60.1942 -60.1543 -59.8000 -59.7595 -36.6252 -36.5882 -36.4783 -36.2958
   -36.2816 -36.2615 -36.2274 -36.1946 -36.1938 -36.1701 -36.1591 -36.1271
   -36.0618 -36.0279 -35.9777 -35.8875 -35.8712 -35.8431 -29.1077 -29.0796
   -29.0086 -28.9978 -28.9244 -28.8583 -28.8032 -28.7341 -28.6934 -28.6510
   -28.5806 -28.5574 -28.4429 -28.3018 -28.2328 -28.2322 -28.1725 -28.1344
    -3.5303  -2.7935  -2.6254  -1.9083  -1.6166  -1.3981  -0.8801  -0.8751
    -0.6226  -0.4541  -0.2512  -0.2104  -0.1338  -0.0805   0.0748   0.1877
     0.3597   0.4133   0.4897   0.5637   0.7445   0.8966   0.9410   0.9608
     0.9851   1.0941   1.2946   1.4795   1.5492   1.7019   1.7627   2.0185
     2.1253   2.1922   2.3135   2.5672   2.7671   2.9412   3.2081   3.2410
     3.3367   3.6899   3.7059   3.8451   3.8586   3.9646

          k = 0.0589-0.0610 0.0000 ( 35881 PWs)   bands (ev):

   -72.2739 -72.2553 -72.1415 -72.1232 -72.0056 -71.9871 -60.3668 -60.3273
   -60.1942 -60.1543 -59.8000 -59.7595 -36.6257 -36.5882 -36.4787 -36.2965
   -36.2818 -36.2616 -36.2272 -36.1951 -36.1935 -36.1701 -36.1599 -36.1270
   -36.0624 -36.0278 -35.9776 -35.8874 -35.8713 -35.8431 -29.1068 -29.0786
   -29.0087 -28.9967 -28.9244 -28.8582 -28.8009 -28.7340 -28.6925 -28.6488
   -28.5805 -28.5576 -28.4432 -28.3003 -28.2327 -28.2321 -28.1725 -28.1346
    -3.8778  -2.7565  -2.4088  -2.0465  -1.6618  -1.2783  -1.2098  -1.0299
    -0.8193  -0.5753  -0.3363  -0.3159  -0.1398  -0.0779   0.1370   0.2878
     0.2945   0.4394   0.5029   0.7131   0.8125   0.9057   0.9969   1.1151
     1.1928   1.2519   1.4068   1.6220   1.6252   1.7857   1.8335   2.0970
     2.1146   2.2675   2.4513   2.5473   2.7237   2.8472   3.0812   3.3558
     3.3987   3.7293   3.7750   3.9452   3.9877   4.0235

          k = 0.0589-0.0457 0.0000 ( 35850 PWs)   bands (ev):

   -72.2739 -72.2553 -72.1415 -72.1232 -72.0056 -71.9871 -60.3667 -60.3273
   -60.1941 -60.1543 -59.8000 -59.7595 -36.6263 -36.5882 -36.4791 -36.2973
   -36.2822 -36.2618 -36.2269 -36.1955 -36.1934 -36.1701 -36.1609 -36.1269
   -36.0631 -36.0276 -35.9775 -35.8873 -35.8714 -35.8430 -29.1055 -29.0773
   -29.0087 -28.9951 -28.9245 -28.8582 -28.7978 -28.7340 -28.6913 -28.6459
   -28.5803 -28.5579 -28.4435 -28.2983 -28.2326 -28.2318 -28.1726 -28.1349
    -4.1761  -2.6864  -2.5770  -1.8220  -1.7126  -1.5024  -1.2336  -1.2292
    -1.0448  -0.7409  -0.4601  -0.3807  -0.2221  -0.1756   0.0654   0.2574
     0.4105   0.4583   0.5588   0.8495   0.8563   0.9689   1.1929   1.3407
     1.3611   1.4808   1.6073   1.7188   1.8116   1.8510   1.9252   2.1606
     2.2702   2.3322   2.4724   2.5707   2.8294   2.8979   2.9413   3.4059
     3.4283   3.5726   3.7257   3.8378   3.9893   4.1455

          k = 0.0589-0.0305 0.0000 ( 35848 PWs)   bands (ev):

   -72.2739 -72.2553 -72.1415 -72.1232 -72.0056 -71.9871 -60.3667 -60.3273
   -60.1941 -60.1543 -59.8000 -59.7595 -36.6270 -36.5882 -36.4796 -36.2982
   -36.2825 -36.2620 -36.2267 -36.1959 -36.1934 -36.1702 -36.1619 -36.1267
   -36.0639 -36.0274 -35.9774 -35.8872 -35.8715 -35.8430 -29.1042 -29.0759
   -29.0088 -28.9936 -28.9246 -28.8581 -28.7947 -28.7340 -28.6901 -28.6429
   -28.5802 -28.5582 -28.4439 -28.2964 -28.2325 -28.2314 -28.1727 -28.1353
    -4.4002  -2.7681  -2.5758  -1.7701  -1.7410  -1.5837  -1.4819  -1.2376
    -1.1882  -0.8583  -0.5914  -0.4283  -0.3195  -0.2966  -0.0814   0.2175
     0.4274   0.4967   0.7429   0.8164   1.0007   1.1531   1.3786   1.4329
     1.5149   1.6250   1.7299   1.8552   1.9850   2.0444   2.0742   2.2492
     2.3723   2.4279   2.4687   2.7640   2.7702   2.9322   3.0817   3.2534
     3.3990   3.4047   3.6003   3.7429   3.8802   4.1444

          k = 0.0589-0.0152 0.0000 ( 35834 PWs)   bands (ev):

   -72.2739 -72.2553 -72.1415 -72.1232 -72.0056 -71.9871 -60.3667 -60.3273
   -60.1941 -60.1543 -59.8000 -59.7596 -36.6275 -36.5882 -36.4800 -36.2989
   -36.2828 -36.2622 -36.2265 -36.1961 -36.1934 -36.1703 -36.1625 -36.1267
   -36.0645 -36.0273 -35.9773 -35.8871 -35.8715 -35.8430 -29.1032 -29.0750
   -29.0088 -28.9924 -28.9246 -28.8581 -28.7924 -28.7340 -28.6892 -28.6407
   -28.5801 -28.5585 -28.4442 -28.2950 -28.2324 -28.2311 -28.1727 -28.1355
    -4.5386  -2.8927  -2.4253  -1.9152  -1.8659  -1.6204  -1.4713  -1.2851
    -1.2464  -0.8931  -0.7103  -0.4551  -0.4300  -0.3500  -0.2269   0.2276
     0.4031   0.5774   0.7823   0.8693   1.1309   1.3237   1.4245   1.4371
     1.4986   1.7939   1.8460   2.0673   2.1013   2.1592   2.1768   2.3231
     2.4243   2.5455   2.6093   2.7415   2.9228   2.9911   3.0062   3.1455
     3.2485   3.3988   3.3999   3.7748   3.7881   4.1764

          k = 0.0589 0.0000 0.0000 ( 35835 PWs)   bands (ev):

   -72.2739 -72.2553 -72.1415 -72.1232 -72.0056 -71.9871 -60.3667 -60.3273
   -60.1941 -60.1543 -59.8000 -59.7596 -36.6277 -36.5882 -36.4801 -36.2991
   -36.2829 -36.2622 -36.2264 -36.1961 -36.1934 -36.1703 -36.1628 -36.1266
   -36.0647 -36.0273 -35.9773 -35.8871 -35.8716 -35.8430 -29.1029 -29.0746
   -29.0088 -28.9920 -28.9247 -28.8581 -28.7915 -28.7340 -28.6888 -28.6399
   -28.5801 -28.5586 -28.4443 -28.2945 -28.2324 -28.2309 -28.1727 -28.1356
    -4.5853  -2.9354  -2.3052  -2.0595  -1.9102  -1.6381  -1.4365  -1.3252
    -1.2480  -0.8765  -0.7776  -0.4716  -0.4632  -0.3701  -0.2792   0.2325
     0.3946   0.6181   0.7586   0.9171   1.1998   1.3611   1.4248   1.4271
     1.4969   1.8814   1.9037   2.1144   2.1398   2.2081   2.2355   2.3401
     2.4193   2.6327   2.6989   2.7839   2.9332   2.9437   2.9937   3.1163
     3.1626   3.3196   3.4196   3.7528   3.7965   3.9576

          k = 0.0589 0.0152 0.0000 ( 35834 PWs)   bands (ev):

   -72.2739 -72.2553 -72.1415 -72.1232 -72.0056 -71.9871 -60.3667 -60.3273
   -60.1941 -60.1543 -59.8000 -59.7596 -36.6275 -36.5882 -36.4800 -36.2989
   -36.2828 -36.2622 -36.2265 -36.1961 -36.1934 -36.1703 -36.1625 -36.1267
   -36.0645 -36.0273 -35.9773 -35.8871 -35.8715 -35.8430 -29.1032 -29.0750
   -29.0088 -28.9924 -28.9246 -28.8581 -28.7924 -28.7340 -28.6892 -28.6407
   -28.5801 -28.5585 -28.4442 -28.2950 -28.2324 -28.2311 -28.1727 -28.1355
    -4.5386  -2.8927  -2.4253  -1.9152  -1.8659  -1.6204  -1.4713  -1.2851
    -1.2464  -0.8931  -0.7103  -0.4551  -0.4300  -0.3500  -0.2269   0.2276
     0.4031   0.5774   0.7823   0.8693   1.1309   1.3237   1.4245   1.4371
     1.4986   1.7939   1.8460   2.0673   2.1013   2.1592   2.1768   2.3231
     2.4243   2.5455   2.6093   2.7415   2.9228   2.9911   3.0062   3.1455
     3.2485   3.3988   3.4000   3.7748   3.7880   4.1765

          k = 0.0736 0.0381 0.0000 ( 35838 PWs)   bands (ev):

   -72.2694 -72.2598 -72.1371 -72.1276 -72.0011 -71.9916 -60.3573 -60.3369
   -60.1846 -60.1640 -59.7903 -59.7693 -36.6174 -36.5973 -36.4060 -36.2891
   -36.2704 -36.2465 -36.2177 -36.2100 -36.2018 -36.1535 -36.1350 -36.1220
   -36.0551 -36.0519 -36.0360 -35.9624 -35.8647 -35.8499 -29.0602 -29.0253
   -28.9766 -28.9086 -28.8753 -28.8644 -28.7813 -28.7495 -28.6940 -28.6292
   -28.5966 -28.5806 -28.5607 -28.2824 -28.2731 -28.2487 -28.2172 -28.1870
    -3.9348  -2.9699  -2.3600  -1.7795  -1.4376  -1.3864  -1.3434  -1.0379
    -0.9880  -0.8209  -0.4323  -0.2236  -0.0324  -0.0123   0.1813   0.3056
     0.3168   0.4926   0.6514   0.8403   0.9311   1.0153   1.1806   1.3502
     1.3982   1.4294   1.4642   1.6909   1.7441   1.8492   1.9023   2.1473
     2.1871   2.2184   2.3837   2.4500   2.6868   2.8424   3.0626   3.3870
     3.4220   3.5860   3.7015   3.9330   4.0181   4.0640

          k = 0.0736 0.0533 0.0000 ( 35887 PWs)   bands (ev):

   -72.2694 -72.2598 -72.1371 -72.1276 -72.0011 -71.9916 -60.3573 -60.3368
   -60.1846 -60.1640 -59.7903 -59.7693 -36.6169 -36.5975 -36.4056 -36.2885
   -36.2704 -36.2468 -36.2178 -36.2097 -36.2018 -36.1526 -36.1354 -36.1217
   -36.0545 -36.0520 -36.0364 -35.9626 -35.8646 -35.8500 -29.0613 -29.0250
   -28.9777 -28.9086 -28.8758 -28.8652 -28.7837 -28.7488 -28.6934 -28.6315
   -28.5959 -28.5799 -28.5618 -28.2839 -28.2727 -28.2483 -28.2175 -28.1869
    -3.6942  -3.1257  -2.1862  -1.8147  -1.6985  -1.1630  -1.1258  -1.0167
    -0.9317  -0.7320  -0.3448  -0.2176   0.0147   0.0227   0.2680   0.3264
     0.3486   0.5170   0.5541   0.7445   0.9172   0.9678   1.0416   1.1345
     1.2766   1.3125   1.4027   1.6281   1.6862   1.8111   1.8269   2.0833
     2.1544   2.1606   2.2788   2.4570   2.7126   2.8029   3.1495   3.3304
     3.4915   3.6541   3.7902   3.8725   3.9796   4.0639

          k = 0.0736 0.0686 0.0000 ( 35881 PWs)   bands (ev):

   -72.2694 -72.2598 -72.1371 -72.1276 -72.0011 -71.9916 -60.3573 -60.3368
   -60.1846 -60.1639 -59.7903 -59.7693 -36.6164 -36.5977 -36.4052 -36.2879
   -36.2705 -36.2471 -36.2179 -36.2094 -36.2017 -36.1518 -36.1357 -36.1214
   -36.0540 -36.0521 -36.0366 -35.9628 -35.8646 -35.8500 -29.0622 -29.0247
   -28.9786 -28.9085 -28.8762 -28.8659 -28.7857 -28.7483 -28.6930 -28.6334
   -28.5954 -28.5795 -28.5627 -28.2849 -28.2725 -28.2479 -28.2177 -28.1867
    -3.3919  -3.2289  -2.2055  -1.8410  -1.7939  -1.1422  -0.9693  -0.8945
    -0.7867  -0.6149  -0.3126  -0.2225   0.0222   0.0252   0.2875   0.3248
     0.4053   0.4204   0.5646   0.6267   0.7725   0.9266   1.0273   1.1055
     1.1618   1.2155   1.3527   1.5570   1.6098   1.7304   1.7537   2.0265
     2.0966   2.1786   2.2385   2.5805   2.6600   2.9458   3.2020   3.2476
     3.4371   3.5544   3.7325   3.8310   3.9385   3.9945

          k = 0.0736 0.0838 0.0000 ( 35868 PWs)   bands (ev):

   -72.2694 -72.2598 -72.1371 -72.1276 -72.0011 -71.9916 -60.3573 -60.3368
   -60.1846 -60.1639 -59.7903 -59.7693 -36.6162 -36.5978 -36.4050 -36.2876
   -36.2705 -36.2473 -36.2180 -36.2093 -36.2017 -36.1513 -36.1359 -36.1213
   -36.0537 -36.0521 -36.0368 -35.9629 -35.8645 -35.8500 -29.0627 -29.0246
   -28.9791 -28.9085 -28.8764 -28.8664 -28.7869 -28.7479 -28.6927 -28.6344
   -28.5950 -28.5793 -28.5632 -28.2855 -28.2724 -28.2477 -28.2179 -28.1867
    -3.2801  -3.0713  -2.5213  -1.8523  -1.5775  -1.3094  -0.8872  -0.7100
    -0.6660  -0.4924  -0.3635  -0.2762   0.0259   0.0654   0.1484   0.2968
     0.3573   0.4730   0.5414   0.6979   0.7007   0.9009   0.9185   0.9721
     1.1727   1.2392   1.3778   1.4793   1.6123   1.7056   1.7063   1.9454
     2.0096   2.2048   2.2404   2.6703   2.7899   3.0148   3.1046   3.2894
     3.3953   3.4272   3.6428   3.7327   3.8504   3.8869

          k = 0.0736 0.0991 0.0000 ( 35868 PWs)   bands (ev):

   -72.2694 -72.2598 -72.1371 -72.1276 -72.0011 -71.9916 -60.3573 -60.3368
   -60.1846 -60.1639 -59.7903 -59.7693 -36.6162 -36.5978 -36.4050 -36.2876
   -36.2705 -36.2473 -36.2180 -36.2093 -36.2017 -36.1513 -36.1359 -36.1213
   -36.0537 -36.0521 -36.0368 -35.9629 -35.8645 -35.8500 -29.0627 -29.0246
   -28.9791 -28.9085 -28.8764 -28.8664 -28.7869 -28.7479 -28.6927 -28.6344
   -28.5950 -28.5793 -28.5632 -28.2855 -28.2724 -28.2477 -28.2179 -28.1867
    -3.2801  -3.0713  -2.5213  -1.8523  -1.5775  -1.3094  -0.8872  -0.7100
    -0.6660  -0.4924  -0.3635  -0.2762   0.0259   0.0654   0.1484   0.2968
     0.3573   0.4730   0.5414   0.6979   0.7007   0.9009   0.9185   0.9721
     1.1727   1.2392   1.3778   1.4793   1.6123   1.7056   1.7063   1.9454
     2.0096   2.2048   2.2404   2.6703   2.7899   3.0148   3.1047   3.2894
     3.3953   3.4272   3.6428   3.7327   3.8504   3.8869

          k = 0.0736 0.1143 0.0000 ( 35881 PWs)   bands (ev):

   -72.2694 -72.2598 -72.1371 -72.1276 -72.0011 -71.9916 -60.3573 -60.3368
   -60.1846 -60.1639 -59.7903 -59.7693 -36.6164 -36.5977 -36.4052 -36.2879
   -36.2705 -36.2471 -36.2179 -36.2094 -36.2017 -36.1518 -36.1357 -36.1214
   -36.0540 -36.0521 -36.0366 -35.9628 -35.8646 -35.8500 -29.0622 -29.0247
   -28.9786 -28.9085 -28.8762 -28.8659 -28.7857 -28.7483 -28.6930 -28.6334
   -28.5954 -28.5795 -28.5627 -28.2849 -28.2725 -28.2479 -28.2177 -28.1867
    -3.3919  -3.2289  -2.2055  -1.8410  -1.7939  -1.1422  -0.9693  -0.8945
    -0.7867  -0.6149  -0.3126  -0.2225   0.0222   0.0252   0.2875   0.3248
     0.4053   0.4204   0.5646   0.6267   0.7725   0.9266   1.0273   1.1055
     1.1618   1.2155   1.3527   1.5570   1.6098   1.7304   1.7537   2.0265
     2.0966   2.1786   2.2385   2.5805   2.6600   2.9458   3.2020   3.2476
     3.4371   3.5544   3.7325   3.8310   3.9385   3.9944

          k = 0.0736-0.0533 0.0000 ( 35887 PWs)   bands (ev):

   -72.2694 -72.2598 -72.1371 -72.1276 -72.0011 -71.9916 -60.3573 -60.3368
   -60.1846 -60.1640 -59.7903 -59.7693 -36.6169 -36.5975 -36.4056 -36.2885
   -36.2704 -36.2468 -36.2178 -36.2097 -36.2018 -36.1526 -36.1354 -36.1217
   -36.0545 -36.0520 -36.0364 -35.9626 -35.8646 -35.8500 -29.0613 -29.0250
   -28.9777 -28.9086 -28.8758 -28.8652 -28.7837 -28.7488 -28.6934 -28.6315
   -28.5959 -28.5799 -28.5618 -28.2839 -28.2727 -28.2483 -28.2175 -28.1869
    -3.6942  -3.1257  -2.1862  -1.8147  -1.6985  -1.1630  -1.1258  -1.0167
    -0.9317  -0.7320  -0.3448  -0.2176   0.0147   0.0227   0.2680   0.3264
     0.3486   0.5170   0.5541   0.7445   0.9172   0.9678   1.0416   1.1345
     1.2766   1.3125   1.4027   1.6281   1.6862   1.8111   1.8269   2.0833
     2.1544   2.1606   2.2788   2.4570   2.7126   2.8029   3.1495   3.3304
     3.4915   3.6541   3.7902   3.8725   3.9796   4.0639

          k = 0.0736-0.0381 0.0000 ( 35838 PWs)   bands (ev):

   -72.2694 -72.2598 -72.1371 -72.1276 -72.0011 -71.9916 -60.3573 -60.3369
   -60.1846 -60.1640 -59.7903 -59.7693 -36.6174 -36.5973 -36.4060 -36.2891
   -36.2704 -36.2465 -36.2177 -36.2100 -36.2018 -36.1535 -36.1350 -36.1220
   -36.0551 -36.0519 -36.0360 -35.9624 -35.8647 -35.8499 -29.0602 -29.0253
   -28.9766 -28.9086 -28.8753 -28.8644 -28.7813 -28.7495 -28.6940 -28.6292
   -28.5966 -28.5806 -28.5607 -28.2824 -28.2731 -28.2487 -28.2172 -28.1870
    -3.9348  -2.9699  -2.3600  -1.7795  -1.4376  -1.3864  -1.3434  -1.0379
    -0.9880  -0.8209  -0.4323  -0.2236  -0.0324  -0.0123   0.1813   0.3056
     0.3168   0.4926   0.6514   0.8403   0.9311   1.0153   1.1806   1.3502
     1.3982   1.4294   1.4642   1.6909   1.7441   1.8492   1.9023   2.1473
     2.1871   2.2184   2.3837   2.4500   2.6868   2.8424   3.0626   3.3870
     3.4220   3.5860   3.7015   3.9330   4.0180   4.0641

          k = 0.0736-0.0229 0.0000 ( 35860 PWs)   bands (ev):

   -72.2694 -72.2598 -72.1371 -72.1276 -72.0011 -71.9916 -60.3572 -60.3369
   -60.1845 -60.1640 -59.7903 -59.7693 -36.6179 -36.5972 -36.4064 -36.2897
   -36.2703 -36.2463 -36.2177 -36.2103 -36.2018 -36.1543 -36.1347 -36.1222
   -36.0556 -36.0518 -36.0357 -35.9623 -35.8648 -35.8499 -29.0593 -29.0255
   -28.9757 -28.9087 -28.8748 -28.8637 -28.7792 -28.7501 -28.6946 -28.6270
   -28.5973 -28.5812 -28.5598 -28.2810 -28.2738 -28.2491 -28.2169 -28.1871
    -4.1005  -2.7650  -2.4959  -1.8507  -1.5642  -1.4813  -1.2482  -1.1402
    -0.9742  -0.8413  -0.5323  -0.2249  -0.1473  -0.0554   0.0656   0.2832
     0.2882   0.5361   0.7779   0.7964   1.0459   1.1092   1.3165   1.3319
     1.4871   1.5060   1.6043   1.7467   1.7672   1.8688   2.0410   2.2158
     2.2226   2.3095   2.4687   2.6050   2.6527   2.9581   2.9625   3.2017
     3.3555   3.5097   3.6940   3.7636   3.9984   4.0914

          k = 0.0736-0.0076 0.0000 ( 35855 PWs)   bands (ev):

   -72.2694 -72.2598 -72.1371 -72.1276 -72.0011 -71.9916 -60.3572 -60.3369
   -60.1845 -60.1640 -59.7903 -59.7694 -36.6182 -36.5971 -36.4066 -36.2900
   -36.2703 -36.2462 -36.2176 -36.2105 -36.2018 -36.1547 -36.1345 -36.1223
   -36.0559 -36.0517 -36.0356 -35.9622 -35.8648 -35.8498 -29.0588 -29.0257
   -28.9751 -28.9088 -28.8746 -28.8633 -28.7779 -28.7504 -28.6949 -28.6258
   -28.5976 -28.5817 -28.5592 -28.2799 -28.2744 -28.2493 -28.2168 -28.1872
    -4.1847  -2.5669  -2.5393  -2.1028  -1.5479  -1.5272  -1.2394  -1.1675
    -0.9624  -0.8002  -0.6205  -0.2333  -0.2228  -0.0917  -0.0287   0.2821
     0.2844   0.6072   0.7333   0.9009   1.0912   1.2247   1.2551   1.3371
     1.5044   1.5296   1.6701   1.8212   1.8222   1.8977   2.1063   2.2427
     2.2738   2.3702   2.5301   2.7098   2.8397   2.8472   2.9903   3.0368
     3.2486   3.4483   3.5744   3.7993   3.9418   3.9488

          k = 0.0736 0.0076 0.0000 ( 35855 PWs)   bands (ev):

   -72.2694 -72.2598 -72.1371 -72.1276 -72.0011 -71.9916 -60.3572 -60.3369
   -60.1845 -60.1640 -59.7903 -59.7694 -36.6182 -36.5971 -36.4066 -36.2900
   -36.2703 -36.2462 -36.2176 -36.2105 -36.2018 -36.1547 -36.1345 -36.1223
   -36.0559 -36.0517 -36.0356 -35.9622 -35.8648 -35.8498 -29.0588 -29.0257
   -28.9751 -28.9088 -28.8746 -28.8633 -28.7779 -28.7504 -28.6949 -28.6258
   -28.5976 -28.5817 -28.5592 -28.2799 -28.2744 -28.2493 -28.2168 -28.1872
    -4.1847  -2.5669  -2.5393  -2.1028  -1.5479  -1.5272  -1.2394  -1.1675
    -0.9624  -0.8002  -0.6205  -0.2333  -0.2228  -0.0917  -0.0287   0.2821
     0.2844   0.6072   0.7333   0.9009   1.0912   1.2247   1.2551   1.3371
     1.5044   1.5296   1.6701   1.8212   1.8222   1.8977   2.1063   2.2427
     2.2738   2.3702   2.5301   2.7098   2.8397   2.8472   2.9903   3.0368
     3.2486   3.4483   3.5744   3.7993   3.9417   3.9489

          k = 0.0736 0.0229 0.0000 ( 35860 PWs)   bands (ev):

   -72.2694 -72.2598 -72.1371 -72.1276 -72.0011 -71.9916 -60.3572 -60.3369
   -60.1845 -60.1640 -59.7903 -59.7693 -36.6179 -36.5972 -36.4064 -36.2897
   -36.2703 -36.2463 -36.2177 -36.2103 -36.2018 -36.1543 -36.1347 -36.1222
   -36.0556 -36.0518 -36.0357 -35.9623 -35.8648 -35.8499 -29.0593 -29.0255
   -28.9757 -28.9087 -28.8748 -28.8637 -28.7792 -28.7501 -28.6946 -28.6270
   -28.5973 -28.5812 -28.5598 -28.2810 -28.2738 -28.2491 -28.2169 -28.1871
    -4.1005  -2.7650  -2.4959  -1.8507  -1.5642  -1.4813  -1.2482  -1.1402
    -0.9742  -0.8413  -0.5323  -0.2249  -0.1473  -0.0554   0.0656   0.2832
     0.2882   0.5361   0.7779   0.7964   1.0459   1.1092   1.3165   1.3319
     1.4871   1.5060   1.6043   1.7467   1.7672   1.8688   2.0410   2.2158
     2.2226   2.3095   2.4687   2.6050   2.6527   2.9581   2.9625   3.2017
     3.3555   3.5097   3.6940   3.7637   3.9983   4.0918

          k =-0.0883-0.0457 0.0000 ( 35894 PWs)   bands (ev):

   -72.2646 -72.2646 -72.1324 -72.1324 -71.9964 -71.9964 -60.3471 -60.3471
   -60.1743 -60.1743 -59.7798 -59.7798 -36.6073 -36.6073 -36.3264 -36.3264
   -36.2796 -36.2796 -36.2101 -36.2101 -36.1443 -36.1443 -36.1312 -36.1312
   -36.0458 -36.0458 -36.0422 -36.0422 -35.8573 -35.8573 -29.0430 -29.0429
   -28.8916 -28.8916 -28.8370 -28.8370 -28.7656 -28.7656 -28.7247 -28.7247
   -28.6131 -28.6131 -28.4189 -28.4189 -28.2655 -28.2655 -28.2022 -28.2022
    -3.4413  -3.4413  -1.9965  -1.9965  -1.3591  -1.3591  -1.0658  -1.0658
    -0.8475  -0.8475  -0.2830  -0.2830   0.1253   0.1253   0.2712   0.2712
     0.4341   0.4341   0.6915   0.6915   1.0007   1.0007   1.1644   1.1644
     1.3623   1.3623   1.3952   1.3952   1.7521   1.7522   1.9604   1.9604
     2.1590   2.1590   2.3216   2.3216   2.7009   2.7009   3.2713   3.2713
     3.5946   3.5946   3.8014   3.8015   4.0989   4.0989

          k =-0.0883-0.0305 0.0000 ( 35882 PWs)   bands (ev):

   -72.2646 -72.2646 -72.1324 -72.1324 -71.9964 -71.9964 -60.3471 -60.3471
   -60.1743 -60.1743 -59.7798 -59.7798 -36.6077 -36.6070 -36.3267 -36.3261
   -36.2799 -36.2792 -36.2102 -36.2100 -36.1449 -36.1436 -36.1315 -36.1310
   -36.0462 -36.0454 -36.0424 -36.0421 -35.8574 -35.8572 -29.0436 -29.0423
   -28.8916 -28.8915 -28.8378 -28.8361 -28.7672 -28.7642 -28.7256 -28.7238
   -28.6145 -28.6117 -28.4196 -28.4181 -28.2664 -28.2646 -28.2024 -28.2020
    -3.6150  -3.2055  -2.1063  -1.9105  -1.6172  -1.1630  -1.0752  -1.0406
    -0.8735  -0.7766  -0.3442  -0.2482   0.1032   0.1190   0.2515   0.2698
     0.3472   0.5439   0.5694   0.8010   0.8203   1.1473   1.1857   1.2178
     1.2894   1.3807   1.4119   1.4335   1.6791   1.8180   1.9155   1.9662
     2.0935   2.1851   2.2787   2.5623   2.6243   2.7789   3.1217   3.3692
     3.4566   3.6693   3.6725   3.8686   4.0379   4.1099

          k =-0.0883-0.0152 0.0000 ( 35867 PWs)   bands (ev):

   -72.2646 -72.2646 -72.1324 -72.1324 -71.9964 -71.9964 -60.3471 -60.3470
   -60.1743 -60.1743 -59.7798 -59.7798 -36.6079 -36.6067 -36.3270 -36.3258
   -36.2802 -36.2790 -36.2103 -36.2100 -36.1453 -36.1431 -36.1317 -36.1309
   -36.0464 -36.0450 -36.0425 -36.0420 -35.8574 -35.8572 -29.0440 -29.0419
   -28.8917 -28.8915 -28.8383 -28.8354 -28.7683 -28.7632 -28.7262 -28.7231
   -28.6156 -28.6107 -28.4201 -28.4176 -28.2671 -28.2639 -28.2026 -28.2018
    -3.7208  -2.9241  -2.1768  -2.1315  -1.5681  -1.1808  -1.1525  -0.9475
    -0.7721  -0.7095  -0.4167  -0.2565   0.0340   0.1283   0.2022   0.2322
     0.3109   0.4736   0.7203   0.7460   0.8518   1.1098   1.1466   1.2218
     1.3365   1.4302   1.4599   1.5065   1.6483   1.8130   1.8722   1.8827
     2.0862   2.2179   2.3920   2.6280   2.7836   2.8885   2.9793   3.2241
     3.3389   3.6133   3.7159   3.8402   3.9854   4.0277

          k =-0.0883 0.0000 0.0000 ( 35845 PWs)   bands (ev):

   -72.2646 -72.2646 -72.1324 -72.1324 -71.9964 -71.9963 -60.3471 -60.3470
   -60.1743 -60.1742 -59.7798 -59.7798 -36.6080 -36.6066 -36.3271 -36.3257
   -36.2803 -36.2789 -36.2103 -36.2099 -36.1454 -36.1429 -36.1318 -36.1308
   -36.0465 -36.0449 -36.0426 -36.0420 -35.8574 -35.8572 -29.0442 -29.0417
   -28.8917 -28.8915 -28.8385 -28.8351 -28.7688 -28.7628 -28.7264 -28.7228
   -28.6161 -28.6103 -28.4203 -28.4173 -28.2674 -28.2637 -28.2026 -28.2018
    -3.7563  -2.7147  -2.3575  -2.2007  -1.4456  -1.2670  -1.1914  -0.9057
    -0.6946  -0.6737  -0.4656  -0.2747  -0.0171   0.1461   0.1770   0.2176
     0.2732   0.4906   0.7267   0.8021   0.8734   1.0690   1.0855   1.2132
     1.3819   1.4375   1.5153   1.5410   1.6425   1.7700   1.8298   1.8698
     2.1299   2.2315   2.3939   2.7740   2.8282   2.8550   3.0865   3.0920
     3.1909   3.5979   3.7119   3.8526   3.9654   3.9861

          k =-0.0883 0.0152 0.0000 ( 35867 PWs)   bands (ev):

   -72.2646 -72.2646 -72.1324 -72.1324 -71.9964 -71.9964 -60.3471 -60.3470
   -60.1743 -60.1743 -59.7798 -59.7798 -36.6079 -36.6067 -36.3270 -36.3258
   -36.2802 -36.2790 -36.2103 -36.2100 -36.1453 -36.1431 -36.1317 -36.1309
   -36.0464 -36.0450 -36.0425 -36.0420 -35.8574 -35.8572 -29.0440 -29.0419
   -28.8917 -28.8915 -28.8383 -28.8354 -28.7683 -28.7632 -28.7262 -28.7231
   -28.6156 -28.6107 -28.4201 -28.4176 -28.2671 -28.2639 -28.2026 -28.2018
    -3.7208  -2.9241  -2.1768  -2.1315  -1.5681  -1.1808  -1.1525  -0.9475
    -0.7721  -0.7095  -0.4167  -0.2565   0.0340   0.1283   0.2022   0.2322
     0.3109   0.4736   0.7203   0.7460   0.8518   1.1098   1.1466   1.2218
     1.3365   1.4302   1.4599   1.5065   1.6483   1.8130   1.8722   1.8827
     2.0862   2.2179   2.3920   2.6280   2.7836   2.8885   2.9793   3.2241
     3.3389   3.6133   3.7159   3.8402   3.9858   4.0277

          k =-0.0883 0.0305 0.0000 ( 35882 PWs)   bands (ev):

   -72.2646 -72.2646 -72.1324 -72.1324 -71.9964 -71.9964 -60.3471 -60.3471
   -60.1743 -60.1743 -59.7798 -59.7798 -36.6077 -36.6070 -36.3267 -36.3261
   -36.2799 -36.2792 -36.2102 -36.2100 -36.1449 -36.1436 -36.1315 -36.1310
   -36.0462 -36.0454 -36.0424 -36.0421 -35.8574 -35.8572 -29.0436 -29.0423
   -28.8916 -28.8915 -28.8378 -28.8361 -28.7672 -28.7642 -28.7256 -28.7238
   -28.6145 -28.6117 -28.4196 -28.4181 -28.2664 -28.2646 -28.2024 -28.2020
    -3.6150  -3.2055  -2.1063  -1.9105  -1.6172  -1.1630  -1.0752  -1.0406
    -0.8735  -0.7766  -0.3442  -0.2482   0.1032   0.1190   0.2515   0.2698
     0.3472   0.5439   0.5694   0.8010   0.8203   1.1473   1.1857   1.2178
     1.2894   1.3807   1.4119   1.4335   1.6791   1.8180   1.9155   1.9662
     2.0935   2.1851   2.2787   2.5623   2.6243   2.7789   3.1217   3.3692
     3.4566   3.6693   3.6724   3.8686   4.0378   4.1098

          k =-0.0883-0.1372 0.0000 ( 35894 PWs)   bands (ev):

   -72.2646 -72.2646 -72.1324 -72.1324 -71.9964 -71.9964 -60.3471 -60.3471
   -60.1743 -60.1743 -59.7798 -59.7798 -36.6073 -36.6073 -36.3264 -36.3264
   -36.2796 -36.2796 -36.2101 -36.2101 -36.1443 -36.1443 -36.1312 -36.1312
   -36.0458 -36.0458 -36.0422 -36.0422 -35.8573 -35.8573 -29.0430 -29.0429
   -28.8916 -28.8916 -28.8370 -28.8370 -28.7656 -28.7656 -28.7247 -28.7247
   -28.6131 -28.6131 -28.4189 -28.4189 -28.2655 -28.2655 -28.2022 -28.2022
    -3.4413  -3.4413  -1.9965  -1.9965  -1.3591  -1.3591  -1.0658  -1.0658
    -0.8475  -0.8475  -0.2830  -0.2830   0.1253   0.1253   0.2712   0.2712
     0.4341   0.4341   0.6915   0.6915   1.0007   1.0007   1.1644   1.1644
     1.3623   1.3623   1.3952   1.3952   1.7521   1.7522   1.9604   1.9604
     2.1590   2.1590   2.3216   2.3216   2.7009   2.7009   3.2713   3.2713
     3.5946   3.5947   3.8015   3.8015   4.0990   4.0991

     the Fermi energy is     2.0496 ev

!    total energy              =   -1711.86512501 Ry
     estimated scf accuracy    <       0.00000336 Ry
     smearing contrib. (-TS)   =      -0.07953742 Ry
     internal energy E=F+TS    =   -1711.78558759 Ry

     The total energy is F=E-TS. E is the sum of the following terms:
     one-electron contribution =  -11478.38266529 Ry
     hartree contribution      =    5724.04341343 Ry
     xc contribution           =    -504.46475562 Ry
     ewald contribution        =    4547.01838693 Ry
     electric field correction =       0.00003296 Ry

     convergence has been achieved in  17 iterations

     negative rho (up, down):  1.043E-03 0.000E+00

     Forces acting on atoms (cartesian axes, Ry/au):

     atom    1 type  1   force =     0.00000023   -0.02082905   -0.03173323
     atom    2 type  1   force =     0.00000468   -0.02082795   -0.03173128
     atom    3 type  2   force =     0.00000092    0.00944342    0.04854759
     atom    4 type  2   force =     0.00000010    0.00944144    0.04854784
     atom    5 type  1   force =    -0.00000186    0.02201280    0.00271425
     atom    6 type  1   force =    -0.00000125    0.02201444    0.00271049
     atom    7 type  2   force =    -0.00000376   -0.00943410   -0.01306737
     atom    8 type  2   force =    -0.00000450   -0.00943359   -0.01307302
     atom    9 type  1   force =    -0.00000111    0.00011549   -0.00326342
     atom   10 type  1   force =     0.00000271    0.00011144   -0.00326452
     atom   11 type  2   force =    -0.00000256   -0.00130481   -0.00319365
     atom   12 type  2   force =     0.00000639   -0.00130953   -0.00319366

     Total force =     0.096552     Total SCF correction =     0.007467

     Writing output data file ./Hf2W2/Hf2W2_beef.save/

     init_run     :    122.84s CPU    123.46s WALL (       1 calls)
     electrons    :   4056.48s CPU   4074.38s WALL (       1 calls)
     forces       :     55.61s CPU     55.87s WALL (       1 calls)

     Called by init_run:
     wfcinit      :    110.24s CPU    110.67s WALL (       1 calls)
     potinit      :      7.88s CPU      7.95s WALL (       1 calls)
     hinit0       :      2.59s CPU      2.60s WALL (       1 calls)

     Called by electrons:
     c_bands      :   3655.10s CPU   3666.32s WALL (      17 calls)
     sum_band     :    364.71s CPU    368.57s WALL (      17 calls)
     v_of_rho     :     26.65s CPU     27.73s WALL (      18 calls)
     newd         :     16.25s CPU     17.96s WALL (      18 calls)
     mix_rho      :      0.62s CPU      0.65s WALL (      17 calls)
     vdW_kernel   :      5.72s CPU      5.72s WALL (       1 calls)

     Called by c_bands:
     init_us_2    :     10.89s CPU     10.99s WALL (    2664 calls)
     cegterg      :   3608.44s CPU   3616.88s WALL (    1258 calls)

     Called by *egterg:
     cdiaghg      :    140.37s CPU    140.43s WALL (    5644 calls)
     h_psi        :   2247.61s CPU   2255.00s WALL (    5718 calls)
     s_psi        :    421.32s CPU    421.48s WALL (    5718 calls)
     g_psi        :      1.21s CPU      1.22s WALL (    4386 calls)

     Called by h_psi:
     h_psi:calbec :    474.91s CPU    475.91s WALL (    5718 calls)
     vloc_psi     :   1318.44s CPU   1324.58s WALL (    5718 calls)
     add_vuspsi   :    449.12s CPU    449.33s WALL (    5718 calls)

     General routines
     calbec       :    713.66s CPU    715.24s WALL (    7272 calls)
     fft          :     16.33s CPU     16.77s WALL (    1193 calls)
     ffts         :      0.20s CPU      0.21s WALL (      35 calls)
     fftw         :   1432.35s CPU   1439.47s WALL (  673468 calls)
     interpolate  :      0.46s CPU      0.47s WALL (      18 calls)

     Parallel routines
     fft_scatt_xy :     47.99s CPU     48.49s WALL (  674696 calls)
     fft_scatt_yz :    955.96s CPU    958.59s WALL (  674696 calls)

     PWSCF        :      1h11m CPU      1h11m WALL


   This run was terminated on:  21:40:22  24Jun2022            

=------------------------------------------------------------------------------=
   JOB DONE.
=------------------------------------------------------------------------------=
