
     Program PWSCF v.6.6 starts on 24Jun2022 at 21:40:24 

     This program is part of the open-source Quantum ESPRESSO suite
     for quantum simulation of materials; please cite
         "P. Giannozzi et al., J. Phys.:Condens. Matter 21 395502 (2009);
         "P. Giannozzi et al., J. Phys.:Condens. Matter 29 465901 (2017);
          URL http://www.quantum-espresso.org", 
     in publications or presentations arising from this work. More details at
     http://www.quantum-espresso.org/quote

     Parallel version (MPI), running on    37 processors

     MPI processes distributed on     1 nodes
     R & G space division:  proc/nbgrp/npool/nimage =      37
     Fft bands division:     nmany     =       1
     Reading input from Hf2Y2.in
Warning: card &CELL ignored
Warning: card / ignored

     Current dimensions of program PWSCF are:
     Max number of different atomic species (ntypx) = 10
     Max number of k-points (npk) =  40000
     Max angular momentum in pseudopotentials (lmaxx) =  3
     Presently stress not available with electric field and gates

     Message from routine cell_base_init:
     DEPRECATED: use true lattice parameter, not A to a.u. conversion factor
     file Y.pbe-spn-rrkjus_psl.1.0.0.UPF: wavefunction(s)  4S renormalized

     **************************************************************************
     Initializing libbeef V0.1.2 with the BEEF-vdW functional.
     Citation: Wellendorff et al., PRB 85, 235149 (2012).
     **************************************************************************


     IMPORTANT: XC functional enforced from input :
     Exchange-correlation= BEEF-VDW
                           (   1   4  43  14   2   0   0)
     Any further DFT definition will be discarded
     Please, verify this is what you really want


     Subspace diagonalization in iterative solution of the eigenvalue problem:
     a serial algorithm will be used


     Parallelization info
     --------------------
     sticks:   dense  smooth     PW     G-vecs:    dense   smooth      PW
     Min         164      65     18                39368     9953    1504
     Max         165      66     19                39384     9972    1515
     Sum        6073    2437    699              1456971   368755   55851



     bravais-lattice index     =            0
     lattice parameter (alat)  =       1.8897  a.u.
     unit-cell volume          =    6666.8448 (a.u.)^3
     number of atoms/cell      =           12
     number of atomic types    =            2
     number of electrons       =       138.00
     number of Kohn-Sham states=           83
     kinetic-energy cutoff     =      55.1240  Ry
     charge density cutoff     =     551.2396  Ry
     convergence threshold     =      1.0E-05
     mixing beta               =       0.1000
     number of iterations used =           10  plain     mixing
     Exchange-correlation= BEEF-VDW
                           (   1   4  43  14   2   0   0)

     celldm(1)=   1.889726  celldm(2)=   0.000000  celldm(3)=   0.000000
     celldm(4)=   0.000000  celldm(5)=   0.000000  celldm(6)=   0.000000

     crystal axes: (cart. coord. in units of alat)
               a(1) = (   6.550380   0.000000   0.000000 )  
               a(2) = (  -3.275190   5.924176   0.000000 )  
               a(3) = (   0.000000   0.000000  25.458299 )  

     reciprocal axes: (cart. coord. in units 2 pi/alat)
               b(1) = (  0.152663  0.084400 -0.000000 )  
               b(2) = (  0.000000  0.168800  0.000000 )  
               b(3) = (  0.000000 -0.000000  0.039280 )  


     PseudoPot. # 1 for Hf read from file:
     ../pseudo/Hf.pbe-spn-rrkjus_psl.1.0.0.UPF
     MD5 check sum: 9605440c6f839e558204c6a924125fd0
     Pseudo is Ultrasoft + core correction, Zval = 12.0
     Generated using "atomic" code by A. Dal Corso v.6.2.2
     Using radial grid of 1271 points,  6 beta functions with: 
                l(1) =   0
                l(2) =   0
                l(3) =   1
                l(4) =   1
                l(5) =   2
                l(6) =   2
     Q(r) pseudized with 0 coefficients 


     PseudoPot. # 2 for Y  read from file:
     ../pseudo/Y.pbe-spn-rrkjus_psl.1.0.0.UPF
     MD5 check sum: 5fe32e6a006803c2ec2edff47948a3c8
     Pseudo is Ultrasoft + core correction, Zval = 11.0
     Generated using "atomic" code by A. Dal Corso v.6.2.2
     Using radial grid of 1223 points,  6 beta functions with: 
                l(1) =   0
                l(2) =   0
                l(3) =   1
                l(4) =   1
                l(5) =   2
                l(6) =   2
     Q(r) pseudized with 0 coefficients 


     atomic species   valence    mass     pseudopotential
        Hf            12.00   178.49000     Hf( 1.00)
        Y             11.00    88.90584     Y ( 1.00)

     No symmetry found



   Cartesian axes

     site n.     atom                  positions (alat units)
         1           Hf  tau(   1) = (   0.0000000   0.0000000  10.0000000  )
         2           Hf  tau(   2) = (  -0.0000000   5.9241758  10.0000000  )
         3           Y   tau(   3) = (   1.6375951   2.9620879  10.0000000  )
         4           Y   tau(   4) = (  -1.6375951   2.9620879  10.0000000  )
         5           Hf  tau(   5) = (   3.2751901   1.8106941  12.7291495  )
         6           Hf  tau(   6) = (  -0.0000000   1.8106941  12.7291495  )
         7           Y   tau(   7) = (  -1.6375951   4.7727820  12.7291495  )
         8           Y   tau(   8) = (   1.6375951   4.7727820  12.7291495  )
         9           Hf  tau(   9) = (  -0.0005492   3.5756722  15.2108137  )
        10           Hf  tau(  10) = (   3.2757403   3.5757836  15.2108680  )
        11           Y   tau(  11) = (   4.9128560   0.7375677  15.4977241  )
        12           Y   tau(  12) = (   1.6374921   0.7377543  15.4976744  )

     number of k points=    74  Fermi-Dirac smearing, width (Ry)=  0.0100
                       cart. coord. in units 2pi/alat
        k(    1) = (   0.0000000   0.0000000   0.0000000), wk =   0.0138889
        k(    2) = (   0.0000000   0.0140667   0.0000000), wk =   0.0277778
        k(    3) = (   0.0000000   0.0281333   0.0000000), wk =   0.0277778
        k(    4) = (   0.0000000   0.0422000   0.0000000), wk =   0.0277778
        k(    5) = (   0.0000000   0.0562666   0.0000000), wk =   0.0277778
        k(    6) = (   0.0000000   0.0703333   0.0000000), wk =   0.0277778
        k(    7) = (   0.0000000  -0.0843999   0.0000000), wk =   0.0138889
        k(    8) = (   0.0127219   0.0070333   0.0000000), wk =   0.0277778
        k(    9) = (   0.0127219   0.0211000   0.0000000), wk =   0.0277778
        k(   10) = (   0.0127219   0.0351666   0.0000000), wk =   0.0277778
        k(   11) = (   0.0127219   0.0492333   0.0000000), wk =   0.0277778
        k(   12) = (   0.0127219   0.0632999   0.0000000), wk =   0.0277778
        k(   13) = (   0.0127219   0.0773666   0.0000000), wk =   0.0277778
        k(   14) = (   0.0127219  -0.0773666   0.0000000), wk =   0.0277778
        k(   15) = (   0.0127219  -0.0632999   0.0000000), wk =   0.0277778
        k(   16) = (   0.0127219  -0.0492333   0.0000000), wk =   0.0277778
        k(   17) = (   0.0127219  -0.0351666   0.0000000), wk =   0.0277778
        k(   18) = (   0.0127219  -0.0211000   0.0000000), wk =   0.0277778
        k(   19) = (   0.0127219  -0.0070333   0.0000000), wk =   0.0277778
        k(   20) = (   0.0254438   0.0140667   0.0000000), wk =   0.0277778
        k(   21) = (   0.0254438   0.0281333   0.0000000), wk =   0.0277778
        k(   22) = (   0.0254438   0.0422000   0.0000000), wk =   0.0277778
        k(   23) = (   0.0254438   0.0562666   0.0000000), wk =   0.0277778
        k(   24) = (   0.0254438   0.0703333   0.0000000), wk =   0.0277778
        k(   25) = (   0.0254438   0.0843999   0.0000000), wk =   0.0277778
        k(   26) = (   0.0254438  -0.0703333   0.0000000), wk =   0.0277778
        k(   27) = (   0.0254438  -0.0562666   0.0000000), wk =   0.0277778
        k(   28) = (   0.0254438  -0.0422000   0.0000000), wk =   0.0277778
        k(   29) = (   0.0254438  -0.0281333   0.0000000), wk =   0.0277778
        k(   30) = (   0.0254438  -0.0140667   0.0000000), wk =   0.0277778
        k(   31) = (   0.0254438  -0.0000000   0.0000000), wk =   0.0277778
        k(   32) = (   0.0381657   0.0211000   0.0000000), wk =   0.0277778
        k(   33) = (   0.0381657   0.0351666   0.0000000), wk =   0.0277778
        k(   34) = (   0.0381657   0.0492333   0.0000000), wk =   0.0277778
        k(   35) = (   0.0381657   0.0632999   0.0000000), wk =   0.0277778
        k(   36) = (   0.0381657   0.0773666   0.0000000), wk =   0.0277778
        k(   37) = (   0.0381657   0.0914333   0.0000000), wk =   0.0277778
        k(   38) = (   0.0381657  -0.0632999   0.0000000), wk =   0.0277778
        k(   39) = (   0.0381657  -0.0492333   0.0000000), wk =   0.0277778
        k(   40) = (   0.0381657  -0.0351666   0.0000000), wk =   0.0277778
        k(   41) = (   0.0381657  -0.0211000   0.0000000), wk =   0.0277778
        k(   42) = (   0.0381657  -0.0070333   0.0000000), wk =   0.0277778
        k(   43) = (   0.0381657   0.0070333   0.0000000), wk =   0.0277778
        k(   44) = (   0.0508876   0.0281333   0.0000000), wk =   0.0277778
        k(   45) = (   0.0508876   0.0422000   0.0000000), wk =   0.0277778
        k(   46) = (   0.0508876   0.0562666   0.0000000), wk =   0.0277778
        k(   47) = (   0.0508876   0.0703333   0.0000000), wk =   0.0277778
        k(   48) = (   0.0508876   0.0843999   0.0000000), wk =   0.0277778
        k(   49) = (   0.0508876   0.0984666   0.0000000), wk =   0.0277778
        k(   50) = (   0.0508876  -0.0562666   0.0000000), wk =   0.0277778
        k(   51) = (   0.0508876  -0.0422000   0.0000000), wk =   0.0277778
        k(   52) = (   0.0508876  -0.0281333   0.0000000), wk =   0.0277778
        k(   53) = (   0.0508876  -0.0140667   0.0000000), wk =   0.0277778
        k(   54) = (   0.0508876   0.0000000   0.0000000), wk =   0.0277778
        k(   55) = (   0.0508876   0.0140667   0.0000000), wk =   0.0277778
        k(   56) = (   0.0636095   0.0351666   0.0000000), wk =   0.0277778
        k(   57) = (   0.0636095   0.0492333   0.0000000), wk =   0.0277778
        k(   58) = (   0.0636095   0.0632999   0.0000000), wk =   0.0277778
        k(   59) = (   0.0636095   0.0773666   0.0000000), wk =   0.0277778
        k(   60) = (   0.0636095   0.0914333   0.0000000), wk =   0.0277778
        k(   61) = (   0.0636095   0.1054999   0.0000000), wk =   0.0277778
        k(   62) = (   0.0636095  -0.0492333   0.0000000), wk =   0.0277778
        k(   63) = (   0.0636095  -0.0351666   0.0000000), wk =   0.0277778
        k(   64) = (   0.0636095  -0.0211000   0.0000000), wk =   0.0277778
        k(   65) = (   0.0636095  -0.0070333   0.0000000), wk =   0.0277778
        k(   66) = (   0.0636095   0.0070333   0.0000000), wk =   0.0277778
        k(   67) = (   0.0636095   0.0211000   0.0000000), wk =   0.0277778
        k(   68) = (  -0.0763314  -0.0422000   0.0000000), wk =   0.0138889
        k(   69) = (  -0.0763314  -0.0281333   0.0000000), wk =   0.0277778
        k(   70) = (  -0.0763314  -0.0140667   0.0000000), wk =   0.0277778
        k(   71) = (  -0.0763314   0.0000000   0.0000000), wk =   0.0277778
        k(   72) = (  -0.0763314   0.0140667   0.0000000), wk =   0.0277778
        k(   73) = (  -0.0763314   0.0281333   0.0000000), wk =   0.0277778
        k(   74) = (  -0.0763314  -0.1265999   0.0000000), wk =   0.0138889

     Dense  grid:  1456971 G-vectors     FFT dimensions: (  96,  96, 360)

     Smooth grid:   368755 G-vectors     FFT dimensions: (  60,  64, 240)

     Estimated max dynamical RAM per process >     273.88 MB

     Estimated total dynamical RAM >       9.90 GB

     Initial potential from superposition of free atoms

     starting charge  137.96386, renormalised to  138.00000

     negative rho (up, down):  4.563E-04 0.000E+00


     %%%%%%%%%%%%%%%%%%%%%%%%%%%%%%%%%%%%%%%%%%%%%%%%%%%%%%%%%%%%%%%%%%%%%%%%
     %                                                                      %
     % You are using vdW-DF, which was implemented by the Thonhauser group. %
     % Please cite the following two papers that made this development      %
     % possible and the two reviews that describe the various versions:     %
     %                                                                      %
     %   T. Thonhauser et al., PRL 115, 136402 (2015).                      %
     %   T. Thonhauser et al., PRB 76, 125112 (2007).                       %
     %   K. Berland et al., Rep. Prog. Phys. 78, 066501 (2015).             %
     %   D.C. Langreth et al., J. Phys.: Condens. Matter 21, 084203 (2009). %
     %                                                                      %
     %                                                                      %
     % If you are calculating the stress with vdW-DF, please also cite:     %
     %                                                                      %
     %   R. Sabatini et al., J. Phys.: Condens. Matter 24, 424209 (2012).   %
     %                                                                      %
     %%%%%%%%%%%%%%%%%%%%%%%%%%%%%%%%%%%%%%%%%%%%%%%%%%%%%%%%%%%%%%%%%%%%%%%%



     Adding external electric field

     Computed dipole along edir(3) : 
        Dipole                0.0013 Ry au,          0.0033 Debye
        Dipole field          0.0000 Ry au, 

        Potential amp.       -0.0002 Ry
        Total length         46.9065 bohr

     Starting wfcs are  138 randomized atomic wfcs

     total cpu time spent up to now is      489.3 secs

     Self-consistent Calculation

     iteration #  1     ecut=    55.12 Ry     beta= 0.10
     Davidson diagonalization with overlap
     ethr =  1.00E-02,  avg # of iterations =  2.0

     negative rho (up, down):  3.796E-04 0.000E+00

     Adding external electric field

     Computed dipole along edir(3) : 
        Dipole               -0.3657 Ry au,         -0.9295 Debye
        Dipole field         -0.0007 Ry au, 

        Potential amp.        0.0647 Ry
        Total length         46.9065 bohr


     total cpu time spent up to now is     1512.5 secs

     total energy              =   -1260.83740582 Ry
     estimated scf accuracy    <       6.83120776 Ry

     iteration #  2     ecut=    55.12 Ry     beta= 0.10
     Davidson diagonalization with overlap
     ethr =  4.95E-03,  avg # of iterations =  3.3

     negative rho (up, down):  3.235E-04 0.000E+00

     Adding external electric field

     Computed dipole along edir(3) : 
        Dipole                1.1498 Ry au,          2.9226 Debye
        Dipole field          0.0022 Ry au, 

        Potential amp.       -0.2033 Ry
        Total length         46.9065 bohr


     total cpu time spent up to now is     1740.2 secs

     total energy              =   -1260.94714327 Ry
     estimated scf accuracy    <       8.46660861 Ry

     iteration #  3     ecut=    55.12 Ry     beta= 0.10
     Davidson diagonalization with overlap
     ethr =  4.95E-03,  avg # of iterations =  3.0

     negative rho (up, down):  2.763E-04 0.000E+00

     Adding external electric field

     Computed dipole along edir(3) : 
        Dipole                0.0909 Ry au,          0.2309 Debye
        Dipole field          0.0002 Ry au, 

        Potential amp.       -0.0161 Ry
        Total length         46.9065 bohr


     total cpu time spent up to now is     2603.8 secs

     total energy              =   -1261.02160577 Ry
     estimated scf accuracy    <      44.52077044 Ry

     iteration #  4     ecut=    55.12 Ry     beta= 0.10
     Davidson diagonalization with overlap
     ethr =  4.95E-03,  avg # of iterations =  1.0

     negative rho (up, down):  2.399E-04 0.000E+00

     Adding external electric field

     Computed dipole along edir(3) : 
        Dipole               -0.0967 Ry au,         -0.2457 Debye
        Dipole field         -0.0002 Ry au, 

        Potential amp.        0.0171 Ry
        Total length         46.9065 bohr


     total cpu time spent up to now is     3254.3 secs

     total energy              =   -1261.45022238 Ry
     estimated scf accuracy    <       0.59837173 Ry

     iteration #  5     ecut=    55.12 Ry     beta= 0.10
     Davidson diagonalization with overlap
     ethr =  4.34E-04,  avg # of iterations =  6.2

     negative rho (up, down):  2.016E-04 0.000E+00

     Adding external electric field

     Computed dipole along edir(3) : 
        Dipole                0.1332 Ry au,          0.3385 Debye
        Dipole field          0.0003 Ry au, 

        Potential amp.       -0.0235 Ry
        Total length         46.9065 bohr


     total cpu time spent up to now is     3540.6 secs

     total energy              =   -1261.46192245 Ry
     estimated scf accuracy    <       0.96865252 Ry

     iteration #  6     ecut=    55.12 Ry     beta= 0.10
     Davidson diagonalization with overlap
     ethr =  4.34E-04,  avg # of iterations =  1.3

     negative rho (up, down):  1.788E-04 0.000E+00

     Adding external electric field

     Computed dipole along edir(3) : 
        Dipole                0.0837 Ry au,          0.2129 Debye
        Dipole field          0.0002 Ry au, 

        Potential amp.       -0.0148 Ry
        Total length         46.9065 bohr


     total cpu time spent up to now is     3769.7 secs

     total energy              =   -1261.48414533 Ry
     estimated scf accuracy    <       0.18745114 Ry

     iteration #  7     ecut=    55.12 Ry     beta= 0.10
     Davidson diagonalization with overlap
     ethr =  1.36E-04,  avg # of iterations =  3.5

     negative rho (up, down):  1.673E-04 0.000E+00

     Adding external electric field

     Computed dipole along edir(3) : 
        Dipole                0.0570 Ry au,          0.1449 Debye
        Dipole field          0.0001 Ry au, 

        Potential amp.       -0.0101 Ry
        Total length         46.9065 bohr


     total cpu time spent up to now is     4003.6 secs

     total energy              =   -1261.48847668 Ry
     estimated scf accuracy    <       0.03652802 Ry

     iteration #  8     ecut=    55.12 Ry     beta= 0.10
     Davidson diagonalization with overlap
     c_bands:  1 eigenvalues not converged
     c_bands:  1 eigenvalues not converged
     ethr =  2.65E-05,  avg # of iterations =  9.7

     negative rho (up, down):  1.704E-04 0.000E+00

     Adding external electric field

     Computed dipole along edir(3) : 
        Dipole                0.0767 Ry au,          0.1949 Debye
        Dipole field          0.0001 Ry au, 

        Potential amp.       -0.0136 Ry
        Total length         46.9065 bohr


     total cpu time spent up to now is     4343.2 secs

     total energy              =   -1261.49223033 Ry
     estimated scf accuracy    <       0.01229614 Ry

     iteration #  9     ecut=    55.12 Ry     beta= 0.10
     Davidson diagonalization with overlap
     ethr =  8.91E-06,  avg # of iterations =  3.5

     negative rho (up, down):  1.761E-04 0.000E+00

     Adding external electric field

     Computed dipole along edir(3) : 
        Dipole                0.0239 Ry au,          0.0608 Debye
        Dipole field          0.0000 Ry au, 

        Potential amp.       -0.0042 Ry
        Total length         46.9065 bohr


     total cpu time spent up to now is     4573.5 secs

     total energy              =   -1261.49341540 Ry
     estimated scf accuracy    <       0.04511709 Ry

     iteration # 10     ecut=    55.12 Ry     beta= 0.10
     Davidson diagonalization with overlap
     ethr =  8.91E-06,  avg # of iterations =  2.2

     negative rho (up, down):  1.705E-04 0.000E+00

     Adding external electric field

     Computed dipole along edir(3) : 
        Dipole                0.0377 Ry au,          0.0959 Debye
        Dipole field          0.0001 Ry au, 

        Potential amp.       -0.0067 Ry
        Total length         46.9065 bohr


     total cpu time spent up to now is     4788.4 secs

     total energy              =   -1261.49436344 Ry
     estimated scf accuracy    <       0.00822773 Ry

     iteration # 11     ecut=    55.12 Ry     beta= 0.10
     Davidson diagonalization with overlap
     ethr =  5.96E-06,  avg # of iterations =  2.3

     negative rho (up, down):  1.661E-04 0.000E+00

     Adding external electric field

     Computed dipole along edir(3) : 
        Dipole                0.0565 Ry au,          0.1436 Debye
        Dipole field          0.0001 Ry au, 

        Potential amp.       -0.0100 Ry
        Total length         46.9065 bohr


     total cpu time spent up to now is     5185.4 secs

     total energy              =   -1261.49454108 Ry
     estimated scf accuracy    <       0.00796449 Ry

     iteration # 12     ecut=    55.12 Ry     beta= 0.10
     Davidson diagonalization with overlap
     ethr =  5.77E-06,  avg # of iterations =  1.0

     negative rho (up, down):  1.643E-04 0.000E+00

     Adding external electric field

     Computed dipole along edir(3) : 
        Dipole                0.0406 Ry au,          0.1032 Debye
        Dipole field          0.0001 Ry au, 

        Potential amp.       -0.0072 Ry
        Total length         46.9065 bohr


     total cpu time spent up to now is     5360.9 secs

     total energy              =   -1261.49455516 Ry
     estimated scf accuracy    <       0.00121321 Ry

     iteration # 13     ecut=    55.12 Ry     beta= 0.10
     Davidson diagonalization with overlap
     ethr =  8.79E-07,  avg # of iterations =  4.5

     negative rho (up, down):  1.602E-04 0.000E+00

     Adding external electric field

     Computed dipole along edir(3) : 
        Dipole                0.0417 Ry au,          0.1060 Debye
        Dipole field          0.0001 Ry au, 

        Potential amp.       -0.0074 Ry
        Total length         46.9065 bohr


     total cpu time spent up to now is     5697.0 secs

     total energy              =   -1261.49465777 Ry
     estimated scf accuracy    <       0.00048817 Ry

     iteration # 14     ecut=    55.12 Ry     beta= 0.10
     Davidson diagonalization with overlap
     ethr =  3.54E-07,  avg # of iterations =  4.8

     negative rho (up, down):  1.561E-04 0.000E+00

     Adding external electric field

     Computed dipole along edir(3) : 
        Dipole                0.0423 Ry au,          0.1075 Debye
        Dipole field          0.0001 Ry au, 

        Potential amp.       -0.0075 Ry
        Total length         46.9065 bohr


     total cpu time spent up to now is     5908.1 secs

     total energy              =   -1261.49469514 Ry
     estimated scf accuracy    <       0.00012339 Ry

     iteration # 15     ecut=    55.12 Ry     beta= 0.10
     Davidson diagonalization with overlap
     ethr =  8.94E-08,  avg # of iterations =  5.2

     negative rho (up, down):  1.515E-04 0.000E+00

     Adding external electric field

     Computed dipole along edir(3) : 
        Dipole                0.0420 Ry au,          0.1068 Debye
        Dipole field          0.0001 Ry au, 

        Potential amp.       -0.0074 Ry
        Total length         46.9065 bohr


     total cpu time spent up to now is     6159.0 secs

     total energy              =   -1261.49471250 Ry
     estimated scf accuracy    <       0.00003041 Ry

     iteration # 16     ecut=    55.12 Ry     beta= 0.10
     Davidson diagonalization with overlap
     ethr =  2.20E-08,  avg # of iterations =  4.3

     negative rho (up, down):  1.476E-04 0.000E+00

     Adding external electric field

     Computed dipole along edir(3) : 
        Dipole                0.0416 Ry au,          0.1056 Debye
        Dipole field          0.0001 Ry au, 

        Potential amp.       -0.0073 Ry
        Total length         46.9065 bohr


     total cpu time spent up to now is     6718.0 secs

     total energy              =   -1261.49471694 Ry
     estimated scf accuracy    <       0.00001554 Ry

     iteration # 17     ecut=    55.12 Ry     beta= 0.10
     Davidson diagonalization with overlap
     ethr =  1.13E-08,  avg # of iterations =  4.9

     negative rho (up, down):  1.442E-04 0.000E+00

     Adding external electric field

     Computed dipole along edir(3) : 
        Dipole                0.0414 Ry au,          0.1051 Debye
        Dipole field          0.0001 Ry au, 

        Potential amp.       -0.0073 Ry
        Total length         46.9065 bohr


     total cpu time spent up to now is     6968.8 secs

     total energy              =   -1261.49472037 Ry
     estimated scf accuracy    <       0.00001068 Ry

     iteration # 18     ecut=    55.12 Ry     beta= 0.10
     Davidson diagonalization with overlap
     ethr =  7.74E-09,  avg # of iterations =  2.3

     negative rho (up, down):  1.175E-04 0.000E+00

     Adding external electric field

     Computed dipole along edir(3) : 
        Dipole                0.0373 Ry au,          0.0947 Debye
        Dipole field          0.0001 Ry au, 

        Potential amp.       -0.0066 Ry
        Total length         46.9065 bohr


     total cpu time spent up to now is     7205.5 secs

     End of self-consistent calculation

          k = 0.0000 0.0000 0.0000 ( 46109 PWs)   bands (ev):

   -61.6889 -61.6770 -61.4283 -61.4161 -61.1456 -61.1335 -41.7220 -41.6760
   -41.6598 -41.6137 -40.9811 -40.9173 -30.2017 -30.2014 -30.1723 -30.1310
   -30.0993 -30.0029 -29.9702 -29.9388 -29.9184 -29.9126 -29.8804 -29.7378
   -29.7135 -29.6366 -29.6037 -29.5205 -29.4928 -29.4496 -21.9948 -21.9549
   -21.7508 -21.7011 -21.6726 -21.6236 -21.6174 -21.5662 -21.5443 -21.4921
   -21.3546 -21.3131 -21.3047 -20.9646 -20.9151 -20.8906 -20.8383 -20.6478
    -4.1848  -3.0668  -1.9984  -1.4905  -0.9837  -0.9014  -0.8516  -0.7904
    -0.7327  -0.6488  -0.4776  -0.2684  -0.0182   0.0871   0.1324   0.6445
     0.7024   0.7633   1.2490   1.3794   1.6597   1.8140   1.8250   1.8798
     1.9651   2.0340   2.0392   2.2148   2.3708   2.4730   2.4913   2.7239
     2.7558   2.8260   2.9073

          k = 0.0000 0.0141 0.0000 ( 46095 PWs)   bands (ev):

   -61.6889 -61.6770 -61.4283 -61.4161 -61.1456 -61.1335 -41.7220 -41.6760
   -41.6598 -41.6137 -40.9811 -40.9173 -30.2016 -30.2013 -30.1723 -30.1308
   -30.0992 -30.0028 -29.9701 -29.9388 -29.9184 -29.9124 -29.8803 -29.7377
   -29.7135 -29.6364 -29.6037 -29.5205 -29.4928 -29.4496 -21.9952 -21.9553
   -21.7515 -21.7008 -21.6729 -21.6235 -21.6185 -21.5672 -21.5447 -21.4924
   -21.3547 -21.3131 -21.3051 -20.9645 -20.9160 -20.8906 -20.8387 -20.6479
    -4.1429  -3.0288  -1.9701  -1.4632  -0.9619  -0.9187  -0.8833  -0.7663
    -0.6763  -0.6250  -0.4381  -0.2320   0.0080   0.1143   0.1524   0.6488
     0.7118   0.7708   1.2403   1.3757   1.6085   1.7998   1.8220   1.8618
     1.9260   1.9811   1.9973   2.1685   2.3090   2.4540   2.4612   2.6558
     2.7474   2.7616   2.7923

          k = 0.0000 0.0281 0.0000 ( 46075 PWs)   bands (ev):

   -61.6889 -61.6770 -61.4283 -61.4161 -61.1456 -61.1335 -41.7220 -41.6761
   -41.6598 -41.6137 -40.9812 -40.9173 -30.2013 -30.2013 -30.1722 -30.1300
   -30.0990 -30.0025 -29.9700 -29.9387 -29.9184 -29.9118 -29.8801 -29.7375
   -29.7134 -29.6359 -29.6036 -29.5204 -29.4927 -29.4496 -21.9963 -21.9564
   -21.7531 -21.7002 -21.6735 -21.6233 -21.6214 -21.5698 -21.5459 -21.4934
   -21.3548 -21.3133 -21.3063 -20.9643 -20.9185 -20.8905 -20.8398 -20.6480
    -4.0196  -2.9201  -1.9015  -1.3852  -1.0262  -0.8914  -0.8883  -0.6971
    -0.5559  -0.5181  -0.3519  -0.1271   0.0852   0.1947   0.2110   0.6604
     0.7363   0.7927   1.2071   1.3558   1.5161   1.7137   1.7182   1.7601
     1.8320   1.8910   1.9291   2.0754   2.1663   2.3331   2.3772   2.5308
     2.5617   2.6695   2.7313

          k = 0.0000 0.0422 0.0000 ( 46050 PWs)   bands (ev):

   -61.6889 -61.6770 -61.4283 -61.4161 -61.1456 -61.1335 -41.7221 -41.6761
   -41.6598 -41.6137 -40.9812 -40.9173 -30.2012 -30.2009 -30.1722 -30.1290
   -30.0987 -30.0022 -29.9697 -29.9386 -29.9183 -29.9110 -29.8798 -29.7372
   -29.7134 -29.6352 -29.6036 -29.5202 -29.4927 -29.4496 -21.9978 -21.9580
   -21.7552 -21.6993 -21.6743 -21.6253 -21.6229 -21.5733 -21.5474 -21.4948
   -21.3550 -21.3135 -21.3078 -20.9640 -20.9219 -20.8904 -20.8413 -20.6482
    -3.8222  -2.7606  -1.8533  -1.2695  -1.1343  -0.8895  -0.7714  -0.5934
    -0.4511  -0.2791  -0.2590   0.0339   0.2089   0.3039   0.3220   0.6781
     0.7646   0.8246   1.1423   1.3019   1.4307   1.4816   1.5574   1.6103
     1.6808   1.7223   1.8771   1.9081   2.0860   2.1167   2.2642   2.3679
     2.4007   2.4404   2.6999

          k = 0.0000 0.0563 0.0000 ( 46140 PWs)   bands (ev):

   -61.6889 -61.6770 -61.4283 -61.4161 -61.1456 -61.1335 -41.7221 -41.6762
   -41.6598 -41.6137 -40.9813 -40.9173 -30.2011 -30.2006 -30.1722 -30.1281
   -30.0985 -30.0018 -29.9695 -29.9386 -29.9183 -29.9102 -29.8795 -29.7369
   -29.7134 -29.6345 -29.6035 -29.5201 -29.4927 -29.4496 -21.9993 -21.9596
   -21.7574 -21.6985 -21.6752 -21.6292 -21.6226 -21.5768 -21.5490 -21.4962
   -21.3552 -21.3137 -21.3093 -20.9638 -20.9253 -20.8903 -20.8427 -20.6484
    -3.5649  -2.6117  -1.8893  -1.2014  -1.1399  -0.8486  -0.6187  -0.4729
    -0.3334  -0.1945   0.0114   0.2282   0.3684   0.4238   0.4750   0.7152
     0.7802   0.8521   1.0527   1.2210   1.2428   1.3398   1.3552   1.4590
     1.5078   1.5391   1.6973   1.7637   1.8507   2.0066   2.1399   2.1720
     2.1793   2.3586   2.4082

          k = 0.0000 0.0703 0.0000 ( 46140 PWs)   bands (ev):

   -61.6889 -61.6770 -61.4282 -61.4161 -61.1456 -61.1335 -41.7222 -41.6762
   -41.6598 -41.6138 -40.9814 -40.9173 -30.2010 -30.2003 -30.1722 -30.1274
   -30.0982 -30.0015 -29.9693 -29.9385 -29.9183 -29.9096 -29.8793 -29.7366
   -29.7134 -29.6341 -29.6034 -29.5199 -29.4927 -29.4496 -22.0004 -21.9607
   -21.7589 -21.6980 -21.6758 -21.6320 -21.6224 -21.5793 -21.5502 -21.4972
   -21.3553 -21.3138 -21.3104 -20.9637 -20.9276 -20.8902 -20.8438 -20.6486
    -3.2770  -2.6227  -1.8764  -1.3221  -1.0328  -0.6976  -0.4749  -0.3643
    -0.2433  -0.2045   0.2769   0.4183   0.5544   0.5563   0.5923   0.7700
     0.8106   0.8416   0.9721   1.0701   1.1465   1.1651   1.2418   1.2872
     1.3684   1.4516   1.5210   1.5553   1.6921   1.9094   1.9404   1.9534
     2.0256   2.2952   2.3906

          k = 0.0000-0.0844 0.0000 ( 46140 PWs)   bands (ev):

   -61.6889 -61.6770 -61.4282 -61.4161 -61.1456 -61.1335 -41.7222 -41.6763
   -41.6598 -41.6138 -40.9814 -40.9173 -30.2010 -30.2002 -30.1722 -30.1271
   -30.0982 -30.0014 -29.9693 -29.9385 -29.9183 -29.9094 -29.8792 -29.7365
   -29.7134 -29.6339 -29.6034 -29.5199 -29.4927 -29.4496 -22.0008 -21.9611
   -21.7595 -21.6978 -21.6760 -21.6331 -21.6223 -21.5802 -21.5506 -21.4976
   -21.3554 -21.3139 -21.3108 -20.9637 -20.9285 -20.8902 -20.8442 -20.6486
    -3.0855  -2.7435  -1.7966  -1.4265  -0.9901  -0.5772  -0.4113  -0.3153
    -0.2579  -0.2138   0.3755   0.5258   0.6145   0.6424   0.6953   0.7648
     0.8003   0.9129   0.9449   0.9872   1.0591   1.1123   1.1731   1.1944
     1.3388   1.3819   1.4473   1.4938   1.6115   1.8310   1.8680   1.8702
     1.9785   2.2587   2.4113

          k = 0.0127 0.0070 0.0000 ( 46105 PWs)   bands (ev):

   -61.6887 -61.6772 -61.4280 -61.4163 -61.1454 -61.1337 -41.7209 -41.6750
   -41.6608 -41.6148 -40.9800 -40.9184 -30.2009 -30.1969 -30.1728 -30.1304
   -30.0997 -29.9981 -29.9697 -29.9394 -29.9233 -29.9120 -29.8809 -29.7330
   -29.7185 -29.6359 -29.6042 -29.5200 -29.4932 -29.4546 -21.9845 -21.9446
   -21.7497 -21.6997 -21.6742 -21.6249 -21.6166 -21.5653 -21.5459 -21.4937
   -21.3663 -21.3248 -21.2943 -20.9633 -20.9141 -20.8919 -20.8400 -20.6598
    -4.1385  -3.0216  -1.9543  -1.5018  -0.9778  -0.8680  -0.8421  -0.8284
    -0.7106  -0.5766  -0.4252  -0.2393   0.0052   0.1120   0.1581   0.6505
     0.7205   0.7723   1.2484   1.3838   1.6462   1.7322   1.8104   1.8650
     1.9287   1.9928   2.0580   2.1955   2.3513   2.4550   2.4795   2.7074
     2.7417   2.7707   2.7940

          k = 0.0127 0.0211 0.0000 ( 46060 PWs)   bands (ev):

   -61.6887 -61.6772 -61.4280 -61.4163 -61.1454 -61.1337 -41.7209 -41.6750
   -41.6609 -41.6148 -40.9801 -40.9184 -30.2008 -30.1967 -30.1728 -30.1299
   -30.0996 -29.9979 -29.9695 -29.9393 -29.9233 -29.9116 -29.8807 -29.7329
   -29.7185 -29.6356 -29.6042 -29.5199 -29.4932 -29.4546 -21.9853 -21.9454
   -21.7509 -21.6992 -21.6746 -21.6247 -21.6185 -21.5671 -21.5467 -21.4943
   -21.3664 -21.3249 -21.2950 -20.9631 -20.9159 -20.8918 -20.8407 -20.6599
    -4.0558  -2.9473  -1.9021  -1.4608  -0.9539  -0.9323  -0.8514  -0.7498
    -0.6406  -0.5095  -0.3570  -0.1678   0.0570   0.1653   0.1972   0.6593
     0.7387   0.7861   1.2277   1.3727   1.5595   1.6604   1.7903   1.8468
     1.8667   1.9193   1.9659   2.1164   2.2286   2.3935   2.4170   2.5836
     2.5876   2.7366   2.7632

          k = 0.0127 0.0352 0.0000 ( 46079 PWs)   bands (ev):

   -61.6887 -61.6772 -61.4280 -61.4163 -61.1454 -61.1337 -41.7210 -41.6750
   -41.6609 -41.6148 -40.9801 -40.9184 -30.2007 -30.1964 -30.1727 -30.1290
   -30.0994 -29.9976 -29.9693 -29.9392 -29.9233 -29.9109 -29.8805 -29.7326
   -29.7185 -29.6350 -29.6041 -29.5198 -29.4932 -29.4546 -21.9867 -21.9468
   -21.7528 -21.6984 -21.6753 -21.6244 -21.6220 -21.5702 -21.5480 -21.4955
   -21.3665 -21.3250 -21.2964 -20.9629 -20.9189 -20.8917 -20.8419 -20.6601
    -3.8950  -2.8100  -1.8337  -1.3869  -1.0520  -0.8794  -0.8534  -0.6204
    -0.5092  -0.3628  -0.2637  -0.0331   0.1580   0.2686   0.2727   0.6740
     0.7684   0.8117   1.1769   1.3343   1.4652   1.5154   1.6680   1.7075
     1.7435   1.7759   1.9041   2.0006   2.0990   2.2163   2.3187   2.3911
     2.4490   2.5495   2.6949

          k = 0.0127 0.0492 0.0000 ( 46074 PWs)   bands (ev):

   -61.6887 -61.6772 -61.4280 -61.4163 -61.1454 -61.1337 -41.7210 -41.6751
   -41.6609 -41.6148 -40.9802 -40.9184 -30.2006 -30.1961 -30.1727 -30.1280
   -30.0991 -29.9972 -29.9691 -29.9391 -29.9233 -29.9101 -29.8802 -29.7322
   -29.7185 -29.6343 -29.6041 -29.5197 -29.4932 -29.4546 -21.9882 -21.9484
   -21.7550 -21.6976 -21.6761 -21.6259 -21.6241 -21.5737 -21.5495 -21.4968
   -21.3667 -21.3252 -21.2979 -20.9626 -20.9223 -20.8916 -20.8434 -20.6602
    -3.6663  -2.6440  -1.8297  -1.2958  -1.1336  -0.8462  -0.7591  -0.4747
    -0.3575  -0.1794  -0.1296   0.1457   0.3009   0.3786   0.4104   0.6947
     0.7975   0.8408   1.0969   1.2598   1.3233   1.3746   1.4865   1.5091
     1.5774   1.5909   1.7816   1.8296   1.9908   2.0394   2.1922   2.2005
     2.2806   2.3682   2.5235

          k = 0.0127 0.0633 0.0000 ( 46152 PWs)   bands (ev):

   -61.6887 -61.6772 -61.4280 -61.4163 -61.1454 -61.1337 -41.7211 -41.6752
   -41.6609 -41.6148 -40.9803 -40.9184 -30.2005 -30.1957 -30.1727 -30.1272
   -30.0989 -29.9969 -29.9689 -29.9391 -29.9233 -29.9094 -29.8800 -29.7319
   -29.7184 -29.6337 -29.6040 -29.5195 -29.4932 -29.4546 -21.9895 -21.9498
   -21.7568 -21.6969 -21.6768 -21.6293 -21.6238 -21.5768 -21.5509 -21.4980
   -21.3668 -21.3254 -21.2993 -20.9625 -20.9251 -20.8915 -20.8446 -20.6604
    -3.3892  -2.5547  -1.8701  -1.2175  -1.2106  -0.7494  -0.6208  -0.3277
    -0.2230  -0.1475   0.1455   0.3357   0.4659   0.5047   0.5579   0.7239
     0.8287   0.8506   1.0041   1.1436   1.1763   1.2643   1.2724   1.3449
     1.3928   1.4702   1.5984   1.7050   1.7525   1.9372   1.9903   2.0424
     2.0565   2.3267   2.3889

          k = 0.0127 0.0774 0.0000 ( 46129 PWs)   bands (ev):

   -61.6887 -61.6772 -61.4280 -61.4163 -61.1454 -61.1337 -41.7211 -41.6752
   -41.6609 -41.6148 -40.9803 -40.9184 -30.2005 -30.1956 -30.1727 -30.1267
   -30.0987 -29.9967 -29.9688 -29.9390 -29.9232 -29.9090 -29.8798 -29.7318
   -29.7184 -29.6334 -29.6040 -29.5194 -29.4932 -29.4546 -21.9903 -21.9506
   -21.7578 -21.6966 -21.6772 -21.6313 -21.6237 -21.5785 -21.5516 -21.4987
   -21.3669 -21.3255 -21.3000 -20.9625 -20.9267 -20.8915 -20.8453 -20.6605
    -3.1167  -2.6639  -1.7934  -1.3596  -1.1580  -0.5767  -0.5186  -0.2201
    -0.2020  -0.1503   0.3554   0.4824   0.6056   0.6257   0.6712   0.7142
     0.8194   0.9069   0.9435   1.0312   1.1057   1.1105   1.1625   1.1910
     1.3411   1.4316   1.4930   1.4937   1.6477   1.8135   1.8596   1.8969
     1.9665   2.2247   2.4258

          k = 0.0127-0.0774 0.0000 ( 46129 PWs)   bands (ev):

   -61.6887 -61.6772 -61.4280 -61.4163 -61.1454 -61.1337 -41.7211 -41.6752
   -41.6609 -41.6148 -40.9803 -40.9184 -30.2005 -30.1956 -30.1727 -30.1267
   -30.0987 -29.9967 -29.9688 -29.9390 -29.9232 -29.9090 -29.8798 -29.7318
   -29.7184 -29.6334 -29.6040 -29.5194 -29.4932 -29.4546 -21.9903 -21.9506
   -21.7578 -21.6966 -21.6772 -21.6313 -21.6237 -21.5785 -21.5516 -21.4987
   -21.3669 -21.3255 -21.3000 -20.9625 -20.9267 -20.8915 -20.8453 -20.6605
    -3.1167  -2.6639  -1.7934  -1.3596  -1.1580  -0.5767  -0.5186  -0.2201
    -0.2020  -0.1503   0.3554   0.4824   0.6056   0.6257   0.6712   0.7141
     0.8194   0.9069   0.9435   1.0312   1.1056   1.1105   1.1625   1.1910
     1.3411   1.4316   1.4930   1.4937   1.6477   1.8135   1.8596   1.8969
     1.9665   2.2247   2.4257

          k = 0.0127-0.0633 0.0000 ( 46152 PWs)   bands (ev):

   -61.6887 -61.6772 -61.4280 -61.4163 -61.1454 -61.1337 -41.7211 -41.6752
   -41.6609 -41.6148 -40.9803 -40.9184 -30.2005 -30.1957 -30.1727 -30.1272
   -30.0989 -29.9969 -29.9689 -29.9391 -29.9233 -29.9094 -29.8800 -29.7319
   -29.7184 -29.6337 -29.6040 -29.5195 -29.4932 -29.4546 -21.9895 -21.9498
   -21.7568 -21.6969 -21.6768 -21.6293 -21.6238 -21.5768 -21.5509 -21.4980
   -21.3668 -21.3254 -21.2993 -20.9625 -20.9251 -20.8915 -20.8446 -20.6604
    -3.3892  -2.5547  -1.8701  -1.2175  -1.2106  -0.7494  -0.6208  -0.3277
    -0.2230  -0.1475   0.1455   0.3357   0.4659   0.5047   0.5579   0.7239
     0.8287   0.8506   1.0041   1.1436   1.1763   1.2643   1.2724   1.3449
     1.3928   1.4702   1.5984   1.7050   1.7525   1.9372   1.9902   2.0424
     2.0565   2.3267   2.3890

          k = 0.0127-0.0492 0.0000 ( 46074 PWs)   bands (ev):

   -61.6887 -61.6772 -61.4280 -61.4163 -61.1454 -61.1337 -41.7210 -41.6751
   -41.6609 -41.6148 -40.9802 -40.9184 -30.2006 -30.1961 -30.1727 -30.1280
   -30.0991 -29.9972 -29.9691 -29.9391 -29.9233 -29.9101 -29.8802 -29.7322
   -29.7185 -29.6343 -29.6041 -29.5197 -29.4932 -29.4546 -21.9882 -21.9484
   -21.7550 -21.6976 -21.6761 -21.6259 -21.6241 -21.5737 -21.5495 -21.4968
   -21.3667 -21.3252 -21.2979 -20.9626 -20.9223 -20.8916 -20.8434 -20.6602
    -3.6663  -2.6440  -1.8297  -1.2958  -1.1336  -0.8462  -0.7591  -0.4747
    -0.3575  -0.1794  -0.1296   0.1457   0.3009   0.3786   0.4104   0.6947
     0.7975   0.8408   1.0969   1.2598   1.3233   1.3746   1.4865   1.5091
     1.5774   1.5909   1.7816   1.8296   1.9908   2.0395   2.1923   2.2005
     2.2806   2.3682   2.5235

          k = 0.0127-0.0352 0.0000 ( 46079 PWs)   bands (ev):

   -61.6887 -61.6772 -61.4280 -61.4163 -61.1454 -61.1337 -41.7210 -41.6750
   -41.6609 -41.6148 -40.9801 -40.9184 -30.2007 -30.1964 -30.1727 -30.1290
   -30.0994 -29.9976 -29.9693 -29.9392 -29.9233 -29.9109 -29.8805 -29.7326
   -29.7185 -29.6350 -29.6041 -29.5198 -29.4932 -29.4546 -21.9867 -21.9468
   -21.7528 -21.6984 -21.6753 -21.6244 -21.6220 -21.5702 -21.5480 -21.4955
   -21.3665 -21.3250 -21.2964 -20.9629 -20.9189 -20.8917 -20.8419 -20.6601
    -3.8950  -2.8100  -1.8337  -1.3869  -1.0520  -0.8794  -0.8534  -0.6204
    -0.5092  -0.3628  -0.2637  -0.0331   0.1580   0.2686   0.2727   0.6740
     0.7684   0.8117   1.1769   1.3343   1.4652   1.5154   1.6680   1.7075
     1.7435   1.7759   1.9041   2.0006   2.0990   2.2163   2.3188   2.3911
     2.4490   2.5492   2.6926

          k = 0.0127-0.0211 0.0000 ( 46060 PWs)   bands (ev):

   -61.6887 -61.6772 -61.4280 -61.4163 -61.1454 -61.1337 -41.7209 -41.6750
   -41.6609 -41.6148 -40.9801 -40.9184 -30.2008 -30.1967 -30.1728 -30.1299
   -30.0996 -29.9979 -29.9695 -29.9393 -29.9233 -29.9116 -29.8807 -29.7329
   -29.7185 -29.6356 -29.6042 -29.5199 -29.4932 -29.4546 -21.9853 -21.9454
   -21.7509 -21.6992 -21.6746 -21.6247 -21.6185 -21.5671 -21.5467 -21.4943
   -21.3664 -21.3249 -21.2950 -20.9631 -20.9159 -20.8918 -20.8407 -20.6599
    -4.0558  -2.9473  -1.9021  -1.4608  -0.9539  -0.9323  -0.8514  -0.7498
    -0.6406  -0.5095  -0.3570  -0.1678   0.0570   0.1653   0.1972   0.6593
     0.7387   0.7861   1.2277   1.3727   1.5595   1.6604   1.7903   1.8468
     1.8667   1.9194   1.9659   2.1164   2.2286   2.3935   2.4170   2.5836
     2.5876   2.7366   2.7631

          k = 0.0127-0.0070 0.0000 ( 46105 PWs)   bands (ev):

   -61.6887 -61.6772 -61.4280 -61.4163 -61.1454 -61.1337 -41.7209 -41.6750
   -41.6608 -41.6148 -40.9800 -40.9184 -30.2009 -30.1969 -30.1728 -30.1304
   -30.0997 -29.9981 -29.9697 -29.9394 -29.9233 -29.9120 -29.8809 -29.7330
   -29.7185 -29.6359 -29.6042 -29.5200 -29.4932 -29.4546 -21.9845 -21.9446
   -21.7497 -21.6997 -21.6742 -21.6249 -21.6166 -21.5653 -21.5459 -21.4937
   -21.3663 -21.3248 -21.2943 -20.9633 -20.9141 -20.8919 -20.8400 -20.6598
    -4.1385  -3.0216  -1.9543  -1.5018  -0.9778  -0.8680  -0.8421  -0.8284
    -0.7106  -0.5766  -0.4252  -0.2393   0.0052   0.1120   0.1581   0.6505
     0.7205   0.7723   1.2484   1.3838   1.6462   1.7322   1.8104   1.8650
     1.9286   1.9928   2.0580   2.1955   2.3512   2.4549   2.4796   2.7071
     2.7416   2.7705   2.7940

          k = 0.0254 0.0141 0.0000 ( 46058 PWs)   bands (ev):

   -61.6881 -61.6778 -61.4274 -61.4169 -61.1448 -61.1343 -41.7178 -41.6719
   -41.6640 -41.6179 -40.9769 -40.9216 -30.1994 -30.1830 -30.1742 -30.1286
   -30.1011 -29.9839 -29.9680 -29.9409 -29.9377 -29.9102 -29.8823 -29.7332
   -29.7189 -29.6342 -29.6057 -29.5186 -29.4946 -29.4693 -21.9545 -21.9145
   -21.7464 -21.6956 -21.6786 -21.6286 -21.6139 -21.5625 -21.5506 -21.4983
   -21.4003 -21.3589 -21.2634 -20.9595 -20.9112 -20.8955 -20.8447 -20.6948
    -4.0017  -2.8887  -1.8253  -1.5584  -1.0172  -0.8558  -0.7879  -0.7413
    -0.6522  -0.4407  -0.2768  -0.1530   0.0737   0.1850   0.2339   0.6711
     0.7697   0.7961   1.2409   1.3892   1.5702   1.5955   1.7655   1.7708
     1.8489   1.8834   2.0595   2.1269   2.2354   2.4067   2.4585   2.5320
     2.6115   2.6669   2.8030

          k = 0.0254 0.0281 0.0000 ( 46076 PWs)   bands (ev):

   -61.6881 -61.6778 -61.4274 -61.4169 -61.1448 -61.1343 -41.7179 -41.6719
   -41.6640 -41.6179 -40.9769 -40.9216 -30.1993 -30.1828 -30.1742 -30.1279
   -30.1010 -29.9836 -29.9679 -29.9408 -29.9377 -29.9096 -29.8821 -29.7332
   -29.7187 -29.6337 -29.6057 -29.5185 -29.4946 -29.4693 -21.9555 -21.9156
   -21.7479 -21.6950 -21.6791 -21.6284 -21.6165 -21.5649 -21.5515 -21.4991
   -21.4004 -21.3590 -21.2645 -20.9593 -20.9135 -20.8954 -20.8456 -20.6949
    -3.8810  -2.7826  -1.7603  -1.5509  -0.9981  -0.8947  -0.7472  -0.6883
    -0.5527  -0.3456  -0.1928  -0.0457   0.1491   0.2606   0.2894   0.6859
     0.7954   0.8111   1.2010   1.3594   1.4855   1.4893   1.6732   1.7101
     1.7672   1.7978   1.9598   2.0517   2.1003   2.2443   2.3658   2.3690
     2.4703   2.5584   2.7223

          k = 0.0254 0.0422 0.0000 ( 46079 PWs)   bands (ev):

   -61.6881 -61.6778 -61.4274 -61.4169 -61.1448 -61.1343 -41.7179 -41.6720
   -41.6640 -41.6179 -40.9770 -40.9216 -30.1992 -30.1825 -30.1742 -30.1270
   -30.1008 -29.9833 -29.9677 -29.9407 -29.9377 -29.9089 -29.8819 -29.7332
   -29.7184 -29.6331 -29.6057 -29.5184 -29.4946 -29.4693 -21.9569 -21.9170
   -21.7499 -21.6943 -21.6798 -21.6281 -21.6201 -21.5681 -21.5527 -21.5001
   -21.4004 -21.3591 -21.2659 -20.9591 -20.9166 -20.8954 -20.8467 -20.6949
    -3.6875  -2.6266  -1.7183  -1.5342  -1.0014  -0.9276  -0.7520  -0.4884
    -0.3962  -0.1918  -0.0997   0.1118   0.2703   0.3769   0.3784   0.7043
     0.8304   0.8311   1.1296   1.2916   1.3588   1.3845   1.5243   1.5610
     1.6215   1.6297   1.8444   1.8783   2.0461   2.0624   2.1553   2.2323
     2.3416   2.3817   2.6239

          k = 0.0254 0.0563 0.0000 ( 46119 PWs)   bands (ev):

   -61.6881 -61.6778 -61.4274 -61.4169 -61.1448 -61.1343 -41.7180 -41.6720
   -41.6640 -41.6180 -40.9771 -40.9216 -30.1991 -30.1821 -30.1741 -30.1261
   -30.1006 -29.9829 -29.9674 -29.9407 -29.9377 -29.9082 -29.8817 -29.7332
   -29.7181 -29.6325 -29.6057 -29.5182 -29.4946 -29.4693 -21.9583 -21.9185
   -21.7518 -21.6935 -21.6804 -21.6279 -21.6236 -21.5713 -21.5539 -21.5012
   -21.4005 -21.3591 -21.2673 -20.9589 -20.9196 -20.8953 -20.8479 -20.6950
    -3.4347  -2.4806  -1.7621  -1.5109  -1.0652  -0.8285  -0.7166  -0.2973
    -0.1940  -0.0345   0.0079   0.2824   0.4195   0.4879   0.5208   0.7212
     0.8397   0.8704   1.0354   1.2048   1.2209   1.2745   1.3519   1.3924
     1.4146   1.4893   1.6305   1.7854   1.8844   1.9471   1.9636   2.0712
     2.0827   2.4045   2.4066

          k = 0.0254 0.0703 0.0000 ( 46130 PWs)   bands (ev):

   -61.6881 -61.6778 -61.4274 -61.4169 -61.1448 -61.1343 -41.7180 -41.6721
   -41.6640 -41.6180 -40.9771 -40.9216 -30.1991 -30.1819 -30.1741 -30.1255
   -30.1004 -29.9827 -29.9673 -29.9406 -29.9377 -29.9077 -29.8816 -29.7332
   -29.7178 -29.6320 -29.6057 -29.5181 -29.4946 -29.4693 -21.9593 -21.9195
   -21.7532 -21.6930 -21.6809 -21.6277 -21.6262 -21.5736 -21.5548 -21.5020
   -21.4006 -21.3592 -21.2684 -20.9589 -20.9217 -20.8952 -20.8487 -20.6951
    -3.1515  -2.4933  -1.7525  -1.4899  -1.1901  -0.7370  -0.5592  -0.1365
    -0.0549  -0.0228   0.2259   0.4279   0.5220   0.6064   0.6679   0.7182
     0.8257   0.9260   0.9505   1.1107   1.1118   1.1561   1.1813   1.2328
     1.3344   1.3991   1.4940   1.6446   1.7170   1.8210   1.8406   1.9080
     1.9410   2.2055   2.4597

          k = 0.0254 0.0844 0.0000 ( 46128 PWs)   bands (ev):

   -61.6881 -61.6778 -61.4274 -61.4169 -61.1448 -61.1343 -41.7180 -41.6721
   -41.6640 -41.6180 -40.9771 -40.9216 -30.1990 -30.1818 -30.1741 -30.1252
   -30.1004 -29.9826 -29.9672 -29.9406 -29.9377 -29.9075 -29.8815 -29.7332
   -29.7178 -29.6318 -29.6056 -29.5181 -29.4946 -29.4693 -21.9597 -21.9199
   -21.7537 -21.6929 -21.6811 -21.6276 -21.6272 -21.5744 -21.5551 -21.5022
   -21.4006 -21.3592 -21.2687 -20.9589 -20.9225 -20.8952 -20.8490 -20.6951
    -2.9641  -2.6128  -1.6718  -1.4815  -1.2991  -0.6985  -0.4220  -0.1298
    -0.0567   0.0265   0.3950   0.4327   0.5707   0.6742   0.6783   0.7810
     0.8181   0.9031   0.9299   1.0075   1.0597   1.1362   1.1412   1.1809
     1.3207   1.4035   1.4269   1.5204   1.6681   1.7718   1.7948   1.8399
     1.8889   2.1258   2.4853

          k = 0.0254-0.0703 0.0000 ( 46130 PWs)   bands (ev):

   -61.6881 -61.6778 -61.4274 -61.4169 -61.1448 -61.1343 -41.7180 -41.6721
   -41.6640 -41.6180 -40.9771 -40.9216 -30.1991 -30.1819 -30.1741 -30.1255
   -30.1004 -29.9827 -29.9673 -29.9406 -29.9377 -29.9077 -29.8816 -29.7332
   -29.7178 -29.6320 -29.6057 -29.5181 -29.4946 -29.4693 -21.9593 -21.9195
   -21.7532 -21.6930 -21.6809 -21.6277 -21.6262 -21.5736 -21.5548 -21.5020
   -21.4006 -21.3592 -21.2684 -20.9589 -20.9217 -20.8952 -20.8487 -20.6951
    -3.1515  -2.4933  -1.7525  -1.4899  -1.1901  -0.7370  -0.5592  -0.1365
    -0.0549  -0.0228   0.2259   0.4280   0.5220   0.6064   0.6679   0.7182
     0.8257   0.9260   0.9505   1.1107   1.1118   1.1561   1.1813   1.2328
     1.3344   1.3991   1.4940   1.6446   1.7170   1.8209   1.8406   1.9081
     1.9410   2.2055   2.4597

          k = 0.0254-0.0563 0.0000 ( 46119 PWs)   bands (ev):

   -61.6881 -61.6778 -61.4274 -61.4169 -61.1448 -61.1343 -41.7180 -41.6720
   -41.6640 -41.6180 -40.9771 -40.9216 -30.1991 -30.1821 -30.1741 -30.1261
   -30.1006 -29.9829 -29.9674 -29.9407 -29.9377 -29.9082 -29.8817 -29.7332
   -29.7181 -29.6325 -29.6057 -29.5182 -29.4946 -29.4693 -21.9583 -21.9185
   -21.7518 -21.6935 -21.6804 -21.6279 -21.6236 -21.5713 -21.5539 -21.5012
   -21.4005 -21.3591 -21.2673 -20.9589 -20.9196 -20.8953 -20.8479 -20.6950
    -3.4347  -2.4806  -1.7621  -1.5109  -1.0652  -0.8285  -0.7166  -0.2973
    -0.1940  -0.0345   0.0079   0.2824   0.4195   0.4879   0.5208   0.7212
     0.8397   0.8704   1.0354   1.2048   1.2209   1.2745   1.3519   1.3924
     1.4146   1.4893   1.6305   1.7854   1.8844   1.9471   1.9636   2.0712
     2.0827   2.4045   2.4066

          k = 0.0254-0.0422 0.0000 ( 46079 PWs)   bands (ev):

   -61.6881 -61.6778 -61.4274 -61.4169 -61.1448 -61.1343 -41.7179 -41.6720
   -41.6640 -41.6179 -40.9770 -40.9216 -30.1992 -30.1825 -30.1742 -30.1270
   -30.1008 -29.9833 -29.9677 -29.9407 -29.9377 -29.9089 -29.8819 -29.7332
   -29.7184 -29.6331 -29.6057 -29.5184 -29.4946 -29.4693 -21.9569 -21.9170
   -21.7499 -21.6943 -21.6798 -21.6281 -21.6201 -21.5681 -21.5527 -21.5001
   -21.4004 -21.3591 -21.2659 -20.9591 -20.9166 -20.8954 -20.8467 -20.6949
    -3.6875  -2.6266  -1.7183  -1.5342  -1.0014  -0.9276  -0.7520  -0.4884
    -0.3962  -0.1918  -0.0997   0.1118   0.2703   0.3770   0.3784   0.7043
     0.8304   0.8311   1.1296   1.2916   1.3588   1.3845   1.5243   1.5610
     1.6215   1.6297   1.8444   1.8783   2.0461   2.0624   2.1553   2.2323
     2.3416   2.3817   2.6240

          k = 0.0254-0.0281 0.0000 ( 46076 PWs)   bands (ev):

   -61.6881 -61.6778 -61.4274 -61.4169 -61.1448 -61.1343 -41.7179 -41.6719
   -41.6640 -41.6179 -40.9769 -40.9216 -30.1993 -30.1828 -30.1742 -30.1279
   -30.1010 -29.9836 -29.9679 -29.9408 -29.9377 -29.9096 -29.8821 -29.7332
   -29.7187 -29.6337 -29.6057 -29.5185 -29.4946 -29.4693 -21.9555 -21.9156
   -21.7479 -21.6950 -21.6791 -21.6284 -21.6165 -21.5649 -21.5515 -21.4991
   -21.4004 -21.3590 -21.2645 -20.9593 -20.9135 -20.8954 -20.8456 -20.6949
    -3.8810  -2.7826  -1.7603  -1.5509  -0.9981  -0.8947  -0.7472  -0.6883
    -0.5527  -0.3456  -0.1928  -0.0457   0.1491   0.2606   0.2894   0.6859
     0.7954   0.8111   1.2010   1.3594   1.4855   1.4893   1.6732   1.7101
     1.7672   1.7978   1.9598   2.0517   2.1003   2.2443   2.3658   2.3689
     2.4702   2.5581   2.7200

          k = 0.0254-0.0141 0.0000 ( 46058 PWs)   bands (ev):

   -61.6881 -61.6778 -61.4274 -61.4169 -61.1448 -61.1343 -41.7178 -41.6719
   -41.6640 -41.6179 -40.9769 -40.9216 -30.1994 -30.1830 -30.1742 -30.1286
   -30.1011 -29.9839 -29.9680 -29.9409 -29.9377 -29.9102 -29.8823 -29.7332
   -29.7189 -29.6342 -29.6057 -29.5186 -29.4946 -29.4693 -21.9545 -21.9145
   -21.7464 -21.6956 -21.6786 -21.6286 -21.6139 -21.5625 -21.5506 -21.4983
   -21.4003 -21.3589 -21.2634 -20.9595 -20.9112 -20.8955 -20.8447 -20.6948
    -4.0017  -2.8887  -1.8253  -1.5584  -1.0172  -0.8558  -0.7879  -0.7413
    -0.6522  -0.4407  -0.2768  -0.1530   0.0737   0.1850   0.2339   0.6711
     0.7697   0.7961   1.2409   1.3892   1.5702   1.5955   1.7655   1.7708
     1.8489   1.8834   2.0595   2.1269   2.2354   2.4067   2.4585   2.5320
     2.6113   2.6668   2.8028

          k = 0.0254-0.0000 0.0000 ( 46069 PWs)   bands (ev):

   -61.6881 -61.6778 -61.4274 -61.4169 -61.1448 -61.1343 -41.7178 -41.6719
   -41.6640 -41.6179 -40.9769 -40.9216 -30.1994 -30.1831 -30.1742 -30.1288
   -30.1011 -29.9840 -29.9681 -29.9409 -29.9377 -29.9104 -29.8823 -29.7332
   -29.7190 -29.6343 -29.6057 -29.5187 -29.4946 -29.4693 -21.9541 -21.9141
   -21.7459 -21.6959 -21.6785 -21.6287 -21.6130 -21.5617 -21.5503 -21.4980
   -21.4003 -21.3589 -21.2630 -20.9596 -20.9104 -20.8956 -20.8444 -20.6948
    -4.0426  -2.9257  -1.8523  -1.5601  -0.9858  -0.9532  -0.7649  -0.7166
    -0.6869  -0.4727  -0.3143  -0.1906   0.0482   0.1591   0.2150   0.6653
     0.7603   0.7908   1.2526   1.3960   1.5995   1.6539   1.7737   1.7875
     1.8662   1.9099   2.1049   2.1782   2.2804   2.4647   2.4943   2.6221
     2.6931   2.7043   2.8330

          k = 0.0382 0.0211 0.0000 ( 46036 PWs)   bands (ev):

   -61.6872 -61.6788 -61.4265 -61.4179 -61.1438 -61.1352 -41.7130 -41.6690
   -41.6670 -41.6229 -40.9719 -40.9267 -30.1970 -30.1765 -30.1608 -30.1258
   -30.1033 -29.9655 -29.9613 -29.9605 -29.9432 -29.9074 -29.8846 -29.7566
   -29.6964 -29.6314 -29.6081 -29.5164 -29.4967 -29.4926 -21.9062 -21.8661
   -21.7410 -21.6892 -21.6856 -21.6345 -21.6096 -21.5579 -21.5578 -21.5055
   -21.4539 -21.4127 -21.2140 -20.9535 -20.9064 -20.9013 -20.8521 -20.7500
    -3.7806  -2.6759  -1.7145  -1.6231  -1.1123  -0.8085  -0.6844  -0.5820
    -0.5468  -0.2971  -0.0535  -0.0051   0.1818   0.3014   0.3550   0.7072
     0.8238   0.8392   1.2110   1.3684   1.4195   1.4956   1.5961   1.6406
     1.7250   1.7508   1.9709   1.9984   2.1165   2.2292   2.3678   2.3995
     2.4427   2.4758   2.7089

          k = 0.0382 0.0352 0.0000 ( 46068 PWs)   bands (ev):

   -61.6872 -61.6788 -61.4265 -61.4179 -61.1438 -61.1352 -41.7130 -41.6690
   -41.6670 -41.6229 -40.9719 -40.9267 -30.1970 -30.1765 -30.1606 -30.1250
   -30.1032 -29.9653 -29.9610 -29.9606 -29.9432 -29.9068 -29.8845 -29.7566
   -29.6961 -29.6309 -29.6082 -29.5163 -29.4968 -29.4926 -21.9074 -21.8673
   -21.7426 -21.6886 -21.6860 -21.6344 -21.6124 -21.5605 -21.5585 -21.5061
   -21.4539 -21.4126 -21.2152 -20.9534 -20.9088 -20.9013 -20.8528 -20.7499
    -3.6268  -2.5458  -1.7745  -1.5661  -1.0880  -0.8031  -0.6080  -0.5902
    -0.4015  -0.2004   0.0375   0.1375   0.2754   0.3928   0.4215   0.7315
     0.8302   0.8691   1.1451   1.3059   1.3605   1.3729   1.5073   1.5147
     1.6292   1.6434   1.8574   1.8817   2.0398   2.0557   2.1866   2.2515
     2.3377   2.3660   2.6339

          k = 0.0382 0.0492 0.0000 ( 46081 PWs)   bands (ev):

   -61.6872 -61.6788 -61.4265 -61.4179 -61.1438 -61.1352 -41.7131 -41.6690
   -41.6671 -41.6229 -40.9720 -40.9267 -30.1969 -30.1765 -30.1603 -30.1242
   -30.1031 -29.9651 -29.9607 -29.9606 -29.9431 -29.9061 -29.8843 -29.7567
   -29.6958 -29.6303 -29.6082 -29.5161 -29.4968 -29.4927 -21.9087 -21.8687
   -21.7443 -21.6879 -21.6864 -21.6342 -21.6156 -21.5634 -21.5593 -21.5068
   -21.4538 -21.4126 -21.2165 -20.9532 -20.9116 -20.9012 -20.8536 -20.7498
    -3.4075  -2.3877  -1.8210  -1.5790  -1.0470  -0.8792  -0.5962  -0.3709
    -0.2292  -0.0477   0.1236   0.2890   0.4037   0.5128   0.5139   0.7592
     0.8239   0.9091   1.0487   1.2207   1.2489   1.2807   1.3651   1.3792
     1.4967   1.5111   1.6458   1.8115   1.8627   1.9548   1.9849   2.0820
     2.1365   2.3981   2.4620

          k = 0.0382 0.0633 0.0000 ( 46111 PWs)   bands (ev):

   -61.6872 -61.6788 -61.4265 -61.4179 -61.1438 -61.1352 -41.7131 -41.6690
   -41.6671 -41.6229 -40.9720 -40.9267 -30.1968 -30.1765 -30.1600 -30.1235
   -30.1031 -29.9649 -29.9607 -29.9604 -29.9431 -29.9055 -29.8842 -29.7567
   -29.6956 -29.6298 -29.6083 -29.5160 -29.4968 -29.4927 -21.9099 -21.8699
   -21.7458 -21.6874 -21.6868 -21.6340 -21.6183 -21.5658 -21.5600 -21.5073
   -21.4537 -21.4125 -21.2177 -20.9531 -20.9139 -20.9011 -20.8542 -20.7497
    -3.1406  -2.3037  -1.8494  -1.6333  -0.9995  -0.9643  -0.5050  -0.1416
    -0.0460   0.1303   0.1500   0.4013   0.5027   0.6131   0.6485   0.7841
     0.7915   0.9503   0.9547   1.1040   1.1756   1.2046   1.2213   1.2849
     1.3481   1.3983   1.4922   1.7059   1.7521   1.8159   1.8242   1.9274
     1.9528   2.2413   2.4762

          k = 0.0382 0.0774 0.0000 ( 46139 PWs)   bands (ev):

   -61.6872 -61.6788 -61.4265 -61.4179 -61.1438 -61.1352 -41.7131 -41.6690
   -41.6672 -41.6230 -40.9721 -40.9267 -30.1968 -30.1765 -30.1598 -30.1231
   -30.1030 -29.9648 -29.9607 -29.9603 -29.9431 -29.9052 -29.8842 -29.7567
   -29.6954 -29.6295 -29.6083 -29.5160 -29.4968 -29.4927 -21.9105 -21.8706
   -21.7467 -21.6871 -21.6870 -21.6340 -21.6199 -21.5673 -21.5604 -21.5077
   -21.4537 -21.4125 -21.2183 -20.9531 -20.9152 -20.9011 -20.8546 -20.7497
    -2.8789  -2.4132  -1.8622  -1.5591  -1.1188  -0.9668  -0.3033   0.0152
     0.0453   0.1183   0.2418   0.4583   0.5190   0.6951   0.7407   0.7958
     0.8350   0.8836   0.9357   0.9951   1.0615   1.1230   1.2236   1.2793
     1.2934   1.3420   1.4218   1.5631   1.6890   1.7324   1.7492   1.8248
     1.8657   2.0680   2.5342

          k = 0.0382 0.0914 0.0000 ( 46139 PWs)   bands (ev):

   -61.6872 -61.6788 -61.4265 -61.4179 -61.1438 -61.1352 -41.7131 -41.6690
   -41.6672 -41.6230 -40.9721 -40.9267 -30.1968 -30.1765 -30.1598 -30.1231
   -30.1030 -29.9648 -29.9607 -29.9603 -29.9431 -29.9052 -29.8842 -29.7567
   -29.6954 -29.6295 -29.6083 -29.5160 -29.4968 -29.4927 -21.9105 -21.8706
   -21.7467 -21.6871 -21.6870 -21.6340 -21.6199 -21.5673 -21.5604 -21.5077
   -21.4537 -21.4125 -21.2183 -20.9531 -20.9152 -20.9011 -20.8546 -20.7497
    -2.8789  -2.4132  -1.8622  -1.5591  -1.1188  -0.9668  -0.3033   0.0152
     0.0453   0.1183   0.2418   0.4583   0.5190   0.6951   0.7407   0.7958
     0.8350   0.8836   0.9357   0.9951   1.0615   1.1230   1.2236   1.2793
     1.2934   1.3420   1.4218   1.5631   1.6890   1.7324   1.7492   1.8248
     1.8657   2.0680   2.5342

          k = 0.0382-0.0633 0.0000 ( 46111 PWs)   bands (ev):

   -61.6872 -61.6788 -61.4265 -61.4179 -61.1438 -61.1352 -41.7131 -41.6690
   -41.6671 -41.6229 -40.9720 -40.9267 -30.1968 -30.1765 -30.1600 -30.1235
   -30.1031 -29.9649 -29.9607 -29.9604 -29.9431 -29.9055 -29.8842 -29.7567
   -29.6956 -29.6298 -29.6083 -29.5160 -29.4968 -29.4927 -21.9099 -21.8699
   -21.7458 -21.6874 -21.6868 -21.6340 -21.6183 -21.5658 -21.5600 -21.5073
   -21.4537 -21.4125 -21.2177 -20.9531 -20.9139 -20.9011 -20.8542 -20.7497
    -3.1406  -2.3037  -1.8494  -1.6333  -0.9995  -0.9643  -0.5050  -0.1416
    -0.0460   0.1303   0.1500   0.4013   0.5027   0.6131   0.6485   0.7841
     0.7915   0.9503   0.9547   1.1040   1.1756   1.2046   1.2213   1.2849
     1.3481   1.3983   1.4922   1.7059   1.7521   1.8159   1.8242   1.9274
     1.9528   2.2414   2.4764

          k = 0.0382-0.0492 0.0000 ( 46081 PWs)   bands (ev):

   -61.6872 -61.6788 -61.4265 -61.4179 -61.1438 -61.1352 -41.7131 -41.6690
   -41.6671 -41.6229 -40.9720 -40.9267 -30.1969 -30.1765 -30.1603 -30.1242
   -30.1031 -29.9651 -29.9607 -29.9606 -29.9431 -29.9061 -29.8843 -29.7567
   -29.6958 -29.6303 -29.6082 -29.5161 -29.4968 -29.4927 -21.9087 -21.8687
   -21.7443 -21.6879 -21.6864 -21.6342 -21.6156 -21.5634 -21.5593 -21.5068
   -21.4538 -21.4126 -21.2165 -20.9532 -20.9116 -20.9012 -20.8536 -20.7498
    -3.4075  -2.3877  -1.8210  -1.5790  -1.0470  -0.8792  -0.5962  -0.3709
    -0.2291  -0.0477   0.1236   0.2890   0.4037   0.5128   0.5139   0.7592
     0.8239   0.9091   1.0487   1.2207   1.2490   1.2807   1.3651   1.3792
     1.4967   1.5111   1.6458   1.8115   1.8627   1.9548   1.9849   2.0820
     2.1365   2.3981   2.4620

          k = 0.0382-0.0352 0.0000 ( 46068 PWs)   bands (ev):

   -61.6872 -61.6788 -61.4265 -61.4179 -61.1438 -61.1352 -41.7130 -41.6690
   -41.6670 -41.6229 -40.9719 -40.9267 -30.1970 -30.1765 -30.1606 -30.1250
   -30.1032 -29.9653 -29.9610 -29.9606 -29.9432 -29.9068 -29.8845 -29.7566
   -29.6961 -29.6309 -29.6082 -29.5163 -29.4968 -29.4926 -21.9074 -21.8673
   -21.7426 -21.6886 -21.6860 -21.6344 -21.6124 -21.5605 -21.5585 -21.5061
   -21.4539 -21.4126 -21.2152 -20.9534 -20.9088 -20.9013 -20.8528 -20.7499
    -3.6268  -2.5458  -1.7745  -1.5661  -1.0880  -0.8031  -0.6080  -0.5902
    -0.4015  -0.2004   0.0375   0.1375   0.2754   0.3928   0.4215   0.7315
     0.8302   0.8691   1.1451   1.3059   1.3605   1.3729   1.5073   1.5147
     1.6292   1.6434   1.8574   1.8817   2.0398   2.0558   2.1866   2.2515
     2.3377   2.3661   2.6339

          k = 0.0382-0.0211 0.0000 ( 46036 PWs)   bands (ev):

   -61.6872 -61.6788 -61.4265 -61.4179 -61.1438 -61.1352 -41.7130 -41.6690
   -41.6670 -41.6229 -40.9719 -40.9267 -30.1970 -30.1765 -30.1608 -30.1258
   -30.1033 -29.9655 -29.9613 -29.9605 -29.9432 -29.9074 -29.8846 -29.7566
   -29.6964 -29.6314 -29.6081 -29.5164 -29.4967 -29.4926 -21.9062 -21.8661
   -21.7410 -21.6892 -21.6856 -21.6345 -21.6096 -21.5579 -21.5578 -21.5055
   -21.4539 -21.4127 -21.2140 -20.9535 -20.9064 -20.9013 -20.8521 -20.7500
    -3.7806  -2.6759  -1.7145  -1.6231  -1.1123  -0.8085  -0.6844  -0.5820
    -0.5468  -0.2971  -0.0535  -0.0051   0.1818   0.3014   0.3550   0.7072
     0.8238   0.8392   1.2110   1.3685   1.4195   1.4956   1.5961   1.6406
     1.7250   1.7508   1.9709   1.9984   2.1165   2.2292   2.3678   2.3995
     2.4427   2.4758   2.7088

          k = 0.0382-0.0070 0.0000 ( 46032 PWs)   bands (ev):

   -61.6872 -61.6788 -61.4265 -61.4179 -61.1438 -61.1352 -41.7129 -41.6690
   -41.6670 -41.6229 -40.9719 -40.9267 -30.1971 -30.1765 -30.1610 -30.1262
   -30.1033 -29.9656 -29.9614 -29.9605 -29.9433 -29.9077 -29.8846 -29.7566
   -29.6965 -29.6317 -29.6081 -29.5165 -29.4967 -29.4926 -21.9056 -21.8655
   -21.7401 -21.6896 -21.6854 -21.6346 -21.6079 -21.5574 -21.5565 -21.5051
   -21.4540 -21.4128 -21.2133 -20.9537 -20.9050 -20.9014 -20.8517 -20.7500
    -3.8594  -2.7460  -1.6695  -1.6642  -1.1250  -0.9265  -0.6340  -0.6156
    -0.5634  -0.3401  -0.1171  -0.0902   0.1338   0.2529   0.3203   0.6929
     0.8192   0.8226   1.2433   1.3937   1.4493   1.5842   1.6288   1.7359
     1.7557   1.7928   2.0358   2.0582   2.1552   2.3654   2.4557   2.4873
     2.5632   2.5877   2.7240

          k = 0.0382 0.0070 0.0000 ( 46032 PWs)   bands (ev):

   -61.6872 -61.6788 -61.4265 -61.4179 -61.1438 -61.1352 -41.7129 -41.6690
   -41.6670 -41.6229 -40.9719 -40.9267 -30.1971 -30.1765 -30.1610 -30.1262
   -30.1033 -29.9656 -29.9614 -29.9605 -29.9433 -29.9077 -29.8846 -29.7566
   -29.6965 -29.6317 -29.6081 -29.5165 -29.4967 -29.4926 -21.9056 -21.8655
   -21.7401 -21.6896 -21.6854 -21.6346 -21.6079 -21.5574 -21.5565 -21.5051
   -21.4540 -21.4128 -21.2133 -20.9537 -20.9050 -20.9014 -20.8517 -20.7500
    -3.8594  -2.7460  -1.6695  -1.6642  -1.1250  -0.9265  -0.6340  -0.6156
    -0.5634  -0.3401  -0.1171  -0.0902   0.1338   0.2529   0.3203   0.6929
     0.8192   0.8226   1.2433   1.3937   1.4493   1.5842   1.6288   1.7359
     1.7557   1.7928   2.0358   2.0582   2.1552   2.3654   2.4556   2.4873
     2.5630   2.5877   2.7236

          k = 0.0509 0.0281 0.0000 ( 46040 PWs)   bands (ev):

   -61.6859 -61.6800 -61.4252 -61.4191 -61.1426 -61.1365 -41.7066 -41.6755
   -41.6606 -41.6294 -40.9653 -40.9334 -30.1940 -30.1795 -30.1319 -30.1222
   -30.1063 -29.9903 -29.9621 -29.9465 -29.9315 -29.9038 -29.8876 -29.7869
   -29.6669 -29.6278 -29.6114 -29.5229 -29.5134 -29.4996 -21.8426 -21.8024
   -21.7337 -21.6945 -21.6810 -21.6423 -21.6034 -21.5668 -21.5516 -21.5228
   -21.5144 -21.4819 -21.1488 -20.9458 -20.9089 -20.8998 -20.8613 -20.8208
    -3.4858  -2.3977  -1.9906  -1.3704  -1.2448  -0.7754  -0.5577  -0.3965
    -0.3877  -0.1973   0.2046   0.2122   0.3211   0.4532   0.5067   0.7535
     0.8378   0.9161   1.1372   1.2836   1.3036   1.3534   1.4192   1.4754
     1.5733   1.6153   1.7825   1.7992   2.0242   2.0626   2.1847   2.2006
     2.3106   2.3392   2.5956

          k = 0.0509 0.0422 0.0000 ( 46052 PWs)   bands (ev):

   -61.6859 -61.6800 -61.4252 -61.4191 -61.1426 -61.1365 -41.7066 -41.6755
   -41.6606 -41.6294 -40.9654 -40.9334 -30.1939 -30.1795 -30.1316 -30.1215
   -30.1063 -29.9903 -29.9620 -29.9465 -29.9312 -29.9032 -29.8876 -29.7870
   -29.6666 -29.6273 -29.6115 -29.5229 -29.5133 -29.4996 -21.8437 -21.8036
   -21.7351 -21.6946 -21.6804 -21.6422 -21.6060 -21.5670 -21.5539 -21.5226
   -21.5146 -21.4816 -21.1500 -20.9457 -20.9089 -20.9020 -20.8615 -20.8205
    -3.3063  -2.2565  -2.1056  -1.3554  -1.2578  -0.6632  -0.5655  -0.4127
    -0.2162  -0.1157   0.3026   0.3463   0.4249   0.5519   0.5739   0.7997
     0.8167   0.9467   1.0348   1.1932   1.2347   1.2747   1.3263   1.3629
     1.5272   1.5399   1.6289   1.6943   1.8776   1.9672   2.0357   2.0761
     2.1742   2.3474   2.4625

          k = 0.0509 0.0563 0.0000 ( 46062 PWs)   bands (ev):

   -61.6859 -61.6800 -61.4252 -61.4191 -61.1426 -61.1365 -41.7067 -41.6755
   -41.6607 -41.6294 -40.9654 -40.9334 -30.1939 -30.1795 -30.1313 -30.1208
   -30.1063 -29.9904 -29.9618 -29.9465 -29.9310 -29.9027 -29.8876 -29.7871
   -29.6664 -29.6268 -29.6116 -29.5230 -29.5132 -29.4996 -21.8449 -21.8047
   -21.7365 -21.6947 -21.6799 -21.6422 -21.6085 -21.5672 -21.5562 -21.5223
   -21.5147 -21.4813 -21.1511 -20.9456 -20.9088 -20.9041 -20.8618 -20.8202
    -3.0705  -2.1909  -2.1238  -1.4286  -1.2693  -0.7229  -0.4046  -0.3673
    -0.0555   0.0550   0.3723   0.4435   0.5176   0.6467   0.6660   0.7540
     0.8569   0.9186   0.9824   1.0629   1.1665   1.2375   1.2418   1.2981
     1.4149   1.4705   1.4912   1.6440   1.7526   1.8193   1.8755   1.9407
     2.0078   2.2775   2.4455

          k = 0.0509 0.0703 0.0000 ( 46122 PWs)   bands (ev):

   -61.6859 -61.6800 -61.4252 -61.4191 -61.1426 -61.1365 -41.7067 -41.6755
   -41.6607 -41.6294 -40.9655 -40.9334 -30.1938 -30.1795 -30.1311 -30.1203
   -30.1064 -29.9905 -29.9617 -29.9465 -29.9308 -29.9023 -29.8876 -29.7872
   -29.6662 -29.6265 -29.6117 -29.5231 -29.5131 -29.4997 -21.8457 -21.8056
   -21.7375 -21.6948 -21.6795 -21.6422 -21.6103 -21.5673 -21.5578 -21.5222
   -21.5149 -21.4812 -21.1519 -20.9456 -20.9088 -20.9056 -20.8620 -20.8201
    -2.8057  -2.2422  -2.1417  -1.4355  -1.2729  -0.8647  -0.2423  -0.2302
     0.1078   0.2313   0.3015   0.4541   0.5609   0.6620   0.7594   0.7765
     0.8516   0.9049   0.9476   0.9601   1.1107   1.1924   1.2245   1.2979
     1.3426   1.4246   1.4299   1.6216   1.6650   1.6949   1.7578   1.8141
     1.8864   2.0941   2.5301

          k = 0.0509 0.0844 0.0000 ( 46102 PWs)   bands (ev):

   -61.6859 -61.6800 -61.4252 -61.4191 -61.1426 -61.1365 -41.7067 -41.6755
   -41.6607 -41.6294 -40.9655 -40.9334 -30.1938 -30.1795 -30.1311 -30.1201
   -30.1064 -29.9905 -29.9617 -29.9465 -29.9307 -29.9021 -29.8876 -29.7872
   -29.6661 -29.6263 -29.6117 -29.5231 -29.5131 -29.4997 -21.8459 -21.8059
   -21.7378 -21.6948 -21.6794 -21.6422 -21.6110 -21.5674 -21.5584 -21.5221
   -21.5149 -21.4811 -21.1522 -20.9455 -20.9088 -20.9061 -20.8621 -20.8200
    -2.6342  -2.2592  -2.2549  -1.3579  -1.2732  -0.9849  -0.1803  -0.0420
     0.1125   0.2224   0.2930   0.4030   0.5923   0.7209   0.7382   0.8381
     0.8476   0.8767   0.9033   0.9773   1.0723   1.1125   1.2304   1.3182
     1.3598   1.4178   1.4348   1.5796   1.6465   1.6482   1.7238   1.7528
     1.8447   2.0038   2.5637

          k = 0.0509 0.0985 0.0000 ( 46122 PWs)   bands (ev):

   -61.6859 -61.6800 -61.4252 -61.4191 -61.1426 -61.1365 -41.7067 -41.6755
   -41.6607 -41.6294 -40.9655 -40.9334 -30.1938 -30.1795 -30.1311 -30.1203
   -30.1064 -29.9905 -29.9617 -29.9465 -29.9308 -29.9023 -29.8876 -29.7872
   -29.6662 -29.6265 -29.6117 -29.5231 -29.5131 -29.4997 -21.8457 -21.8056
   -21.7375 -21.6948 -21.6795 -21.6422 -21.6103 -21.5673 -21.5578 -21.5222
   -21.5149 -21.4812 -21.1519 -20.9456 -20.9088 -20.9056 -20.8620 -20.8201
    -2.8057  -2.2422  -2.1417  -1.4355  -1.2729  -0.8647  -0.2423  -0.2302
     0.1078   0.2313   0.3015   0.4541   0.5609   0.6620   0.7594   0.7765
     0.8516   0.9049   0.9476   0.9601   1.1107   1.1924   1.2245   1.2979
     1.3426   1.4246   1.4299   1.6216   1.6650   1.6949   1.7578   1.8141
     1.8864   2.0941   2.5301

          k = 0.0509-0.0563 0.0000 ( 46062 PWs)   bands (ev):

   -61.6859 -61.6800 -61.4252 -61.4191 -61.1426 -61.1365 -41.7067 -41.6755
   -41.6607 -41.6294 -40.9654 -40.9334 -30.1939 -30.1795 -30.1313 -30.1208
   -30.1063 -29.9904 -29.9618 -29.9465 -29.9310 -29.9027 -29.8876 -29.7871
   -29.6664 -29.6268 -29.6116 -29.5230 -29.5132 -29.4996 -21.8449 -21.8047
   -21.7365 -21.6947 -21.6799 -21.6422 -21.6085 -21.5672 -21.5562 -21.5223
   -21.5147 -21.4813 -21.1511 -20.9456 -20.9088 -20.9041 -20.8618 -20.8202
    -3.0705  -2.1909  -2.1238  -1.4286  -1.2693  -0.7229  -0.4046  -0.3673
    -0.0555   0.0550   0.3723   0.4435   0.5176   0.6467   0.6660   0.7540
     0.8569   0.9186   0.9824   1.0629   1.1665   1.2375   1.2418   1.2981
     1.4149   1.4705   1.4912   1.6439   1.7526   1.8193   1.8755   1.9407
     2.0077   2.2775   2.4455

          k = 0.0509-0.0422 0.0000 ( 46052 PWs)   bands (ev):

   -61.6859 -61.6800 -61.4252 -61.4191 -61.1426 -61.1365 -41.7066 -41.6755
   -41.6606 -41.6294 -40.9654 -40.9334 -30.1939 -30.1795 -30.1316 -30.1215
   -30.1063 -29.9903 -29.9620 -29.9465 -29.9312 -29.9032 -29.8876 -29.7870
   -29.6666 -29.6273 -29.6115 -29.5229 -29.5133 -29.4996 -21.8437 -21.8036
   -21.7351 -21.6946 -21.6804 -21.6422 -21.6060 -21.5670 -21.5539 -21.5226
   -21.5146 -21.4816 -21.1500 -20.9457 -20.9089 -20.9020 -20.8615 -20.8205
    -3.3063  -2.2565  -2.1056  -1.3554  -1.2578  -0.6632  -0.5655  -0.4127
    -0.2162  -0.1157   0.3026   0.3463   0.4249   0.5519   0.5739   0.7997
     0.8167   0.9467   1.0348   1.1932   1.2347   1.2747   1.3263   1.3629
     1.5272   1.5399   1.6289   1.6943   1.8776   1.9672   2.0357   2.0761
     2.1742   2.3475   2.4625

          k = 0.0509-0.0281 0.0000 ( 46040 PWs)   bands (ev):

   -61.6859 -61.6800 -61.4252 -61.4191 -61.1426 -61.1365 -41.7066 -41.6755
   -41.6606 -41.6294 -40.9653 -40.9334 -30.1940 -30.1795 -30.1319 -30.1222
   -30.1063 -29.9903 -29.9621 -29.9465 -29.9315 -29.9038 -29.8876 -29.7869
   -29.6669 -29.6278 -29.6114 -29.5229 -29.5134 -29.4996 -21.8426 -21.8024
   -21.7337 -21.6945 -21.6810 -21.6423 -21.6034 -21.5668 -21.5516 -21.5228
   -21.5144 -21.4819 -21.1488 -20.9458 -20.9089 -20.8998 -20.8613 -20.8208
    -3.4858  -2.3977  -1.9906  -1.3704  -1.2448  -0.7754  -0.5577  -0.3965
    -0.3877  -0.1972   0.2046   0.2122   0.3211   0.4532   0.5067   0.7535
     0.8378   0.9161   1.1372   1.2836   1.3036   1.3534   1.4192   1.4754
     1.5733   1.6153   1.7825   1.7992   2.0242   2.0626   2.1847   2.2006
     2.3106   2.3392   2.5957

          k = 0.0509-0.0141 0.0000 ( 46030 PWs)   bands (ev):

   -61.6859 -61.6800 -61.4252 -61.4191 -61.1426 -61.1365 -41.7065 -41.6755
   -41.6606 -41.6294 -40.9653 -40.9334 -30.1941 -30.1795 -30.1321 -30.1227
   -30.1062 -29.9902 -29.9622 -29.9465 -29.9317 -29.9042 -29.8876 -29.7869
   -29.6671 -29.6281 -29.6113 -29.5228 -29.5135 -29.4996 -21.8418 -21.8016
   -21.7327 -21.6944 -21.6814 -21.6423 -21.6015 -21.5666 -21.5499 -21.5231
   -21.5143 -21.4821 -21.1480 -20.9459 -20.9090 -20.8981 -20.8611 -20.8210
    -3.5972  -2.4931  -1.8656  -1.4190  -1.2687  -0.9102  -0.5494  -0.4514
    -0.3691  -0.2143   0.0678   0.1337   0.2564   0.3865   0.4638   0.7260
     0.8423   0.8954   1.2027   1.3183   1.3385   1.4531   1.4600   1.5836
     1.6088   1.7043   1.8557   1.8793   2.0698   2.1527   2.2696   2.3090
     2.3689   2.4588   2.5700

          k = 0.0509 0.0000 0.0000 ( 46023 PWs)   bands (ev):

   -61.6859 -61.6800 -61.4252 -61.4191 -61.1426 -61.1365 -41.7065 -41.6755
   -41.6606 -41.6294 -40.9653 -40.9334 -30.1941 -30.1795 -30.1321 -30.1228
   -30.1062 -29.9902 -29.9623 -29.9466 -29.9318 -29.9043 -29.8876 -29.7868
   -29.6671 -29.6283 -29.6113 -29.5228 -29.5135 -29.4995 -21.8415 -21.8013
   -21.7323 -21.6944 -21.6816 -21.6423 -21.6008 -21.5666 -21.5493 -21.5232
   -21.5143 -21.4822 -21.1477 -20.9460 -20.9090 -20.8975 -20.8610 -20.8211
    -3.6350  -2.5262  -1.7987  -1.4404  -1.3108  -0.9354  -0.6155  -0.4218
    -0.3479  -0.2074   0.0067   0.0994   0.2345   0.3630   0.4491   0.7168
     0.8433   0.8879   1.2255   1.3230   1.3570   1.4638   1.4964   1.5855
     1.6771   1.7401   1.8827   1.8937   2.0528   2.2130   2.2840   2.3540
     2.4149   2.4972   2.5588

          k = 0.0509 0.0141 0.0000 ( 46030 PWs)   bands (ev):

   -61.6859 -61.6800 -61.4252 -61.4191 -61.1426 -61.1365 -41.7065 -41.6755
   -41.6606 -41.6294 -40.9653 -40.9334 -30.1941 -30.1795 -30.1321 -30.1227
   -30.1062 -29.9902 -29.9622 -29.9465 -29.9317 -29.9042 -29.8876 -29.7869
   -29.6671 -29.6281 -29.6113 -29.5228 -29.5135 -29.4996 -21.8418 -21.8016
   -21.7327 -21.6944 -21.6814 -21.6423 -21.6015 -21.5666 -21.5499 -21.5231
   -21.5143 -21.4821 -21.1480 -20.9459 -20.9090 -20.8981 -20.8611 -20.8210
    -3.5972  -2.4931  -1.8656  -1.4190  -1.2687  -0.9102  -0.5494  -0.4514
    -0.3691  -0.2143   0.0678   0.1337   0.2564   0.3865   0.4638   0.7260
     0.8423   0.8954   1.2027   1.3183   1.3385   1.4531   1.4600   1.5836
     1.6088   1.7043   1.8557   1.8793   2.0698   2.1528   2.2696   2.3090
     2.3689   2.4588   2.5697

          k = 0.0636 0.0352 0.0000 ( 46020 PWs)   bands (ev):

   -61.6845 -61.6814 -61.4238 -61.4206 -61.1411 -61.1380 -41.6991 -41.6830
   -41.6531 -41.6370 -40.9577 -40.9411 -30.1905 -30.1829 -30.1181 -30.1099
   -30.0979 -30.0247 -29.9583 -29.9502 -29.8997 -29.8970 -29.8913 -29.8221
   -29.6324 -29.6237 -29.6152 -29.5578 -29.5101 -29.5029 -21.7675 -21.7272
   -21.7248 -21.7044 -21.6715 -21.6514 -21.6031 -21.5945 -21.5766 -21.5616
   -21.5431 -21.5243 -21.0718 -20.9369 -20.9178 -20.9026 -20.8907 -20.8714
    -3.1331  -2.3503  -2.0769  -1.4566  -1.1085  -0.7929  -0.4214  -0.2542
    -0.2115  -0.1730   0.4122   0.4509   0.4987   0.6259   0.6441   0.8035
     0.8271   0.9912   0.9974   1.1555   1.2033   1.2406   1.2795   1.3003
     1.5016   1.5179   1.5927   1.6259   1.8147   1.9418   2.0136   2.0342
     2.2546   2.3131   2.4562

          k = 0.0636 0.0492 0.0000 ( 46038 PWs)   bands (ev):

   -61.6845 -61.6814 -61.4238 -61.4206 -61.1411 -61.1380 -41.6991 -41.6830
   -41.6532 -41.6370 -40.9577 -40.9411 -30.1904 -30.1830 -30.1176 -30.1101
   -30.0977 -30.0248 -29.9582 -29.9502 -29.8992 -29.8968 -29.8914 -29.8222
   -29.6322 -29.6233 -29.6154 -29.5580 -29.5100 -29.5030 -21.7685 -21.7282
   -21.7259 -21.7042 -21.6711 -21.6515 -21.6031 -21.5960 -21.5761 -21.5611
   -21.5448 -21.5238 -21.0728 -20.9369 -20.9178 -20.9023 -20.8922 -20.8711
    -2.9382  -2.4931  -1.9449  -1.5225  -1.1712  -0.6316  -0.4984  -0.2668
    -0.1142  -0.0568   0.4874   0.5189   0.5813   0.6784   0.7172   0.7738
     0.8699   0.8967   1.0192   1.0244   1.1350   1.2151   1.2424   1.3079
     1.4282   1.4906   1.5046   1.6054   1.7384   1.8153   1.9360   1.9636
     2.1227   2.3173   2.3888

          k = 0.0636 0.0633 0.0000 ( 46079 PWs)   bands (ev):

   -61.6845 -61.6814 -61.4238 -61.4206 -61.1411 -61.1380 -41.6992 -41.6830
   -41.6532 -41.6370 -40.9578 -40.9411 -30.1904 -30.1830 -30.1171 -30.1103
   -30.0975 -30.0249 -29.9581 -29.9503 -29.8989 -29.8965 -29.8915 -29.8223
   -29.6320 -29.6229 -29.6156 -29.5581 -29.5099 -29.5030 -21.7692 -21.7290
   -21.7268 -21.7040 -21.6708 -21.6516 -21.6026 -21.5977 -21.5757 -21.5605
   -21.5465 -21.5234 -21.0736 -20.9368 -20.9178 -20.9016 -20.8938 -20.8708
    -2.6998  -2.5915  -1.8780  -1.5752  -1.2629  -0.6065  -0.5438  -0.2085
     0.0344   0.0991   0.5034   0.5443   0.5864   0.6182   0.7091   0.8076
     0.8144   0.9299   0.9428   1.0508   1.0817   1.2070   1.2717   1.3516
     1.3940   1.4459   1.4804   1.6161   1.6936   1.6973   1.8452   1.8651
     1.9542   2.1750   2.4950

          k = 0.0636 0.0774 0.0000 ( 46107 PWs)   bands (ev):

   -61.6845 -61.6814 -61.4238 -61.4206 -61.1411 -61.1380 -41.6992 -41.6830
   -41.6532 -41.6370 -40.9578 -40.9411 -30.1904 -30.1830 -30.1168 -30.1104
   -30.0974 -30.0250 -29.9580 -29.9503 -29.8987 -29.8964 -29.8916 -29.8224
   -29.6319 -29.6227 -29.6157 -29.5582 -29.5098 -29.5030 -21.7697 -21.7294
   -21.7273 -21.7039 -21.6706 -21.6517 -21.6017 -21.5993 -21.5755 -21.5600
   -21.5476 -21.5232 -21.0741 -20.9368 -20.9178 -20.9009 -20.8951 -20.8707
    -2.6413  -2.4689  -1.9821  -1.6026  -1.2112  -0.7800  -0.5100  -0.0005
     0.1623   0.2192   0.2737   0.4263   0.6309   0.6707   0.6930   0.7721
     0.8366   0.9475   0.9621   1.0254   1.0834   1.2064   1.2429   1.3849
     1.4212   1.4373   1.5316   1.6086   1.6455   1.6985   1.7720   1.7791
     1.8362   2.0720   2.5475

          k = 0.0636 0.0914 0.0000 ( 46107 PWs)   bands (ev):

   -61.6845 -61.6814 -61.4238 -61.4206 -61.1411 -61.1380 -41.6992 -41.6830
   -41.6532 -41.6370 -40.9578 -40.9411 -30.1904 -30.1830 -30.1168 -30.1104
   -30.0974 -30.0250 -29.9580 -29.9503 -29.8987 -29.8964 -29.8916 -29.8224
   -29.6319 -29.6227 -29.6157 -29.5582 -29.5098 -29.5030 -21.7697 -21.7294
   -21.7273 -21.7039 -21.6706 -21.6517 -21.6017 -21.5993 -21.5755 -21.5600
   -21.5476 -21.5232 -21.0741 -20.9368 -20.9178 -20.9009 -20.8951 -20.8707
    -2.6413  -2.4689  -1.9821  -1.6026  -1.2112  -0.7800  -0.5100  -0.0005
     0.1623   0.2192   0.2737   0.4263   0.6309   0.6707   0.6930   0.7721
     0.8366   0.9475   0.9621   1.0254   1.0834   1.2064   1.2428   1.3849
     1.4212   1.4373   1.5316   1.6086   1.6455   1.6985   1.7720   1.7791
     1.8362   2.0720   2.5476

          k = 0.0636 0.1055 0.0000 ( 46079 PWs)   bands (ev):

   -61.6845 -61.6814 -61.4238 -61.4206 -61.1411 -61.1380 -41.6992 -41.6830
   -41.6532 -41.6370 -40.9578 -40.9411 -30.1904 -30.1830 -30.1171 -30.1103
   -30.0975 -30.0249 -29.9581 -29.9503 -29.8989 -29.8965 -29.8915 -29.8223
   -29.6320 -29.6229 -29.6156 -29.5581 -29.5099 -29.5030 -21.7692 -21.7290
   -21.7268 -21.7040 -21.6708 -21.6516 -21.6026 -21.5977 -21.5757 -21.5605
   -21.5465 -21.5234 -21.0736 -20.9368 -20.9178 -20.9016 -20.8938 -20.8708
    -2.6998  -2.5915  -1.8780  -1.5752  -1.2629  -0.6065  -0.5438  -0.2085
     0.0344   0.0991   0.5034   0.5443   0.5864   0.6182   0.7091   0.8076
     0.8144   0.9299   0.9428   1.0508   1.0817   1.2070   1.2717   1.3516
     1.3940   1.4459   1.4804   1.6161   1.6936   1.6972   1.8452   1.8651
     1.9542   2.1750   2.4951

          k = 0.0636-0.0492 0.0000 ( 46038 PWs)   bands (ev):

   -61.6845 -61.6814 -61.4238 -61.4206 -61.1411 -61.1380 -41.6991 -41.6830
   -41.6532 -41.6370 -40.9577 -40.9411 -30.1904 -30.1830 -30.1176 -30.1101
   -30.0977 -30.0248 -29.9582 -29.9502 -29.8992 -29.8968 -29.8914 -29.8222
   -29.6322 -29.6233 -29.6154 -29.5580 -29.5100 -29.5030 -21.7685 -21.7282
   -21.7259 -21.7042 -21.6711 -21.6515 -21.6031 -21.5960 -21.5761 -21.5611
   -21.5448 -21.5238 -21.0728 -20.9369 -20.9178 -20.9023 -20.8922 -20.8711
    -2.9382  -2.4931  -1.9449  -1.5225  -1.1712  -0.6316  -0.4984  -0.2668
    -0.1142  -0.0568   0.4874   0.5189   0.5813   0.6784   0.7172   0.7738
     0.8699   0.8967   1.0192   1.0244   1.1350   1.2151   1.2424   1.3079
     1.4282   1.4906   1.5046   1.6054   1.7384   1.8153   1.9360   1.9636
     2.1226   2.3173   2.3888

          k = 0.0636-0.0352 0.0000 ( 46020 PWs)   bands (ev):

   -61.6845 -61.6814 -61.4238 -61.4206 -61.1411 -61.1380 -41.6991 -41.6830
   -41.6531 -41.6370 -40.9577 -40.9411 -30.1905 -30.1829 -30.1181 -30.1099
   -30.0979 -30.0247 -29.9583 -29.9502 -29.8997 -29.8970 -29.8913 -29.8221
   -29.6324 -29.6237 -29.6152 -29.5578 -29.5101 -29.5029 -21.7675 -21.7272
   -21.7248 -21.7044 -21.6715 -21.6514 -21.6031 -21.5945 -21.5766 -21.5616
   -21.5431 -21.5243 -21.0718 -20.9369 -20.9178 -20.9026 -20.8907 -20.8714
    -3.1331  -2.3503  -2.0769  -1.4566  -1.1085  -0.7929  -0.4214  -0.2542
    -0.2115  -0.1730   0.4122   0.4509   0.4987   0.6259   0.6441   0.8035
     0.8272   0.9912   0.9974   1.1555   1.2033   1.2406   1.2795   1.3003
     1.5016   1.5179   1.5927   1.6259   1.8147   1.9418   2.0136   2.0342
     2.2546   2.3131   2.4562

          k = 0.0636-0.0211 0.0000 ( 46009 PWs)   bands (ev):

   -61.6845 -61.6814 -61.4238 -61.4206 -61.1411 -61.1380 -41.6991 -41.6830
   -41.6531 -41.6370 -40.9576 -40.9412 -30.1905 -30.1829 -30.1186 -30.1097
   -30.0981 -30.0245 -29.9584 -29.9502 -29.9000 -29.8972 -29.8912 -29.8220
   -29.6326 -29.6240 -29.6150 -29.5577 -29.5101 -29.5028 -21.7667 -21.7264
   -21.7239 -21.7046 -21.6719 -21.6514 -21.6030 -21.5934 -21.5770 -21.5618
   -21.5418 -21.5247 -21.0709 -20.9370 -20.9178 -20.9028 -20.8897 -20.8717
    -3.2688  -2.1846  -2.1751  -1.4289  -1.1265  -0.9481  -0.4447  -0.2963
    -0.1673  -0.1553   0.2822   0.3770   0.4112   0.5489   0.6123   0.7480
     0.8424   0.9648   1.1066   1.2087   1.2357   1.2794   1.3287   1.4535
     1.4837   1.5768   1.6632   1.7049   1.9028   2.0048   2.0507   2.0740
     2.1801   2.4112   2.4548

          k = 0.0636-0.0070 0.0000 ( 46025 PWs)   bands (ev):

   -61.6845 -61.6814 -61.4238 -61.4206 -61.1411 -61.1380 -41.6991 -41.6830
   -41.6531 -41.6370 -40.9576 -40.9412 -30.1905 -30.1829 -30.1188 -30.1096
   -30.0983 -30.0245 -29.9585 -29.9502 -29.9003 -29.8973 -29.8911 -29.8219
   -29.6327 -29.6243 -29.6149 -29.5577 -29.5102 -29.5028 -21.7662 -21.7259
   -21.7234 -21.7046 -21.6721 -21.6513 -21.6028 -21.5929 -21.5773 -21.5619
   -21.5410 -21.5249 -21.0704 -20.9370 -20.9178 -20.9028 -20.8891 -20.8719
    -3.3381  -2.2423  -2.0136  -1.5052  -1.1529  -0.9706  -0.5964  -0.2226
    -0.1262  -0.0868   0.1426   0.3176   0.3698   0.5042   0.5975   0.7272
     0.8458   0.9483   1.1739   1.2141   1.2712   1.2884   1.3838   1.4649
     1.5631   1.6504   1.6844   1.7402   1.9541   1.9834   2.0399   2.1393
     2.1708   2.3654   2.4996

          k = 0.0636 0.0070 0.0000 ( 46025 PWs)   bands (ev):

   -61.6845 -61.6814 -61.4238 -61.4206 -61.1411 -61.1380 -41.6991 -41.6830
   -41.6531 -41.6370 -40.9576 -40.9412 -30.1905 -30.1829 -30.1188 -30.1096
   -30.0983 -30.0245 -29.9585 -29.9502 -29.9003 -29.8973 -29.8911 -29.8219
   -29.6327 -29.6243 -29.6149 -29.5577 -29.5102 -29.5028 -21.7662 -21.7259
   -21.7234 -21.7046 -21.6721 -21.6513 -21.6028 -21.5929 -21.5773 -21.5619
   -21.5410 -21.5249 -21.0704 -20.9370 -20.9178 -20.9028 -20.8891 -20.8719
    -3.3381  -2.2423  -2.0136  -1.5052  -1.1529  -0.9706  -0.5964  -0.2226
    -0.1262  -0.0868   0.1426   0.3176   0.3698   0.5042   0.5975   0.7272
     0.8458   0.9483   1.1739   1.2141   1.2712   1.2884   1.3838   1.4649
     1.5631   1.6504   1.6844   1.7402   1.9541   1.9834   2.0399   2.1393
     2.1708   2.3654   2.4996

          k = 0.0636 0.0211 0.0000 ( 46009 PWs)   bands (ev):

   -61.6845 -61.6814 -61.4238 -61.4206 -61.1411 -61.1380 -41.6991 -41.6830
   -41.6531 -41.6370 -40.9576 -40.9412 -30.1905 -30.1829 -30.1186 -30.1097
   -30.0981 -30.0245 -29.9584 -29.9502 -29.9000 -29.8972 -29.8912 -29.8220
   -29.6326 -29.6240 -29.6150 -29.5577 -29.5101 -29.5028 -21.7667 -21.7264
   -21.7239 -21.7046 -21.6719 -21.6514 -21.6030 -21.5934 -21.5770 -21.5618
   -21.5418 -21.5247 -21.0709 -20.9370 -20.9178 -20.9028 -20.8897 -20.8717
    -3.2688  -2.1846  -2.1751  -1.4289  -1.1265  -0.9481  -0.4447  -0.2963
    -0.1673  -0.1553   0.2822   0.3770   0.4112   0.5489   0.6123   0.7480
     0.8424   0.9648   1.1066   1.2087   1.2357   1.2794   1.3287   1.4535
     1.4837   1.5768   1.6632   1.7049   1.9027   2.0048   2.0507   2.0740
     2.1801   2.4112   2.4548

          k =-0.0763-0.0422 0.0000 ( 46060 PWs)   bands (ev):

   -61.6830 -61.6830 -61.4222 -61.4221 -61.1396 -61.1395 -41.6911 -41.6911
   -41.6451 -41.6451 -40.9497 -40.9492 -30.1867 -30.1867 -30.1139 -30.1139
   -30.0614 -30.0614 -29.9543 -29.9542 -29.8955 -29.8954 -29.8601 -29.8591
   -29.6194 -29.6194 -29.5952 -29.5952 -29.5065 -29.5064 -21.7149 -21.7149
   -21.6857 -21.6854 -21.6616 -21.6616 -21.6448 -21.6448 -21.5864 -21.5864
   -21.5342 -21.5342 -20.9880 -20.9876 -20.9275 -20.9271 -20.8819 -20.8815
    -2.7446  -2.7444  -1.7481  -1.7477  -0.8999  -0.8997  -0.2946  -0.2945
    -0.1380  -0.1377   0.5204   0.5206   0.6553   0.6555   0.7849   0.7851
     0.8740   0.8741   1.0473   1.0473   1.1481   1.1482   1.2465   1.2466
     1.4747   1.4749   1.5336   1.5339   1.7810   1.7822   1.9678   1.9686
     2.3023   2.3027   2.4027

          k =-0.0763-0.0281 0.0000 ( 46042 PWs)   bands (ev):

   -61.6830 -61.6830 -61.4222 -61.4221 -61.1396 -61.1395 -41.6911 -41.6911
   -41.6451 -41.6451 -40.9497 -40.9492 -30.1867 -30.1867 -30.1143 -30.1136
   -30.0616 -30.0612 -29.9543 -29.9541 -29.8957 -29.8952 -29.8601 -29.8591
   -29.6197 -29.6191 -29.5954 -29.5950 -29.5066 -29.5064 -21.7156 -21.7143
   -21.6862 -21.6848 -21.6618 -21.6612 -21.6455 -21.6441 -21.5876 -21.5852
   -21.5353 -21.5331 -20.9885 -20.9870 -20.9275 -20.9271 -20.8827 -20.8807
    -2.8923  -2.5489  -1.8479  -1.6546  -1.0366  -0.8389  -0.3972  -0.1858
    -0.1761  -0.0334   0.4839   0.5114   0.6035   0.6654   0.7076   0.7537
     0.8349   0.9672   1.0073   1.0965   1.1228   1.1979   1.2565   1.3358
     1.4661   1.4823   1.5221   1.5754   1.7368   1.8333   1.9446   1.9588
     2.1108   2.3032   2.4639

          k =-0.0763-0.0141 0.0000 ( 46047 PWs)   bands (ev):

   -61.6830 -61.6830 -61.4222 -61.4221 -61.1396 -61.1395 -41.6911 -41.6910
   -41.6451 -41.6450 -40.9497 -40.9492 -30.1868 -30.1866 -30.1145 -30.1133
   -30.0617 -30.0611 -29.9544 -29.9541 -29.8959 -29.8950 -29.8602 -29.8591
   -29.6199 -29.6189 -29.5955 -29.5949 -29.5066 -29.5063 -21.7160 -21.7138
   -21.6867 -21.6843 -21.6620 -21.6610 -21.6460 -21.6436 -21.5885 -21.5844
   -21.5361 -21.5324 -20.9890 -20.9864 -20.9275 -20.9271 -20.8834 -20.8801
    -2.9835  -2.3301  -1.9147  -1.6799  -1.0916  -0.8359  -0.5764  -0.0783
    -0.0495   0.0495   0.3397   0.4575   0.5309   0.6471   0.6884   0.7161
     0.8303   0.9858   1.0511   1.0842   1.1861   1.1997   1.3034   1.4321
     1.4508   1.5218   1.5313   1.6219   1.7419   1.8667   1.8918   1.9247
     1.9828   2.2168   2.5162

          k =-0.0763 0.0000 0.0000 ( 46093 PWs)   bands (ev):

   -61.6830 -61.6830 -61.4222 -61.4221 -61.1396 -61.1395 -41.6911 -41.6910
   -41.6451 -41.6450 -40.9497 -40.9492 -30.1868 -30.1866 -30.1146 -30.1132
   -30.0618 -30.0611 -29.9544 -29.9541 -29.8960 -29.8949 -29.8602 -29.8590
   -29.6200 -29.6188 -29.5956 -29.5949 -29.5066 -29.5063 -21.7162 -21.7136
   -21.6869 -21.6841 -21.6620 -21.6609 -21.6462 -21.6434 -21.5888 -21.5841
   -21.5364 -21.5321 -20.9892 -20.9862 -20.9276 -20.9271 -20.8836 -20.8799
    -3.0142  -2.1964  -1.9378  -1.7714  -1.0463  -0.8396  -0.6893  -0.0091
     0.0570   0.1034   0.1811   0.4143   0.5088   0.6264   0.7089   0.7145
     0.8145   0.9741   1.0849   1.0977   1.2063   1.2117   1.3042   1.4140
     1.4876   1.5123   1.6045   1.6238   1.7801   1.8430   1.8442   1.9211
     1.9493   2.1797   2.5319

          k =-0.0763 0.0141 0.0000 ( 46047 PWs)   bands (ev):

   -61.6830 -61.6830 -61.4222 -61.4221 -61.1396 -61.1395 -41.6911 -41.6910
   -41.6451 -41.6450 -40.9497 -40.9492 -30.1868 -30.1866 -30.1145 -30.1133
   -30.0617 -30.0611 -29.9544 -29.9541 -29.8959 -29.8950 -29.8602 -29.8591
   -29.6199 -29.6189 -29.5955 -29.5949 -29.5066 -29.5063 -21.7160 -21.7138
   -21.6867 -21.6843 -21.6620 -21.6610 -21.6460 -21.6436 -21.5885 -21.5844
   -21.5361 -21.5324 -20.9890 -20.9864 -20.9275 -20.9271 -20.8834 -20.8801
    -2.9835  -2.3301  -1.9147  -1.6799  -1.0916  -0.8359  -0.5764  -0.0783
    -0.0495   0.0495   0.3397   0.4575   0.5309   0.6471   0.6884   0.7161
     0.8303   0.9858   1.0511   1.0842   1.1861   1.1997   1.3034   1.4321
     1.4508   1.5218   1.5313   1.6219   1.7419   1.8667   1.8918   1.9247
     1.9828   2.2168   2.5159

          k =-0.0763 0.0281 0.0000 ( 46042 PWs)   bands (ev):

   -61.6830 -61.6830 -61.4222 -61.4221 -61.1396 -61.1395 -41.6911 -41.6911
   -41.6451 -41.6451 -40.9497 -40.9492 -30.1867 -30.1867 -30.1143 -30.1136
   -30.0616 -30.0612 -29.9543 -29.9541 -29.8957 -29.8952 -29.8601 -29.8591
   -29.6197 -29.6191 -29.5954 -29.5950 -29.5066 -29.5064 -21.7156 -21.7143
   -21.6862 -21.6848 -21.6618 -21.6612 -21.6455 -21.6441 -21.5876 -21.5852
   -21.5353 -21.5331 -20.9885 -20.9870 -20.9275 -20.9271 -20.8827 -20.8807
    -2.8923  -2.5489  -1.8479  -1.6546  -1.0366  -0.8389  -0.3972  -0.1858
    -0.1761  -0.0334   0.4839   0.5114   0.6035   0.6654   0.7076   0.7537
     0.8349   0.9672   1.0073   1.0965   1.1228   1.1979   1.2565   1.3358
     1.4660   1.4823   1.5221   1.5754   1.7368   1.8333   1.9446   1.9588
     2.1108   2.3032   2.4641

          k =-0.0763-0.1266 0.0000 ( 46060 PWs)   bands (ev):

   -61.6830 -61.6830 -61.4222 -61.4221 -61.1396 -61.1395 -41.6911 -41.6911
   -41.6451 -41.6451 -40.9497 -40.9492 -30.1867 -30.1867 -30.1139 -30.1139
   -30.0614 -30.0614 -29.9543 -29.9542 -29.8955 -29.8954 -29.8601 -29.8591
   -29.6194 -29.6194 -29.5952 -29.5952 -29.5065 -29.5064 -21.7149 -21.7149
   -21.6857 -21.6854 -21.6616 -21.6616 -21.6448 -21.6448 -21.5864 -21.5863
   -21.5342 -21.5342 -20.9880 -20.9876 -20.9275 -20.9271 -20.8819 -20.8815
    -2.7446  -2.7444  -1.7481  -1.7478  -0.8999  -0.8997  -0.2946  -0.2946
    -0.1379  -0.1377   0.5205   0.5206   0.6552   0.6555   0.7849   0.7851
     0.8740   0.8742   1.0473   1.0473   1.1480   1.1482   1.2465   1.2466
     1.4747   1.4748   1.5336   1.5339   1.7812   1.7820   1.9680   1.9685
     2.3023   2.3027   2.4027

     the Fermi energy is     1.2500 ev

!    total energy              =   -1261.49472112 Ry
     estimated scf accuracy    <       0.00000211 Ry
     smearing contrib. (-TS)   =      -0.10081177 Ry
     internal energy E=F+TS    =   -1261.39390935 Ry

     The total energy is F=E-TS. E is the sum of the following terms:
     one-electron contribution =   -6953.83296524 Ry
     hartree contribution      =    3465.32615595 Ry
     xc contribution           =    -367.43600852 Ry
     ewald contribution        =    2594.54890584 Ry
     electric field correction =       0.00000262 Ry

     convergence has been achieved in  18 iterations

     negative rho (up, down):  1.175E-04 0.000E+00

     Forces acting on atoms (cartesian axes, Ry/au):

     atom    1 type  1   force =    -0.00000651    0.00846360    0.02626515
     atom    2 type  1   force =     0.00000615    0.00846656    0.02626632
     atom    3 type  2   force =     0.00000269   -0.01078441   -0.00802493
     atom    4 type  2   force =    -0.00000202   -0.01078931   -0.00803419
     atom    5 type  1   force =     0.00001702   -0.00250736   -0.00527476
     atom    6 type  1   force =    -0.00001846   -0.00251501   -0.00528615
     atom    7 type  2   force =    -0.00000206    0.00406388   -0.01130520
     atom    8 type  2   force =     0.00000272    0.00402395   -0.01125682
     atom    9 type  1   force =     0.00006724    0.00079901   -0.00029509
     atom   10 type  1   force =    -0.00006866    0.00077602   -0.00030381
     atom   11 type  2   force =    -0.00002383    0.00000413   -0.00136735
     atom   12 type  2   force =     0.00002572   -0.00000107   -0.00138318

     Total force =     0.047388     Total SCF correction =     0.003703

     Writing output data file ./Hf2Y2/Hf2Y2_beef.save/

     init_run     :    482.06s CPU    484.59s WALL (       1 calls)
     electrons    :   5517.61s CPU   6716.49s WALL (       1 calls)
     forces       :     62.64s CPU     62.96s WALL (       1 calls)

     Called by init_run:
     wfcinit      :    447.94s CPU    450.29s WALL (       1 calls)
     potinit      :     25.24s CPU     25.31s WALL (       1 calls)
     hinit0       :      5.44s CPU      5.45s WALL (       1 calls)

     Called by electrons:
     c_bands      :   4576.50s CPU   5724.98s WALL (      18 calls)
     sum_band     :    854.45s CPU    899.43s WALL (      18 calls)
     v_of_rho     :     80.31s CPU     83.19s WALL (      19 calls)
     newd         :     23.97s CPU     26.33s WALL (      19 calls)
     mix_rho      :      4.53s CPU      4.56s WALL (      18 calls)
     vdW_kernel   :     12.91s CPU     12.91s WALL (       1 calls)

     Called by c_bands:
     init_us_2    :     11.82s CPU     11.89s WALL (    2812 calls)
     cegterg      :   4526.34s CPU   5661.37s WALL (    1332 calls)

     Called by *egterg:
     cdiaghg      :    111.47s CPU    120.14s WALL (    6135 calls)
     h_psi        :   3322.29s CPU   4302.55s WALL (    6209 calls)
     s_psi        :    449.09s CPU    477.41s WALL (    6209 calls)
     g_psi        :      1.39s CPU      1.50s WALL (    4803 calls)

     Called by h_psi:
     h_psi:calbec :    583.63s CPU    644.11s WALL (    6209 calls)
     vloc_psi     :   2258.61s CPU   3145.63s WALL (    6209 calls)
     add_vuspsi   :    474.94s CPU    507.63s WALL (    6209 calls)

     General routines
     calbec       :    955.90s CPU   1021.18s WALL (    7837 calls)
     fft          :     68.71s CPU     70.81s WALL (    1256 calls)
     ffts         :      1.20s CPU      1.26s WALL (      37 calls)
     fftw         :   2713.01s CPU   3637.83s WALL (  626398 calls)
     interpolate  :      1.74s CPU      1.85s WALL (      19 calls)

     Parallel routines
     fft_scatt_xy :     46.99s CPU     47.29s WALL (  627691 calls)
     fft_scatt_yz :   2266.55s CPU   3189.54s WALL (  627691 calls)

     PWSCF        :      1h45m CPU      2h 6m WALL


   This run was terminated on:  23:46:38  24Jun2022            

=------------------------------------------------------------------------------=
   JOB DONE.
=------------------------------------------------------------------------------=
