
     Program PWSCF v.6.6 starts on 23Jun2022 at 22:21:50 

     This program is part of the open-source Quantum ESPRESSO suite
     for quantum simulation of materials; please cite
         "P. Giannozzi et al., J. Phys.:Condens. Matter 21 395502 (2009);
         "P. Giannozzi et al., J. Phys.:Condens. Matter 29 465901 (2017);
          URL http://www.quantum-espresso.org", 
     in publications or presentations arising from this work. More details at
     http://www.quantum-espresso.org/quote

     Parallel version (MPI), running on    37 processors

     MPI processes distributed on     3 nodes
     R & G space division:  proc/nbgrp/npool/nimage =      37
     Fft bands division:     nmany     =       1
     Reading input from Ir2Au2.in
Warning: card &CELL ignored
Warning: card / ignored

     Current dimensions of program PWSCF are:
     Max number of different atomic species (ntypx) = 10
     Max number of k-points (npk) =  40000
     Max angular momentum in pseudopotentials (lmaxx) =  3
     Presently stress not available with electric field and gates

     Message from routine cell_base_init:
     DEPRECATED: use true lattice parameter, not A to a.u. conversion factor
     file Ir.pbe-n-rrkjus_psl.0.2.3.UPF: wavefunction(s)  5D renormalized

     **************************************************************************
     Initializing libbeef V0.1.2 with the BEEF-vdW functional.
     Citation: Wellendorff et al., PRB 85, 235149 (2012).
     **************************************************************************


     IMPORTANT: XC functional enforced from input :
     Exchange-correlation= BEEF-VDW
                           (   1   4  43  14   2   0   0)
     Any further DFT definition will be discarded
     Please, verify this is what you really want


     Subspace diagonalization in iterative solution of the eigenvalue problem:
     a serial algorithm will be used

     Found symmetry operation: I + (  0.5000  0.0000  0.0000)
     This is a supercell, fractional translations are disabled

     Parallelization info
     --------------------
     sticks:   dense  smooth     PW     G-vecs:    dense   smooth      PW
     Min         119      47     13                27669     6989    1079
     Max         120      48     14                27686     7010    1108
     Sum        4413    1761    509              1023937   259001   40547



     bravais-lattice index     =            0
     lattice parameter (alat)  =       1.8897  a.u.
     unit-cell volume          =    4683.7559 (a.u.)^3
     number of atoms/cell      =           12
     number of atomic types    =            2
     number of electrons       =       120.00
     number of Kohn-Sham states=           72
     kinetic-energy cutoff     =      55.1240  Ry
     charge density cutoff     =     551.2396  Ry
     convergence threshold     =      1.0E-05
     mixing beta               =       0.1000
     number of iterations used =           10  plain     mixing
     Exchange-correlation= BEEF-VDW
                           (   1   4  43  14   2   0   0)

     celldm(1)=   1.889726  celldm(2)=   0.000000  celldm(3)=   0.000000
     celldm(4)=   0.000000  celldm(5)=   0.000000  celldm(6)=   0.000000

     crystal axes: (cart. coord. in units of alat)
               a(1) = (   5.643484   0.000000   0.000000 )  
               a(2) = (  -2.821742   4.988450   0.000000 )  
               a(3) = (   0.000000   0.000000  24.653854 )  

     reciprocal axes: (cart. coord. in units 2 pi/alat)
               b(1) = (  0.177196  0.100232 -0.000000 )  
               b(2) = (  0.000000  0.200463  0.000000 )  
               b(3) = (  0.000000 -0.000000  0.040562 )  


     PseudoPot. # 1 for Ir read from file:
     ../pseudo/Ir.pbe-n-rrkjus_psl.0.2.3.UPF
     MD5 check sum: a93e608e8ddc29ee62145620b5f41564
     Pseudo is Ultrasoft + core correction, Zval =  9.0
     Generated using "atomic" code by A. Dal Corso v.5.0.2 svn rev. 9415
     Using radial grid of 1277 points,  6 beta functions with: 
                l(1) =   0
                l(2) =   0
                l(3) =   1
                l(4) =   1
                l(5) =   2
                l(6) =   2
     Q(r) pseudized with 0 coefficients 


     PseudoPot. # 2 for Au read from file:
     ../pseudo/Au.pbe-n-rrkjus_psl.1.0.0.UPF
     MD5 check sum: d7e77ba19504afed2c9b41c931dde4f0
     Pseudo is Ultrasoft + core correction, Zval = 11.0
     Generated using "atomic" code by A. Dal Corso v.6.3
     Using radial grid of 1279 points,  6 beta functions with: 
                l(1) =   0
                l(2) =   0
                l(3) =   1
                l(4) =   1
                l(5) =   2
                l(6) =   2
     Q(r) pseudized with 0 coefficients 


     atomic species   valence    mass     pseudopotential
        Ir             9.00   192.21700     Ir( 1.00)
        Au            11.00   196.96657     Au( 1.00)

     No symmetry found



   Cartesian axes

     site n.     atom                  positions (alat units)
         1           Ir  tau(   1) = (   0.0000000   0.0000000  10.0000000  )
         2           Ir  tau(   2) = (   2.8217420   0.0000000  10.0000000  )
         3           Au  tau(   3) = (   1.4108710   2.4942248  10.0000000  )
         4           Au  tau(   4) = (  -1.4108710   2.4942248  10.0000000  )
         5           Ir  tau(   5) = (   2.8217420   1.5961328  12.3269268  )
         6           Ir  tau(   6) = (  -0.0000000   1.5961328  12.3269268  )
         7           Au  tau(   7) = (  -1.4108710   4.0903576  12.3269268  )
         8           Au  tau(   8) = (   1.4108710   4.0903576  12.3269268  )
         9           Ir  tau(   9) = (  -0.0000007   2.6741982  14.5735499  )
        10           Ir  tau(  10) = (   2.8217363   2.6742112  14.5735527  )
        11           Au  tau(  11) = (   4.2326270   0.2214566  14.9624147  )
        12           Au  tau(  12) = (   1.4108460   0.2214473  14.9624197  )

     number of k points=    74  Fermi-Dirac smearing, width (Ry)=  0.0100
                       cart. coord. in units 2pi/alat
        k(    1) = (   0.0000000   0.0000000   0.0000000), wk =   0.0138889
        k(    2) = (   0.0000000   0.0167053   0.0000000), wk =   0.0277778
        k(    3) = (   0.0000000   0.0334105   0.0000000), wk =   0.0277778
        k(    4) = (   0.0000000   0.0501158   0.0000000), wk =   0.0277778
        k(    5) = (   0.0000000   0.0668210   0.0000000), wk =   0.0277778
        k(    6) = (   0.0000000   0.0835263   0.0000000), wk =   0.0277778
        k(    7) = (   0.0000000  -0.1002315   0.0000000), wk =   0.0138889
        k(    8) = (   0.0147663   0.0083526   0.0000000), wk =   0.0277778
        k(    9) = (   0.0147663   0.0250579   0.0000000), wk =   0.0277778
        k(   10) = (   0.0147663   0.0417631   0.0000000), wk =   0.0277778
        k(   11) = (   0.0147663   0.0584684   0.0000000), wk =   0.0277778
        k(   12) = (   0.0147663   0.0751737   0.0000000), wk =   0.0277778
        k(   13) = (   0.0147663   0.0918789   0.0000000), wk =   0.0277778
        k(   14) = (   0.0147663  -0.0918789   0.0000000), wk =   0.0277778
        k(   15) = (   0.0147663  -0.0751737   0.0000000), wk =   0.0277778
        k(   16) = (   0.0147663  -0.0584684   0.0000000), wk =   0.0277778
        k(   17) = (   0.0147663  -0.0417631   0.0000000), wk =   0.0277778
        k(   18) = (   0.0147663  -0.0250579   0.0000000), wk =   0.0277778
        k(   19) = (   0.0147663  -0.0083526   0.0000000), wk =   0.0277778
        k(   20) = (   0.0295326   0.0167053   0.0000000), wk =   0.0277778
        k(   21) = (   0.0295326   0.0334105   0.0000000), wk =   0.0277778
        k(   22) = (   0.0295326   0.0501158   0.0000000), wk =   0.0277778
        k(   23) = (   0.0295326   0.0668210   0.0000000), wk =   0.0277778
        k(   24) = (   0.0295326   0.0835263   0.0000000), wk =   0.0277778
        k(   25) = (   0.0295326   0.1002315   0.0000000), wk =   0.0277778
        k(   26) = (   0.0295326  -0.0835263   0.0000000), wk =   0.0277778
        k(   27) = (   0.0295326  -0.0668210   0.0000000), wk =   0.0277778
        k(   28) = (   0.0295326  -0.0501158   0.0000000), wk =   0.0277778
        k(   29) = (   0.0295326  -0.0334105   0.0000000), wk =   0.0277778
        k(   30) = (   0.0295326  -0.0167053   0.0000000), wk =   0.0277778
        k(   31) = (   0.0295326  -0.0000000   0.0000000), wk =   0.0277778
        k(   32) = (   0.0442989   0.0250579   0.0000000), wk =   0.0277778
        k(   33) = (   0.0442989   0.0417631   0.0000000), wk =   0.0277778
        k(   34) = (   0.0442989   0.0584684   0.0000000), wk =   0.0277778
        k(   35) = (   0.0442989   0.0751737   0.0000000), wk =   0.0277778
        k(   36) = (   0.0442989   0.0918789   0.0000000), wk =   0.0277778
        k(   37) = (   0.0442989   0.1085842   0.0000000), wk =   0.0277778
        k(   38) = (   0.0442989  -0.0751737   0.0000000), wk =   0.0277778
        k(   39) = (   0.0442989  -0.0584684   0.0000000), wk =   0.0277778
        k(   40) = (   0.0442989  -0.0417631   0.0000000), wk =   0.0277778
        k(   41) = (   0.0442989  -0.0250579   0.0000000), wk =   0.0277778
        k(   42) = (   0.0442989  -0.0083526   0.0000000), wk =   0.0277778
        k(   43) = (   0.0442989   0.0083526   0.0000000), wk =   0.0277778
        k(   44) = (   0.0590652   0.0334105   0.0000000), wk =   0.0277778
        k(   45) = (   0.0590652   0.0501158   0.0000000), wk =   0.0277778
        k(   46) = (   0.0590652   0.0668210   0.0000000), wk =   0.0277778
        k(   47) = (   0.0590652   0.0835263   0.0000000), wk =   0.0277778
        k(   48) = (   0.0590652   0.1002315   0.0000000), wk =   0.0277778
        k(   49) = (   0.0590652   0.1169368   0.0000000), wk =   0.0277778
        k(   50) = (   0.0590652  -0.0668210   0.0000000), wk =   0.0277778
        k(   51) = (   0.0590652  -0.0501158   0.0000000), wk =   0.0277778
        k(   52) = (   0.0590652  -0.0334105   0.0000000), wk =   0.0277778
        k(   53) = (   0.0590652  -0.0167053   0.0000000), wk =   0.0277778
        k(   54) = (   0.0590652   0.0000000   0.0000000), wk =   0.0277778
        k(   55) = (   0.0590652   0.0167053   0.0000000), wk =   0.0277778
        k(   56) = (   0.0738315   0.0417631   0.0000000), wk =   0.0277778
        k(   57) = (   0.0738315   0.0584684   0.0000000), wk =   0.0277778
        k(   58) = (   0.0738315   0.0751737   0.0000000), wk =   0.0277778
        k(   59) = (   0.0738315   0.0918789   0.0000000), wk =   0.0277778
        k(   60) = (   0.0738315   0.1085842   0.0000000), wk =   0.0277778
        k(   61) = (   0.0738315   0.1252894   0.0000000), wk =   0.0277778
        k(   62) = (   0.0738315  -0.0584684   0.0000000), wk =   0.0277778
        k(   63) = (   0.0738315  -0.0417631   0.0000000), wk =   0.0277778
        k(   64) = (   0.0738315  -0.0250579   0.0000000), wk =   0.0277778
        k(   65) = (   0.0738315  -0.0083526   0.0000000), wk =   0.0277778
        k(   66) = (   0.0738315   0.0083526   0.0000000), wk =   0.0277778
        k(   67) = (   0.0738315   0.0250579   0.0000000), wk =   0.0277778
        k(   68) = (  -0.0885978  -0.0501158   0.0000000), wk =   0.0138889
        k(   69) = (  -0.0885978  -0.0334105   0.0000000), wk =   0.0277778
        k(   70) = (  -0.0885978  -0.0167053   0.0000000), wk =   0.0277778
        k(   71) = (  -0.0885978   0.0000000   0.0000000), wk =   0.0277778
        k(   72) = (  -0.0885978   0.0167053   0.0000000), wk =   0.0277778
        k(   73) = (  -0.0885978   0.0334105   0.0000000), wk =   0.0277778
        k(   74) = (  -0.0885978  -0.1503473   0.0000000), wk =   0.0138889

     Dense  grid:  1023937 G-vectors     FFT dimensions: (  80,  81, 360)

     Smooth grid:   259001 G-vectors     FFT dimensions: (  54,  54, 225)

     Estimated max dynamical RAM per process >     182.52 MB

     Estimated total dynamical RAM >       6.60 GB

     Initial potential from superposition of free atoms

     starting charge  119.99845, renormalised to  120.00000

     negative rho (up, down):  9.671E-04 0.000E+00


     %%%%%%%%%%%%%%%%%%%%%%%%%%%%%%%%%%%%%%%%%%%%%%%%%%%%%%%%%%%%%%%%%%%%%%%%
     %                                                                      %
     % You are using vdW-DF, which was implemented by the Thonhauser group. %
     % Please cite the following two papers that made this development      %
     % possible and the two reviews that describe the various versions:     %
     %                                                                      %
     %   T. Thonhauser et al., PRL 115, 136402 (2015).                      %
     %   T. Thonhauser et al., PRB 76, 125112 (2007).                       %
     %   K. Berland et al., Rep. Prog. Phys. 78, 066501 (2015).             %
     %   D.C. Langreth et al., J. Phys.: Condens. Matter 21, 084203 (2009). %
     %                                                                      %
     %                                                                      %
     % If you are calculating the stress with vdW-DF, please also cite:     %
     %                                                                      %
     %   R. Sabatini et al., J. Phys.: Condens. Matter 24, 424209 (2012).   %
     %                                                                      %
     %%%%%%%%%%%%%%%%%%%%%%%%%%%%%%%%%%%%%%%%%%%%%%%%%%%%%%%%%%%%%%%%%%%%%%%%



     Adding external electric field

     Computed dipole along edir(3) : 
        Dipole               -0.0000 Ry au,         -0.0001 Debye
        Dipole field         -0.0000 Ry au, 

        Potential amp.        0.0000 Ry
        Total length         45.4243 bohr

     Starting wfcs are  108 randomized atomic wfcs

     total cpu time spent up to now is      115.9 secs

     Self-consistent Calculation

     iteration #  1     ecut=    55.12 Ry     beta= 0.10
     Davidson diagonalization with overlap
     ethr =  1.00E-02,  avg # of iterations =  2.0

     negative rho (up, down):  8.568E-04 0.000E+00

     Adding external electric field

     Computed dipole along edir(3) : 
        Dipole                0.1792 Ry au,          0.4555 Debye
        Dipole field          0.0005 Ry au, 

        Potential amp.       -0.0437 Ry
        Total length         45.4243 bohr


     total cpu time spent up to now is      294.6 secs

     total energy              =    -896.37131020 Ry
     estimated scf accuracy    <       5.30674948 Ry

     iteration #  2     ecut=    55.12 Ry     beta= 0.10
     Davidson diagonalization with overlap
     ethr =  4.42E-03,  avg # of iterations =  1.0

     negative rho (up, down):  8.205E-04 0.000E+00

     Adding external electric field

     Computed dipole along edir(3) : 
        Dipole               -0.3745 Ry au,         -0.9519 Debye
        Dipole field         -0.0010 Ry au, 

        Potential amp.        0.0913 Ry
        Total length         45.4243 bohr


     total cpu time spent up to now is      456.1 secs

     total energy              =    -896.70738682 Ry
     estimated scf accuracy    <       0.64967168 Ry

     iteration #  3     ecut=    55.12 Ry     beta= 0.10
     Davidson diagonalization with overlap
     ethr =  5.41E-04,  avg # of iterations =  3.9

     negative rho (up, down):  8.252E-04 0.000E+00

     Adding external electric field

     Computed dipole along edir(3) : 
        Dipole                0.0974 Ry au,          0.2475 Debye
        Dipole field          0.0003 Ry au, 

        Potential amp.       -0.0237 Ry
        Total length         45.4243 bohr


     total cpu time spent up to now is      667.2 secs

     total energy              =    -896.68649564 Ry
     estimated scf accuracy    <      12.39420310 Ry

     iteration #  4     ecut=    55.12 Ry     beta= 0.10
     Davidson diagonalization with overlap
     ethr =  5.41E-04,  avg # of iterations =  1.1

     negative rho (up, down):  8.316E-04 0.000E+00

     Adding external electric field

     Computed dipole along edir(3) : 
        Dipole                0.0795 Ry au,          0.2021 Debye
        Dipole field          0.0002 Ry au, 

        Potential amp.       -0.0194 Ry
        Total length         45.4243 bohr


     total cpu time spent up to now is      830.0 secs

     total energy              =    -896.87055984 Ry
     estimated scf accuracy    <       0.06512417 Ry

     iteration #  5     ecut=    55.12 Ry     beta= 0.10
     Davidson diagonalization with overlap
     ethr =  5.43E-05,  avg # of iterations =  5.3

     negative rho (up, down):  8.577E-04 0.000E+00

     Adding external electric field

     Computed dipole along edir(3) : 
        Dipole                0.0565 Ry au,          0.1437 Debye
        Dipole field          0.0002 Ry au, 

        Potential amp.       -0.0138 Ry
        Total length         45.4243 bohr


     total cpu time spent up to now is     1100.5 secs

     total energy              =    -896.88459214 Ry
     estimated scf accuracy    <       0.05666416 Ry

     iteration #  6     ecut=    55.12 Ry     beta= 0.10
     Davidson diagonalization with overlap
     ethr =  4.72E-05,  avg # of iterations =  1.0

     negative rho (up, down):  9.839E-04 0.000E+00

     Adding external electric field

     Computed dipole along edir(3) : 
        Dipole                0.0221 Ry au,          0.0562 Debye
        Dipole field          0.0001 Ry au, 

        Potential amp.       -0.0054 Ry
        Total length         45.4243 bohr


     total cpu time spent up to now is     1266.2 secs

     total energy              =    -896.88535015 Ry
     estimated scf accuracy    <       0.02654518 Ry

     iteration #  7     ecut=    55.12 Ry     beta= 0.10
     Davidson diagonalization with overlap
     ethr =  2.21E-05,  avg # of iterations =  2.3

     negative rho (up, down):  1.058E-03 0.000E+00

     Adding external electric field

     Computed dipole along edir(3) : 
        Dipole                0.0573 Ry au,          0.1457 Debye
        Dipole field          0.0002 Ry au, 

        Potential amp.       -0.0140 Ry
        Total length         45.4243 bohr


     total cpu time spent up to now is     1461.1 secs

     total energy              =    -896.88590262 Ry
     estimated scf accuracy    <       0.02000790 Ry

     iteration #  8     ecut=    55.12 Ry     beta= 0.10
     Davidson diagonalization with overlap
     ethr =  1.67E-05,  avg # of iterations =  2.1

     negative rho (up, down):  1.067E-03 0.000E+00

     Adding external electric field

     Computed dipole along edir(3) : 
        Dipole                0.0633 Ry au,          0.1609 Debye
        Dipole field          0.0002 Ry au, 

        Potential amp.       -0.0154 Ry
        Total length         45.4243 bohr


     total cpu time spent up to now is     1635.9 secs

     total energy              =    -896.88880381 Ry
     estimated scf accuracy    <       0.01288590 Ry

     iteration #  9     ecut=    55.12 Ry     beta= 0.10
     Davidson diagonalization with overlap
     ethr =  1.07E-05,  avg # of iterations =  1.6

     negative rho (up, down):  1.113E-03 0.000E+00

     Adding external electric field

     Computed dipole along edir(3) : 
        Dipole                0.0680 Ry au,          0.1728 Debye
        Dipole field          0.0002 Ry au, 

        Potential amp.       -0.0166 Ry
        Total length         45.4243 bohr


     total cpu time spent up to now is     1801.8 secs

     total energy              =    -896.88893445 Ry
     estimated scf accuracy    <       0.00665011 Ry

     iteration # 10     ecut=    55.12 Ry     beta= 0.10
     Davidson diagonalization with overlap
     ethr =  5.54E-06,  avg # of iterations =  4.6

     negative rho (up, down):  1.092E-03 0.000E+00

     Adding external electric field

     Computed dipole along edir(3) : 
        Dipole                0.0602 Ry au,          0.1531 Debye
        Dipole field          0.0002 Ry au, 

        Potential amp.       -0.0147 Ry
        Total length         45.4243 bohr


     total cpu time spent up to now is     1978.4 secs

     total energy              =    -896.88884181 Ry
     estimated scf accuracy    <       0.00520691 Ry

     iteration # 11     ecut=    55.12 Ry     beta= 0.10
     Davidson diagonalization with overlap
     ethr =  4.34E-06,  avg # of iterations =  1.1

     negative rho (up, down):  1.074E-03 0.000E+00

     Adding external electric field

     Computed dipole along edir(3) : 
        Dipole                0.0554 Ry au,          0.1408 Debye
        Dipole field          0.0001 Ry au, 

        Potential amp.       -0.0135 Ry
        Total length         45.4243 bohr


     total cpu time spent up to now is     2142.3 secs

     total energy              =    -896.88892550 Ry
     estimated scf accuracy    <       0.00127458 Ry

     iteration # 12     ecut=    55.12 Ry     beta= 0.10
     Davidson diagonalization with overlap
     ethr =  1.06E-06,  avg # of iterations =  3.9

     negative rho (up, down):  1.074E-03 0.000E+00

     Adding external electric field

     Computed dipole along edir(3) : 
        Dipole                0.0554 Ry au,          0.1408 Debye
        Dipole field          0.0001 Ry au, 

        Potential amp.       -0.0135 Ry
        Total length         45.4243 bohr


     total cpu time spent up to now is     2325.5 secs

     total energy              =    -896.88902211 Ry
     estimated scf accuracy    <       0.00032866 Ry

     iteration # 13     ecut=    55.12 Ry     beta= 0.10
     Davidson diagonalization with overlap
     ethr =  2.74E-07,  avg # of iterations =  4.4

     negative rho (up, down):  1.056E-03 0.000E+00

     Adding external electric field

     Computed dipole along edir(3) : 
        Dipole                0.0537 Ry au,          0.1364 Debye
        Dipole field          0.0001 Ry au, 

        Potential amp.       -0.0131 Ry
        Total length         45.4243 bohr


     total cpu time spent up to now is     2571.5 secs

     total energy              =    -896.88909302 Ry
     estimated scf accuracy    <       0.00088565 Ry

     iteration # 14     ecut=    55.12 Ry     beta= 0.10
     Davidson diagonalization with overlap
     ethr =  2.74E-07,  avg # of iterations =  1.2

     negative rho (up, down):  1.037E-03 0.000E+00

     Adding external electric field

     Computed dipole along edir(3) : 
        Dipole                0.0535 Ry au,          0.1361 Debye
        Dipole field          0.0001 Ry au, 

        Potential amp.       -0.0130 Ry
        Total length         45.4243 bohr


     total cpu time spent up to now is     2732.5 secs

     total energy              =    -896.88911928 Ry
     estimated scf accuracy    <       0.00001572 Ry

     iteration # 15     ecut=    55.12 Ry     beta= 0.10
     Davidson diagonalization with overlap
     c_bands:  1 eigenvalues not converged
     ethr =  1.31E-08,  avg # of iterations =  6.2

     negative rho (up, down):  1.024E-03 0.000E+00

     Adding external electric field

     Computed dipole along edir(3) : 
        Dipole                0.0529 Ry au,          0.1346 Debye
        Dipole field          0.0001 Ry au, 

        Potential amp.       -0.0129 Ry
        Total length         45.4243 bohr


     total cpu time spent up to now is     3104.4 secs

     total energy              =    -896.88913322 Ry
     estimated scf accuracy    <       0.00001278 Ry

     iteration # 16     ecut=    55.12 Ry     beta= 0.10
     Davidson diagonalization with overlap
     c_bands:  1 eigenvalues not converged
     ethr =  1.07E-08,  avg # of iterations =  2.3

     negative rho (up, down):  1.010E-03 0.000E+00

     Adding external electric field

     Computed dipole along edir(3) : 
        Dipole                0.0540 Ry au,          0.1371 Debye
        Dipole field          0.0001 Ry au, 

        Potential amp.       -0.0132 Ry
        Total length         45.4243 bohr


     total cpu time spent up to now is     3299.6 secs

     total energy              =    -896.88913264 Ry
     estimated scf accuracy    <       0.00001143 Ry

     iteration # 17     ecut=    55.12 Ry     beta= 0.10
     Davidson diagonalization with overlap
     ethr =  9.52E-09,  avg # of iterations =  2.0

     negative rho (up, down):  9.605E-04 0.000E+00

     Adding external electric field

     Computed dipole along edir(3) : 
        Dipole                0.0527 Ry au,          0.1340 Debye
        Dipole field          0.0001 Ry au, 

        Potential amp.       -0.0128 Ry
        Total length         45.4243 bohr


     total cpu time spent up to now is     3480.3 secs

     End of self-consistent calculation

          k = 0.0000 0.0000 0.0000 ( 32385 PWs)   bands (ev):

    -8.0806  -6.4806  -6.0862  -5.9756  -5.8012  -5.7043  -5.6084  -5.5867
    -5.3578  -5.2853  -5.2562  -5.0383  -5.0170  -5.0073  -4.7037  -4.1858
    -4.1201  -4.0245  -3.7529  -3.6525  -3.6219  -3.5131  -3.3634  -3.2670
    -3.1587  -2.9206  -2.8992  -2.8737  -2.8351  -2.7227  -2.6841  -2.6522
    -2.5167  -2.1785  -2.0998  -1.8399  -1.8281  -1.5625  -1.3762  -1.3631
    -1.3485  -1.0578  -1.0272  -1.0076  -0.8211  -0.5604  -0.4178  -0.3994
    -0.3887  -0.3061  -0.0536   0.0102   0.0419   0.4029   0.5693   0.6250
     0.7130   0.7899   0.9105   0.9830   1.0621   1.0852   1.1152   1.4747
     1.5035   1.7631   1.9080   2.2555   2.8800   3.1560   3.3494   3.7095

          k = 0.0000 0.0167 0.0000 ( 32385 PWs)   bands (ev):

    -8.0258  -6.4295  -6.0449  -5.9354  -5.7897  -5.6756  -5.5697  -5.5678
    -5.3218  -5.2733  -5.2349  -5.0155  -4.9928  -4.9809  -4.6599  -4.1768
    -4.1174  -4.0094  -3.7499  -3.6415  -3.6100  -3.5043  -3.3373  -3.3085
    -3.1443  -2.9233  -2.9167  -2.8829  -2.8694  -2.7257  -2.6973  -2.6622
    -2.5324  -2.1816  -2.1553  -1.8812  -1.8280  -1.6173  -1.4458  -1.4008
    -1.3580  -1.0736  -1.0414  -1.0130  -0.9614  -0.5882  -0.5826  -0.4403
    -0.2722  -0.2622  -0.1624  -0.0736  -0.0431   0.4016   0.4475   0.5891
     0.5959   0.7003   0.7506   0.8774   0.9340   1.0513   1.2858   1.4182
     1.5593   1.6588   1.7572   2.0532   2.7431   3.4123   3.5954   3.8381

          k = 0.0000 0.0334 0.0000 ( 32422 PWs)   bands (ev):

    -7.8639  -6.2821  -5.9396  -5.8180  -5.7498  -5.5961  -5.5205  -5.4509
    -5.2378  -5.2177  -5.1686  -4.9504  -4.9466  -4.8788  -4.5324  -4.1494
    -4.1124  -3.9689  -3.7425  -3.6178  -3.5755  -3.4829  -3.4132  -3.2626
    -3.1066  -3.0190  -2.9680  -2.9487  -2.8341  -2.8201  -2.7484  -2.5993
    -2.5826  -2.2917  -2.1904  -2.0016  -1.8278  -1.7797  -1.6908  -1.4719
    -1.3843  -1.1975  -1.1597  -1.1377  -0.9976  -0.8420  -0.6461  -0.5873
    -0.4562  -0.4326  -0.2645  -0.2431  -0.1695   0.2304   0.3014   0.3701
     0.4788   0.5095   0.6497   0.7436   0.7711   0.7890   1.0178   1.0374
     1.3057   1.7806   1.9070   2.5474   2.5910   3.5333   3.5951   4.1827

          k = 0.0000 0.0501 0.0000 ( 32390 PWs)   bands (ev):

    -7.6043  -6.0627  -5.8625  -5.6347  -5.6332  -5.4855  -5.4436  -5.2751
    -5.1767  -5.0575  -5.0561  -4.8823  -4.8313  -4.7279  -4.3348  -4.1132
    -4.1060  -3.9242  -3.7411  -3.6282  -3.5228  -3.5119  -3.4556  -3.1517
    -3.1382  -3.1186  -3.0856  -3.0588  -2.9284  -2.7967  -2.7568  -2.6686
    -2.5051  -2.4624  -2.2029  -2.1940  -2.0171  -2.0142  -1.8271  -1.6186
    -1.5221  -1.4199  -1.3592  -1.2914  -1.1324  -0.9663  -0.7781  -0.7777
    -0.7693  -0.7417  -0.6421  -0.4988  -0.4056   0.0003   0.0602   0.2451
     0.2974   0.4176   0.4352   0.5193   0.6160   0.6462   0.8052   1.0282
     1.2307   1.8389   2.3804   2.5158   2.9663   3.2433   3.6581   4.5717

          k = 0.0000 0.0668 0.0000 ( 32392 PWs)   bands (ev):

    -7.2662  -5.9406  -5.7773  -5.4634  -5.4127  -5.3607  -5.3454  -5.0829
    -5.0756  -4.9235  -4.8510  -4.7847  -4.6697  -4.5547  -4.1260  -4.1256
    -4.0741  -3.9026  -3.7941  -3.6767  -3.5205  -3.4685  -3.3935  -3.3046
    -3.2941  -3.2570  -3.0289  -3.0195  -3.0129  -2.8486  -2.7679  -2.6666
    -2.6584  -2.4437  -2.3982  -2.3481  -2.2401  -2.2154  -1.8739  -1.8262
    -1.7247  -1.6905  -1.6358  -1.4470  -1.3284  -1.1928  -1.1785  -1.1080
    -0.9144  -0.8724  -0.8528  -0.7773  -0.5051  -0.4082  -0.1135   0.0790
     0.2553   0.2984   0.2989   0.3957   0.5224   0.6016   1.0186   1.0208
     1.2060   1.8693   2.4541   2.4828   3.2367   3.3507   3.7703   4.8401

          k = 0.0000 0.0835 0.0000 ( 32416 PWs)   bands (ev):

    -6.8886  -6.1037  -5.5788  -5.3529  -5.3007  -5.2562  -5.1488  -4.9486
    -4.9388  -4.8312  -4.6296  -4.6217  -4.4715  -4.3989  -4.1467  -4.1458
    -4.1447  -3.8719  -3.7798  -3.6130  -3.5158  -3.5128  -3.4505  -3.3679
    -3.3660  -3.2588  -3.1868  -2.9841  -2.9285  -2.9246  -2.8775  -2.7792
    -2.6947  -2.5928  -2.5920  -2.3931  -2.3070  -2.2244  -2.1876  -1.9430
    -1.9176  -1.8709  -1.8263  -1.6216  -1.5244  -1.4425  -1.4210  -1.3491
    -1.0613  -0.9482  -0.8804  -0.8118  -0.6358  -0.5486  -0.2713  -0.0550
     0.1627   0.2676   0.2840   0.3100   0.4504   0.6005   1.0156   1.2033
     1.2524   1.8856   2.2173   2.4690   3.3726   3.8487   3.8855   4.5786

          k = 0.0000-0.1002 0.0000 ( 32426 PWs)   bands (ev):

    -6.6258  -6.2930  -5.4995  -5.3180  -5.2679  -5.2224  -5.0165  -4.8969
    -4.8869  -4.8269  -4.4893  -4.4437  -4.3497  -4.3258  -4.2788  -4.2486
    -4.1608  -3.8986  -3.7549  -3.5823  -3.5739  -3.5159  -3.4244  -3.3594
    -3.3119  -3.2755  -3.2186  -3.1192  -2.9727  -2.8951  -2.8844  -2.7883
    -2.7731  -2.6782  -2.5643  -2.4549  -2.3903  -2.2665  -2.2304  -2.0269
    -1.9950  -1.9704  -1.8269  -1.7142  -1.6429  -1.4994  -1.4843  -1.3999
    -1.1112  -0.9870  -0.8819  -0.8168  -0.6978  -0.5596  -0.3343  -0.1066
     0.1085   0.2601   0.2795   0.3087   0.4149   0.6027   1.0136   1.2043
     1.3679   1.8910   2.0932   2.4651   3.4126   3.8765   4.3131   4.5602

          k = 0.0148 0.0084 0.0000 ( 32399 PWs)   bands (ev):

    -8.0234  -6.4231  -6.0335  -5.9495  -5.7592  -5.6803  -5.5826  -5.5496
    -5.3356  -5.2618  -5.2318  -5.0439  -4.9665  -4.9649  -4.6739  -4.1676
    -4.1102  -4.0138  -3.7500  -3.6434  -3.6094  -3.5048  -3.3942  -3.3063
    -3.1647  -2.9268  -2.9028  -2.8927  -2.8404  -2.7392  -2.7068  -2.6300
    -2.4811  -2.2218  -2.1050  -1.8595  -1.8540  -1.5741  -1.5242  -1.3633
    -1.3244  -1.1343  -1.0570  -1.0249  -0.8708  -0.6719  -0.5773  -0.4760
    -0.3256  -0.2286  -0.1353  -0.0311   0.0101   0.3392   0.4907   0.5175
     0.6553   0.6649   0.8330   0.8444   0.9681   0.9926   1.1593   1.3738
     1.5292   1.7851   2.0151   2.2956   2.4178   2.9498   3.4231   3.8806

          k = 0.0148 0.0251 0.0000 ( 32382 PWs)   bands (ev):

    -7.9149  -6.3228  -5.9542  -5.8771  -5.7370  -5.6253  -5.5158  -5.5011
    -5.2696  -5.2390  -5.1843  -4.9911  -4.9382  -4.9041  -4.5864  -4.1521
    -4.1033  -3.9880  -3.7440  -3.6251  -3.5880  -3.4864  -3.3839  -3.3404
    -3.1506  -2.9813  -2.9259  -2.8997  -2.8802  -2.7453  -2.7322  -2.6603
    -2.5027  -2.2412  -2.1869  -1.9429  -1.8626  -1.6904  -1.6470  -1.4193
    -1.3586  -1.1867  -1.0962  -1.0574  -1.0453  -0.7746  -0.6916  -0.5646
    -0.3418  -0.3006  -0.1997  -0.1681  -0.1048   0.1924   0.3454   0.3753
     0.4554   0.5594   0.6410   0.7586   0.7912   0.9812   1.0651   1.2858
     1.6451   1.6633   1.8249   2.1619   2.4383   3.4966   3.7914   3.8739

          k = 0.0148 0.0418 0.0000 ( 32362 PWs)   bands (ev):

    -7.7035  -6.1350  -5.8434  -5.7362  -5.6726  -5.5277  -5.4513  -5.3514
    -5.1934  -5.1503  -5.0813  -4.8929  -4.8840  -4.7850  -4.4221  -4.1209
    -4.0971  -3.9467  -3.7374  -3.6111  -3.5476  -3.4849  -3.4575  -3.2748
    -3.1253  -3.0999  -3.0226  -2.9687  -2.8680  -2.8229  -2.7785  -2.6338
    -2.5299  -2.3499  -2.2342  -2.1179  -1.9141  -1.8951  -1.8411  -1.5411
    -1.4263  -1.3507  -1.2803  -1.2124  -1.0989  -0.9523  -0.7682  -0.6923
    -0.6336  -0.6316  -0.4962  -0.3153  -0.3031   0.0397   0.1091   0.1602
     0.3628   0.4381   0.5560   0.6497   0.7115   0.7903   0.9861   1.0320
     1.0832   1.7327   2.0924   2.2633   3.0369   3.4788   3.8277   3.9637

          k = 0.0148 0.0585 0.0000 ( 32370 PWs)   bands (ev):

    -7.4026  -5.9094  -5.8082  -5.5392  -5.5144  -5.4100  -5.3610  -5.1691
    -5.1175  -4.9918  -4.9255  -4.8064  -4.7524  -4.6240  -4.2139  -4.0981
    -4.0832  -3.9216  -3.7558  -3.6652  -3.5253  -3.4913  -3.4185  -3.2783
    -3.2199  -3.1812  -3.1094  -3.0507  -2.9539  -2.8350  -2.7629  -2.6796
    -2.5404  -2.4633  -2.3771  -2.2577  -2.1846  -2.1104  -1.8564  -1.7420
    -1.6000  -1.5831  -1.5418  -1.3407  -1.2853  -1.1262  -0.9897  -0.9501
    -0.8733  -0.8568  -0.7444  -0.6906  -0.4574  -0.2995  -0.0201   0.1355
     0.2515   0.3701   0.4070   0.5021   0.5513   0.6372   0.9191   1.0286
     1.0501   1.7761   2.0833   2.5956   3.2415   3.4057   3.8428   4.1813

          k = 0.0148 0.0752 0.0000 ( 32410 PWs)   bands (ev):

    -7.0383  -5.9602  -5.6273  -5.3648  -5.3410  -5.2723  -5.2561  -5.0135
    -4.9940  -4.8389  -4.7285  -4.6927  -4.5739  -4.4519  -4.1395  -4.0959
    -4.0911  -3.8547  -3.8391  -3.6591  -3.5276  -3.4586  -3.4272  -3.3629
    -3.3241  -3.3039  -3.1363  -3.0503  -3.0009  -2.8834  -2.8007  -2.7186
    -2.6663  -2.6517  -2.4559  -2.4323  -2.2904  -2.2362  -2.0252  -1.8648
    -1.8559  -1.8225  -1.7416  -1.5311  -1.4862  -1.3410  -1.2701  -1.2546
    -0.9912  -0.9204  -0.8939  -0.7890  -0.5608  -0.5251  -0.1892   0.0241
     0.2116   0.2546   0.3148   0.3843   0.4738   0.5468   0.9520   1.0399
     1.2267   1.8043   2.0910   2.4037   3.5492   3.6487   3.8429   4.2971

          k = 0.0148 0.0919 0.0000 ( 32443 PWs)   bands (ev):

    -6.6744  -6.1821  -5.4770  -5.2939  -5.2633  -5.1866  -5.0820  -4.9434
    -4.8912  -4.7732  -4.5244  -4.5044  -4.4140  -4.3086  -4.2429  -4.2229
    -4.1316  -3.8868  -3.7515  -3.6025  -3.5398  -3.5259  -3.4625  -3.3617
    -3.3427  -3.3088  -3.2289  -3.0792  -2.9908  -2.9130  -2.9044  -2.8231
    -2.7844  -2.6594  -2.6442  -2.4044  -2.3235  -2.3084  -2.2859  -2.0204
    -1.9938  -1.8780  -1.8165  -1.7117  -1.5812  -1.4316  -1.4297  -1.3813
    -1.0602  -0.9839  -0.9333  -0.7953  -0.6728  -0.5488  -0.3039  -0.0819
     0.1116   0.2684   0.2838   0.3195   0.4200   0.5442   0.9557   1.0495
     1.4072   1.8187   2.0974   2.1802   3.5954   3.8422   4.2062   4.3376

          k = 0.0148-0.0919 0.0000 ( 32443 PWs)   bands (ev):

    -6.6744  -6.1821  -5.4770  -5.2939  -5.2633  -5.1866  -5.0820  -4.9434
    -4.8912  -4.7732  -4.5244  -4.5044  -4.4140  -4.3086  -4.2429  -4.2229
    -4.1316  -3.8868  -3.7515  -3.6025  -3.5398  -3.5259  -3.4625  -3.3617
    -3.3427  -3.3088  -3.2289  -3.0792  -2.9908  -2.9130  -2.9044  -2.8231
    -2.7844  -2.6594  -2.6442  -2.4044  -2.3235  -2.3084  -2.2859  -2.0204
    -1.9938  -1.8780  -1.8165  -1.7117  -1.5812  -1.4316  -1.4297  -1.3813
    -1.0602  -0.9839  -0.9333  -0.7953  -0.6728  -0.5488  -0.3039  -0.0819
     0.1116   0.2684   0.2838   0.3195   0.4200   0.5442   0.9557   1.0495
     1.4072   1.8187   2.0974   2.1802   3.5954   3.8422   4.2063   4.3377

          k = 0.0148-0.0752 0.0000 ( 32410 PWs)   bands (ev):

    -7.0383  -5.9602  -5.6273  -5.3648  -5.3410  -5.2723  -5.2561  -5.0135
    -4.9940  -4.8389  -4.7285  -4.6927  -4.5739  -4.4519  -4.1395  -4.0959
    -4.0911  -3.8547  -3.8391  -3.6591  -3.5276  -3.4586  -3.4272  -3.3629
    -3.3241  -3.3039  -3.1363  -3.0503  -3.0009  -2.8834  -2.8007  -2.7186
    -2.6663  -2.6517  -2.4559  -2.4324  -2.2904  -2.2362  -2.0252  -1.8648
    -1.8559  -1.8225  -1.7416  -1.5311  -1.4862  -1.3410  -1.2701  -1.2546
    -0.9912  -0.9204  -0.8939  -0.7890  -0.5608  -0.5251  -0.1892   0.0241
     0.2116   0.2546   0.3148   0.3843   0.4738   0.5468   0.9520   1.0399
     1.2267   1.8043   2.0910   2.4037   3.5492   3.6487   3.8429   4.2971

          k = 0.0148-0.0585 0.0000 ( 32370 PWs)   bands (ev):

    -7.4026  -5.9094  -5.8082  -5.5392  -5.5144  -5.4100  -5.3610  -5.1691
    -5.1175  -4.9918  -4.9255  -4.8064  -4.7524  -4.6240  -4.2139  -4.0981
    -4.0832  -3.9216  -3.7558  -3.6652  -3.5253  -3.4913  -3.4185  -3.2783
    -3.2199  -3.1812  -3.1094  -3.0507  -2.9539  -2.8350  -2.7629  -2.6796
    -2.5404  -2.4633  -2.3771  -2.2577  -2.1846  -2.1104  -1.8564  -1.7420
    -1.6000  -1.5831  -1.5418  -1.3407  -1.2853  -1.1262  -0.9897  -0.9501
    -0.8733  -0.8568  -0.7444  -0.6906  -0.4574  -0.2995  -0.0201   0.1355
     0.2515   0.3701   0.4070   0.5021   0.5513   0.6372   0.9191   1.0286
     1.0501   1.7761   2.0833   2.5956   3.2415   3.4057   3.8428   4.1813

          k = 0.0148-0.0418 0.0000 ( 32362 PWs)   bands (ev):

    -7.7035  -6.1350  -5.8434  -5.7362  -5.6726  -5.5277  -5.4513  -5.3514
    -5.1934  -5.1503  -5.0813  -4.8929  -4.8840  -4.7850  -4.4221  -4.1209
    -4.0971  -3.9467  -3.7374  -3.6111  -3.5476  -3.4849  -3.4575  -3.2748
    -3.1253  -3.0999  -3.0226  -2.9687  -2.8680  -2.8229  -2.7785  -2.6338
    -2.5299  -2.3499  -2.2342  -2.1179  -1.9141  -1.8951  -1.8411  -1.5411
    -1.4263  -1.3507  -1.2803  -1.2124  -1.0989  -0.9523  -0.7682  -0.6923
    -0.6336  -0.6316  -0.4962  -0.3153  -0.3031   0.0397   0.1091   0.1602
     0.3628   0.4381   0.5560   0.6497   0.7115   0.7903   0.9861   1.0320
     1.0832   1.7327   2.0924   2.2633   3.0369   3.4788   3.8277   3.9637

          k = 0.0148-0.0251 0.0000 ( 32382 PWs)   bands (ev):

    -7.9149  -6.3228  -5.9542  -5.8771  -5.7370  -5.6253  -5.5158  -5.5011
    -5.2696  -5.2390  -5.1843  -4.9911  -4.9382  -4.9041  -4.5864  -4.1521
    -4.1033  -3.9880  -3.7440  -3.6251  -3.5880  -3.4864  -3.3839  -3.3404
    -3.1506  -2.9813  -2.9259  -2.8997  -2.8802  -2.7453  -2.7322  -2.6603
    -2.5027  -2.2412  -2.1869  -1.9429  -1.8626  -1.6904  -1.6470  -1.4193
    -1.3586  -1.1867  -1.0962  -1.0574  -1.0453  -0.7746  -0.6916  -0.5646
    -0.3418  -0.3006  -0.1997  -0.1681  -0.1048   0.1924   0.3454   0.3753
     0.4554   0.5594   0.6410   0.7586   0.7912   0.9812   1.0651   1.2858
     1.6451   1.6633   1.8249   2.1619   2.4383   3.4966   3.7914   3.8741

          k = 0.0148-0.0084 0.0000 ( 32399 PWs)   bands (ev):

    -8.0234  -6.4231  -6.0335  -5.9495  -5.7592  -5.6803  -5.5826  -5.5496
    -5.3356  -5.2618  -5.2318  -5.0439  -4.9665  -4.9649  -4.6739  -4.1676
    -4.1102  -4.0138  -3.7500  -3.6434  -3.6094  -3.5048  -3.3942  -3.3063
    -3.1647  -2.9268  -2.9028  -2.8927  -2.8404  -2.7392  -2.7068  -2.6300
    -2.4811  -2.2218  -2.1050  -1.8595  -1.8540  -1.5741  -1.5242  -1.3633
    -1.3244  -1.1343  -1.0570  -1.0249  -0.8708  -0.6719  -0.5773  -0.4760
    -0.3256  -0.2286  -0.1353  -0.0311   0.0101   0.3392   0.4907   0.5175
     0.6553   0.6649   0.8330   0.8444   0.9681   0.9926   1.1593   1.3738
     1.5292   1.7851   2.0151   2.2956   2.4178   2.9498   3.4231   3.8806

          k = 0.0295 0.0167 0.0000 ( 32376 PWs)   bands (ev):

    -7.8544  -6.2547  -5.8869  -5.8801  -5.6374  -5.6139  -5.5021  -5.4436
    -5.2744  -5.1942  -5.1564  -5.0155  -4.8604  -4.8439  -4.5832  -4.1171
    -4.0875  -3.9771  -3.7472  -3.6224  -3.5867  -3.4912  -3.4688  -3.4039
    -3.1901  -2.9960  -2.9603  -2.8640  -2.8508  -2.7788  -2.7694  -2.5786
    -2.3733  -2.3375  -2.1125  -1.9264  -1.9250  -1.8317  -1.6487  -1.4202
    -1.3623  -1.3490  -1.1877  -1.0726  -0.9851  -0.8334  -0.8300  -0.6141
    -0.3990  -0.2502  -0.2253  -0.1186  -0.0464   0.0518   0.2244   0.3349
     0.3598   0.5338   0.5799   0.6290   0.7685   0.8189   0.9437   1.3709
     1.5588   1.8139   1.9092   2.1325   2.5162   2.7494   3.6639   3.9684

          k = 0.0295 0.0334 0.0000 ( 32375 PWs)   bands (ev):

    -7.6962  -6.1108  -5.8124  -5.7686  -5.6098  -5.5349  -5.3923  -5.3815
    -5.1933  -5.1648  -5.0723  -4.9376  -4.8043  -4.7828  -4.4536  -4.1057
    -4.0703  -3.9556  -3.7401  -3.6114  -3.5629  -3.5004  -3.4354  -3.4199
    -3.1968  -3.0812  -2.9847  -2.9370  -2.8541  -2.7928  -2.7834  -2.6534
    -2.4033  -2.3687  -2.1826  -2.1032  -1.9619  -1.9424  -1.7971  -1.5535
    -1.4411  -1.3719  -1.2684  -1.1631  -1.1103  -0.9884  -0.8739  -0.6870
    -0.5921  -0.5090  -0.3931  -0.2469  -0.2018  -0.1083   0.0148   0.0755
     0.3408   0.4015   0.5456   0.5691   0.6953   0.7708   0.9524   1.3695
     1.3832   1.5073   1.8069   2.3217   2.7120   3.2877   3.6983   3.9180

          k = 0.0295 0.0501 0.0000 ( 32374 PWs)   bands (ev):

    -7.4418  -5.8932  -5.6832  -5.6831  -5.5133  -5.4242  -5.3101  -5.2196
    -5.1132  -5.0585  -4.9378  -4.8159  -4.7446  -4.6544  -4.2721  -4.0877
    -4.0547  -3.9380  -3.7459  -3.6508  -3.5384  -3.5194  -3.4079  -3.3964
    -3.1979  -3.1955  -3.0741  -3.0209  -2.9034  -2.8479  -2.8298  -2.6567
    -2.4812  -2.4126  -2.3746  -2.2753  -2.1182  -2.0466  -1.8938  -1.7275
    -1.6229  -1.4974  -1.4528  -1.3342  -1.2284  -1.0872  -0.9698  -0.9578
    -0.8138  -0.7526  -0.7182  -0.5579  -0.3802  -0.3051   0.0208   0.0431
     0.2595   0.3206   0.5021   0.5337   0.6392   0.7243   0.9108   1.0268
     1.2488   1.3814   1.5644   2.7491   3.1653   3.4465   3.6150   4.2192

          k = 0.0295 0.0668 0.0000 ( 32373 PWs)   bands (ev):

    -7.1084  -5.7625  -5.6182  -5.5126  -5.3402  -5.3049  -5.2007  -5.0675
    -5.0201  -4.8702  -4.7846  -4.6717  -4.6597  -4.4899  -4.1478  -4.0832
    -4.0328  -3.9175  -3.8139  -3.6838  -3.5744  -3.4597  -3.4525  -3.3654
    -3.3059  -3.2064  -3.1701  -3.1116  -3.0093  -2.9027  -2.8651  -2.6616
    -2.6469  -2.6000  -2.4956  -2.3687  -2.3374  -2.1240  -1.9397  -1.9183
    -1.8848  -1.7365  -1.6444  -1.5540  -1.3454  -1.2712  -1.1356  -1.1319
    -0.9707  -0.9314  -0.7829  -0.7673  -0.5148  -0.4749  -0.0982   0.0667
     0.2133   0.2752   0.3834   0.4835   0.5121   0.6568   0.6878   0.8546
     1.2842   1.4093   1.6038   2.7457   3.1200   3.5222   4.0918   4.6547

          k = 0.0295 0.0835 0.0000 ( 32412 PWs)   bands (ev):

    -6.7319  -5.9425  -5.4163  -5.3473  -5.2276  -5.2035  -5.0960  -4.9505
    -4.8761  -4.7325  -4.6116  -4.5702  -4.5021  -4.3159  -4.2215  -4.1545
    -4.0561  -3.8750  -3.7824  -3.6994  -3.5975  -3.4873  -3.4732  -3.3927
    -3.3104  -3.2871  -3.2516  -3.1592  -3.0449  -2.9815  -2.8904  -2.8316
    -2.8121  -2.6712  -2.5578  -2.5314  -2.4291  -2.1897  -2.1540  -2.1131
    -1.9439  -1.9083  -1.8678  -1.5982  -1.4215  -1.3501  -1.3135  -1.2411
    -1.0302  -0.9754  -0.9257  -0.7682  -0.6118  -0.5151  -0.2332  -0.0164
     0.1691   0.2246   0.2716   0.4144   0.4285   0.4725   0.6860   0.8391
     1.4381   1.4832   1.6226   2.4260   3.0928   4.0687   4.0942   5.0331

          k = 0.0295 0.1002 0.0000 ( 32394 PWs)   bands (ev):

    -6.4610  -6.1472  -5.3369  -5.2773  -5.1918  -5.1538  -5.0521  -4.9018
    -4.8119  -4.7111  -4.4503  -4.4500  -4.4194  -4.3709  -4.2595  -4.2048
    -4.0772  -3.8906  -3.7410  -3.7075  -3.5643  -3.5142  -3.4768  -3.4132
    -3.3994  -3.2959  -3.2517  -3.1943  -3.0023  -2.9835  -2.9709  -2.8907
    -2.8811  -2.7117  -2.6634  -2.5179  -2.4543  -2.2995  -2.2253  -2.1593
    -2.0162  -1.9400  -1.8942  -1.6011  -1.4475  -1.3874  -1.3710  -1.2669
    -1.0411  -1.0049  -0.9643  -0.7613  -0.6322  -0.5251  -0.2920  -0.0802
     0.0965   0.2349   0.2351   0.3977   0.4049   0.4231   0.6973   0.8373
     1.4498   1.5942   1.6276   2.2733   3.0851   4.0805   4.5010   5.0144

          k = 0.0295-0.0835 0.0000 ( 32412 PWs)   bands (ev):

    -6.7319  -5.9425  -5.4163  -5.3473  -5.2276  -5.2035  -5.0960  -4.9505
    -4.8761  -4.7325  -4.6116  -4.5702  -4.5021  -4.3159  -4.2215  -4.1545
    -4.0561  -3.8750  -3.7824  -3.6994  -3.5975  -3.4873  -3.4732  -3.3927
    -3.3104  -3.2871  -3.2515  -3.1592  -3.0449  -2.9815  -2.8904  -2.8316
    -2.8121  -2.6712  -2.5578  -2.5314  -2.4291  -2.1897  -2.1540  -2.1131
    -1.9439  -1.9083  -1.8678  -1.5982  -1.4215  -1.3501  -1.3135  -1.2411
    -1.0302  -0.9754  -0.9257  -0.7682  -0.6118  -0.5151  -0.2332  -0.0164
     0.1691   0.2246   0.2716   0.4144   0.4285   0.4725   0.6860   0.8391
     1.4381   1.4832   1.6226   2.4260   3.0928   4.0687   4.0942   5.0331

          k = 0.0295-0.0668 0.0000 ( 32373 PWs)   bands (ev):

    -7.1084  -5.7625  -5.6182  -5.5126  -5.3402  -5.3049  -5.2007  -5.0674
    -5.0201  -4.8702  -4.7846  -4.6717  -4.6597  -4.4899  -4.1478  -4.0832
    -4.0328  -3.9175  -3.8139  -3.6838  -3.5744  -3.4597  -3.4525  -3.3654
    -3.3059  -3.2064  -3.1701  -3.1116  -3.0093  -2.9027  -2.8651  -2.6616
    -2.6469  -2.6000  -2.4956  -2.3687  -2.3374  -2.1240  -1.9397  -1.9183
    -1.8848  -1.7365  -1.6444  -1.5540  -1.3454  -1.2712  -1.1356  -1.1319
    -0.9707  -0.9314  -0.7829  -0.7673  -0.5148  -0.4749  -0.0982   0.0667
     0.2133   0.2752   0.3834   0.4835   0.5121   0.6568   0.6878   0.8546
     1.2842   1.4093   1.6038   2.7457   3.1200   3.5222   4.0918   4.6550

          k = 0.0295-0.0501 0.0000 ( 32374 PWs)   bands (ev):

    -7.4418  -5.8932  -5.6832  -5.6831  -5.5133  -5.4242  -5.3101  -5.2196
    -5.1132  -5.0585  -4.9378  -4.8159  -4.7446  -4.6544  -4.2721  -4.0877
    -4.0547  -3.9380  -3.7459  -3.6508  -3.5384  -3.5194  -3.4079  -3.3964
    -3.1979  -3.1955  -3.0741  -3.0209  -2.9034  -2.8479  -2.8298  -2.6567
    -2.4812  -2.4126  -2.3746  -2.2753  -2.1182  -2.0466  -1.8938  -1.7275
    -1.6229  -1.4974  -1.4528  -1.3342  -1.2284  -1.0872  -0.9698  -0.9578
    -0.8138  -0.7526  -0.7182  -0.5579  -0.3802  -0.3051   0.0208   0.0431
     0.2595   0.3206   0.5021   0.5337   0.6392   0.7243   0.9108   1.0268
     1.2488   1.3814   1.5644   2.7491   3.1653   3.4465   3.6151   4.2192

          k = 0.0295-0.0334 0.0000 ( 32375 PWs)   bands (ev):

    -7.6962  -6.1108  -5.8124  -5.7686  -5.6098  -5.5349  -5.3923  -5.3815
    -5.1933  -5.1648  -5.0723  -4.9376  -4.8043  -4.7828  -4.4536  -4.1057
    -4.0703  -3.9556  -3.7401  -3.6114  -3.5629  -3.5004  -3.4354  -3.4199
    -3.1968  -3.0812  -2.9847  -2.9370  -2.8541  -2.7928  -2.7834  -2.6534
    -2.4033  -2.3687  -2.1826  -2.1032  -1.9619  -1.9424  -1.7971  -1.5535
    -1.4411  -1.3719  -1.2684  -1.1631  -1.1103  -0.9884  -0.8739  -0.6870
    -0.5921  -0.5090  -0.3931  -0.2469  -0.2018  -0.1083   0.0148   0.0755
     0.3408   0.4015   0.5456   0.5691   0.6953   0.7708   0.9524   1.3695
     1.3832   1.5073   1.8069   2.3217   2.7120   3.2877   3.6983   3.9180

          k = 0.0295-0.0167 0.0000 ( 32376 PWs)   bands (ev):

    -7.8544  -6.2547  -5.8869  -5.8801  -5.6374  -5.6139  -5.5021  -5.4436
    -5.2744  -5.1942  -5.1564  -5.0155  -4.8604  -4.8439  -4.5832  -4.1171
    -4.0875  -3.9771  -3.7472  -3.6224  -3.5867  -3.4912  -3.4688  -3.4039
    -3.1901  -2.9960  -2.9603  -2.8640  -2.8508  -2.7788  -2.7694  -2.5786
    -2.3733  -2.3375  -2.1125  -1.9264  -1.9250  -1.8317  -1.6487  -1.4202
    -1.3623  -1.3490  -1.1877  -1.0726  -0.9851  -0.8334  -0.8300  -0.6141
    -0.3990  -0.2502  -0.2253  -0.1186  -0.0464   0.0518   0.2244   0.3349
     0.3598   0.5338   0.5799   0.6290   0.7685   0.8189   0.9437   1.3709
     1.5588   1.8139   1.9092   2.1325   2.5162   2.7494   3.6639   3.9684

          k = 0.0295-0.0000 0.0000 ( 32377 PWs)   bands (ev):

    -7.9080  -6.3045  -5.9217  -5.9102  -5.6465  -5.6439  -5.5445  -5.4611
    -5.3038  -5.2041  -5.1829  -5.0426  -4.8856  -4.8577  -4.6300  -4.1207
    -4.0952  -3.9853  -3.7509  -3.6301  -3.5946  -3.5029  -3.4816  -3.3863
    -3.1839  -3.0034  -2.8888  -2.8691  -2.8375  -2.7883  -2.7732  -2.5412
    -2.3669  -2.3244  -2.0868  -1.9129  -1.8610  -1.7982  -1.5757  -1.3790
    -1.3673  -1.3101  -1.1974  -1.0421  -0.9034  -0.8347  -0.7521  -0.5669
    -0.3454  -0.2701  -0.2232  -0.0638   0.0206   0.2001   0.2869   0.3324
     0.5256   0.5777   0.6394   0.7529   0.9055   0.9591   1.0107   1.1463
     1.3890   1.7203   1.9267   2.1486   2.6086   2.9173   3.4656   3.8798

          k = 0.0443 0.0251 0.0000 ( 32378 PWs)   bands (ev):

    -7.5830  -5.9908  -5.8421  -5.6438  -5.5076  -5.4477  -5.3683  -5.2883
    -5.1836  -5.0821  -5.0326  -4.9523  -4.7231  -4.6451  -4.4301  -4.0626
    -4.0492  -3.9137  -3.7699  -3.6619  -3.5948  -3.5758  -3.5114  -3.3956
    -3.2398  -3.0881  -3.0629  -2.9086  -2.9024  -2.8120  -2.7767  -2.5891
    -2.4578  -2.3212  -2.2115  -2.1171  -2.0253  -1.9781  -1.8074  -1.7681
    -1.6437  -1.3793  -1.3642  -1.1578  -1.0894  -1.0160  -0.9508  -0.7168
    -0.6825  -0.4640  -0.3962  -0.3142  -0.2316  -0.1517  -0.0795  -0.0750
     0.2401   0.2941   0.3565   0.5428   0.6105   0.7131   0.7942   1.0135
     1.0959   1.9854   2.0529   2.4980   2.6677   2.7503   3.1852   4.4737

          k = 0.0443 0.0418 0.0000 ( 32378 PWs)   bands (ev):

    -7.3824  -5.8150  -5.8070  -5.5059  -5.4341  -5.4111  -5.2276  -5.2187
    -5.0848  -5.0503  -4.9226  -4.8546  -4.6373  -4.6006  -4.2743  -4.0600
    -4.0331  -3.9106  -3.7800  -3.7001  -3.5830  -3.5455  -3.5118  -3.3597
    -3.2562  -3.1820  -3.0921  -3.0025  -2.9242  -2.8380  -2.8111  -2.6693
    -2.5182  -2.4851  -2.2613  -2.1571  -2.1567  -2.0902  -1.9647  -1.8644
    -1.7682  -1.5189  -1.4018  -1.3047  -1.1269  -1.1214  -1.0440  -0.9057
    -0.8254  -0.7436  -0.6152  -0.5672  -0.3393  -0.3019  -0.1142  -0.0464
     0.1494   0.2441   0.2887   0.5190   0.5488   0.6931   0.7768   1.1094
     1.1602   1.4597   1.9580   2.6443   2.9040   2.9158   3.7662   3.9782

          k = 0.0443 0.0585 0.0000 ( 32370 PWs)   bands (ev):

    -7.0948  -5.7283  -5.5863  -5.4920  -5.2983  -5.2967  -5.1151  -5.0894
    -4.9943  -4.9187  -4.7882  -4.7226  -4.5502  -4.5056  -4.1443  -4.0733
    -3.9810  -3.9227  -3.8399  -3.7428  -3.6454  -3.4898  -3.4896  -3.3672
    -3.2566  -3.2489  -3.1311  -3.1240  -3.0018  -2.9148  -2.9074  -2.7090
    -2.7017  -2.5637  -2.4073  -2.3148  -2.2443  -2.1598  -2.1524  -1.9358
    -1.9080  -1.7577  -1.6058  -1.4389  -1.2284  -1.2271  -1.1303  -1.0899
    -0.9116  -0.8937  -0.7522  -0.7213  -0.5000  -0.4073  -0.0744  -0.0471
     0.1300   0.2265   0.2499   0.4548   0.4860   0.6368   0.7969   0.9782
     1.1526   1.2214   1.4565   2.5943   3.2085   3.5516   3.6820   4.6682

          k = 0.0443 0.0752 0.0000 ( 32351 PWs)   bands (ev):

    -6.7413  -5.6473  -5.6278  -5.3381  -5.1867  -5.1406  -4.9923  -4.9537
    -4.8729  -4.7334  -4.6798  -4.5821  -4.5163  -4.3411  -4.1729  -4.1126
    -3.9699  -3.9218  -3.8276  -3.8272  -3.6705  -3.4967  -3.4789  -3.3755
    -3.3152  -3.2581  -3.1958  -3.1956  -3.1368  -3.0248  -2.9816  -2.8483
    -2.7310  -2.6403  -2.5513  -2.4938  -2.4017  -2.3539  -2.1709  -2.1148
    -2.0171  -1.8630  -1.8604  -1.4372  -1.3032  -1.2988  -1.2157  -1.0938
    -1.0932  -0.9042  -0.8189  -0.7480  -0.5584  -0.4628  -0.1779  -0.0139
     0.1251   0.1748   0.2610   0.3302   0.4365   0.5094   0.7465   0.7607
     0.8237   1.2597   1.5718   2.5230   2.8143   4.0038   4.4542   4.7452

          k = 0.0443 0.0919 0.0000 ( 32370 PWs)   bands (ev):

    -6.3749  -5.9015  -5.5523  -5.1946  -5.1183  -5.0605  -4.9023  -4.8292
    -4.7045  -4.6856  -4.5509  -4.4967  -4.4743  -4.3080  -4.2068  -4.1667
    -4.0028  -3.9830  -3.8151  -3.7490  -3.6463  -3.5356  -3.5291  -3.4569
    -3.3713  -3.2934  -3.2849  -3.2059  -3.1689  -3.0913  -2.9522  -2.8832
    -2.8653  -2.7080  -2.6369  -2.6132  -2.4808  -2.4545  -2.2412  -2.1914
    -2.1727  -1.9630  -1.7921  -1.4173  -1.3362  -1.3313  -1.3081  -1.1432
    -1.1056  -0.9035  -0.8184  -0.7269  -0.5260  -0.4843  -0.2696  -0.0606
     0.1195   0.1307   0.1868   0.2780   0.3439   0.4131   0.5576   0.7071
     0.8413   1.2771   1.7551   2.4898   2.4968   4.5588   4.5848   5.0801

          k = 0.0443 0.1086 0.0000 ( 32370 PWs)   bands (ev):

    -6.3749  -5.9015  -5.5523  -5.1946  -5.1183  -5.0605  -4.9023  -4.8292
    -4.7045  -4.6856  -4.5509  -4.4967  -4.4743  -4.3080  -4.2068  -4.1667
    -4.0028  -3.9830  -3.8151  -3.7490  -3.6463  -3.5356  -3.5291  -3.4569
    -3.3713  -3.2934  -3.2849  -3.2059  -3.1689  -3.0913  -2.9522  -2.8832
    -2.8653  -2.7080  -2.6369  -2.6132  -2.4808  -2.4545  -2.2412  -2.1914
    -2.1727  -1.9630  -1.7921  -1.4173  -1.3362  -1.3313  -1.3081  -1.1432
    -1.1056  -0.9035  -0.8184  -0.7269  -0.5260  -0.4843  -0.2696  -0.0606
     0.1195   0.1307   0.1868   0.2780   0.3439   0.4131   0.5576   0.7071
     0.8413   1.2771   1.7551   2.4898   2.4968   4.5588   4.5848   5.0801

          k = 0.0443-0.0752 0.0000 ( 32351 PWs)   bands (ev):

    -6.7413  -5.6473  -5.6278  -5.3381  -5.1867  -5.1406  -4.9923  -4.9537
    -4.8729  -4.7334  -4.6798  -4.5821  -4.5163  -4.3411  -4.1729  -4.1126
    -3.9699  -3.9218  -3.8276  -3.8272  -3.6705  -3.4967  -3.4789  -3.3755
    -3.3152  -3.2581  -3.1958  -3.1956  -3.1368  -3.0248  -2.9816  -2.8483
    -2.7310  -2.6403  -2.5513  -2.4938  -2.4017  -2.3539  -2.1709  -2.1148
    -2.0171  -1.8630  -1.8604  -1.4372  -1.3032  -1.2988  -1.2157  -1.0938
    -1.0932  -0.9042  -0.8189  -0.7480  -0.5584  -0.4628  -0.1779  -0.0139
     0.1251   0.1748   0.2610   0.3302   0.4365   0.5094   0.7465   0.7607
     0.8237   1.2597   1.5718   2.5230   2.8143   4.0038   4.4543   4.7451

          k = 0.0443-0.0585 0.0000 ( 32370 PWs)   bands (ev):

    -7.0948  -5.7283  -5.5863  -5.4920  -5.2983  -5.2967  -5.1151  -5.0894
    -4.9943  -4.9187  -4.7882  -4.7226  -4.5502  -4.5056  -4.1443  -4.0733
    -3.9810  -3.9227  -3.8399  -3.7428  -3.6454  -3.4898  -3.4896  -3.3672
    -3.2566  -3.2489  -3.1311  -3.1240  -3.0018  -2.9148  -2.9074  -2.7090
    -2.7017  -2.5637  -2.4073  -2.3148  -2.2443  -2.1598  -2.1524  -1.9358
    -1.9080  -1.7577  -1.6058  -1.4389  -1.2284  -1.2271  -1.1303  -1.0898
    -0.9116  -0.8937  -0.7522  -0.7213  -0.5000  -0.4073  -0.0744  -0.0471
     0.1300   0.2265   0.2499   0.4548   0.4860   0.6368   0.7969   0.9782
     1.1526   1.2214   1.4565   2.5943   3.2085   3.5516   3.6820   4.6682

          k = 0.0443-0.0418 0.0000 ( 32378 PWs)   bands (ev):

    -7.3824  -5.8150  -5.8070  -5.5059  -5.4341  -5.4111  -5.2276  -5.2187
    -5.0848  -5.0503  -4.9226  -4.8546  -4.6373  -4.6006  -4.2743  -4.0600
    -4.0331  -3.9106  -3.7800  -3.7001  -3.5830  -3.5455  -3.5118  -3.3597
    -3.2562  -3.1820  -3.0921  -3.0025  -2.9242  -2.8380  -2.8111  -2.6693
    -2.5182  -2.4851  -2.2613  -2.1571  -2.1567  -2.0902  -1.9647  -1.8644
    -1.7682  -1.5189  -1.4018  -1.3047  -1.1269  -1.1214  -1.0440  -0.9057
    -0.8254  -0.7436  -0.6152  -0.5672  -0.3393  -0.3019  -0.1142  -0.0464
     0.1494   0.2441   0.2887   0.5190   0.5488   0.6931   0.7768   1.1094
     1.1602   1.4597   1.9580   2.6443   2.9040   2.9158   3.7661   3.9782

          k = 0.0443-0.0251 0.0000 ( 32378 PWs)   bands (ev):

    -7.5830  -5.9908  -5.8421  -5.6438  -5.5076  -5.4477  -5.3683  -5.2883
    -5.1836  -5.0821  -5.0326  -4.9523  -4.7231  -4.6451  -4.4301  -4.0626
    -4.0492  -3.9137  -3.7699  -3.6619  -3.5948  -3.5758  -3.5114  -3.3955
    -3.2398  -3.0881  -3.0629  -2.9086  -2.9024  -2.8120  -2.7767  -2.5891
    -2.4578  -2.3212  -2.2115  -2.1171  -2.0253  -1.9781  -1.8074  -1.7681
    -1.6437  -1.3793  -1.3642  -1.1578  -1.0894  -1.0160  -0.9508  -0.7168
    -0.6825  -0.4640  -0.3962  -0.3142  -0.2316  -0.1517  -0.0795  -0.0750
     0.2401   0.2941   0.3565   0.5428   0.6105   0.7131   0.7942   1.0135
     1.0959   1.9854   2.0529   2.4980   2.6677   2.7503   3.1851   4.4737

          k = 0.0443-0.0084 0.0000 ( 32332 PWs)   bands (ev):

    -7.6856  -6.0835  -5.8403  -5.7221  -5.5817  -5.4588  -5.4461  -5.3236
    -5.2312  -5.0978  -5.0916  -5.0028  -4.7607  -4.6702  -4.5269  -4.0812
    -4.0402  -3.9203  -3.7735  -3.6599  -3.6135  -3.5882  -3.4967  -3.4224
    -3.2260  -3.0933  -2.9417  -2.9147  -2.8560  -2.8420  -2.7733  -2.5538
    -2.3929  -2.2473  -2.2018  -2.1007  -1.9454  -1.9071  -1.6998  -1.6687
    -1.5982  -1.3947  -1.2958  -1.1003  -1.0724  -0.9426  -0.9117  -0.6377
    -0.5296  -0.3979  -0.3400  -0.1513  -0.1281  -0.0769   0.0428   0.0538
     0.2890   0.4527   0.5803   0.5909   0.6631   0.6754   0.8559   0.9795
     1.1830   1.2956   1.9346   2.2144   2.8865   3.3887   3.4391   4.0004

          k = 0.0443 0.0084 0.0000 ( 32332 PWs)   bands (ev):

    -7.6856  -6.0835  -5.8403  -5.7221  -5.5817  -5.4588  -5.4461  -5.3236
    -5.2312  -5.0978  -5.0916  -5.0028  -4.7607  -4.6702  -4.5269  -4.0812
    -4.0402  -3.9203  -3.7735  -3.6599  -3.6135  -3.5882  -3.4967  -3.4224
    -3.2260  -3.0933  -2.9417  -2.9147  -2.8560  -2.8420  -2.7733  -2.5538
    -2.3929  -2.2473  -2.2018  -2.1007  -1.9454  -1.9071  -1.6998  -1.6687
    -1.5982  -1.3947  -1.2958  -1.1003  -1.0724  -0.9426  -0.9117  -0.6377
    -0.5296  -0.3979  -0.3400  -0.1513  -0.1281  -0.0769   0.0428   0.0538
     0.2890   0.4527   0.5803   0.5909   0.6630   0.6754   0.8559   0.9795
     1.1830   1.2956   1.9345   2.2144   2.8865   3.3886   3.4391   4.0003

          k = 0.0591 0.0334 0.0000 ( 32366 PWs)   bands (ev):

    -7.2273  -5.8925  -5.6684  -5.3763  -5.3700  -5.2060  -5.2051  -5.1215
    -5.0678  -4.9100  -4.9052  -4.8385  -4.5684  -4.3983  -4.2264  -4.0320
    -4.0035  -3.8653  -3.8517  -3.8273  -3.6259  -3.5782  -3.5432  -3.3419
    -3.3100  -3.1798  -3.1458  -3.0367  -3.0331  -2.8936  -2.7687  -2.7283
    -2.6681  -2.5163  -2.4099  -2.2733  -2.1770  -2.0814  -2.0146  -1.9157
    -1.7452  -1.4996  -1.4135  -1.3053  -1.1645  -1.1156  -1.0313  -0.9832
    -0.9056  -0.7375  -0.6803  -0.5582  -0.4092  -0.2950  -0.2161  -0.2051
    -0.0712   0.0358   0.2581   0.3089   0.4384   0.5001   0.6700   0.8352
     1.2054   2.0293   2.1257   2.4510   2.7953   2.9729   3.1791   4.7066

          k = 0.0591 0.0501 0.0000 ( 32366 PWs)   bands (ev):

    -6.9975  -5.9253  -5.4875  -5.2805  -5.2761  -5.1825  -5.0862  -5.0514
    -4.9493  -4.8691  -4.7957  -4.7283  -4.4818  -4.3671  -4.1067  -4.0338
    -3.9726  -3.9178  -3.8677  -3.8633  -3.6620  -3.5507  -3.5145  -3.3754
    -3.3202  -3.1947  -3.1900  -3.1186  -3.0896  -2.9479  -2.8275  -2.7766
    -2.7733  -2.5771  -2.4671  -2.3218  -2.3000  -2.2739  -2.1703  -2.0063
    -1.8233  -1.6792  -1.5507  -1.4027  -1.2122  -1.1243  -1.1184  -1.0965
    -0.9109  -0.8497  -0.7535  -0.7292  -0.4938  -0.4013  -0.2491  -0.2071
    -0.1103  -0.0031   0.2712   0.2890   0.4288   0.4909   0.6200   0.8703
     1.3239   1.5373   2.0691   2.2520   2.8702   3.5263   3.7892   4.0047

          k = 0.0591 0.0668 0.0000 ( 32339 PWs)   bands (ev):

    -6.6923  -5.9235  -5.3559  -5.2704  -5.1769  -5.0430  -4.9757  -4.9551
    -4.8084  -4.8010  -4.6693  -4.6246  -4.3608  -4.3547  -4.1012  -4.0747
    -3.9844  -3.9437  -3.9301  -3.8128  -3.7149  -3.5556  -3.5249  -3.3951
    -3.3365  -3.2803  -3.2297  -3.1644  -3.1471  -3.0117  -2.9542  -2.8672
    -2.7891  -2.6409  -2.5919  -2.4987  -2.4077  -2.3725  -2.2835  -2.1559
    -1.9040  -1.7795  -1.7746  -1.3660  -1.2672  -1.1943  -1.1719  -1.0284
    -1.0198  -0.8661  -0.7764  -0.7388  -0.5269  -0.4552  -0.2587  -0.1716
    -0.1682   0.0216   0.2291   0.2813   0.3850   0.4781   0.5471   0.8895
     1.0011   1.2545   1.7094   2.1455   3.3441   3.6192   4.0347   4.6437

          k = 0.0591 0.0835 0.0000 ( 32338 PWs)   bands (ev):

    -6.3375  -5.9064  -5.5730  -5.1074  -5.0856  -4.9115  -4.8506  -4.8262
    -4.7054  -4.6952  -4.6218  -4.5175  -4.3745  -4.2704  -4.1622  -4.1291
    -4.0775  -3.9382  -3.9329  -3.7441  -3.7415  -3.6328  -3.5918  -3.4371
    -3.4182  -3.2753  -3.2698  -3.2171  -3.1728  -3.0553  -3.0199  -2.8883
    -2.7897  -2.7655  -2.7496  -2.5969  -2.5292  -2.4810  -2.3247  -2.2113
    -2.0669  -1.8826  -1.6623  -1.3453  -1.2929  -1.2269  -1.2003  -1.1622
    -1.0374  -0.7404  -0.7068  -0.6858  -0.4802  -0.4473  -0.3097  -0.1938
    -0.1336   0.0456   0.1172   0.2548   0.2842   0.4717   0.4938   0.6545
     0.8230   0.8953   1.8805   2.0748   2.8633   4.3131   4.5705   5.0237

          k = 0.0591 0.1002 0.0000 ( 32356 PWs)   bands (ev):

    -6.0576  -5.8970  -5.8108  -5.0532  -5.0487  -4.8636  -4.7626  -4.7459
    -4.6772  -4.6340  -4.6214  -4.4383  -4.4000  -4.3199  -4.2295  -4.1166
    -4.0773  -3.9141  -3.8671  -3.7774  -3.7668  -3.6818  -3.6658  -3.4782
    -3.4628  -3.2786  -3.2479  -3.2068  -3.1703  -3.0864  -2.9818  -2.9565
    -2.8662  -2.7886  -2.7680  -2.6344  -2.5806  -2.5116  -2.3455  -2.2116
    -2.1220  -1.9143  -1.5959  -1.3313  -1.2860  -1.2566  -1.2287  -1.2056
    -1.0729  -0.6829  -0.6553  -0.5974  -0.4866  -0.3658  -0.3495  -0.1955
    -0.0985   0.0540   0.0650   0.1176   0.2841   0.3683   0.4706   0.5800
     0.6800   0.8961   2.0138   2.0512   2.6389   4.6761   4.9961   5.2264

          k = 0.0591 0.1169 0.0000 ( 32338 PWs)   bands (ev):

    -6.3375  -5.9064  -5.5730  -5.1074  -5.0856  -4.9115  -4.8506  -4.8262
    -4.7054  -4.6952  -4.6218  -4.5175  -4.3745  -4.2704  -4.1622  -4.1291
    -4.0775  -3.9382  -3.9329  -3.7441  -3.7415  -3.6328  -3.5918  -3.4371
    -3.4182  -3.2753  -3.2698  -3.2171  -3.1728  -3.0553  -3.0199  -2.8883
    -2.7897  -2.7655  -2.7496  -2.5969  -2.5292  -2.4810  -2.3247  -2.2113
    -2.0669  -1.8826  -1.6623  -1.3453  -1.2929  -1.2269  -1.2003  -1.1622
    -1.0374  -0.7404  -0.7068  -0.6858  -0.4802  -0.4473  -0.3097  -0.1938
    -0.1336   0.0456   0.1172   0.2548   0.2842   0.4717   0.4938   0.6545
     0.8230   0.8953   1.8805   2.0748   2.8633   4.3131   4.5705   5.0237

          k = 0.0591-0.0668 0.0000 ( 32339 PWs)   bands (ev):

    -6.6923  -5.9235  -5.3559  -5.2704  -5.1769  -5.0430  -4.9757  -4.9551
    -4.8084  -4.8010  -4.6693  -4.6246  -4.3608  -4.3547  -4.1012  -4.0747
    -3.9844  -3.9437  -3.9301  -3.8128  -3.7149  -3.5556  -3.5249  -3.3951
    -3.3365  -3.2803  -3.2297  -3.1644  -3.1471  -3.0117  -2.9542  -2.8672
    -2.7891  -2.6409  -2.5919  -2.4987  -2.4077  -2.3725  -2.2835  -2.1559
    -1.9040  -1.7795  -1.7746  -1.3660  -1.2672  -1.1943  -1.1719  -1.0284
    -1.0198  -0.8661  -0.7764  -0.7388  -0.5269  -0.4552  -0.2587  -0.1716
    -0.1682   0.0216   0.2291   0.2813   0.3850   0.4781   0.5471   0.8895
     1.0011   1.2545   1.7094   2.1455   3.3441   3.6192   4.0347   4.6437

          k = 0.0591-0.0501 0.0000 ( 32366 PWs)   bands (ev):

    -6.9975  -5.9253  -5.4875  -5.2805  -5.2761  -5.1825  -5.0862  -5.0514
    -4.9493  -4.8691  -4.7957  -4.7283  -4.4818  -4.3671  -4.1067  -4.0338
    -3.9726  -3.9178  -3.8677  -3.8633  -3.6620  -3.5507  -3.5145  -3.3754
    -3.3202  -3.1947  -3.1900  -3.1186  -3.0896  -2.9479  -2.8275  -2.7766
    -2.7733  -2.5771  -2.4671  -2.3218  -2.3000  -2.2739  -2.1703  -2.0063
    -1.8233  -1.6792  -1.5507  -1.4027  -1.2122  -1.1243  -1.1184  -1.0965
    -0.9109  -0.8497  -0.7535  -0.7292  -0.4938  -0.4013  -0.2491  -0.2071
    -0.1103  -0.0031   0.2712   0.2890   0.4288   0.4909   0.6200   0.8703
     1.3239   1.5373   2.0691   2.2520   2.8702   3.5263   3.7892   4.0047

          k = 0.0591-0.0334 0.0000 ( 32366 PWs)   bands (ev):

    -7.2273  -5.8925  -5.6684  -5.3763  -5.3700  -5.2060  -5.2051  -5.1215
    -5.0678  -4.9100  -4.9052  -4.8385  -4.5684  -4.3983  -4.2264  -4.0320
    -4.0035  -3.8653  -3.8517  -3.8273  -3.6259  -3.5782  -3.5432  -3.3419
    -3.3100  -3.1798  -3.1458  -3.0367  -3.0331  -2.8936  -2.7687  -2.7283
    -2.6681  -2.5163  -2.4099  -2.2733  -2.1770  -2.0814  -2.0146  -1.9157
    -1.7452  -1.4996  -1.4135  -1.3053  -1.1645  -1.1156  -1.0313  -0.9832
    -0.9056  -0.7375  -0.6803  -0.5582  -0.4092  -0.2950  -0.2161  -0.2051
    -0.0712   0.0358   0.2581   0.3089   0.4384   0.5001   0.6700   0.8352
     1.2054   2.0293   2.1257   2.4510   2.7953   2.9729   3.1791   4.7147

          k = 0.0591-0.0167 0.0000 ( 32376 PWs)   bands (ev):

    -7.3693  -5.8206  -5.7855  -5.4754  -5.4677  -5.3029  -5.2104  -5.1687
    -5.1274  -4.9765  -4.9317  -4.9188  -4.6077  -4.4258  -4.3603  -4.0596
    -3.9702  -3.8512  -3.8456  -3.8160  -3.6400  -3.5954  -3.5550  -3.3520
    -3.3016  -3.1713  -3.0499  -3.0283  -2.9722  -2.8821  -2.7446  -2.6997
    -2.6266  -2.4643  -2.3714  -2.2223  -2.1073  -1.9294  -1.8797  -1.8360
    -1.6768  -1.4129  -1.4081  -1.2014  -1.1904  -1.0395  -0.9989  -0.8824
    -0.7904  -0.6384  -0.6317  -0.3739  -0.3409  -0.1944  -0.1524  -0.1055
     0.0789   0.2207   0.2913   0.3196   0.4494   0.4918   0.6638   0.8266
     1.1047   1.3596   1.9317   2.6992   2.9207   3.0166   3.6731   4.0545

          k = 0.0591 0.0000 0.0000 ( 32389 PWs)   bands (ev):

    -7.4172  -5.8257  -5.7581  -5.5610  -5.5000  -5.3245  -5.2116  -5.1874
    -5.1475  -5.0042  -4.9449  -4.9387  -4.6122  -4.4364  -4.4195  -4.0695
    -3.9508  -3.8527  -3.8417  -3.8239  -3.6494  -3.6006  -3.5558  -3.3612
    -3.2994  -3.1676  -3.0313  -2.9784  -2.9479  -2.9101  -2.7420  -2.6903
    -2.6199  -2.4481  -2.3557  -2.1926  -2.0831  -1.9084  -1.7947  -1.7934
    -1.6502  -1.4163  -1.3887  -1.2155  -1.1622  -1.0154  -1.0015  -0.8512
    -0.7028  -0.6322  -0.6055  -0.3452  -0.3182  -0.1494  -0.1167  -0.0095
     0.1522   0.3066   0.3265   0.4429   0.4637   0.6402   0.7001   0.7756
     1.0242   1.0686   1.4118   2.7068   3.1765   3.6199   3.6200   3.9609

          k = 0.0591 0.0167 0.0000 ( 32376 PWs)   bands (ev):

    -7.3693  -5.8206  -5.7855  -5.4754  -5.4678  -5.3029  -5.2104  -5.1687
    -5.1274  -4.9765  -4.9317  -4.9188  -4.6077  -4.4258  -4.3603  -4.0596
    -3.9702  -3.8512  -3.8456  -3.8160  -3.6400  -3.5954  -3.5550  -3.3520
    -3.3016  -3.1713  -3.0500  -3.0283  -2.9722  -2.8821  -2.7446  -2.6997
    -2.6266  -2.4643  -2.3714  -2.2223  -2.1073  -1.9294  -1.8797  -1.8360
    -1.6768  -1.4129  -1.4081  -1.2014  -1.1904  -1.0395  -0.9989  -0.8824
    -0.7904  -0.6384  -0.6317  -0.3739  -0.3409  -0.1944  -0.1524  -0.1055
     0.0789   0.2207   0.2913   0.3196   0.4494   0.4918   0.6638   0.8266
     1.1047   1.3596   1.9317   2.6992   2.9207   3.0166   3.6731   4.0545

          k = 0.0738 0.0418 0.0000 ( 32349 PWs)   bands (ev):

    -6.8200  -6.0858  -5.3717  -5.2520  -5.1683  -5.0727  -5.0253  -4.9709
    -4.8780  -4.8013  -4.7010  -4.6713  -4.4087  -4.2416  -4.0833  -4.0674
    -3.9570  -3.9536  -3.8909  -3.8384  -3.6432  -3.5994  -3.5404  -3.3901
    -3.3775  -3.2728  -3.2196  -3.1950  -3.1470  -2.9902  -2.9168  -2.8949
    -2.7446  -2.7132  -2.6111  -2.5748  -2.4147  -2.2918  -1.9996  -1.7798
    -1.6977  -1.5940  -1.5798  -1.3345  -1.2201  -1.1211  -1.1194  -1.0557
    -0.9536  -0.8553  -0.8328  -0.7502  -0.5552  -0.5387  -0.4570  -0.3946
    -0.2487  -0.2016   0.0824   0.2557   0.3864   0.4487   0.6492   0.7041
     1.4525   1.9597   2.1626   2.2318   2.8844   2.9399   3.7984   4.7474

          k = 0.0738 0.0585 0.0000 ( 32316 PWs)   bands (ev):

    -6.5832  -6.1921  -5.2497  -5.1983  -5.1507  -5.0001  -4.9827  -4.8969
    -4.8513  -4.6928  -4.6553  -4.5778  -4.3372  -4.3028  -4.1112  -4.0540
    -3.9939  -3.9802  -3.8324  -3.7845  -3.7049  -3.5846  -3.5656  -3.4273
    -3.3785  -3.3116  -3.2607  -3.2386  -3.1681  -3.0624  -2.9278  -2.8826
    -2.8193  -2.7835  -2.6544  -2.5897  -2.4577  -2.3985  -2.1163  -1.9078
    -1.8331  -1.7299  -1.5959  -1.3052  -1.2526  -1.1700  -1.0653  -0.9761
    -0.9540  -0.8804  -0.8010  -0.7761  -0.6746  -0.5300  -0.5241  -0.4304
    -0.2817  -0.1546   0.0787   0.2474   0.3654   0.4571   0.5922   0.7129
     1.4620   1.6678   1.8996   2.1551   2.8606   3.7764   4.0078   4.1778

          k = 0.0738 0.0752 0.0000 ( 32313 PWs)   bands (ev):

    -6.2861  -6.2578  -5.3108  -5.1303  -5.0913  -4.9370  -4.9090  -4.8291
    -4.7923  -4.5981  -4.5922  -4.5094  -4.4026  -4.2870  -4.1297  -4.0742
    -4.0261  -4.0245  -3.8309  -3.7668  -3.7176  -3.6444  -3.5903  -3.4576
    -3.4366  -3.3330  -3.3109  -3.2309  -3.1600  -3.1414  -2.9391  -2.8954
    -2.8747  -2.8235  -2.7693  -2.6432  -2.5458  -2.4059  -2.1566  -1.9723
    -1.9400  -1.7809  -1.5298  -1.2904  -1.2627  -1.2037  -1.0854  -1.0565
    -0.9696  -0.7647  -0.7028  -0.6978  -0.6140  -0.5531  -0.4599  -0.4196
    -0.2746  -0.1293   0.0914   0.1928   0.3072   0.4530   0.5167   0.6923
     0.9919   1.3039   1.7918   2.0061   3.3744   3.5818   4.4705   4.6498

          k = 0.0738 0.0919 0.0000 ( 32346 PWs)   bands (ev):

    -6.2884  -5.9616  -5.5679  -5.0773  -5.0207  -4.8882  -4.8124  -4.7881
    -4.7449  -4.5595  -4.5122  -4.4922  -4.4723  -4.3324  -4.1128  -4.1082
    -4.0176  -3.9589  -3.8924  -3.7960  -3.7956  -3.7303  -3.5897  -3.5201
    -3.4454  -3.3517  -3.2866  -3.2122  -3.1584  -3.1259  -2.9644  -2.9576
    -2.9245  -2.8931  -2.7390  -2.7015  -2.6097  -2.4315  -2.1408  -1.9883
    -1.9717  -1.7971  -1.4435  -1.2778  -1.2517  -1.2029  -1.1404  -1.1166
    -1.0335  -0.7484  -0.6970  -0.5507  -0.4930  -0.4708  -0.3967  -0.3404
    -0.1256  -0.0984   0.0801   0.1059   0.1755   0.4497   0.4839   0.5905
     0.6678   0.8862   1.7326   2.2103   2.9273   4.2188   4.5460   5.1199

          k = 0.0738 0.1086 0.0000 ( 32346 PWs)   bands (ev):

    -6.2884  -5.9616  -5.5679  -5.0773  -5.0207  -4.8882  -4.8124  -4.7881
    -4.7449  -4.5595  -4.5122  -4.4922  -4.4723  -4.3324  -4.1128  -4.1082
    -4.0176  -3.9589  -3.8924  -3.7960  -3.7956  -3.7303  -3.5897  -3.5201
    -3.4454  -3.3517  -3.2866  -3.2122  -3.1584  -3.1259  -2.9644  -2.9576
    -2.9245  -2.8931  -2.7390  -2.7015  -2.6097  -2.4315  -2.1408  -1.9883
    -1.9717  -1.7971  -1.4435  -1.2778  -1.2517  -1.2029  -1.1404  -1.1166
    -1.0335  -0.7484  -0.6970  -0.5507  -0.4930  -0.4708  -0.3967  -0.3404
    -0.1256  -0.0984   0.0801   0.1059   0.1755   0.4497   0.4839   0.5905
     0.6678   0.8862   1.7326   2.2103   2.9273   4.2188   4.5460   5.1211

          k = 0.0738 0.1253 0.0000 ( 32313 PWs)   bands (ev):

    -6.2861  -6.2578  -5.3108  -5.1303  -5.0913  -4.9370  -4.9090  -4.8291
    -4.7923  -4.5981  -4.5922  -4.5094  -4.4026  -4.2870  -4.1297  -4.0742
    -4.0261  -4.0245  -3.8309  -3.7668  -3.7176  -3.6444  -3.5903  -3.4576
    -3.4366  -3.3330  -3.3109  -3.2309  -3.1600  -3.1414  -2.9391  -2.8954
    -2.8747  -2.8235  -2.7692  -2.6432  -2.5458  -2.4059  -2.1566  -1.9723
    -1.9400  -1.7809  -1.5298  -1.2905  -1.2627  -1.2037  -1.0854  -1.0565
    -0.9696  -0.7647  -0.7028  -0.6978  -0.6140  -0.5531  -0.4599  -0.4196
    -0.2746  -0.1293   0.0914   0.1928   0.3072   0.4530   0.5167   0.6923
     0.9919   1.3039   1.7918   2.0061   3.3744   3.5818   4.4705   4.6497

          k = 0.0738-0.0585 0.0000 ( 32316 PWs)   bands (ev):

    -6.5832  -6.1921  -5.2497  -5.1983  -5.1507  -5.0001  -4.9827  -4.8969
    -4.8513  -4.6928  -4.6553  -4.5778  -4.3372  -4.3028  -4.1112  -4.0540
    -3.9939  -3.9802  -3.8324  -3.7845  -3.7049  -3.5846  -3.5656  -3.4273
    -3.3785  -3.3116  -3.2607  -3.2387  -3.1681  -3.0624  -2.9278  -2.8826
    -2.8193  -2.7835  -2.6544  -2.5897  -2.4577  -2.3985  -2.1163  -1.9078
    -1.8331  -1.7299  -1.5959  -1.3052  -1.2526  -1.1700  -1.0653  -0.9761
    -0.9540  -0.8804  -0.8010  -0.7761  -0.6746  -0.5300  -0.5241  -0.4304
    -0.2817  -0.1546   0.0787   0.2474   0.3654   0.4571   0.5922   0.7129
     1.4620   1.6678   1.8996   2.1551   2.8606   3.7764   4.0078   4.1778

          k = 0.0738-0.0418 0.0000 ( 32349 PWs)   bands (ev):

    -6.8200  -6.0858  -5.3717  -5.2520  -5.1683  -5.0727  -5.0253  -4.9709
    -4.8780  -4.8013  -4.7010  -4.6713  -4.4087  -4.2416  -4.0833  -4.0674
    -3.9570  -3.9536  -3.8909  -3.8384  -3.6432  -3.5994  -3.5404  -3.3901
    -3.3775  -3.2728  -3.2196  -3.1950  -3.1470  -2.9902  -2.9168  -2.8949
    -2.7446  -2.7132  -2.6111  -2.5748  -2.4147  -2.2918  -1.9996  -1.7798
    -1.6977  -1.5940  -1.5798  -1.3345  -1.2201  -1.1211  -1.1194  -1.0557
    -0.9536  -0.8553  -0.8328  -0.7502  -0.5552  -0.5387  -0.4570  -0.3946
    -0.2487  -0.2016   0.0824   0.2557   0.3864   0.4487   0.6492   0.7041
     1.4525   1.9597   2.1626   2.2318   2.8844   2.9399   3.7984   4.7473

          k = 0.0738-0.0251 0.0000 ( 32354 PWs)   bands (ev):

    -6.9833  -5.9371  -5.4684  -5.3272  -5.2219  -5.1606  -5.0455  -5.0177
    -4.8963  -4.8777  -4.7658  -4.7252  -4.4470  -4.2250  -4.1500  -4.0761
    -4.0159  -3.9238  -3.8932  -3.8211  -3.6225  -3.6170  -3.5744  -3.3696
    -3.3566  -3.2684  -3.1885  -3.1490  -3.1176  -2.9622  -2.8922  -2.8638
    -2.7125  -2.6597  -2.6414  -2.5827  -2.3974  -2.0837  -1.8624  -1.6362
    -1.6099  -1.5374  -1.4381  -1.3500  -1.2311  -1.1851  -1.0829  -1.0353
    -0.9879  -0.8279  -0.8228  -0.6439  -0.4915  -0.3924  -0.3372  -0.2486
    -0.2128  -0.1446   0.0982   0.2661   0.3874   0.4008   0.6565   0.6728
     1.3243   1.4351   1.9299   2.5219   2.8408   3.4591   3.8185   4.0288

          k = 0.0738-0.0084 0.0000 ( 32355 PWs)   bands (ev):

    -7.0664  -5.7600  -5.5192  -5.4983  -5.2551  -5.1741  -5.0551  -5.0359
    -4.9197  -4.9099  -4.8257  -4.7341  -4.4394  -4.2554  -4.2263  -4.0779
    -4.0387  -3.9169  -3.8905  -3.7696  -3.6637  -3.6278  -3.5985  -3.3602
    -3.3446  -3.2683  -3.1655  -3.1188  -3.1073  -2.9303  -2.8748  -2.8485
    -2.7171  -2.6922  -2.6267  -2.5757  -2.3718  -1.9315  -1.7593  -1.5589
    -1.5412  -1.5152  -1.3898  -1.3585  -1.3096  -1.1769  -1.0563  -1.0409
    -0.9093  -0.8430  -0.8304  -0.5824  -0.4335  -0.4140  -0.1993  -0.1261
    -0.0593   0.1047   0.2090   0.2894   0.3712   0.3798   0.6356   0.6543
     0.9045   1.2466   1.3181   2.7540   3.2436   3.4502   3.7445   4.5737

          k = 0.0738 0.0084 0.0000 ( 32355 PWs)   bands (ev):

    -7.0664  -5.7600  -5.5192  -5.4983  -5.2551  -5.1741  -5.0551  -5.0359
    -4.9197  -4.9099  -4.8257  -4.7341  -4.4394  -4.2554  -4.2263  -4.0779
    -4.0387  -3.9169  -3.8905  -3.7696  -3.6637  -3.6278  -3.5985  -3.3602
    -3.3446  -3.2683  -3.1655  -3.1188  -3.1073  -2.9303  -2.8748  -2.8485
    -2.7171  -2.6922  -2.6267  -2.5757  -2.3718  -1.9315  -1.7593  -1.5589
    -1.5412  -1.5152  -1.3898  -1.3585  -1.3096  -1.1769  -1.0563  -1.0409
    -0.9093  -0.8430  -0.8304  -0.5824  -0.4335  -0.4140  -0.1993  -0.1261
    -0.0593   0.1047   0.2090   0.2894   0.3712   0.3798   0.6356   0.6543
     0.9045   1.2466   1.3181   2.7540   3.2436   3.4502   3.7445   4.5737

          k = 0.0738 0.0251 0.0000 ( 32354 PWs)   bands (ev):

    -6.9833  -5.9371  -5.4684  -5.3272  -5.2219  -5.1606  -5.0455  -5.0177
    -4.8963  -4.8777  -4.7658  -4.7252  -4.4470  -4.2250  -4.1500  -4.0761
    -4.0159  -3.9238  -3.8932  -3.8211  -3.6225  -3.6170  -3.5744  -3.3696
    -3.3566  -3.2684  -3.1885  -3.1490  -3.1176  -2.9622  -2.8922  -2.8638
    -2.7125  -2.6597  -2.6414  -2.5827  -2.3974  -2.0837  -1.8624  -1.6362
    -1.6099  -1.5374  -1.4381  -1.3500  -1.2311  -1.1851  -1.0829  -1.0353
    -0.9879  -0.8279  -0.8228  -0.6439  -0.4915  -0.3924  -0.3372  -0.2486
    -0.2128  -0.1446   0.0982   0.2661   0.3874   0.4008   0.6565   0.6728
     1.3243   1.4351   1.9299   2.5219   2.8408   3.4591   3.8185   4.0288

          k =-0.0886-0.0501 0.0000 ( 32340 PWs)   bands (ev):

    -6.4151  -6.4151  -5.2277  -5.2276  -5.0490  -5.0490  -4.9613  -4.9613
    -4.7387  -4.7387  -4.5320  -4.5320  -4.2932  -4.2932  -4.2000  -4.2000
    -3.9362  -3.9362  -3.7752  -3.7752  -3.5769  -3.5768  -3.5132  -3.5132
    -3.3812  -3.3811  -3.2773  -3.2772  -3.1800  -3.1800  -2.9723  -2.9722
    -2.8019  -2.8019  -2.6189  -2.6189  -2.4294  -2.4293  -1.9195  -1.9194
    -1.7542  -1.7541  -1.3365  -1.3365  -1.1972  -1.1972  -0.9616  -0.9616
    -0.8902  -0.8901  -0.8719  -0.8718  -0.7905  -0.7904  -0.5695  -0.5694
    -0.2481  -0.2480   0.1380   0.1380   0.4168   0.4168   0.6530   0.6531
     1.7195   1.7195   2.1826   2.1826   2.9229   2.9229   4.4364   4.4365

          k =-0.0886-0.0334 0.0000 ( 32337 PWs)   bands (ev):

    -6.5694  -6.2049  -5.2449  -5.2220  -5.0872  -5.0445  -4.9628  -4.9448
    -4.7899  -4.6798  -4.5800  -4.5256  -4.3127  -4.2673  -4.2250  -4.1763
    -3.9459  -3.9398  -3.8720  -3.7275  -3.5924  -3.5828  -3.5278  -3.4887
    -3.3960  -3.3559  -3.3192  -3.2509  -3.1755  -3.1747  -2.9806  -2.9688
    -2.8543  -2.7499  -2.6770  -2.6244  -2.4963  -2.3144  -1.9220  -1.8894
    -1.7221  -1.7144  -1.3232  -1.3195  -1.2006  -1.1834  -1.0273  -0.9831
    -0.9698  -0.9200  -0.8690  -0.8536  -0.6921  -0.5967  -0.5781  -0.4490
    -0.2942  -0.2023   0.1349   0.1439   0.3766   0.4243   0.6053   0.6593
     1.4754   1.5942   1.8463   2.2728   2.8556   3.7345   4.0180   4.2020

          k =-0.0886-0.0167 0.0000 ( 32347 PWs)   bands (ev):

    -6.6631  -5.9512  -5.3769  -5.2478  -5.0721  -5.0449  -4.9414  -4.9297
    -4.8171  -4.6532  -4.6338  -4.5321  -4.3001  -4.2714  -4.2089  -4.1875
    -4.0104  -3.9641  -3.9066  -3.7358  -3.6134  -3.6098  -3.5402  -3.4858
    -3.3980  -3.3467  -3.3229  -3.2393  -3.1616  -3.1479  -2.9812  -2.9794
    -2.8932  -2.7883  -2.6742  -2.6510  -2.5303  -2.2388  -1.8525  -1.8399
    -1.6903  -1.6625  -1.3100  -1.2936  -1.1795  -1.1483  -1.0602  -1.0333
    -1.0020  -0.9551  -0.9226  -0.8767  -0.5356  -0.4556  -0.3903  -0.2434
    -0.1877  -0.1525   0.1187   0.1463   0.2793   0.4219   0.5485   0.6331
     0.9541   1.3159   1.4948   2.3499   3.3995   3.5552   3.9811   4.6991

          k =-0.0886 0.0000 0.0000 ( 32313 PWs)   bands (ev):

    -6.6944  -5.7318  -5.5813  -5.2465  -5.0495  -5.0440  -4.9238  -4.9107
    -4.8415  -4.6897  -4.6150  -4.5337  -4.2854  -4.2831  -4.1981  -4.1533
    -4.1111  -3.9848  -3.8678  -3.7673  -3.6242  -3.6205  -3.5431  -3.4933
    -3.4094  -3.3433  -3.3047  -3.2378  -3.1514  -3.1252  -2.9871  -2.9763
    -2.9094  -2.8391  -2.6638  -2.6325  -2.5582  -2.2209  -1.8147  -1.7725
    -1.7166  -1.6363  -1.3211  -1.2746  -1.1862  -1.0805  -1.0701  -1.0284
    -1.0218  -0.9775  -0.9760  -0.8842  -0.5106  -0.4214  -0.2138  -0.1891
    -0.1229   0.0395   0.1187   0.1550   0.2582   0.4205   0.5044   0.6152
     0.6250   0.9972   1.4583   2.5325   3.0754   3.7958   4.4047   4.5630

          k =-0.0886 0.0167 0.0000 ( 32347 PWs)   bands (ev):

    -6.6631  -5.9512  -5.3769  -5.2478  -5.0721  -5.0449  -4.9414  -4.9297
    -4.8171  -4.6532  -4.6338  -4.5321  -4.3001  -4.2714  -4.2089  -4.1875
    -4.0104  -3.9641  -3.9066  -3.7358  -3.6134  -3.6098  -3.5402  -3.4858
    -3.3980  -3.3467  -3.3229  -3.2393  -3.1616  -3.1479  -2.9812  -2.9794
    -2.8932  -2.7883  -2.6742  -2.6510  -2.5303  -2.2388  -1.8525  -1.8399
    -1.6903  -1.6625  -1.3100  -1.2936  -1.1795  -1.1483  -1.0602  -1.0333
    -1.0020  -0.9551  -0.9226  -0.8767  -0.5356  -0.4556  -0.3903  -0.2434
    -0.1877  -0.1525   0.1187   0.1463   0.2793   0.4219   0.5485   0.6331
     0.9541   1.3159   1.4948   2.3499   3.3995   3.5552   3.9811   4.6991

          k =-0.0886 0.0334 0.0000 ( 32337 PWs)   bands (ev):

    -6.5694  -6.2049  -5.2449  -5.2220  -5.0872  -5.0445  -4.9628  -4.9448
    -4.7899  -4.6798  -4.5800  -4.5256  -4.3127  -4.2673  -4.2250  -4.1763
    -3.9459  -3.9398  -3.8720  -3.7275  -3.5924  -3.5828  -3.5278  -3.4887
    -3.3960  -3.3559  -3.3192  -3.2509  -3.1755  -3.1747  -2.9806  -2.9688
    -2.8543  -2.7499  -2.6770  -2.6244  -2.4963  -2.3144  -1.9220  -1.8894
    -1.7221  -1.7144  -1.3232  -1.3195  -1.2006  -1.1834  -1.0273  -0.9831
    -0.9698  -0.9200  -0.8690  -0.8536  -0.6921  -0.5967  -0.5781  -0.4490
    -0.2942  -0.2023   0.1349   0.1439   0.3766   0.4243   0.6053   0.6593
     1.4754   1.5942   1.8463   2.2728   2.8556   3.7345   4.0180   4.2020

          k =-0.0886-0.1503 0.0000 ( 32340 PWs)   bands (ev):

    -6.4151  -6.4151  -5.2277  -5.2276  -5.0490  -5.0490  -4.9613  -4.9613
    -4.7387  -4.7387  -4.5320  -4.5320  -4.2932  -4.2932  -4.2000  -4.2000
    -3.9362  -3.9362  -3.7752  -3.7752  -3.5769  -3.5768  -3.5132  -3.5132
    -3.3812  -3.3811  -3.2773  -3.2772  -3.1801  -3.1800  -2.9723  -2.9722
    -2.8019  -2.8019  -2.6189  -2.6189  -2.4294  -2.4293  -1.9195  -1.9194
    -1.7542  -1.7541  -1.3365  -1.3365  -1.1972  -1.1972  -0.9616  -0.9616
    -0.8902  -0.8901  -0.8719  -0.8719  -0.7905  -0.7904  -0.5695  -0.5694
    -0.2481  -0.2480   0.1380   0.1380   0.4168   0.4168   0.6530   0.6531
     1.7195   1.7195   2.1826   2.1826   2.9229   2.9229   4.4364   4.4365

     the Fermi energy is     0.4847 ev

!    total energy              =    -896.88913439 Ry
     estimated scf accuracy    <       0.00000105 Ry
     smearing contrib. (-TS)   =      -0.07637729 Ry
     internal energy E=F+TS    =    -896.81275709 Ry

     The total energy is F=E-TS. E is the sum of the following terms:
     one-electron contribution =   -7061.45014877 Ry
     hartree contribution      =    3608.00673887 Ry
     xc contribution           =    -394.00674036 Ry
     ewald contribution        =    2950.63738572 Ry
     electric field correction =       0.00000745 Ry

     convergence has been achieved in  17 iterations

     negative rho (up, down):  9.605E-04 0.000E+00

     Forces acting on atoms (cartesian axes, Ry/au):

     atom    1 type  1   force =     0.00000381    0.02017402    0.01706361
     atom    2 type  1   force =     0.00000190    0.02016556    0.01705000
     atom    3 type  2   force =    -0.00001097   -0.00398197   -0.03789006
     atom    4 type  2   force =     0.00000748   -0.00398682   -0.03788317
     atom    5 type  1   force =     0.00000374   -0.02128420   -0.00129210
     atom    6 type  1   force =    -0.00000274   -0.02125939   -0.00124800
     atom    7 type  2   force =     0.00004983    0.00466657    0.01557169
     atom    8 type  2   force =    -0.00004695    0.00466223    0.01557622
     atom    9 type  1   force =     0.00000105    0.00054609    0.00411518
     atom   10 type  1   force =    -0.00000070    0.00053804    0.00412915
     atom   11 type  2   force =    -0.00001306   -0.00011657    0.00240064
     atom   12 type  2   force =     0.00000662   -0.00012356    0.00240684

     Total force =     0.076033     Total SCF correction =     0.003205

     Writing output data file ./Ir2Au2/Ir2Au2_beef.save/

     init_run     :     48.07s CPU    112.88s WALL (       1 calls)
     electrons    :   1411.24s CPU   3364.67s WALL (       1 calls)
     forces       :     17.25s CPU     62.82s WALL (       1 calls)

     Called by init_run:
     wfcinit      :     37.33s CPU    100.06s WALL (       1 calls)
     potinit      :      7.62s CPU      8.78s WALL (       1 calls)
     hinit0       :      2.05s CPU      2.49s WALL (       1 calls)

     Called by electrons:
     c_bands      :   1221.53s CPU   2879.44s WALL (      17 calls)
     sum_band     :    168.69s CPU    431.88s WALL (      17 calls)
     v_of_rho     :     17.97s CPU     37.69s WALL (      18 calls)
     newd         :      9.59s CPU     22.09s WALL (      18 calls)
     mix_rho      :      0.39s CPU      1.29s WALL (      17 calls)
     vdW_kernel   :      5.82s CPU      5.98s WALL (       1 calls)

     Called by c_bands:
     init_us_2    :      4.54s CPU      4.90s WALL (    2664 calls)
     cegterg      :   1200.96s CPU   2822.70s WALL (    1258 calls)

     Called by *egterg:
     cdiaghg      :     74.61s CPU     98.14s WALL (    4660 calls)
     h_psi        :    716.30s CPU   1538.06s WALL (    4734 calls)
     s_psi        :    131.37s CPU    133.86s WALL (    4734 calls)
     g_psi        :      0.71s CPU      0.90s WALL (    3402 calls)

     Called by h_psi:
     h_psi:calbec :    164.07s CPU    537.29s WALL (    4734 calls)
     vloc_psi     :    418.80s CPU    864.03s WALL (    4734 calls)
     add_vuspsi   :    132.50s CPU    135.41s WALL (    4734 calls)

     General routines
     calbec       :    242.21s CPU    808.29s WALL (    6288 calls)
     fft          :      8.48s CPU     43.33s WALL (    1193 calls)
     ffts         :      0.07s CPU      0.24s WALL (      35 calls)
     fftw         :    483.07s CPU   1016.28s WALL (  537146 calls)
     interpolate  :      0.17s CPU      0.49s WALL (      18 calls)

     Parallel routines
     fft_scatt_xy :     26.14s CPU     42.26s WALL (  538374 calls)
     fft_scatt_yz :    191.38s CPU    655.39s WALL (  538374 calls)

     PWSCF        :  24m45.92s CPU      1h 0m WALL


   This run was terminated on:  23:22: 7  23Jun2022            

=------------------------------------------------------------------------------=
   JOB DONE.
=------------------------------------------------------------------------------=
