
     Program PWSCF v.6.6 starts on 24Jun2022 at 12:50: 5 

     This program is part of the open-source Quantum ESPRESSO suite
     for quantum simulation of materials; please cite
         "P. Giannozzi et al., J. Phys.:Condens. Matter 21 395502 (2009);
         "P. Giannozzi et al., J. Phys.:Condens. Matter 29 465901 (2017);
          URL http://www.quantum-espresso.org", 
     in publications or presentations arising from this work. More details at
     http://www.quantum-espresso.org/quote

     Parallel version (MPI), running on    37 processors

     MPI processes distributed on     1 nodes
     R & G space division:  proc/nbgrp/npool/nimage =      37
     Fft bands division:     nmany     =       1
     Reading input from La2Cd2.in
Warning: card &CELL ignored
Warning: card / ignored

     Current dimensions of program PWSCF are:
     Max number of different atomic species (ntypx) = 10
     Max number of k-points (npk) =  40000
     Max angular momentum in pseudopotentials (lmaxx) =  3
     Presently stress not available with electric field and gates

     Message from routine cell_base_init:
     DEPRECATED: use true lattice parameter, not A to a.u. conversion factor
     file La.pbe-spfn-rrkjus_psl.1.0.0.UPF: wavefunction(s)  4F renormalized
     file Cd.pbe-n-rrkjus_psl.1.0.0.UPF: wavefunction(s)  4D renormalized

     **************************************************************************
     Initializing libbeef V0.1.2 with the BEEF-vdW functional.
     Citation: Wellendorff et al., PRB 85, 235149 (2012).
     **************************************************************************


     IMPORTANT: XC functional enforced from input :
     Exchange-correlation= BEEF-VDW
                           (   1   4  43  14   2   0   0)
     Any further DFT definition will be discarded
     Please, verify this is what you really want


     Subspace diagonalization in iterative solution of the eigenvalue problem:
     a serial algorithm will be used

     Found symmetry operation: I + ( -0.5000  0.5000  0.0000)
     This is a supercell, fractional translations are disabled

     Parallelization info
     --------------------
     sticks:   dense  smooth     PW     G-vecs:    dense   smooth      PW
     Min         190      76     21                46018    11635    1687
     Max         191      77     22                46043    11644    1693
     Sum        7063    2825    789              1703039   430665   62501



     bravais-lattice index     =            0
     lattice parameter (alat)  =       1.8897  a.u.
     unit-cell volume          =    7793.2337 (a.u.)^3
     number of atoms/cell      =           12
     number of atomic types    =            2
     number of electrons       =       138.00
     number of Kohn-Sham states=           83
     kinetic-energy cutoff     =      55.1240  Ry
     charge density cutoff     =     551.2396  Ry
     convergence threshold     =      1.0E-05
     mixing beta               =       0.1000
     number of iterations used =           10  plain     mixing
     Exchange-correlation= BEEF-VDW
                           (   1   4  43  14   2   0   0)

     celldm(1)=   1.889726  celldm(2)=   0.000000  celldm(3)=   0.000000
     celldm(4)=   0.000000  celldm(5)=   0.000000  celldm(6)=   0.000000

     crystal axes: (cart. coord. in units of alat)
               a(1) = (   6.897631   0.000000   0.000000 )  
               a(2) = (   2.187198   6.541673   0.000000 )  
               a(3) = (   0.000000   0.000000  25.593660 )  

     reciprocal axes: (cart. coord. in units 2 pi/alat)
               b(1) = (  0.144977 -0.048473  0.000000 )  
               b(2) = (  0.000000  0.152866  0.000000 )  
               b(3) = (  0.000000  0.000000  0.039072 )  


     PseudoPot. # 1 for La read from file:
     ../pseudo/La.pbe-spfn-rrkjus_psl.1.0.0.UPF
     MD5 check sum: e3bc141c2ecb461b8d0a035ce9ac970e
     Pseudo is Ultrasoft + core correction, Zval = 11.0
     Generated using "atomic" code by A. Dal Corso v.6.2.2
     Using radial grid of 1253 points,  8 beta functions with: 
                l(1) =   0
                l(2) =   0
                l(3) =   1
                l(4) =   1
                l(5) =   2
                l(6) =   2
                l(7) =   3
                l(8) =   3
     Q(r) pseudized with 0 coefficients 


     PseudoPot. # 2 for Cd read from file:
     ../pseudo/Cd.pbe-n-rrkjus_psl.1.0.0.UPF
     MD5 check sum: a744746c89d2344a134ead0d8ab94e7a
     Pseudo is Ultrasoft + core correction, Zval = 12.0
     Generated using "atomic" code by A. Dal Corso v.6.3
     Using radial grid of 1239 points,  6 beta functions with: 
                l(1) =   0
                l(2) =   0
                l(3) =   1
                l(4) =   1
                l(5) =   2
                l(6) =   2
     Q(r) pseudized with 0 coefficients 


     atomic species   valence    mass     pseudopotential
        La            11.00   138.90547     La( 1.00)
        Cd            12.00   112.41400     Cd( 1.00)

     No symmetry found



   Cartesian axes

     site n.     atom                  positions (alat units)
         1           La  tau(   1) = (   0.0000000   0.0000000  10.0000000  )
         2           La  tau(   2) = (   4.5424148   3.2708363  10.0000000  )
         3           Cd  tau(   3) = (   3.4488157   0.0000000  10.0000000  )
         4           Cd  tau(   4) = (   1.0935992   3.2708363  10.0000000  )
         5           La  tau(   5) = (   6.8976313   4.9667466  12.7968301  )
         6           La  tau(   6) = (   2.3552165   1.6959102  12.7968301  )
         7           Cd  tau(   7) = (   3.4488157   4.9667466  12.7968301  )
         8           Cd  tau(   8) = (   5.8040322   1.6959102  12.7968301  )
         9           La  tau(   9) = (   4.6912332   3.3779444  15.4951406  )
        10           La  tau(  10) = (   0.1487773   0.1071699  15.4951315  )
        11           Cd  tau(  11) = (   1.2528930   3.3855436  15.5627972  )
        12           Cd  tau(  12) = (   3.6080464   0.1146736  15.5627908  )

     number of k points=    74  Fermi-Dirac smearing, width (Ry)=  0.0100
                       cart. coord. in units 2pi/alat
        k(    1) = (   0.0000000   0.0000000   0.0000000), wk =   0.0138889
        k(    2) = (   0.0000000   0.0127388   0.0000000), wk =   0.0277778
        k(    3) = (   0.0000000   0.0254777   0.0000000), wk =   0.0277778
        k(    4) = (   0.0000000   0.0382165   0.0000000), wk =   0.0277778
        k(    5) = (   0.0000000   0.0509554   0.0000000), wk =   0.0277778
        k(    6) = (   0.0000000   0.0636942   0.0000000), wk =   0.0277778
        k(    7) = (   0.0000000  -0.0764330   0.0000000), wk =   0.0138889
        k(    8) = (   0.0120814  -0.0040394   0.0000000), wk =   0.0277778
        k(    9) = (   0.0120814   0.0086994   0.0000000), wk =   0.0277778
        k(   10) = (   0.0120814   0.0214383   0.0000000), wk =   0.0277778
        k(   11) = (   0.0120814   0.0341771   0.0000000), wk =   0.0277778
        k(   12) = (   0.0120814   0.0469160   0.0000000), wk =   0.0277778
        k(   13) = (   0.0120814   0.0596548   0.0000000), wk =   0.0277778
        k(   14) = (   0.0120814  -0.0804725   0.0000000), wk =   0.0277778
        k(   15) = (   0.0120814  -0.0677336   0.0000000), wk =   0.0277778
        k(   16) = (   0.0120814  -0.0549948   0.0000000), wk =   0.0277778
        k(   17) = (   0.0120814  -0.0422559   0.0000000), wk =   0.0277778
        k(   18) = (   0.0120814  -0.0295171   0.0000000), wk =   0.0277778
        k(   19) = (   0.0120814  -0.0167783   0.0000000), wk =   0.0277778
        k(   20) = (   0.0241629  -0.0080788   0.0000000), wk =   0.0277778
        k(   21) = (   0.0241629   0.0046600   0.0000000), wk =   0.0277778
        k(   22) = (   0.0241629   0.0173989   0.0000000), wk =   0.0277778
        k(   23) = (   0.0241629   0.0301377   0.0000000), wk =   0.0277778
        k(   24) = (   0.0241629   0.0428765   0.0000000), wk =   0.0277778
        k(   25) = (   0.0241629   0.0556154   0.0000000), wk =   0.0277778
        k(   26) = (   0.0241629  -0.0845119   0.0000000), wk =   0.0277778
        k(   27) = (   0.0241629  -0.0717730   0.0000000), wk =   0.0277778
        k(   28) = (   0.0241629  -0.0590342   0.0000000), wk =   0.0277778
        k(   29) = (   0.0241629  -0.0462953   0.0000000), wk =   0.0277778
        k(   30) = (   0.0241629  -0.0335565   0.0000000), wk =   0.0277778
        k(   31) = (   0.0241629  -0.0208177   0.0000000), wk =   0.0277778
        k(   32) = (   0.0362443  -0.0121182   0.0000000), wk =   0.0277778
        k(   33) = (   0.0362443   0.0006206   0.0000000), wk =   0.0277778
        k(   34) = (   0.0362443   0.0133594   0.0000000), wk =   0.0277778
        k(   35) = (   0.0362443   0.0260983   0.0000000), wk =   0.0277778
        k(   36) = (   0.0362443   0.0388371   0.0000000), wk =   0.0277778
        k(   37) = (   0.0362443   0.0515760   0.0000000), wk =   0.0277778
        k(   38) = (   0.0362443  -0.0885513   0.0000000), wk =   0.0277778
        k(   39) = (   0.0362443  -0.0758124   0.0000000), wk =   0.0277778
        k(   40) = (   0.0362443  -0.0630736   0.0000000), wk =   0.0277778
        k(   41) = (   0.0362443  -0.0503348   0.0000000), wk =   0.0277778
        k(   42) = (   0.0362443  -0.0375959   0.0000000), wk =   0.0277778
        k(   43) = (   0.0362443  -0.0248571   0.0000000), wk =   0.0277778
        k(   44) = (   0.0483258  -0.0161576   0.0000000), wk =   0.0277778
        k(   45) = (   0.0483258  -0.0034188   0.0000000), wk =   0.0277778
        k(   46) = (   0.0483258   0.0093200   0.0000000), wk =   0.0277778
        k(   47) = (   0.0483258   0.0220589   0.0000000), wk =   0.0277778
        k(   48) = (   0.0483258   0.0347977   0.0000000), wk =   0.0277778
        k(   49) = (   0.0483258   0.0475366   0.0000000), wk =   0.0277778
        k(   50) = (   0.0483258  -0.0925907   0.0000000), wk =   0.0277778
        k(   51) = (   0.0483258  -0.0798519   0.0000000), wk =   0.0277778
        k(   52) = (   0.0483258  -0.0671130   0.0000000), wk =   0.0277778
        k(   53) = (   0.0483258  -0.0543742   0.0000000), wk =   0.0277778
        k(   54) = (   0.0483258  -0.0416353   0.0000000), wk =   0.0277778
        k(   55) = (   0.0483258  -0.0288965   0.0000000), wk =   0.0277778
        k(   56) = (   0.0604072  -0.0201971   0.0000000), wk =   0.0277778
        k(   57) = (   0.0604072  -0.0074582   0.0000000), wk =   0.0277778
        k(   58) = (   0.0604072   0.0052806   0.0000000), wk =   0.0277778
        k(   59) = (   0.0604072   0.0180195   0.0000000), wk =   0.0277778
        k(   60) = (   0.0604072   0.0307583   0.0000000), wk =   0.0277778
        k(   61) = (   0.0604072   0.0434971   0.0000000), wk =   0.0277778
        k(   62) = (   0.0604072  -0.0966301   0.0000000), wk =   0.0277778
        k(   63) = (   0.0604072  -0.0838913   0.0000000), wk =   0.0277778
        k(   64) = (   0.0604072  -0.0711524   0.0000000), wk =   0.0277778
        k(   65) = (   0.0604072  -0.0584136   0.0000000), wk =   0.0277778
        k(   66) = (   0.0604072  -0.0456747   0.0000000), wk =   0.0277778
        k(   67) = (   0.0604072  -0.0329359   0.0000000), wk =   0.0277778
        k(   68) = (  -0.0724887   0.0242365   0.0000000), wk =   0.0138889
        k(   69) = (  -0.0724887   0.0369753   0.0000000), wk =   0.0277778
        k(   70) = (  -0.0724887   0.0497141   0.0000000), wk =   0.0277778
        k(   71) = (  -0.0724887   0.0624530   0.0000000), wk =   0.0277778
        k(   72) = (  -0.0724887   0.0751918   0.0000000), wk =   0.0277778
        k(   73) = (  -0.0724887   0.0879307   0.0000000), wk =   0.0277778
        k(   74) = (  -0.0724887  -0.0521966   0.0000000), wk =   0.0138889

     Dense  grid:  1703039 G-vectors     FFT dimensions: ( 100, 100, 375)

     Smooth grid:   430665 G-vectors     FFT dimensions: (  64,  64, 240)

     Estimated max dynamical RAM per process >     586.14 MB

     Estimated total dynamical RAM >      21.18 GB

     Initial potential from superposition of free atoms

     starting charge  137.79197, renormalised to  138.00000

     negative rho (up, down):  3.388E-03 0.000E+00


     %%%%%%%%%%%%%%%%%%%%%%%%%%%%%%%%%%%%%%%%%%%%%%%%%%%%%%%%%%%%%%%%%%%%%%%%
     %                                                                      %
     % You are using vdW-DF, which was implemented by the Thonhauser group. %
     % Please cite the following two papers that made this development      %
     % possible and the two reviews that describe the various versions:     %
     %                                                                      %
     %   T. Thonhauser et al., PRL 115, 136402 (2015).                      %
     %   T. Thonhauser et al., PRB 76, 125112 (2007).                       %
     %   K. Berland et al., Rep. Prog. Phys. 78, 066501 (2015).             %
     %   D.C. Langreth et al., J. Phys.: Condens. Matter 21, 084203 (2009). %
     %                                                                      %
     %                                                                      %
     % If you are calculating the stress with vdW-DF, please also cite:     %
     %                                                                      %
     %   R. Sabatini et al., J. Phys.: Condens. Matter 24, 424209 (2012).   %
     %                                                                      %
     %%%%%%%%%%%%%%%%%%%%%%%%%%%%%%%%%%%%%%%%%%%%%%%%%%%%%%%%%%%%%%%%%%%%%%%%



     Adding external electric field

     Computed dipole along edir(3) : 
        Dipole               -0.0034 Ry au,         -0.0086 Debye
        Dipole field         -0.0000 Ry au, 

        Potential amp.        0.0005 Ry
        Total length         47.1559 bohr

     Starting wfcs are  174 randomized atomic wfcs

     total cpu time spent up to now is      389.3 secs

     Self-consistent Calculation

     iteration #  1     ecut=    55.12 Ry     beta= 0.10
     Davidson diagonalization with overlap
     ethr =  1.00E-02,  avg # of iterations =  2.0

     negative rho (up, down):  3.221E-03 0.000E+00

     Adding external electric field

     Computed dipole along edir(3) : 
        Dipole               -0.1920 Ry au,         -0.4881 Debye
        Dipole field         -0.0003 Ry au, 

        Potential amp.        0.0292 Ry
        Total length         47.1559 bohr


     total cpu time spent up to now is      834.1 secs

     total energy              =   -1371.32960886 Ry
     estimated scf accuracy    <       3.21135792 Ry

     iteration #  2     ecut=    55.12 Ry     beta= 0.10
     Davidson diagonalization with overlap
     ethr =  2.33E-03,  avg # of iterations =  2.8

     negative rho (up, down):  3.210E-03 0.000E+00

     Adding external electric field

     Computed dipole along edir(3) : 
        Dipole                0.3831 Ry au,          0.9738 Debye
        Dipole field          0.0006 Ry au, 

        Potential amp.       -0.0583 Ry
        Total length         47.1559 bohr


     total cpu time spent up to now is     1308.4 secs

     total energy              =   -1371.33646080 Ry
     estimated scf accuracy    <       1.03273178 Ry

     iteration #  3     ecut=    55.12 Ry     beta= 0.10
     Davidson diagonalization with overlap
     c_bands:  1 eigenvalues not converged
     c_bands:  1 eigenvalues not converged
     c_bands:  2 eigenvalues not converged
     c_bands:  1 eigenvalues not converged
     c_bands:  1 eigenvalues not converged
     c_bands:  1 eigenvalues not converged
     ethr =  7.48E-04,  avg # of iterations = 14.2

     negative rho (up, down):  3.197E-03 0.000E+00

     Adding external electric field

     Computed dipole along edir(3) : 
        Dipole               -0.2304 Ry au,         -0.5855 Debye
        Dipole field         -0.0004 Ry au, 

        Potential amp.        0.0350 Ry
        Total length         47.1559 bohr


     total cpu time spent up to now is     2079.4 secs

     total energy              =   -1371.47259568 Ry
     estimated scf accuracy    <       3.96957827 Ry

     iteration #  4     ecut=    55.12 Ry     beta= 0.10
     Davidson diagonalization with overlap
     ethr =  7.48E-04,  avg # of iterations =  2.0

     negative rho (up, down):  3.184E-03 0.000E+00

     Adding external electric field

     Computed dipole along edir(3) : 
        Dipole               -0.0232 Ry au,         -0.0590 Debye
        Dipole field         -0.0000 Ry au, 

        Potential amp.        0.0035 Ry
        Total length         47.1559 bohr


     total cpu time spent up to now is     2531.6 secs

     total energy              =   -1371.44834732 Ry
     estimated scf accuracy    <       0.68328945 Ry

     iteration #  5     ecut=    55.12 Ry     beta= 0.10
     Davidson diagonalization with overlap
     ethr =  4.95E-04,  avg # of iterations =  5.9

     negative rho (up, down):  3.161E-03 0.000E+00

     Adding external electric field

     Computed dipole along edir(3) : 
        Dipole               -0.0093 Ry au,         -0.0237 Debye
        Dipole field         -0.0000 Ry au, 

        Potential amp.        0.0014 Ry
        Total length         47.1559 bohr


     total cpu time spent up to now is     3045.3 secs

     total energy              =   -1371.53467514 Ry
     estimated scf accuracy    <       0.52657701 Ry

     iteration #  6     ecut=    55.12 Ry     beta= 0.10
     Davidson diagonalization with overlap
     ethr =  3.82E-04,  avg # of iterations =  2.0

     negative rho (up, down):  3.194E-03 0.000E+00

     Adding external electric field

     Computed dipole along edir(3) : 
        Dipole               -0.0863 Ry au,         -0.2194 Debye
        Dipole field         -0.0001 Ry au, 

        Potential amp.        0.0131 Ry
        Total length         47.1559 bohr


     total cpu time spent up to now is     3507.3 secs

     total energy              =   -1371.41498349 Ry
     estimated scf accuracy    <       0.44922503 Ry

     iteration #  7     ecut=    55.12 Ry     beta= 0.10
     Davidson diagonalization with overlap
     ethr =  3.26E-04,  avg # of iterations = 12.4

     negative rho (up, down):  3.007E-03 0.000E+00

     Adding external electric field

     Computed dipole along edir(3) : 
        Dipole               -0.0283 Ry au,         -0.0720 Debye
        Dipole field         -0.0000 Ry au, 

        Potential amp.        0.0043 Ry
        Total length         47.1559 bohr


     total cpu time spent up to now is     4117.4 secs

     total energy              =   -1371.52010665 Ry
     estimated scf accuracy    <       0.30457414 Ry

     iteration #  8     ecut=    55.12 Ry     beta= 0.10
     Davidson diagonalization with overlap
     ethr =  2.21E-04,  avg # of iterations =  2.2

     negative rho (up, down):  2.928E-03 0.000E+00

     Adding external electric field

     Computed dipole along edir(3) : 
        Dipole               -0.0146 Ry au,         -0.0372 Debye
        Dipole field         -0.0000 Ry au, 

        Potential amp.        0.0022 Ry
        Total length         47.1559 bohr


     total cpu time spent up to now is     4568.8 secs

     total energy              =   -1371.52119452 Ry
     estimated scf accuracy    <       0.12696029 Ry

     iteration #  9     ecut=    55.12 Ry     beta= 0.10
     Davidson diagonalization with overlap
     c_bands:  1 eigenvalues not converged
     c_bands:  1 eigenvalues not converged
     c_bands:  2 eigenvalues not converged
     ethr =  9.20E-05,  avg # of iterations =  3.8

     negative rho (up, down):  2.788E-03 0.000E+00

     Adding external electric field

     Computed dipole along edir(3) : 
        Dipole                0.0147 Ry au,          0.0375 Debye
        Dipole field          0.0000 Ry au, 

        Potential amp.       -0.0022 Ry
        Total length         47.1559 bohr


     total cpu time spent up to now is     5027.8 secs

     total energy              =   -1371.50143264 Ry
     estimated scf accuracy    <       0.07611599 Ry

     iteration # 10     ecut=    55.12 Ry     beta= 0.10
     Davidson diagonalization with overlap
     c_bands:  1 eigenvalues not converged
     c_bands:  1 eigenvalues not converged
     c_bands:  2 eigenvalues not converged
     c_bands:  1 eigenvalues not converged
     c_bands:  1 eigenvalues not converged
     c_bands:  1 eigenvalues not converged
     c_bands:  1 eigenvalues not converged
     c_bands:  4 eigenvalues not converged
     c_bands:  1 eigenvalues not converged
     c_bands:  1 eigenvalues not converged
     c_bands:  1 eigenvalues not converged
     c_bands:  1 eigenvalues not converged
     c_bands:  3 eigenvalues not converged
     c_bands:  1 eigenvalues not converged
     c_bands:  1 eigenvalues not converged
     ethr =  5.52E-05,  avg # of iterations = 12.9

     negative rho (up, down):  2.818E-03 0.000E+00

     Adding external electric field

     Computed dipole along edir(3) : 
        Dipole               -0.0254 Ry au,         -0.0645 Debye
        Dipole field         -0.0000 Ry au, 

        Potential amp.        0.0039 Ry
        Total length         47.1559 bohr


     total cpu time spent up to now is     5740.6 secs

     total energy              =   -1371.51798148 Ry
     estimated scf accuracy    <       0.06084061 Ry

     iteration # 11     ecut=    55.12 Ry     beta= 0.10
     Davidson diagonalization with overlap
     c_bands:  1 eigenvalues not converged
     c_bands:  3 eigenvalues not converged
     ethr =  4.41E-05,  avg # of iterations =  3.6

     negative rho (up, down):  2.885E-03 0.000E+00

     Adding external electric field

     Computed dipole along edir(3) : 
        Dipole               -0.0327 Ry au,         -0.0832 Debye
        Dipole field         -0.0001 Ry au, 

        Potential amp.        0.0050 Ry
        Total length         47.1559 bohr


     total cpu time spent up to now is     6215.8 secs

     total energy              =   -1371.52230788 Ry
     estimated scf accuracy    <       0.00420851 Ry

     iteration # 12     ecut=    55.12 Ry     beta= 0.10
     Davidson diagonalization with overlap
     c_bands:  3 eigenvalues not converged
     c_bands:  3 eigenvalues not converged
     c_bands:  3 eigenvalues not converged
     c_bands:  4 eigenvalues not converged
     c_bands:  5 eigenvalues not converged
     c_bands:  5 eigenvalues not converged
     c_bands:  5 eigenvalues not converged
     c_bands:  4 eigenvalues not converged
     c_bands:  5 eigenvalues not converged
     c_bands:  4 eigenvalues not converged
     c_bands:  1 eigenvalues not converged
     c_bands:  5 eigenvalues not converged
     c_bands:  4 eigenvalues not converged
     c_bands:  5 eigenvalues not converged
     c_bands:  3 eigenvalues not converged
     c_bands:  2 eigenvalues not converged
     c_bands:  1 eigenvalues not converged
     c_bands:  3 eigenvalues not converged
     c_bands:  2 eigenvalues not converged
     c_bands:  5 eigenvalues not converged
     c_bands:  2 eigenvalues not converged
     c_bands:  5 eigenvalues not converged
     c_bands:  5 eigenvalues not converged
     c_bands:  5 eigenvalues not converged
     c_bands:  3 eigenvalues not converged
     c_bands:  3 eigenvalues not converged
     c_bands:  2 eigenvalues not converged
     c_bands:  5 eigenvalues not converged
     c_bands:  3 eigenvalues not converged
     c_bands:  3 eigenvalues not converged
     c_bands:  1 eigenvalues not converged
     c_bands:  1 eigenvalues not converged
     c_bands:  1 eigenvalues not converged
     c_bands:  3 eigenvalues not converged
     c_bands:  3 eigenvalues not converged
     c_bands:  1 eigenvalues not converged
     c_bands:  4 eigenvalues not converged
     c_bands:  5 eigenvalues not converged
     c_bands:  5 eigenvalues not converged
     c_bands:  1 eigenvalues not converged
     c_bands:  3 eigenvalues not converged
     c_bands:  5 eigenvalues not converged
     c_bands:  5 eigenvalues not converged
     c_bands:  2 eigenvalues not converged
     c_bands:  1 eigenvalues not converged
     c_bands:  4 eigenvalues not converged
     c_bands:  5 eigenvalues not converged
     c_bands:  5 eigenvalues not converged
     c_bands:  5 eigenvalues not converged
     c_bands:  5 eigenvalues not converged
     c_bands:  4 eigenvalues not converged
     c_bands:  3 eigenvalues not converged
     c_bands:  1 eigenvalues not converged
     c_bands:  3 eigenvalues not converged
     c_bands:  4 eigenvalues not converged
     c_bands:  2 eigenvalues not converged
     c_bands:  2 eigenvalues not converged
     c_bands:  4 eigenvalues not converged
     c_bands:  5 eigenvalues not converged
     ethr =  3.05E-06,  avg # of iterations = 41.6

     negative rho (up, down):  2.853E-03 0.000E+00

     Adding external electric field

     Computed dipole along edir(3) : 
        Dipole               -0.0278 Ry au,         -0.0705 Debye
        Dipole field         -0.0000 Ry au, 

        Potential amp.        0.0042 Ry
        Total length         47.1559 bohr


     total cpu time spent up to now is     8486.5 secs

     total energy              =   -1371.52634058 Ry
     estimated scf accuracy    <       0.01599624 Ry

     iteration # 13     ecut=    55.12 Ry     beta= 0.10
     Davidson diagonalization with overlap
     c_bands:  1 eigenvalues not converged
     c_bands:  3 eigenvalues not converged
     c_bands:  5 eigenvalues not converged
     c_bands:  2 eigenvalues not converged
     c_bands:  1 eigenvalues not converged
     c_bands:  3 eigenvalues not converged
     c_bands:  2 eigenvalues not converged
     c_bands:  2 eigenvalues not converged
     c_bands:  4 eigenvalues not converged
     c_bands:  4 eigenvalues not converged
     c_bands:  1 eigenvalues not converged
     c_bands:  2 eigenvalues not converged
     c_bands:  2 eigenvalues not converged
     c_bands:  1 eigenvalues not converged
     c_bands:  4 eigenvalues not converged
     c_bands:  1 eigenvalues not converged
     c_bands:  1 eigenvalues not converged
     c_bands:  2 eigenvalues not converged
     c_bands:  1 eigenvalues not converged
     c_bands:  2 eigenvalues not converged
     c_bands:  3 eigenvalues not converged
     c_bands:  2 eigenvalues not converged
     c_bands:  1 eigenvalues not converged
     c_bands:  1 eigenvalues not converged
     c_bands:  2 eigenvalues not converged
     c_bands:  1 eigenvalues not converged
     c_bands:  1 eigenvalues not converged
     c_bands:  2 eigenvalues not converged
     c_bands:  5 eigenvalues not converged
     c_bands:  2 eigenvalues not converged
     c_bands:  4 eigenvalues not converged
     c_bands:  3 eigenvalues not converged
     c_bands:  2 eigenvalues not converged
     c_bands:  1 eigenvalues not converged
     c_bands:  3 eigenvalues not converged
     c_bands:  2 eigenvalues not converged
     ethr =  3.05E-06,  avg # of iterations = 12.8

     negative rho (up, down):  2.879E-03 0.000E+00

     Adding external electric field

     Computed dipole along edir(3) : 
        Dipole               -0.0062 Ry au,         -0.0158 Debye
        Dipole field         -0.0000 Ry au, 

        Potential amp.        0.0009 Ry
        Total length         47.1559 bohr


     total cpu time spent up to now is     9056.4 secs

     total energy              =   -1371.52566513 Ry
     estimated scf accuracy    <       0.00392337 Ry

     iteration # 14     ecut=    55.12 Ry     beta= 0.10
     Davidson diagonalization with overlap
     c_bands:  1 eigenvalues not converged
     c_bands:  5 eigenvalues not converged
     c_bands:  3 eigenvalues not converged
     c_bands:  3 eigenvalues not converged
     c_bands:  2 eigenvalues not converged
     c_bands:  5 eigenvalues not converged
     c_bands:  1 eigenvalues not converged
     c_bands:  1 eigenvalues not converged
     c_bands:  4 eigenvalues not converged
     c_bands:  3 eigenvalues not converged
     c_bands:  1 eigenvalues not converged
     c_bands:  3 eigenvalues not converged
     c_bands:  4 eigenvalues not converged
     c_bands:  3 eigenvalues not converged
     c_bands:  1 eigenvalues not converged
     c_bands:  4 eigenvalues not converged
     c_bands:  2 eigenvalues not converged
     c_bands:  2 eigenvalues not converged
     c_bands:  2 eigenvalues not converged
     c_bands:  4 eigenvalues not converged
     c_bands:  1 eigenvalues not converged
     c_bands:  2 eigenvalues not converged
     c_bands:  1 eigenvalues not converged
     c_bands:  1 eigenvalues not converged
     c_bands:  4 eigenvalues not converged
     c_bands:  2 eigenvalues not converged
     c_bands:  2 eigenvalues not converged
     c_bands:  3 eigenvalues not converged
     c_bands:  2 eigenvalues not converged
     c_bands:  2 eigenvalues not converged
     c_bands:  3 eigenvalues not converged
     c_bands:  2 eigenvalues not converged
     c_bands:  3 eigenvalues not converged
     c_bands:  5 eigenvalues not converged
     c_bands:  4 eigenvalues not converged
     c_bands:  5 eigenvalues not converged
     c_bands:  3 eigenvalues not converged
     c_bands:  1 eigenvalues not converged
     c_bands:  1 eigenvalues not converged
     c_bands:  4 eigenvalues not converged
     c_bands:  4 eigenvalues not converged
     c_bands:  2 eigenvalues not converged
     c_bands:  1 eigenvalues not converged
     c_bands:  1 eigenvalues not converged
     c_bands:  1 eigenvalues not converged
     c_bands:  2 eigenvalues not converged
     c_bands:  4 eigenvalues not converged
     c_bands:  2 eigenvalues not converged
     ethr =  2.84E-06,  avg # of iterations = 17.6

     negative rho (up, down):  2.867E-03 0.000E+00

     Adding external electric field

     Computed dipole along edir(3) : 
        Dipole               -0.0127 Ry au,         -0.0322 Debye
        Dipole field         -0.0000 Ry au, 

        Potential amp.        0.0019 Ry
        Total length         47.1559 bohr


     total cpu time spent up to now is     9830.5 secs

     total energy              =   -1371.52653589 Ry
     estimated scf accuracy    <       0.00172009 Ry

     iteration # 15     ecut=    55.12 Ry     beta= 0.10
     Davidson diagonalization with overlap
     c_bands:  4 eigenvalues not converged
     c_bands:  2 eigenvalues not converged
     c_bands:  2 eigenvalues not converged
     c_bands:  4 eigenvalues not converged
     c_bands:  2 eigenvalues not converged
     c_bands:  3 eigenvalues not converged
     c_bands:  1 eigenvalues not converged
     c_bands:  4 eigenvalues not converged
     c_bands:  5 eigenvalues not converged
     c_bands:  2 eigenvalues not converged
     c_bands:  1 eigenvalues not converged
     c_bands:  1 eigenvalues not converged
     c_bands:  1 eigenvalues not converged
     c_bands:  3 eigenvalues not converged
     c_bands:  1 eigenvalues not converged
     c_bands:  3 eigenvalues not converged
     c_bands:  4 eigenvalues not converged
     c_bands:  2 eigenvalues not converged
     c_bands:  1 eigenvalues not converged
     c_bands:  1 eigenvalues not converged
     c_bands:  4 eigenvalues not converged
     c_bands:  3 eigenvalues not converged
     c_bands:  3 eigenvalues not converged
     c_bands:  1 eigenvalues not converged
     c_bands:  1 eigenvalues not converged
     c_bands:  1 eigenvalues not converged
     c_bands:  1 eigenvalues not converged
     c_bands:  1 eigenvalues not converged
     c_bands:  5 eigenvalues not converged
     c_bands:  1 eigenvalues not converged
     ethr =  1.25E-06,  avg # of iterations = 10.0

     negative rho (up, down):  2.898E-03 0.000E+00

     Adding external electric field

     Computed dipole along edir(3) : 
        Dipole               -0.0178 Ry au,         -0.0454 Debye
        Dipole field         -0.0000 Ry au, 

        Potential amp.        0.0027 Ry
        Total length         47.1559 bohr


     total cpu time spent up to now is    10342.9 secs

     total energy              =   -1371.52654187 Ry
     estimated scf accuracy    <       0.00058368 Ry

     iteration # 16     ecut=    55.12 Ry     beta= 0.10
     Davidson diagonalization with overlap
     c_bands:  2 eigenvalues not converged
     c_bands:  1 eigenvalues not converged
     c_bands:  1 eigenvalues not converged
     c_bands:  1 eigenvalues not converged
     c_bands:  1 eigenvalues not converged
     c_bands:  2 eigenvalues not converged
     c_bands:  2 eigenvalues not converged
     c_bands:  1 eigenvalues not converged
     c_bands:  3 eigenvalues not converged
     c_bands:  3 eigenvalues not converged
     c_bands:  1 eigenvalues not converged
     c_bands:  3 eigenvalues not converged
     c_bands:  1 eigenvalues not converged
     c_bands:  3 eigenvalues not converged
     c_bands:  1 eigenvalues not converged
     c_bands:  4 eigenvalues not converged
     c_bands:  2 eigenvalues not converged
     c_bands:  2 eigenvalues not converged
     c_bands:  3 eigenvalues not converged
     c_bands:  1 eigenvalues not converged
     c_bands:  2 eigenvalues not converged
     c_bands:  1 eigenvalues not converged
     c_bands:  2 eigenvalues not converged
     c_bands:  5 eigenvalues not converged
     c_bands:  1 eigenvalues not converged
     c_bands:  5 eigenvalues not converged
     c_bands:  1 eigenvalues not converged
     c_bands:  2 eigenvalues not converged
     c_bands:  2 eigenvalues not converged
     c_bands:  1 eigenvalues not converged
     c_bands:  3 eigenvalues not converged
     c_bands:  3 eigenvalues not converged
     c_bands:  3 eigenvalues not converged
     c_bands:  1 eigenvalues not converged
     ethr =  4.23E-07,  avg # of iterations = 16.6

     negative rho (up, down):  2.865E-03 0.000E+00

     Adding external electric field

     Computed dipole along edir(3) : 
        Dipole               -0.0198 Ry au,         -0.0504 Debye
        Dipole field         -0.0000 Ry au, 

        Potential amp.        0.0030 Ry
        Total length         47.1559 bohr


     total cpu time spent up to now is    11043.9 secs

     total energy              =   -1371.52662227 Ry
     estimated scf accuracy    <       0.00016697 Ry

     iteration # 17     ecut=    55.12 Ry     beta= 0.10
     Davidson diagonalization with overlap
     c_bands:  1 eigenvalues not converged
     c_bands:  2 eigenvalues not converged
     c_bands:  1 eigenvalues not converged
     c_bands:  4 eigenvalues not converged
     c_bands:  3 eigenvalues not converged
     c_bands:  1 eigenvalues not converged
     c_bands:  2 eigenvalues not converged
     c_bands:  4 eigenvalues not converged
     c_bands:  2 eigenvalues not converged
     c_bands:  1 eigenvalues not converged
     c_bands:  2 eigenvalues not converged
     c_bands:  1 eigenvalues not converged
     c_bands:  2 eigenvalues not converged
     c_bands:  2 eigenvalues not converged
     c_bands:  2 eigenvalues not converged
     c_bands:  1 eigenvalues not converged
     c_bands:  4 eigenvalues not converged
     c_bands:  1 eigenvalues not converged
     c_bands:  1 eigenvalues not converged
     c_bands:  2 eigenvalues not converged
     c_bands:  1 eigenvalues not converged
     c_bands:  1 eigenvalues not converged
     c_bands:  1 eigenvalues not converged
     c_bands:  1 eigenvalues not converged
     c_bands:  1 eigenvalues not converged
     ethr =  1.21E-07,  avg # of iterations = 14.2

     negative rho (up, down):  2.853E-03 0.000E+00

     Adding external electric field

     Computed dipole along edir(3) : 
        Dipole               -0.0194 Ry au,         -0.0492 Debye
        Dipole field         -0.0000 Ry au, 

        Potential amp.        0.0029 Ry
        Total length         47.1559 bohr


     total cpu time spent up to now is    11759.0 secs

     total energy              =   -1371.52665484 Ry
     estimated scf accuracy    <       0.00006442 Ry

     iteration # 18     ecut=    55.12 Ry     beta= 0.10
     Davidson diagonalization with overlap
     c_bands:  3 eigenvalues not converged
     c_bands:  1 eigenvalues not converged
     c_bands:  1 eigenvalues not converged
     c_bands:  3 eigenvalues not converged
     c_bands:  1 eigenvalues not converged
     c_bands:  1 eigenvalues not converged
     c_bands:  4 eigenvalues not converged
     c_bands:  1 eigenvalues not converged
     c_bands:  3 eigenvalues not converged
     c_bands:  1 eigenvalues not converged
     c_bands:  1 eigenvalues not converged
     c_bands:  1 eigenvalues not converged
     c_bands:  1 eigenvalues not converged
     c_bands:  1 eigenvalues not converged
     c_bands:  1 eigenvalues not converged
     c_bands:  1 eigenvalues not converged
     c_bands:  1 eigenvalues not converged
     c_bands:  3 eigenvalues not converged
     c_bands:  1 eigenvalues not converged
     c_bands:  1 eigenvalues not converged
     c_bands:  3 eigenvalues not converged
     c_bands:  1 eigenvalues not converged
     c_bands:  1 eigenvalues not converged
     c_bands:  1 eigenvalues not converged
     c_bands:  1 eigenvalues not converged
     c_bands:  2 eigenvalues not converged
     c_bands:  2 eigenvalues not converged
     c_bands:  1 eigenvalues not converged
     c_bands:  1 eigenvalues not converged
     c_bands:  1 eigenvalues not converged
     c_bands:  1 eigenvalues not converged
     c_bands:  1 eigenvalues not converged
     ethr =  4.67E-08,  avg # of iterations = 18.6

     negative rho (up, down):  2.839E-03 0.000E+00

     Adding external electric field

     Computed dipole along edir(3) : 
        Dipole               -0.0163 Ry au,         -0.0414 Debye
        Dipole field         -0.0000 Ry au, 

        Potential amp.        0.0025 Ry
        Total length         47.1559 bohr


     total cpu time spent up to now is    12608.6 secs

     total energy              =   -1371.52665305 Ry
     estimated scf accuracy    <       0.00011609 Ry

     iteration # 19     ecut=    55.12 Ry     beta= 0.10
     Davidson diagonalization with overlap
     c_bands:  2 eigenvalues not converged
     c_bands:  2 eigenvalues not converged
     c_bands:  1 eigenvalues not converged
     c_bands:  1 eigenvalues not converged
     ethr =  4.67E-08,  avg # of iterations = 10.5

     negative rho (up, down):  2.830E-03 0.000E+00

     Adding external electric field

     Computed dipole along edir(3) : 
        Dipole               -0.0165 Ry au,         -0.0418 Debye
        Dipole field         -0.0000 Ry au, 

        Potential amp.        0.0025 Ry
        Total length         47.1559 bohr


     total cpu time spent up to now is    13285.0 secs

     total energy              =   -1371.52667903 Ry
     estimated scf accuracy    <       0.00003340 Ry

     iteration # 20     ecut=    55.12 Ry     beta= 0.10
     Davidson diagonalization with overlap
     c_bands:  4 eigenvalues not converged
     c_bands:  1 eigenvalues not converged
     ethr =  2.42E-08,  avg # of iterations =  7.6

     negative rho (up, down):  2.821E-03 0.000E+00

     Adding external electric field

     Computed dipole along edir(3) : 
        Dipole               -0.0166 Ry au,         -0.0422 Debye
        Dipole field         -0.0000 Ry au, 

        Potential amp.        0.0025 Ry
        Total length         47.1559 bohr


     total cpu time spent up to now is    13782.9 secs

     total energy              =   -1371.52667940 Ry
     estimated scf accuracy    <       0.00002377 Ry

     iteration # 21     ecut=    55.12 Ry     beta= 0.10
     Davidson diagonalization with overlap
     ethr =  1.72E-08,  avg # of iterations =  2.9

     negative rho (up, down):  2.775E-03 0.000E+00

     Adding external electric field

     Computed dipole along edir(3) : 
        Dipole               -0.0282 Ry au,         -0.0717 Debye
        Dipole field         -0.0000 Ry au, 

        Potential amp.        0.0043 Ry
        Total length         47.1559 bohr


     total cpu time spent up to now is    14244.0 secs

     End of self-consistent calculation

          k = 0.0000 0.0000 0.0000 ( 53809 PWs)   bands (ev):

   -32.6016 -32.5755 -32.5645 -32.5379 -32.1941 -32.1692 -16.3309 -16.3291
   -16.3106 -16.3059 -16.2845 -16.2548 -16.2473 -16.2358 -16.2028 -16.1706
   -16.0444 -15.9642 -15.9371 -15.8354 -15.7821 -15.7560 -15.7310 -15.6515
    -7.6759  -7.6565  -7.6541  -7.6357  -7.6300  -7.6262  -7.6230  -7.6213
    -7.6154  -7.5996  -7.5898  -7.5872  -7.5844  -7.5629  -7.5622  -7.5534
    -7.5478  -7.5460  -7.5268  -7.5234  -7.5229  -7.5104  -7.4963  -7.4906
    -7.4823  -7.4621  -7.4538  -7.3951  -7.3817  -7.3267  -4.1004  -3.0770
    -2.3913  -2.3673  -2.2236  -2.0052   0.5062   0.5284   0.5430   0.6880
     0.7688   0.9751   1.0391   1.3240   1.4436   1.4639   1.5028   1.5981
     1.7640   1.8084   1.8397   1.8660   1.8937   1.9928   1.9948   2.0412
     2.1466   2.1580   2.2003

          k = 0.0000 0.0127 0.0000 ( 53858 PWs)   bands (ev):

   -32.6011 -32.5759 -32.5640 -32.5383 -32.1937 -32.1696 -16.3287 -16.3253
   -16.3110 -16.3001 -16.2862 -16.2520 -16.2505 -16.2336 -16.2036 -16.1720
   -16.0381 -15.9710 -15.9439 -15.8338 -15.7816 -15.7573 -15.7321 -15.6588
    -7.6730  -7.6535  -7.6513  -7.6336  -7.6303  -7.6218  -7.6215  -7.6198
    -7.6141  -7.5987  -7.5890  -7.5860  -7.5842  -7.5624  -7.5616  -7.5545
    -7.5507  -7.5437  -7.5252  -7.5243  -7.5180  -7.5091  -7.4957  -7.4900
    -7.4815  -7.4648  -7.4547  -7.3963  -7.3823  -7.3295  -4.0674  -3.0509
    -2.3723  -2.3670  -2.2177  -2.0097   0.4627   0.4944   0.5942   0.6814
     0.7405   0.9812   1.0418   1.3139   1.3222   1.4269   1.5556   1.5848
     1.6462   1.8102   1.8195   1.8799   1.9627   1.9799   1.9960   2.0547
     2.1475   2.1799   2.1982

          k = 0.0000 0.0255 0.0000 ( 53886 PWs)   bands (ev):

   -32.5998 -32.5772 -32.5627 -32.5397 -32.1924 -32.1709 -16.3275 -16.3136
   -16.3073 -16.2895 -16.2832 -16.2570 -16.2453 -16.2301 -16.2059 -16.1759
   -16.0197 -15.9909 -15.9640 -15.8293 -15.7800 -15.7611 -15.7353 -15.6798
    -7.6653  -7.6449  -7.6438  -7.6298  -7.6277  -7.6172  -7.6144  -7.6116
    -7.6101  -7.5981  -7.5851  -7.5841  -7.5824  -7.5617  -7.5599  -7.5563
    -7.5557  -7.5374  -7.5287  -7.5203  -7.5065  -7.5053  -7.4937  -7.4898
    -7.4777  -7.4725  -7.4571  -7.3992  -7.3839  -7.3378  -3.9699  -2.9742
    -2.3802  -2.3174  -2.2052  -2.0162   0.3993   0.4571   0.6193   0.6590
     0.6704   0.9916   1.0393   1.0865   1.2786   1.3281   1.3877   1.6379
     1.6684   1.7699   1.8193   1.8545   1.9267   1.9606   2.0478   2.0583
     2.1249   2.1353   2.1916

          k = 0.0000 0.0382 0.0000 ( 53867 PWs)   bands (ev):

   -32.5977 -32.5793 -32.5606 -32.5418 -32.1904 -32.1728 -16.3259 -16.3148
   -16.2920 -16.2811 -16.2650 -16.2554 -16.2371 -16.2271 -16.2090 -16.1819
   -16.0221 -15.9955 -15.9902 -15.8223 -15.7772 -15.7672 -15.7404 -15.7128
    -7.6553  -7.6341  -7.6340  -7.6258  -7.6216  -7.6108  -7.6059  -7.6035
    -7.6000  -7.5956  -7.5849  -7.5788  -7.5765  -7.5639  -7.5578  -7.5571
    -7.5565  -7.5339  -7.5290  -7.5189  -7.4988  -7.4937  -7.4908  -7.4891
    -7.4845  -7.4706  -7.4608  -7.4024  -7.3866  -7.3511  -3.8121  -2.8524
    -2.4483  -2.2334  -2.1955  -2.0067   0.3734   0.3913   0.5575   0.6000
     0.6143   0.8625   0.9702   0.9985   1.0857   1.2338   1.3802   1.6671
     1.6871   1.7125   1.7592   1.8119   1.9141   1.9301   2.0142   2.1107
     2.1440   2.1527   2.1911

          k = 0.0000 0.0510 0.0000 ( 53894 PWs)   bands (ev):

   -32.5950 -32.5820 -32.5578 -32.5445 -32.1879 -32.1754 -16.3243 -16.3169
   -16.2922 -16.2725 -16.2454 -16.2286 -16.2248 -16.2197 -16.2121 -16.1892
   -16.0621 -16.0357 -15.9513 -15.8137 -15.7750 -15.7733 -15.7550 -15.7468
    -7.6457  -7.6297  -7.6249  -7.6194  -7.6091  -7.6042  -7.6027  -7.5956
    -7.5910  -7.5882  -7.5806  -7.5736  -7.5695  -7.5667  -7.5581  -7.5542
    -7.5539  -7.5393  -7.5239  -7.5205  -7.4998  -7.4955  -7.4899  -7.4866
    -7.4776  -7.4661  -7.4574  -7.4042  -7.3901  -7.3685  -3.6025  -2.6965
    -2.6012  -2.2031  -2.1339  -1.9806   0.3037   0.3721   0.4432   0.5095
     0.5393   0.7352   0.8784   0.9158   0.9496   1.2292   1.4289   1.5393
     1.6320   1.6419   1.7257   1.7565   1.9427   1.9768   2.0290   2.1437
     2.1486   2.1586   2.1904

          k = 0.0000 0.0637 0.0000 ( 53901 PWs)   bands (ev):

   -32.5918 -32.5851 -32.5546 -32.5477 -32.1848 -32.1784 -16.3228 -16.3191
   -16.2899 -16.2795 -16.2235 -16.2221 -16.2127 -16.2039 -16.1968 -16.1761
   -16.1077 -16.0816 -15.9054 -15.8056 -15.8026 -15.7841 -15.7672 -15.7538
    -7.6383  -7.6303  -7.6179  -7.6117  -7.6084  -7.5966  -7.5928  -7.5925
    -7.5872  -7.5821  -7.5750  -7.5686  -7.5627  -7.5625  -7.5566  -7.5519
    -7.5508  -7.5421  -7.5343  -7.5213  -7.5090  -7.4998  -7.4837  -7.4794
    -7.4744  -7.4700  -7.4376  -7.4045  -7.3940  -7.3882  -3.3542  -2.8246
    -2.5256  -2.2556  -2.0407  -1.9624   0.2275   0.2817   0.3482   0.4373
     0.5760   0.6957   0.7706   0.8311   0.9243   1.1436   1.4680   1.4982
     1.5751   1.5920   1.6487   1.7085   2.0018   2.0487   2.0782   2.1199
     2.1446   2.1610   2.1869

          k = 0.0000-0.0764 0.0000 ( 53906 PWs)   bands (ev):

   -32.5886 -32.5883 -32.5512 -32.5511 -32.1816 -32.1816 -16.3212 -16.3210
   -16.2855 -16.2855 -16.2216 -16.2215 -16.2070 -16.2069 -16.1555 -16.1552
   -16.1296 -16.1295 -15.8553 -15.8553 -15.7939 -15.7939 -15.7609 -15.7608
    -7.6332  -7.6332  -7.6128  -7.6128  -7.6030  -7.6030  -7.5885  -7.5885
    -7.5808  -7.5808  -7.5719  -7.5719  -7.5584  -7.5584  -7.5507  -7.5507
    -7.5469  -7.5469  -7.5354  -7.5354  -7.5048  -7.5048  -7.4785  -7.4785
    -7.4731  -7.4731  -7.4156  -7.4156  -7.3970  -7.3969  -3.0862  -3.0862
    -2.3682  -2.3682  -1.9790  -1.9789   0.2129   0.2129   0.3511   0.3511
     0.6945   0.6945   0.7356   0.7356   0.9875   0.9875   1.5226   1.5226
     1.5541   1.5541   1.6408   1.6408   2.0611   2.0641   2.1091   2.1111
     2.1443   2.1462   2.1931

          k = 0.0121-0.0040 0.0000 ( 53858 PWs)   bands (ev):

   -32.6011 -32.5759 -32.5640 -32.5383 -32.1937 -32.1696 -16.3287 -16.3253
   -16.3110 -16.3001 -16.2862 -16.2520 -16.2505 -16.2336 -16.2036 -16.1720
   -16.0381 -15.9710 -15.9439 -15.8338 -15.7816 -15.7573 -15.7321 -15.6588
    -7.6730  -7.6535  -7.6513  -7.6336  -7.6303  -7.6218  -7.6215  -7.6198
    -7.6141  -7.5987  -7.5890  -7.5860  -7.5842  -7.5624  -7.5616  -7.5545
    -7.5507  -7.5437  -7.5252  -7.5243  -7.5180  -7.5091  -7.4957  -7.4900
    -7.4815  -7.4648  -7.4547  -7.3963  -7.3823  -7.3295  -4.0674  -3.0509
    -2.3723  -2.3670  -2.2177  -2.0097   0.4627   0.4944   0.5942   0.6814
     0.7405   0.9812   1.0418   1.3139   1.3222   1.4269   1.5556   1.5848
     1.6462   1.8099   1.8198   1.8798   1.9624   1.9803   1.9933   2.0554
     2.1332   2.1607   2.2498

          k = 0.0121 0.0087 0.0000 ( 53901 PWs)   bands (ev):

   -32.6015 -32.5756 -32.5644 -32.5380 -32.1942 -32.1691 -16.3318 -16.3301
   -16.3085 -16.3069 -16.2926 -16.2535 -16.2478 -16.2270 -16.2083 -16.1721
   -16.0444 -15.9643 -15.9371 -15.8322 -15.7823 -15.7581 -15.7322 -15.6521
    -7.6706  -7.6555  -7.6489  -7.6339  -7.6312  -7.6213  -7.6192  -7.6183
    -7.6131  -7.5967  -7.5872  -7.5849  -7.5840  -7.5623  -7.5617  -7.5577
    -7.5561  -7.5421  -7.5234  -7.5176  -7.5164  -7.5080  -7.4961  -7.4883
    -7.4812  -7.4625  -7.4543  -7.3945  -7.3842  -7.3271  -4.0549  -3.0354
    -2.3649  -2.3528  -2.2065  -1.9572   0.3071   0.3858   0.5575   0.5896
     0.6885   0.9534   1.0439   1.2228   1.3924   1.4835   1.5884   1.6030
     1.7021   1.7315   1.8109   1.9041   1.9151   1.9549   1.9981   2.0875
     2.1574   2.1731   2.1868

          k = 0.0121 0.0214 0.0000 ( 53900 PWs)   bands (ev):

   -32.6010 -32.5760 -32.5639 -32.5385 -32.1939 -32.1694 -16.3313 -16.3270
   -16.3071 -16.3017 -16.2979 -16.2581 -16.2420 -16.2209 -16.2140 -16.1749
   -16.0381 -15.9712 -15.9441 -15.8279 -15.7818 -15.7614 -15.7345 -15.6598
    -7.6631  -7.6515  -7.6417  -7.6324  -7.6276  -7.6184  -7.6135  -7.6120
    -7.6095  -7.5946  -7.5844  -7.5828  -7.5814  -7.5622  -7.5609  -7.5605
    -7.5600  -7.5362  -7.5249  -7.5100  -7.5097  -7.5044  -7.4951  -7.4870
    -7.4782  -7.4655  -7.4555  -7.3948  -7.3871  -7.3304  -3.9774  -2.9688
    -2.3464  -2.3231  -2.1856  -1.9150   0.1784   0.2734   0.4968   0.5005
     0.6150   0.9537   1.0157   1.0444   1.3925   1.4199   1.4873   1.6463
     1.6761   1.7261   1.8210   1.8368   1.9242   1.9827   2.0160   2.0930
     2.1072   2.2075   2.2441

          k = 0.0121 0.0342 0.0000 ( 53889 PWs)   bands (ev):

   -32.5996 -32.5774 -32.5624 -32.5399 -32.1927 -32.1706 -16.3324 -16.3117
   -16.3057 -16.3005 -16.2856 -16.2633 -16.2359 -16.2196 -16.2160 -16.1800
   -16.0196 -15.9910 -15.9640 -15.8214 -15.7799 -15.7670 -15.7386 -15.6811
    -7.6533  -7.6426  -7.6320  -7.6274  -7.6239  -7.6133  -7.6049  -7.6036
    -7.6023  -7.5940  -7.5865  -7.5760  -7.5759  -7.5643  -7.5628  -7.5587
    -7.5580  -7.5285  -7.5278  -7.5063  -7.4984  -7.4982  -7.4930  -7.4878
    -7.4733  -7.4718  -7.4583  -7.3962  -7.3909  -7.3393  -3.8381  -2.8554
    -2.3847  -2.2552  -2.1662  -1.8783   0.1155   0.1701   0.4018   0.4155
     0.5495   0.7741   0.9766   1.0373   1.1699   1.3777   1.4485   1.5660
     1.6378   1.7397   1.8155   1.8719   1.8850   1.9479   2.0460   2.0984
     2.1184   2.1543   2.1996

          k = 0.0121 0.0469 0.0000 ( 53897 PWs)   bands (ev):

   -32.5975 -32.5795 -32.5603 -32.5420 -32.1907 -32.1725 -16.3334 -16.3075
   -16.2999 -16.2838 -16.2694 -16.2580 -16.2314 -16.2224 -16.2122 -16.1869
   -16.0220 -15.9952 -15.9900 -15.8134 -15.7765 -15.7744 -15.7441 -15.7142
    -7.6437  -7.6318  -7.6229  -7.6227  -7.6161  -7.6063  -7.6014  -7.5966
    -7.5913  -7.5906  -7.5877  -7.5710  -7.5694  -7.5645  -7.5630  -7.5557
    -7.5540  -7.5337  -7.5198  -7.5086  -7.4929  -7.4917  -7.4889  -7.4843
    -7.4828  -7.4650  -7.4610  -7.3972  -7.3954  -7.3533  -3.6444  -2.7055
    -2.5077  -2.1766  -2.1652  -1.8436   0.0913   0.1438   0.3006   0.3041
     0.4961   0.5818   0.9878   1.0155   1.0219   1.2946   1.4306   1.4473
     1.5882   1.6929   1.7326   1.8203   1.9770   1.9832   1.9948   2.1357
     2.1398   2.1766   2.2006

          k = 0.0121 0.0597 0.0000 ( 53872 PWs)   bands (ev):

   -32.5947 -32.5822 -32.5575 -32.5448 -32.1882 -32.1750 -16.3337 -16.3086
   -16.2967 -16.2744 -16.2480 -16.2326 -16.2228 -16.2181 -16.2095 -16.1943
   -16.0615 -16.0350 -15.9510 -15.8046 -15.7833 -15.7719 -15.7562 -15.7505
    -7.6362  -7.6276  -7.6157  -7.6149  -7.6059  -7.6007  -7.5989  -7.5966
    -7.5887  -7.5841  -7.5756  -7.5696  -7.5640  -7.5634  -7.5613  -7.5521
    -7.5505  -7.5389  -7.5201  -7.5121  -7.5001  -7.4963  -7.4867  -7.4794
    -7.4752  -7.4675  -7.4502  -7.4002  -7.3968  -7.3715  -3.4085  -2.7149
    -2.5374  -2.2098  -2.1089  -1.8275   0.0623   0.1768   0.2017   0.2921
     0.4361   0.5277   0.9346   0.9527   1.0031   1.2472   1.2923   1.4545
     1.5364   1.6637   1.6703   1.7546   1.9815   2.0392   2.0608   2.1106
     2.1228   2.1454   2.2022

          k = 0.0121-0.0805 0.0000 ( 53894 PWs)   bands (ev):

   -32.5916 -32.5853 -32.5542 -32.5480 -32.1852 -32.1780 -16.3328 -16.3106
   -16.2913 -16.2783 -16.2350 -16.2135 -16.2108 -16.2026 -16.2014 -16.1781
   -16.1066 -16.0804 -15.9048 -15.8056 -15.7949 -15.7930 -15.7649 -15.7571
    -7.6310  -7.6293  -7.6108  -7.6086  -7.6044  -7.6041  -7.5905  -7.5899
    -7.5844  -7.5808  -7.5750  -7.5638  -7.5618  -7.5598  -7.5563  -7.5500
    -7.5490  -7.5409  -7.5358  -7.5198  -7.5039  -7.5011  -7.4820  -7.4762
    -7.4731  -7.4719  -7.4316  -7.4043  -7.3996  -7.3883  -3.1487  -2.9730
    -2.3798  -2.3157  -2.0730  -1.8573   0.1021   0.1486   0.1622   0.4450
     0.4747   0.5531   0.8779   0.9451   0.9695   1.0535   1.3591   1.4946
     1.5105   1.6394   1.6711   1.6908   2.0146   2.0362   2.0576   2.1000
     2.1286   2.1317   2.1654

          k = 0.0121-0.0677 0.0000 ( 53908 PWs)   bands (ev):

   -32.5887 -32.5882 -32.5515 -32.5508 -32.1820 -32.1813 -16.3306 -16.3133
   -16.2844 -16.2809 -16.2367 -16.2187 -16.2028 -16.2019 -16.1570 -16.1539
   -16.1312 -16.1280 -15.8561 -15.8545 -15.8030 -15.7859 -15.7633 -15.7579
    -7.6338  -7.6277  -7.6135  -7.6114  -7.6068  -7.5962  -7.5899  -7.5893
    -7.5829  -7.5804  -7.5745  -7.5687  -7.5610  -7.5587  -7.5510  -7.5508
    -7.5478  -7.5453  -7.5373  -7.5349  -7.5064  -7.4991  -7.4816  -7.4776
    -7.4769  -7.4706  -7.4204  -7.4150  -7.4028  -7.3884  -3.2452  -2.8889
    -2.4695  -2.2667  -2.0742  -1.9405   0.1384   0.2482   0.2722   0.5748
     0.6007   0.6456   0.8185   0.8668   0.9543   1.0614   1.4539   1.4885
     1.5809   1.5884   1.6468   1.7121   1.9568   2.0048   2.0990   2.1007
     2.1436   2.1607   2.1886

          k = 0.0121-0.0550 0.0000 ( 53898 PWs)   bands (ev):

   -32.5921 -32.5849 -32.5549 -32.5474 -32.1845 -32.1787 -16.3273 -16.3166
   -16.2817 -16.2762 -16.2377 -16.2285 -16.2014 -16.2005 -16.1937 -16.1746
   -16.1087 -16.0827 -15.9059 -15.8128 -15.8031 -15.7772 -15.7688 -15.7506
    -7.6410  -7.6264  -7.6205  -7.6174  -7.6043  -7.6001  -7.5967  -7.5918
    -7.5867  -7.5860  -7.5782  -7.5697  -7.5672  -7.5642  -7.5556  -7.5539
    -7.5519  -7.5431  -7.5364  -7.5231  -7.5099  -7.4948  -7.4896  -7.4831
    -7.4751  -7.4693  -7.4444  -7.4120  -7.3856  -7.3855  -3.5028  -2.6578
    -2.6407  -2.2169  -2.0968  -2.0563   0.2519   0.4110   0.4826   0.6722
     0.7376   0.7474   0.7647   0.8830   0.9215   1.1677   1.4731   1.5396
     1.5497   1.6634   1.6702   1.7330   1.8882   1.9670   2.0905   2.0965
     2.1457   2.1536   2.1664

          k = 0.0121-0.0423 0.0000 ( 53910 PWs)   bands (ev):

   -32.5952 -32.5818 -32.5581 -32.5443 -32.1876 -32.1757 -16.3233 -16.3202
   -16.2811 -16.2673 -16.2435 -16.2385 -16.2380 -16.2179 -16.1993 -16.1861
   -16.0626 -16.0363 -15.9516 -15.8213 -15.7737 -15.7695 -15.7543 -15.7439
    -7.6508  -7.6298  -7.6274  -7.6222  -7.6121  -7.6077  -7.6031  -7.6007
    -7.5987  -7.5860  -7.5844  -7.5795  -7.5752  -7.5632  -7.5572  -7.5540
    -7.5535  -7.5395  -7.5320  -7.5252  -7.4992  -7.4977  -7.4916  -7.4875
    -7.4818  -7.4660  -7.4638  -7.4096  -7.3832  -7.3663  -3.7252  -2.8005
    -2.4865  -2.2083  -2.1749  -2.1214   0.4322   0.5672   0.5965   0.7470
     0.8056   0.8533   0.9032   0.9236   0.9985   1.1801   1.3561   1.5939
     1.6382   1.6745   1.7335   1.7937   1.9182   1.9196   2.0256   2.1225
     2.1257   2.1440   2.1586

          k = 0.0121-0.0295 0.0000 ( 53885 PWs)   bands (ev):

   -32.5978 -32.5792 -32.5608 -32.5416 -32.1903 -32.1730 -16.3237 -16.3191
   -16.2802 -16.2795 -16.2586 -16.2540 -16.2473 -16.2389 -16.1991 -16.1795
   -16.0222 -15.9956 -15.9903 -15.8281 -15.7772 -15.7633 -15.7382 -15.7121
    -7.6614  -7.6401  -7.6339  -7.6272  -7.6224  -7.6140  -7.6140  -7.6079
    -7.6027  -7.5970  -7.5872  -7.5841  -7.5812  -7.5608  -7.5588  -7.5534
    -7.5510  -7.5340  -7.5338  -7.5312  -7.5044  -7.4966  -7.4912  -7.4891
    -7.4839  -7.4767  -7.4601  -7.4051  -7.3818  -7.3498  -3.8987  -2.9290
    -2.4010  -2.2742  -2.2049  -2.1207   0.5860   0.6191   0.6312   0.7432
     0.7839   1.0012   1.0260   1.1325   1.1342   1.1785   1.2920   1.5030
     1.6957   1.7272   1.8141   1.8673   1.9020   1.9833   2.0076   2.0858
     2.0945   2.1424   2.1923

          k = 0.0121-0.0168 0.0000 ( 53862 PWs)   bands (ev):

   -32.5999 -32.5772 -32.5628 -32.5396 -32.1923 -32.1710 -16.3265 -16.3154
   -16.3067 -16.2823 -16.2814 -16.2524 -16.2516 -16.2383 -16.2005 -16.1746
   -16.0197 -15.9908 -15.9640 -15.8324 -15.7799 -15.7591 -15.7341 -15.6793
    -7.6696  -7.6481  -7.6456  -7.6302  -7.6281  -7.6191  -7.6188  -7.6156
    -7.6125  -7.5980  -7.5899  -7.5849  -7.5842  -7.5617  -7.5604  -7.5531
    -7.5481  -7.5406  -7.5302  -7.5289  -7.5103  -7.5079  -7.4940  -7.4896
    -7.4807  -7.4721  -7.4567  -7.4001  -7.3815  -7.3372  -4.0146  -3.0146
    -2.3778  -2.3418  -2.2141  -2.0702   0.5811   0.5943   0.6281   0.7253
     0.7575   1.0316   1.0428   1.1941   1.3062   1.3429   1.4043   1.4868
     1.6544   1.8076   1.8217   1.8869   1.9338   2.0060   2.0212   2.0515
     2.1113   2.1163   2.2377

          k = 0.0242-0.0081 0.0000 ( 53886 PWs)   bands (ev):

   -32.5998 -32.5772 -32.5627 -32.5397 -32.1924 -32.1709 -16.3275 -16.3136
   -16.3073 -16.2895 -16.2832 -16.2570 -16.2453 -16.2301 -16.2059 -16.1759
   -16.0197 -15.9909 -15.9640 -15.8293 -15.7800 -15.7611 -15.7353 -15.6798
    -7.6653  -7.6449  -7.6438  -7.6298  -7.6277  -7.6172  -7.6144  -7.6116
    -7.6101  -7.5981  -7.5851  -7.5841  -7.5824  -7.5617  -7.5599  -7.5563
    -7.5557  -7.5374  -7.5287  -7.5203  -7.5065  -7.5053  -7.4937  -7.4898
    -7.4777  -7.4725  -7.4571  -7.3992  -7.3839  -7.3378  -3.9699  -2.9742
    -2.3802  -2.3174  -2.2052  -2.0162   0.3993   0.4571   0.6193   0.6590
     0.6704   0.9916   1.0393   1.0865   1.2786   1.3280   1.3877   1.6379
     1.6684   1.7699   1.8196   1.8545   1.9273   1.9604   2.0490   2.0576
     2.1241   2.1404   2.2098

          k = 0.0242 0.0047 0.0000 ( 53900 PWs)   bands (ev):

   -32.6010 -32.5760 -32.5639 -32.5385 -32.1939 -32.1694 -16.3313 -16.3270
   -16.3071 -16.3017 -16.2979 -16.2581 -16.2420 -16.2209 -16.2140 -16.1749
   -16.0381 -15.9712 -15.9441 -15.8279 -15.7818 -15.7614 -15.7345 -15.6598
    -7.6631  -7.6515  -7.6417  -7.6324  -7.6276  -7.6184  -7.6135  -7.6120
    -7.6095  -7.5946  -7.5844  -7.5828  -7.5814  -7.5622  -7.5609  -7.5605
    -7.5600  -7.5362  -7.5249  -7.5100  -7.5097  -7.5044  -7.4951  -7.4870
    -7.4782  -7.4655  -7.4555  -7.3948  -7.3871  -7.3304  -3.9774  -2.9688
    -2.3464  -2.3231  -2.1856  -1.9150   0.1784   0.2734   0.4968   0.5005
     0.6150   0.9537   1.0157   1.0444   1.3925   1.4199   1.4873   1.6463
     1.6761   1.7261   1.8205   1.8355   1.9245   1.9824   2.0162   2.0921
     2.1036   2.1670   2.2186

          k = 0.0242 0.0174 0.0000 ( 53845 PWs)   bands (ev):

   -32.6013 -32.5757 -32.5641 -32.5382 -32.1944 -32.1688 -16.3353 -16.3344
   -16.3093 -16.3035 -16.3028 -16.2603 -16.2385 -16.2223 -16.2127 -16.1766
   -16.0444 -15.9647 -15.9374 -15.8242 -15.7825 -15.7640 -15.7355 -15.6536
    -7.6558  -7.6526  -7.6344  -7.6336  -7.6223  -7.6171  -7.6100  -7.6071
    -7.6067  -7.5889  -7.5860  -7.5800  -7.5785  -7.5652  -7.5631  -7.5610
    -7.5603  -7.5303  -7.5234  -7.5072  -7.5023  -7.5000  -7.4953  -7.4819
    -7.4782  -7.4633  -7.4555  -7.3924  -7.3912  -7.3284  -3.9205  -2.9126
    -2.3122  -2.2964  -2.1513  -1.8205  -0.0192   0.1002   0.3374   0.3869
     0.5330   0.8785   0.9278   1.0433   1.2753   1.4839   1.5199   1.5746
     1.6679   1.7133   1.7937   1.8405   1.9427   2.0137   2.0193   2.0919
     2.1023   2.2176   2.2312

          k = 0.0242 0.0301 0.0000 ( 53849 PWs)   bands (ev):

   -32.6007 -32.5762 -32.5635 -32.5387 -32.1941 -32.1691 -16.3395 -16.3301
   -16.3057 -16.3050 -16.3000 -16.2630 -16.2368 -16.2280 -16.2061 -16.1806
   -16.0381 -15.9716 -15.9443 -15.8189 -15.7816 -15.7688 -15.7384 -15.6615
    -7.6482  -7.6457  -7.6305  -7.6246  -7.6176  -7.6138  -7.6027  -7.6018
    -7.5994  -7.5893  -7.5864  -7.5737  -7.5734  -7.5677  -7.5630  -7.5597
    -7.5586  -7.5247  -7.5218  -7.5000  -7.4975  -7.4946  -7.4938  -7.4815
    -7.4727  -7.4662  -7.4570  -7.3961  -7.3918  -7.3320  -3.8015  -2.8091
    -2.3101  -2.2479  -2.1166  -1.7408  -0.1427  -0.0423   0.1872   0.2719
     0.4661   0.6853   0.9209   1.0428   1.0794   1.4262   1.4829   1.5310
     1.5687   1.6738   1.8675   1.8732   1.9220   2.0098   2.0762   2.0919
     2.0947   2.1493   2.2122

          k = 0.0242 0.0429 0.0000 ( 53850 PWs)   bands (ev):

   -32.5993 -32.5775 -32.5621 -32.5401 -32.1930 -32.1702 -16.3430 -16.3143
   -16.3049 -16.2991 -16.2887 -16.2655 -16.2406 -16.2264 -16.2016 -16.1863
   -16.0196 -15.9913 -15.9640 -15.8123 -15.7791 -15.7754 -15.7428 -15.6829
    -7.6393  -7.6360  -7.6231  -7.6151  -7.6150  -7.6087  -7.5971  -7.5953
    -7.5924  -7.5907  -7.5854  -7.5685  -7.5679  -7.5665  -7.5614  -7.5572
    -7.5548  -7.5283  -7.5135  -7.4962  -7.4925  -7.4918  -7.4880  -7.4817
    -7.4735  -7.4663  -7.4594  -7.4014  -7.3916  -7.3414  -3.6265  -2.6672
    -2.3883  -2.1949  -2.1011  -1.6830  -0.1475  -0.1333   0.0483   0.1497
     0.4260   0.5018   0.9268   0.9282   1.0449   1.3474   1.4518   1.4534
     1.4791   1.6100   1.8179   1.8306   2.0131   2.0154   2.0286   2.0942
     2.1457   2.1603   2.1918

          k = 0.0242 0.0556 0.0000 ( 53841 PWs)   bands (ev):

   -32.5972 -32.5796 -32.5599 -32.5423 -32.1911 -32.1721 -16.3447 -16.3017
   -16.3004 -16.2869 -16.2686 -16.2606 -16.2452 -16.2214 -16.2011 -16.1910
   -16.0219 -15.9949 -15.9899 -15.8049 -15.7835 -15.7748 -15.7481 -15.7159
    -7.6286  -7.6280  -7.6162  -7.6095  -7.6082  -7.6019  -7.6001  -7.5947
    -7.5883  -7.5830  -7.5810  -7.5664  -7.5641  -7.5631  -7.5593  -7.5536
    -7.5501  -7.5334  -7.5082  -7.5026  -7.4909  -7.4897  -7.4859  -7.4783
    -7.4767  -7.4648  -7.4571  -7.4067  -7.3908  -7.3560  -3.4065  -2.5663
    -2.5048  -2.1591  -2.1312  -1.6598  -0.1512  -0.0650  -0.0342   0.0551
     0.3567   0.4639   0.8688   0.9315   1.0427   1.2947   1.3443   1.4288
     1.4368   1.5493   1.7614   1.7649   1.9581   2.0619   2.0769   2.0910
     2.1263   2.1537   2.1565

          k = 0.0242-0.0845 0.0000 ( 53872 PWs)   bands (ev):

   -32.5945 -32.5824 -32.5571 -32.5451 -32.1885 -32.1746 -16.3444 -16.3025
   -16.2965 -16.2697 -16.2505 -16.2480 -16.2251 -16.2152 -16.2075 -16.1909
   -16.0610 -16.0343 -15.9507 -15.7970 -15.7924 -15.7695 -15.7576 -15.7538
    -7.6235  -7.6213  -7.6104  -7.6061  -7.6036  -7.6006  -7.5945  -7.5934
    -7.5853  -7.5819  -7.5748  -7.5674  -7.5608  -7.5586  -7.5575  -7.5500
    -7.5485  -7.5383  -7.5204  -7.5031  -7.4976  -7.4943  -7.4852  -7.4755
    -7.4729  -7.4687  -7.4447  -7.4113  -7.3899  -7.3743  -3.1586  -2.8134
    -2.3529  -2.2251  -2.1541  -1.6972  -0.1482  -0.0529   0.0310   0.1760
     0.3398   0.5342   0.9005   0.9161   1.0289   1.1837   1.3145   1.4345
     1.4602   1.5215   1.7278   1.7439   1.9453   2.0301   2.0424   2.0693
     2.1257   2.1506   2.1566

          k = 0.0242-0.0718 0.0000 ( 53869 PWs)   bands (ev):

   -32.5914 -32.5855 -32.5539 -32.5483 -32.1855 -32.1777 -16.3419 -16.3060
   -16.2896 -16.2698 -16.2492 -16.2195 -16.2081 -16.2056 -16.1910 -16.1799
   -16.1058 -16.0794 -15.9043 -15.8063 -15.8016 -15.7887 -15.7623 -15.7595
    -7.6238  -7.6207  -7.6110  -7.6037  -7.6003  -7.5999  -7.5893  -7.5891
    -7.5840  -7.5816  -7.5773  -7.5627  -7.5611  -7.5571  -7.5531  -7.5498
    -7.5480  -7.5405  -7.5393  -7.5199  -7.4988  -7.4945  -7.4805  -7.4805
    -7.4738  -7.4708  -7.4286  -7.4129  -7.4012  -7.3833  -3.0855  -2.9054
    -2.3722  -2.2617  -2.1629  -1.8000  -0.1227   0.1176   0.1372   0.3790
     0.4186   0.6690   0.8994   0.9984   1.0136   1.0794   1.3407   1.4399
     1.5274   1.5454   1.7243   1.7663   1.9311   1.9443   1.9981   2.0259
     2.1074   2.1485   2.1800

          k = 0.0242-0.0590 0.0000 ( 53860 PWs)   bands (ev):

   -32.5889 -32.5881 -32.5517 -32.5506 -32.1822 -32.1810 -16.3376 -16.3103
   -16.2812 -16.2695 -16.2490 -16.2292 -16.2003 -16.1903 -16.1583 -16.1530
   -16.1325 -16.1269 -15.8566 -15.8538 -15.8105 -15.7808 -15.7649 -15.7553
    -7.6305  -7.6208  -7.6141  -7.6103  -7.5993  -7.5981  -7.5945  -7.5869
    -7.5862  -7.5821  -7.5746  -7.5670  -7.5642  -7.5617  -7.5511  -7.5500
    -7.5477  -7.5450  -7.5395  -7.5357  -7.5043  -7.4906  -7.4887  -7.4789
    -7.4764  -7.4718  -7.4250  -7.4202  -7.4024  -7.3821  -3.3488  -2.6733
    -2.5415  -2.2691  -2.1489  -1.9385   0.0066   0.3323   0.3517   0.5092
     0.5844   0.8367   0.9079   0.9918   1.0562   1.1145   1.3472   1.4790
     1.5366   1.6017   1.7628   1.8009   1.8256   1.8761   2.0175   2.0511
     2.0791   2.1154   2.1317

          k = 0.0242-0.0463 0.0000 ( 53922 PWs)   bands (ev):

   -32.5922 -32.5848 -32.5550 -32.5473 -32.1843 -32.1789 -16.3320 -16.3150
   -16.2719 -16.2697 -16.2478 -16.2391 -16.1997 -16.1923 -16.1914 -16.1738
   -16.1093 -16.0833 -15.9061 -15.8183 -15.8025 -15.7736 -15.7696 -15.7486
    -7.6408  -7.6235  -7.6201  -7.6153  -7.6058  -7.6052  -7.5950  -7.5948
    -7.5891  -7.5850  -7.5846  -7.5721  -7.5651  -7.5647  -7.5582  -7.5518
    -7.5501  -7.5436  -7.5424  -7.5232  -7.5090  -7.4965  -7.4876  -7.4835
    -7.4794  -7.4688  -7.4491  -7.4168  -7.3838  -7.3810  -3.5808  -2.7032
    -2.4933  -2.2887  -2.1549  -2.0770   0.2163   0.5691   0.5939   0.6444
     0.6999   0.8666   0.9738   1.0183   1.1159   1.1683   1.3538   1.4167
     1.5541   1.5816   1.7958   1.8431   1.8568   1.9061   2.0089   2.0348
     2.0722   2.0956   2.1392

          k = 0.0242-0.0336 0.0000 ( 53914 PWs)   bands (ev):

   -32.5952 -32.5818 -32.5581 -32.5442 -32.1875 -32.1758 -16.3256 -16.3195
   -16.2728 -16.2633 -16.2458 -16.2452 -16.2425 -16.2171 -16.1942 -16.1852
   -16.0628 -16.0365 -15.9516 -15.8243 -15.7737 -15.7675 -15.7540 -15.7427
    -7.6523  -7.6312  -7.6262  -7.6210  -7.6135  -7.6101  -7.6078  -7.6026
    -7.5936  -7.5923  -7.5841  -7.5825  -7.5776  -7.5605  -7.5582  -7.5522
    -7.5485  -7.5403  -7.5395  -7.5263  -7.5016  -7.4984  -7.4876  -7.4870
    -7.4858  -7.4690  -7.4641  -7.4115  -7.3809  -7.3655  -3.7671  -2.8365
    -2.4162  -2.2367  -2.1928  -2.1760   0.4423   0.7041   0.7582   0.7658
     0.7749   0.8251   1.0335   1.0358   1.1440   1.1884   1.2882   1.4411
     1.5014   1.7149   1.7714   1.8935   1.9256   1.9677   1.9941   2.0169
     2.0783   2.1079   2.1436

          k = 0.0242-0.0208 0.0000 ( 53885 PWs)   bands (ev):

   -32.5978 -32.5792 -32.5608 -32.5416 -32.1903 -32.1730 -16.3237 -16.3191
   -16.2802 -16.2795 -16.2586 -16.2540 -16.2473 -16.2389 -16.1991 -16.1795
   -16.0222 -15.9956 -15.9903 -15.8281 -15.7772 -15.7633 -15.7382 -15.7121
    -7.6614  -7.6401  -7.6339  -7.6272  -7.6224  -7.6140  -7.6140  -7.6079
    -7.6027  -7.5970  -7.5872  -7.5841  -7.5812  -7.5608  -7.5588  -7.5534
    -7.5510  -7.5340  -7.5338  -7.5312  -7.5044  -7.4966  -7.4912  -7.4891
    -7.4839  -7.4767  -7.4601  -7.4051  -7.3818  -7.3498  -3.8987  -2.9290
    -2.4010  -2.2742  -2.2049  -2.1206   0.5860   0.6191   0.6312   0.7432
     0.7839   1.0012   1.0260   1.1325   1.1342   1.1785   1.2920   1.5031
     1.6958   1.7272   1.8151   1.8673   1.9016   1.9831   2.0074   2.0850
     2.0951   2.1398   2.1827

          k = 0.0362-0.0121 0.0000 ( 53867 PWs)   bands (ev):

   -32.5977 -32.5793 -32.5606 -32.5418 -32.1904 -32.1728 -16.3259 -16.3148
   -16.2920 -16.2811 -16.2650 -16.2554 -16.2371 -16.2271 -16.2090 -16.1819
   -16.0221 -15.9955 -15.9902 -15.8223 -15.7772 -15.7672 -15.7404 -15.7128
    -7.6553  -7.6341  -7.6340  -7.6258  -7.6216  -7.6108  -7.6059  -7.6035
    -7.6000  -7.5956  -7.5849  -7.5788  -7.5765  -7.5639  -7.5578  -7.5571
    -7.5565  -7.5339  -7.5290  -7.5189  -7.4988  -7.4937  -7.4908  -7.4891
    -7.4845  -7.4706  -7.4608  -7.4024  -7.3866  -7.3511  -3.8122  -2.8524
    -2.4483  -2.2334  -2.1955  -2.0067   0.3734   0.3913   0.5575   0.6000
     0.6143   0.8625   0.9702   0.9985   1.0857   1.2338   1.3802   1.6671
     1.6871   1.7125   1.7592   1.8120   1.9138   1.9307   2.0097   2.1136
     2.1469   2.1601   2.1867

          k = 0.0362 0.0006 0.0000 ( 53889 PWs)   bands (ev):

   -32.5996 -32.5774 -32.5624 -32.5399 -32.1927 -32.1706 -16.3324 -16.3117
   -16.3057 -16.3005 -16.2856 -16.2633 -16.2359 -16.2196 -16.2160 -16.1800
   -16.0196 -15.9910 -15.9640 -15.8214 -15.7799 -15.7670 -15.7386 -15.6811
    -7.6533  -7.6426  -7.6320  -7.6274  -7.6239  -7.6133  -7.6049  -7.6036
    -7.6023  -7.5940  -7.5865  -7.5760  -7.5759  -7.5643  -7.5628  -7.5587
    -7.5580  -7.5285  -7.5278  -7.5063  -7.4984  -7.4982  -7.4930  -7.4878
    -7.4733  -7.4718  -7.4583  -7.3962  -7.3909  -7.3393  -3.8381  -2.8554
    -2.3847  -2.2552  -2.1662  -1.8783   0.1155   0.1701   0.4018   0.4155
     0.5495   0.7741   0.9766   1.0373   1.1699   1.3777   1.4485   1.5660
     1.6378   1.7397   1.8155   1.8718   1.8849   1.9482   2.0459   2.0936
     2.1191   2.1581   2.2036

          k = 0.0362 0.0134 0.0000 ( 53849 PWs)   bands (ev):

   -32.6007 -32.5762 -32.5635 -32.5387 -32.1941 -32.1691 -16.3395 -16.3301
   -16.3057 -16.3050 -16.3000 -16.2630 -16.2368 -16.2280 -16.2061 -16.1806
   -16.0381 -15.9716 -15.9443 -15.8189 -15.7816 -15.7688 -15.7384 -15.6615
    -7.6482  -7.6457  -7.6305  -7.6246  -7.6176  -7.6138  -7.6027  -7.6018
    -7.5994  -7.5893  -7.5864  -7.5737  -7.5734  -7.5677  -7.5630  -7.5597
    -7.5586  -7.5247  -7.5218  -7.5000  -7.4975  -7.4946  -7.4938  -7.4815
    -7.4727  -7.4662  -7.4570  -7.3961  -7.3918  -7.3320  -3.8015  -2.8091
    -2.3101  -2.2479  -2.1166  -1.7408  -0.1427  -0.0423   0.1872   0.2719
     0.4661   0.6853   0.9209   1.0428   1.0795   1.4262   1.4829   1.5310
     1.5687   1.6738   1.8653   1.8734   1.9223   2.0078   2.0745   2.0910
     2.0952   2.1467   2.2233

          k = 0.0362 0.0261 0.0000 ( 53815 PWs)   bands (ev):

   -32.6010 -32.5758 -32.5638 -32.5384 -32.1948 -32.1684 -16.3463 -16.3379
   -16.3126 -16.3079 -16.2958 -16.2626 -16.2436 -16.2294 -16.1985 -16.1832
   -16.0444 -15.9652 -15.9377 -15.8151 -15.7818 -15.7726 -15.7400 -15.6556
    -7.6487  -7.6353  -7.6307  -7.6147  -7.6120  -7.6091  -7.5990  -7.5987
    -7.5941  -7.5924  -7.5781  -7.5713  -7.5698  -7.5694  -7.5606  -7.5596
    -7.5583  -7.5233  -7.5127  -7.4973  -7.4943  -7.4936  -7.4870  -7.4742
    -7.4735  -7.4637  -7.4570  -7.4018  -7.3890  -7.3301  -3.7037  -2.7159
    -2.2537  -2.2248  -2.0606  -1.6059  -0.3456  -0.2142  -0.0145   0.1489
     0.3934   0.5538   0.8537   0.8758   1.0435   1.3376   1.3380   1.4794
     1.6349   1.6601   1.8411   1.9098   1.9908   2.0535   2.0694   2.0768
     2.1420   2.1840   2.2227

          k = 0.0362 0.0388 0.0000 ( 53843 PWs)   bands (ev):

   -32.6004 -32.5764 -32.5632 -32.5390 -32.1945 -32.1686 -16.3516 -16.3337
   -16.3082 -16.3077 -16.2938 -16.2618 -16.2510 -16.2276 -16.1957 -16.1854
   -16.0382 -15.9721 -15.9445 -15.8104 -15.7803 -15.7779 -15.7429 -15.6636
    -7.6444  -7.6264  -7.6252  -7.6096  -7.6046  -7.6042  -7.5993  -7.5917
    -7.5913  -7.5888  -7.5761  -7.5694  -7.5651  -7.5637  -7.5584  -7.5577
    -7.5559  -7.5245  -7.5040  -7.4932  -7.4924  -7.4889  -7.4836  -7.4747
    -7.4672  -7.4658  -7.4582  -7.4077  -7.3875  -7.3339  -3.5493  -2.5842
    -2.2665  -2.2058  -2.0223  -1.5007  -0.4231  -0.3190  -0.1936   0.0306
     0.3415   0.4174   0.6917   0.7866   1.0530   1.2011   1.2850   1.4440
     1.5796   1.6467   1.7798   1.9195   2.0404   2.0463   2.0765   2.0874
     2.1393   2.1586   2.1986

          k = 0.0362 0.0516 0.0000 ( 53869 PWs)   bands (ev):

   -32.5991 -32.5777 -32.5617 -32.5404 -32.1933 -32.1698 -16.3544 -16.3175
   -16.3056 -16.2946 -16.2914 -16.2604 -16.2562 -16.2244 -16.2006 -16.1836
   -16.0196 -15.9915 -15.9640 -15.8049 -15.7846 -15.7771 -15.7469 -15.6848
    -7.6359  -7.6179  -7.6178  -7.6052  -7.6030  -7.6029  -7.5965  -7.5886
    -7.5868  -7.5827  -7.5773  -7.5640  -7.5617  -7.5614  -7.5554  -7.5549
    -7.5508  -7.5279  -7.4986  -7.4925  -7.4897  -7.4885  -7.4790  -7.4736
    -7.4718  -7.4640  -7.4589  -7.4134  -7.3863  -7.3435  -3.3482  -2.4326
    -2.3931  -2.2094  -2.0303  -1.4545  -0.3637  -0.3391  -0.3035  -0.0737
     0.2476   0.4126   0.6173   0.7239   1.0720   1.1494   1.2764   1.4099
     1.5213   1.5509   1.7246   1.8765   1.9913   2.0218   2.0937   2.1121
     2.1336   2.1452   2.1790

          k = 0.0362-0.0886 0.0000 ( 53846 PWs)   bands (ev):

   -32.5970 -32.5798 -32.5596 -32.5426 -32.1914 -32.1717 -16.3545 -16.3015
   -16.2972 -16.2896 -16.2650 -16.2588 -16.2577 -16.2199 -16.2092 -16.1816
   -16.0218 -15.9946 -15.9898 -15.7989 -15.7919 -15.7724 -15.7514 -15.7174
    -7.6246  -7.6137  -7.6079  -7.6064  -7.6015  -7.5999  -7.5911  -7.5880
    -7.5845  -7.5806  -7.5784  -7.5641  -7.5601  -7.5573  -7.5530  -7.5515
    -7.5478  -7.5329  -7.5054  -7.4928  -7.4885  -7.4880  -7.4832  -7.4731
    -7.4726  -7.4652  -7.4538  -7.4179  -7.3849  -7.3583  -3.1162  -2.6160
    -2.3153  -2.2199  -2.1058  -1.4926  -0.4310  -0.2245  -0.1452  -0.0914
     0.2065   0.5027   0.6666   0.6815   1.0888   1.1732   1.3045   1.4020
     1.4384   1.4742   1.7004   1.8413   1.9517   1.9963   2.0569   2.0682
     2.1194   2.1602   2.1766

          k = 0.0362-0.0758 0.0000 ( 53847 PWs)   bands (ev):

   -32.5943 -32.5825 -32.5569 -32.5453 -32.1888 -32.1744 -16.3519 -16.3005
   -16.2955 -16.2593 -16.2592 -16.2512 -16.2268 -16.2187 -16.2141 -16.1810
   -16.0607 -16.0338 -15.9504 -15.7996 -15.7923 -15.7669 -15.7589 -15.7561
    -7.6144  -7.6139  -7.6069  -7.6060  -7.5949  -7.5946  -7.5886  -7.5883
    -7.5847  -7.5835  -7.5773  -7.5678  -7.5617  -7.5523  -7.5517  -7.5491
    -7.5487  -7.5378  -7.5227  -7.5011  -7.4906  -7.4884  -7.4827  -7.4780
    -7.4714  -7.4695  -7.4419  -7.4201  -7.3860  -7.3752  -2.8815  -2.8748
    -2.3425  -2.2415  -2.1538  -1.6158  -0.4087  -0.0513  -0.0087   0.1112
     0.2487   0.6545   0.6930   0.8117   1.0958   1.2620   1.3104   1.3471
     1.4488   1.4575   1.7173   1.8371   1.9250   1.9673   1.9834   2.0220
     2.0541   2.1468   2.1557

          k = 0.0362-0.0631 0.0000 ( 53875 PWs)   bands (ev):

   -32.5913 -32.5856 -32.5538 -32.5484 -32.1857 -32.1775 -16.3469 -16.3049
   -16.2877 -16.2578 -16.2577 -16.2298 -16.2074 -16.2071 -16.1832 -16.1809
   -16.1053 -16.0788 -15.9040 -15.8069 -15.8067 -15.7855 -15.7609 -15.7604
    -7.6177  -7.6166  -7.6059  -7.6020  -7.5963  -7.5944  -7.5909  -7.5889
    -7.5836  -7.5827  -7.5806  -7.5645  -7.5634  -7.5515  -7.5513  -7.5490
    -7.5478  -7.5434  -7.5409  -7.5203  -7.4937  -7.4870  -7.4851  -7.4789
    -7.4744  -7.4738  -7.4296  -7.4161  -7.4033  -7.3795  -3.1464  -2.6480
    -2.4065  -2.4061  -2.1189  -1.7803  -0.2685   0.1635   0.1689   0.3322
     0.3714   0.7986   0.8248   0.9967   1.1044   1.1913   1.3438   1.4023
     1.4579   1.5381   1.7627   1.8173   1.8806   1.8849   1.9525   1.9553
     2.0828   2.1256   2.1423

          k = 0.0362-0.0503 0.0000 ( 53832 PWs)   bands (ev):

   -32.5889 -32.5880 -32.5518 -32.5505 -32.1823 -32.1809 -16.3401 -16.3098
   -16.2792 -16.2610 -16.2542 -16.2369 -16.1996 -16.1857 -16.1589 -16.1527
   -16.1330 -16.1265 -15.8568 -15.8536 -15.8133 -15.7791 -15.7654 -15.7543
    -7.6279  -7.6209  -7.6074  -7.6060  -7.6034  -7.6027  -7.5890  -7.5886
    -7.5869  -7.5857  -7.5739  -7.5670  -7.5652  -7.5633  -7.5509  -7.5485
    -7.5476  -7.5461  -7.5404  -7.5362  -7.5013  -7.4938  -7.4835  -7.4792
    -7.4790  -7.4730  -7.4268  -7.4230  -7.4017  -7.3799  -3.3847  -2.5674
    -2.4830  -2.4287  -2.1306  -1.9421  -0.0398   0.3778   0.3848   0.4861
     0.5652   0.9476   0.9635   1.0716   1.1308   1.1429   1.2528   1.4963
     1.5096   1.5806   1.7653   1.7694   1.8493   1.8853   1.9531   2.0244
     2.0586   2.0689   2.1212

          k = 0.0362-0.0376 0.0000 ( 53922 PWs)   bands (ev):

   -32.5922 -32.5848 -32.5550 -32.5473 -32.1843 -32.1789 -16.3320 -16.3150
   -16.2719 -16.2697 -16.2478 -16.2391 -16.1997 -16.1923 -16.1914 -16.1738
   -16.1093 -16.0833 -15.9061 -15.8183 -15.8025 -15.7736 -15.7696 -15.7486
    -7.6408  -7.6235  -7.6201  -7.6153  -7.6058  -7.6052  -7.5950  -7.5948
    -7.5891  -7.5850  -7.5846  -7.5721  -7.5651  -7.5647  -7.5582  -7.5518
    -7.5501  -7.5436  -7.5424  -7.5232  -7.5090  -7.4965  -7.4876  -7.4835
    -7.4794  -7.4688  -7.4491  -7.4168  -7.3838  -7.3810  -3.5808  -2.7032
    -2.4933  -2.2887  -2.1549  -2.0770   0.2163   0.5691   0.5939   0.6444
     0.6999   0.8666   0.9738   1.0183   1.1159   1.1683   1.3538   1.4167
     1.5541   1.5816   1.7958   1.8431   1.8567   1.9053   2.0075   2.0354
     2.0711   2.1035   2.1396

          k = 0.0362-0.0249 0.0000 ( 53910 PWs)   bands (ev):

   -32.5952 -32.5818 -32.5581 -32.5443 -32.1876 -32.1757 -16.3233 -16.3202
   -16.2811 -16.2673 -16.2435 -16.2385 -16.2380 -16.2179 -16.1993 -16.1861
   -16.0626 -16.0363 -15.9516 -15.8213 -15.7737 -15.7695 -15.7543 -15.7439
    -7.6508  -7.6298  -7.6274  -7.6222  -7.6121  -7.6077  -7.6031  -7.6007
    -7.5987  -7.5860  -7.5844  -7.5795  -7.5752  -7.5632  -7.5572  -7.5540
    -7.5535  -7.5395  -7.5320  -7.5252  -7.4992  -7.4977  -7.4916  -7.4875
    -7.4818  -7.4660  -7.4638  -7.4096  -7.3832  -7.3663  -3.7252  -2.8005
    -2.4865  -2.2083  -2.1749  -2.1214   0.4322   0.5672   0.5965   0.7470
     0.8056   0.8533   0.9032   0.9236   0.9985   1.1801   1.3561   1.5939
     1.6382   1.6745   1.7335   1.7935   1.9177   1.9201   2.0293   2.1193
     2.1264   2.1351   2.1635

          k = 0.0483-0.0162 0.0000 ( 53894 PWs)   bands (ev):

   -32.5950 -32.5820 -32.5578 -32.5445 -32.1879 -32.1754 -16.3243 -16.3169
   -16.2922 -16.2725 -16.2454 -16.2286 -16.2248 -16.2197 -16.2121 -16.1891
   -16.0621 -16.0357 -15.9513 -15.8137 -15.7750 -15.7733 -15.7550 -15.7468
    -7.6457  -7.6297  -7.6249  -7.6194  -7.6091  -7.6042  -7.6027  -7.5956
    -7.5910  -7.5882  -7.5806  -7.5736  -7.5695  -7.5668  -7.5581  -7.5542
    -7.5539  -7.5393  -7.5239  -7.5205  -7.4998  -7.4955  -7.4899  -7.4866
    -7.4776  -7.4661  -7.4574  -7.4042  -7.3901  -7.3685  -3.6025  -2.6965
    -2.6012  -2.2031  -2.1339  -1.9806   0.3037   0.3721   0.4432   0.5095
     0.5393   0.7352   0.8784   0.9158   0.9496   1.2292   1.4289   1.5393
     1.6320   1.6419   1.7257   1.7565   1.9435   1.9766   2.0260   2.1492
     2.1572   2.1607   2.1874

          k = 0.0483-0.0034 0.0000 ( 53897 PWs)   bands (ev):

   -32.5975 -32.5795 -32.5603 -32.5420 -32.1907 -32.1725 -16.3334 -16.3075
   -16.2999 -16.2838 -16.2694 -16.2580 -16.2314 -16.2224 -16.2122 -16.1869
   -16.0220 -15.9952 -15.9900 -15.8134 -15.7765 -15.7744 -15.7441 -15.7142
    -7.6437  -7.6318  -7.6229  -7.6227  -7.6161  -7.6063  -7.6014  -7.5966
    -7.5913  -7.5906  -7.5877  -7.5710  -7.5694  -7.5645  -7.5630  -7.5557
    -7.5540  -7.5337  -7.5198  -7.5086  -7.4929  -7.4917  -7.4889  -7.4843
    -7.4828  -7.4650  -7.4610  -7.3972  -7.3954  -7.3533  -3.6444  -2.7055
    -2.5077  -2.1766  -2.1652  -1.8436   0.0913   0.1438   0.3006   0.3041
     0.4961   0.5818   0.9878   1.0155   1.0219   1.2946   1.4306   1.4473
     1.5882   1.6929   1.7326   1.8200   1.9741   1.9836   1.9955   2.1253
     2.1378   2.1713   2.1932

          k = 0.0483 0.0093 0.0000 ( 53850 PWs)   bands (ev):

   -32.5993 -32.5775 -32.5621 -32.5401 -32.1930 -32.1702 -16.3430 -16.3143
   -16.3049 -16.2991 -16.2887 -16.2655 -16.2406 -16.2264 -16.2016 -16.1863
   -16.0196 -15.9913 -15.9640 -15.8123 -15.7791 -15.7754 -15.7428 -15.6829
    -7.6393  -7.6360  -7.6231  -7.6151  -7.6150  -7.6087  -7.5971  -7.5953
    -7.5924  -7.5907  -7.5854  -7.5685  -7.5679  -7.5665  -7.5614  -7.5572
    -7.5548  -7.5283  -7.5135  -7.4962  -7.4925  -7.4918  -7.4880  -7.4817
    -7.4735  -7.4663  -7.4594  -7.4014  -7.3916  -7.3414  -3.6265  -2.6672
    -2.3883  -2.1949  -2.1011  -1.6830  -0.1475  -0.1333   0.0483   0.1497
     0.4260   0.5018   0.9268   0.9282   1.0449   1.3474   1.4518   1.4534
     1.4791   1.6100   1.8176   1.8303   2.0131   2.0137   2.0291   2.0888
     2.1514   2.1693   2.1898

          k = 0.0483 0.0221 0.0000 ( 53843 PWs)   bands (ev):

   -32.6004 -32.5764 -32.5632 -32.5390 -32.1945 -32.1686 -16.3516 -16.3337
   -16.3082 -16.3077 -16.2938 -16.2618 -16.2510 -16.2276 -16.1957 -16.1854
   -16.0382 -15.9721 -15.9445 -15.8104 -15.7803 -15.7779 -15.7429 -15.6636
    -7.6444  -7.6264  -7.6252  -7.6096  -7.6046  -7.6042  -7.5993  -7.5917
    -7.5913  -7.5888  -7.5761  -7.5694  -7.5651  -7.5637  -7.5584  -7.5577
    -7.5559  -7.5245  -7.5040  -7.4932  -7.4924  -7.4889  -7.4836  -7.4747
    -7.4672  -7.4658  -7.4582  -7.4077  -7.3875  -7.3339  -3.5493  -2.5842
    -2.2664  -2.2058  -2.0223  -1.5007  -0.4231  -0.3190  -0.1936   0.0306
     0.3415   0.4174   0.6917   0.7866   1.0530   1.2011   1.2850   1.4440
     1.5796   1.6467   1.7804   1.9196   2.0394   2.0451   2.0672   2.0847
     2.1393   2.1492   2.1645

          k = 0.0483 0.0348 0.0000 ( 53815 PWs)   bands (ev):

   -32.6007 -32.5760 -32.5634 -32.5387 -32.1951 -32.1680 -16.3581 -16.3416
   -16.3157 -16.3089 -16.2914 -16.2591 -16.2573 -16.2278 -16.1979 -16.1809
[...]
    -7.6383  -7.6303  -7.6179  -7.6117  -7.6084  -7.5966  -7.5928  -7.5925
    -7.5872  -7.5821  -7.5750  -7.5686  -7.5627  -7.5625  -7.5566  -7.5519
    -7.5508  -7.5421  -7.5343  -7.5213  -7.5090  -7.4998  -7.4837  -7.4794
    -7.4744  -7.4700  -7.4376  -7.4045  -7.3940  -7.3882  -3.3542  -2.8246
    -2.5256  -2.2556  -2.0407  -1.9624   0.2275   0.2817   0.3482   0.4373
     0.5760   0.6957   0.7706   0.8311   0.9243   1.1436   1.4680   1.4982
     1.5751   1.5920   1.6487   1.7085   2.0025   2.0499   2.0824   2.1276
     2.1458   2.1717   2.2000

          k = 0.0604-0.0075 0.0000 ( 53872 PWs)   bands (ev):

   -32.5947 -32.5822 -32.5575 -32.5448 -32.1882 -32.1750 -16.3337 -16.3086
   -16.2967 -16.2744 -16.2480 -16.2326 -16.2228 -16.2181 -16.2095 -16.1942
   -16.0615 -16.0350 -15.9510 -15.8046 -15.7833 -15.7719 -15.7562 -15.7505
    -7.6362  -7.6276  -7.6157  -7.6149  -7.6059  -7.6007  -7.5989  -7.5966
    -7.5887  -7.5841  -7.5756  -7.5696  -7.5640  -7.5634  -7.5613  -7.5521
    -7.5505  -7.5389  -7.5201  -7.5121  -7.5001  -7.4963  -7.4867  -7.4794
    -7.4752  -7.4675  -7.4502  -7.4002  -7.3968  -7.3715  -3.4085  -2.7149
    -2.5374  -2.2098  -2.1089  -1.8275   0.0623   0.1768   0.2017   0.2921
     0.4361   0.5277   0.9346   0.9527   1.0031   1.2472   1.2923   1.4545
     1.5364   1.6637   1.6703   1.7546   1.9817   2.0378   2.0610   2.1127
     2.1193   2.1446   2.2009

          k = 0.0604 0.0053 0.0000 ( 53841 PWs)   bands (ev):

   -32.5972 -32.5796 -32.5599 -32.5423 -32.1911 -32.1721 -16.3447 -16.3017
   -16.3004 -16.2869 -16.2686 -16.2606 -16.2452 -16.2214 -16.2011 -16.1910
   -16.0219 -15.9949 -15.9899 -15.8049 -15.7835 -15.7748 -15.7481 -15.7159
    -7.6286  -7.6280  -7.6162  -7.6095  -7.6082  -7.6019  -7.6001  -7.5947
    -7.5883  -7.5830  -7.5810  -7.5664  -7.5641  -7.5631  -7.5593  -7.5536
    -7.5501  -7.5334  -7.5082  -7.5026  -7.4909  -7.4897  -7.4859  -7.4783
    -7.4767  -7.4648  -7.4571  -7.4067  -7.3908  -7.3560  -3.4065  -2.5663
    -2.5048  -2.1591  -2.1312  -1.6598  -0.1512  -0.0650  -0.0342   0.0551
     0.3567   0.4639   0.8688   0.9315   1.0427   1.2947   1.3443   1.4288
     1.4368   1.5493   1.7614   1.7649   1.9586   2.0625   2.0772   2.0921
     2.1236   2.1481   2.1588

          k = 0.0604 0.0180 0.0000 ( 53869 PWs)   bands (ev):

   -32.5991 -32.5777 -32.5617 -32.5404 -32.1933 -32.1698 -16.3544 -16.3175
   -16.3056 -16.2946 -16.2914 -16.2604 -16.2562 -16.2244 -16.2006 -16.1836
   -16.0196 -15.9915 -15.9640 -15.8049 -15.7846 -15.7771 -15.7469 -15.6848
    -7.6359  -7.6179  -7.6178  -7.6052  -7.6030  -7.6029  -7.5965  -7.5886
    -7.5868  -7.5827  -7.5773  -7.5640  -7.5617  -7.5614  -7.5554  -7.5549
    -7.5508  -7.5279  -7.4986  -7.4925  -7.4897  -7.4885  -7.4790  -7.4736
    -7.4718  -7.4640  -7.4589  -7.4134  -7.3863  -7.3435  -3.3482  -2.4326
    -2.3931  -2.2094  -2.0303  -1.4545  -0.3637  -0.3391  -0.3035  -0.0737
     0.2476   0.4126   0.6173   0.7239   1.0720   1.1494   1.2764   1.4099
     1.5213   1.5509   1.7246   1.8763   1.9917   2.0208   2.0984   2.1111
     2.1392   2.1497   2.1734

          k = 0.0604 0.0308 0.0000 ( 53794 PWs)   bands (ev):

   -32.6002 -32.5765 -32.5628 -32.5392 -32.1948 -32.1683 -16.3617 -16.3369
   -16.3109 -16.3085 -16.2913 -16.2643 -16.2528 -16.2267 -16.2042 -16.1766
   -16.0382 -15.9725 -15.9447 -15.8047 -15.7864 -15.7781 -15.7467 -15.6654
    -7.6412  -7.6215  -7.6087  -7.6058  -7.6039  -7.5925  -7.5891  -7.5863
    -7.5843  -7.5814  -7.5664  -7.5599  -7.5589  -7.5579  -7.5561  -7.5521
    -7.5517  -7.5242  -7.4944  -7.4888  -7.4869  -7.4832  -7.4764  -7.4683
    -7.4643  -7.4634  -7.4572  -7.4195  -7.3832  -7.3355  -3.2370  -2.3523
    -2.2581  -2.2279  -1.9293  -1.2160  -0.6170  -0.5990  -0.4187  -0.1588
     0.1776   0.2753   0.3515   0.5206   0.8697   1.0859   1.2372   1.3614
     1.4992   1.6630   1.7332   1.9664   1.9801   2.0137   2.0774   2.1271
     2.1850   2.1888   2.1916

          k = 0.0604 0.0435 0.0000 ( 53755 PWs)   bands (ev):

   -32.6005 -32.5761 -32.5631 -32.5389 -32.1953 -32.1677 -16.3662 -16.3442
   -16.3179 -16.3100 -16.2904 -16.2691 -16.2457 -16.2277 -16.2099 -16.1719
   -16.0446 -15.9661 -15.9382 -15.8038 -15.7887 -15.7778 -15.7474 -15.6591
    -7.6423  -7.6216  -7.6072  -7.6071  -7.5980  -7.5927  -7.5834  -7.5821
    -7.5791  -7.5783  -7.5593  -7.5576  -7.5553  -7.5551  -7.5543  -7.5526
    -7.5491  -7.5228  -7.4944  -7.4887  -7.4829  -7.4775  -7.4741  -7.4662
    -7.4638  -7.4595  -7.4550  -7.4243  -7.3814  -7.3330  -3.0811  -2.4173
    -2.1797  -2.1395  -1.8640  -0.9849  -0.7920  -0.7849  -0.4297  -0.2055
    -0.0268   0.1307   0.3226   0.3556   0.6781   1.1069   1.2152   1.3104
     1.4752   1.6061   1.8169   1.9552   1.9775   2.0366   2.1038   2.1148
     2.1611   2.2123   2.2667

          k = 0.0604-0.0966 0.0000 ( 53726 PWs)   bands (ev):

   -32.6001 -32.5766 -32.5626 -32.5394 -32.1950 -32.1681 -16.3673 -16.3388
   -16.3124 -16.3094 -16.2911 -16.2709 -16.2404 -16.2270 -16.2165 -16.1700
   -16.0383 -15.9727 -15.9448 -15.8020 -15.7915 -15.7764 -15.7488 -15.6664
    -7.6393  -7.6178  -7.6089  -7.6055  -7.5944  -7.5930  -7.5817  -7.5813
    -7.5778  -7.5746  -7.5596  -7.5573  -7.5562  -7.5534  -7.5510  -7.5491
    -7.5477  -7.5239  -7.4938  -7.4880  -7.4849  -7.4746  -7.4725  -7.4648
    -7.4640  -7.4612  -7.4551  -7.4272  -7.3805  -7.3364  -2.8961  -2.5425
    -2.2058  -2.0850  -1.8705  -0.9692  -0.8905  -0.6865  -0.3657  -0.2780
    -0.0540   0.0791   0.2635   0.4128   0.5966   1.1351   1.2197   1.2836
     1.4547   1.5843   1.8316   1.9381   1.9655   1.9836   2.0434   2.1434
     2.1866   2.1917   2.2072

          k = 0.0604-0.0839 0.0000 ( 53748 PWs)   bands (ev):

   -32.5988 -32.5779 -32.5614 -32.5407 -32.1937 -32.1694 -16.3651 -16.3209
   -16.3065 -16.2948 -16.2927 -16.2699 -16.2396 -16.2242 -16.2213 -16.1708
   -16.0196 -15.9918 -15.9640 -15.7994 -15.7943 -15.7739 -15.7508 -15.6867
    -7.6325  -7.6106  -7.6106  -7.6024  -7.5941  -7.5917  -7.5837  -7.5832
    -7.5806  -7.5746  -7.5637  -7.5610  -7.5582  -7.5523  -7.5494  -7.5476
    -7.5475  -7.5274  -7.4941  -7.4910  -7.4871  -7.4744  -7.4733  -7.4687
    -7.4671  -7.4600  -7.4589  -7.4275  -7.3804  -7.3456  -2.7370  -2.6337
    -2.4025  -2.0558  -1.9567  -1.1499  -0.8481  -0.4707  -0.2754  -0.2404
     0.0738   0.1713   0.2918   0.5617   0.6528   1.1453   1.2530   1.3097
     1.4417   1.6082   1.7717   1.8730   1.9362   1.9856   2.0345   2.0758
     2.1689   2.1737   2.2459

          k = 0.0604-0.0712 0.0000 ( 53852 PWs)   bands (ev):

   -32.5969 -32.5799 -32.5594 -32.5427 -32.1916 -32.1715 -16.3599 -16.3015
   -16.2966 -16.2911 -16.2661 -16.2656 -16.2460 -16.2213 -16.2197 -16.1745
   -16.0218 -15.9944 -15.9897 -15.7971 -15.7960 -15.7706 -15.7532 -15.7183
    -7.6227  -7.6123  -7.6021  -7.5998  -7.5971  -7.5935  -7.5885  -7.5866
    -7.5804  -7.5788  -7.5737  -7.5653  -7.5606  -7.5507  -7.5503  -7.5489
    -7.5475  -7.5325  -7.5064  -7.4900  -7.4871  -7.4829  -7.4780  -7.4723
    -7.4721  -7.4646  -7.4526  -7.4251  -7.3815  -7.3596  -2.8026  -2.6455
    -2.4923  -2.0941  -2.0935  -1.3916  -0.6694  -0.1934  -0.1803  -0.1353
     0.1333   0.4541   0.5005   0.6092   0.9389   1.1305   1.3113   1.3758
     1.4381   1.5533   1.6654   1.8983   1.9470   1.9509   2.0120   2.0310
     2.1109   2.1456   2.1830

          k = 0.0604-0.0584 0.0000 ( 53847 PWs)   bands (ev):

   -32.5943 -32.5825 -32.5569 -32.5453 -32.1888 -32.1744 -16.3519 -16.3005
   -16.2955 -16.2593 -16.2592 -16.2512 -16.2268 -16.2187 -16.2141 -16.1810
   -16.0607 -16.0338 -15.9504 -15.7996 -15.7923 -15.7669 -15.7589 -15.7561
    -7.6144  -7.6139  -7.6069  -7.6060  -7.5949  -7.5946  -7.5886  -7.5883
    -7.5847  -7.5835  -7.5773  -7.5678  -7.5617  -7.5523  -7.5517  -7.5491
    -7.5487  -7.5378  -7.5227  -7.5011  -7.4906  -7.4884  -7.4827  -7.4780
    -7.4715  -7.4695  -7.4419  -7.4201  -7.3860  -7.3752  -2.8815  -2.8748
    -2.3425  -2.2415  -2.1538  -1.6158  -0.4087  -0.0513  -0.0087   0.1112
     0.2487   0.6545   0.6930   0.8117   1.0958   1.2620   1.3104   1.3471
     1.4488   1.4575   1.7173   1.8370   1.9247   1.9691   1.9831   2.0218
     2.0530   2.1612   2.2141

          k = 0.0604-0.0457 0.0000 ( 53869 PWs)   bands (ev):

   -32.5914 -32.5855 -32.5539 -32.5483 -32.1855 -32.1777 -16.3419 -16.3060
   -16.2896 -16.2698 -16.2492 -16.2195 -16.2081 -16.2056 -16.1911 -16.1798
   -16.1058 -16.0794 -15.9043 -15.8063 -15.8016 -15.7887 -15.7623 -15.7595
    -7.6238  -7.6207  -7.6110  -7.6037  -7.6003  -7.5999  -7.5893  -7.5891
    -7.5840  -7.5816  -7.5773  -7.5627  -7.5611  -7.5571  -7.5531  -7.5498
    -7.5480  -7.5405  -7.5393  -7.5199  -7.4988  -7.4945  -7.4805  -7.4805
    -7.4738  -7.4708  -7.4286  -7.4129  -7.4012  -7.3833  -3.0855  -2.9054
    -2.3722  -2.2617  -2.1629  -1.8000  -0.1227   0.1176   0.1372   0.3790
     0.4186   0.6690   0.8994   0.9984   1.0136   1.0794   1.3407   1.4399
     1.5274   1.5454   1.7243   1.7663   1.9314   1.9444   1.9985   2.0264
     2.1084   2.1789   2.2014

          k = 0.0604-0.0329 0.0000 ( 53908 PWs)   bands (ev):

   -32.5887 -32.5882 -32.5515 -32.5508 -32.1820 -32.1813 -16.3306 -16.3133
   -16.2844 -16.2809 -16.2367 -16.2187 -16.2028 -16.2019 -16.1570 -16.1539
   -16.1312 -16.1280 -15.8561 -15.8545 -15.8030 -15.7859 -15.7633 -15.7579
    -7.6338  -7.6277  -7.6135  -7.6114  -7.6068  -7.5962  -7.5899  -7.5893
    -7.5829  -7.5804  -7.5745  -7.5687  -7.5610  -7.5587  -7.5510  -7.5508
    -7.5478  -7.5453  -7.5373  -7.5349  -7.5064  -7.4991  -7.4816  -7.4776
    -7.4769  -7.4706  -7.4204  -7.4150  -7.4028  -7.3884  -3.2452  -2.8889
    -2.4695  -2.2667  -2.0742  -1.9405   0.1384   0.2482   0.2722   0.5748
     0.6007   0.6456   0.8184   0.8668   0.9543   1.0614   1.4539   1.4885
     1.5809   1.5884   1.6468   1.7121   1.9570   2.0026   2.0993   2.1013
     2.1229   2.1639   2.1948

          k =-0.0725 0.0242 0.0000 ( 53906 PWs)   bands (ev):

   -32.5886 -32.5883 -32.5512 -32.5511 -32.1816 -32.1816 -16.3212 -16.3210
   -16.2855 -16.2855 -16.2216 -16.2215 -16.2070 -16.2069 -16.1555 -16.1552
   -16.1296 -16.1295 -15.8553 -15.8553 -15.7939 -15.7939 -15.7609 -15.7608
    -7.6332  -7.6332  -7.6128  -7.6128  -7.6030  -7.6030  -7.5885  -7.5885
    -7.5808  -7.5808  -7.5719  -7.5719  -7.5584  -7.5584  -7.5507  -7.5507
    -7.5469  -7.5469  -7.5354  -7.5354  -7.5048  -7.5048  -7.4785  -7.4785
    -7.4731  -7.4731  -7.4156  -7.4156  -7.3970  -7.3969  -3.0862  -3.0862
    -2.3682  -2.3682  -1.9790  -1.9789   0.2129   0.2129   0.3511   0.3511
     0.6945   0.6945   0.7356   0.7356   0.9875   0.9875   1.5226   1.5226
     1.5541   1.5541   1.6408   1.6408   2.0575   2.0584   2.1109   2.1121
     2.1437   2.1444   2.1783

          k =-0.0725 0.0370 0.0000 ( 53894 PWs)   bands (ev):

   -32.5916 -32.5853 -32.5542 -32.5480 -32.1852 -32.1780 -16.3328 -16.3106
   -16.2913 -16.2783 -16.2350 -16.2135 -16.2108 -16.2026 -16.2014 -16.1781
   -16.1066 -16.0804 -15.9048 -15.8056 -15.7949 -15.7930 -15.7649 -15.7571
    -7.6310  -7.6293  -7.6108  -7.6086  -7.6044  -7.6041  -7.5905  -7.5899
    -7.5844  -7.5808  -7.5750  -7.5638  -7.5618  -7.5598  -7.5563  -7.5500
    -7.5490  -7.5409  -7.5358  -7.5198  -7.5039  -7.5011  -7.4820  -7.4762
    -7.4731  -7.4719  -7.4316  -7.4043  -7.3996  -7.3883  -3.1487  -2.9730
    -2.3798  -2.3157  -2.0730  -1.8573   0.1021   0.1486   0.1622   0.4450
     0.4747   0.5531   0.8779   0.9451   0.9695   1.0535   1.3591   1.4946
     1.5106   1.6394   1.6711   1.6908   2.0135   2.0363   2.0603   2.0982
     2.1263   2.1326   2.1784

          k =-0.0725 0.0497 0.0000 ( 53872 PWs)   bands (ev):

   -32.5945 -32.5824 -32.5571 -32.5451 -32.1885 -32.1746 -16.3444 -16.3025
   -16.2965 -16.2697 -16.2505 -16.2480 -16.2251 -16.2152 -16.2075 -16.1909
   -16.0610 -16.0343 -15.9507 -15.7970 -15.7924 -15.7695 -15.7576 -15.7538
    -7.6235  -7.6213  -7.6104  -7.6061  -7.6036  -7.6006  -7.5945  -7.5934
    -7.5853  -7.5819  -7.5748  -7.5674  -7.5608  -7.5586  -7.5575  -7.5500
    -7.5485  -7.5383  -7.5204  -7.5031  -7.4976  -7.4943  -7.4852  -7.4755
    -7.4729  -7.4687  -7.4447  -7.4113  -7.3899  -7.3743  -3.1586  -2.8134
    -2.3529  -2.2251  -2.1541  -1.6972  -0.1482  -0.0529   0.0310   0.1760
     0.3398   0.5342   0.9005   0.9161   1.0289   1.1837   1.3145   1.4345
     1.4602   1.5215   1.7278   1.7439   1.9446   2.0287   2.0414   2.0707
     2.1214   2.1488   2.1548

          k =-0.0725 0.0625 0.0000 ( 53846 PWs)   bands (ev):

   -32.5970 -32.5798 -32.5596 -32.5426 -32.1914 -32.1717 -16.3545 -16.3015
   -16.2972 -16.2896 -16.2650 -16.2588 -16.2577 -16.2199 -16.2092 -16.1816
   -16.0218 -15.9946 -15.9898 -15.7989 -15.7919 -15.7724 -15.7514 -15.7174
    -7.6246  -7.6137  -7.6079  -7.6064  -7.6015  -7.5999  -7.5911  -7.5880
    -7.5845  -7.5806  -7.5784  -7.5641  -7.5601  -7.5573  -7.5530  -7.5515
    -7.5478  -7.5329  -7.5054  -7.4928  -7.4885  -7.4880  -7.4832  -7.4731
    -7.4726  -7.4652  -7.4538  -7.4179  -7.3849  -7.3583  -3.1162  -2.6160
    -2.3153  -2.2199  -2.1058  -1.4926  -0.4310  -0.2245  -0.1452  -0.0915
     0.2065   0.5027   0.6666   0.6815   1.0888   1.1732   1.3045   1.4020
     1.4384   1.4742   1.7004   1.8404   1.9513   1.9955   2.0561   2.0650
     2.1208   2.1707   2.1927

          k =-0.0725 0.0752 0.0000 ( 53813 PWs)   bands (ev):

   -32.5989 -32.5779 -32.5615 -32.5406 -32.1936 -32.1695 -16.3623 -16.3200
   -16.3061 -16.2943 -16.2926 -16.2665 -16.2487 -16.2241 -16.2124 -16.1744
   -16.0196 -15.9917 -15.9640 -15.8007 -15.7917 -15.7748 -15.7497 -15.6862
    -7.6334  -7.6129  -7.6092  -7.6037  -7.6003  -7.5911  -7.5898  -7.5842
    -7.5805  -7.5790  -7.5690  -7.5600  -7.5586  -7.5540  -7.5530  -7.5497
    -7.5481  -7.5276  -7.4941  -7.4911  -7.4873  -7.4812  -7.4735  -7.4694
    -7.4680  -7.4628  -7.4579  -7.4235  -7.3820  -7.3451  -3.0254  -2.3994
    -2.3967  -2.1698  -1.9766  -1.2436  -0.6931  -0.4425  -0.3307  -0.2066
     0.1166   0.3156   0.4450   0.4542   0.8531   1.1150   1.2623   1.3441
     1.4624   1.6419   1.6652   1.9347   1.9608   1.9813   2.0192   2.0924
     2.1710   2.1883   2.2099

          k =-0.0725 0.0879 0.0000 ( 53726 PWs)   bands (ev):

   -32.6001 -32.5766 -32.5626 -32.5394 -32.1950 -32.1681 -16.3673 -16.3388
   -16.3124 -16.3094 -16.2911 -16.2709 -16.2404 -16.2270 -16.2165 -16.1700
   -16.0383 -15.9727 -15.9448 -15.8020 -15.7915 -15.7764 -15.7488 -15.6664
    -7.6393  -7.6178  -7.6089  -7.6055  -7.5944  -7.5930  -7.5817  -7.5813
    -7.5778  -7.5746  -7.5596  -7.5573  -7.5562  -7.5534  -7.5510  -7.5491
    -7.5477  -7.5239  -7.4938  -7.4880  -7.4849  -7.4746  -7.4725  -7.4648
    -7.4640  -7.4612  -7.4551  -7.4272  -7.3805  -7.3364  -2.8961  -2.5425
    -2.2058  -2.0850  -1.8705  -0.9692  -0.8905  -0.6865  -0.3657  -0.2780
    -0.0540   0.0791   0.2635   0.4128   0.5966   1.1351   1.2197   1.2836
     1.4547   1.5843   1.8318   1.9394   1.9659   1.9832   2.0432   2.1433
     2.1748   2.1842   2.1973

          k =-0.0725-0.0522 0.0000 ( 53726 PWs)   bands (ev):

   -32.6005 -32.5762 -32.5630 -32.5390 -32.1954 -32.1676 -16.3690 -16.3452
   -16.3188 -16.3107 -16.2904 -16.2723 -16.2365 -16.2280 -16.2189 -16.1685
   -16.0446 -15.9663 -15.9382 -15.8025 -15.7914 -15.7769 -15.7485 -15.6596
    -7.6413  -7.6196  -7.6088  -7.6062  -7.5941  -7.5925  -7.5799  -7.5796
    -7.5761  -7.5726  -7.5573  -7.5567  -7.5535  -7.5529  -7.5504  -7.5497
    -7.5470  -7.5227  -7.4943  -7.4884  -7.4824  -7.4723  -7.4720  -7.4650
    -7.4638  -7.4582  -7.4533  -7.4285  -7.3800  -7.3334  -2.7841  -2.6617
    -2.1201  -2.0457  -1.8283  -0.9675  -0.8444  -0.7276  -0.3665  -0.3239
    -0.2548   0.0742   0.1912   0.3955   0.4943   1.1482   1.2022   1.2557
     1.4517   1.5613   1.8562   1.9307   1.9612   2.0537   2.0902   2.0931
     2.1920   2.2180   2.2242

     the Fermi energy is     1.1454 ev

!    total energy              =   -1371.52667638 Ry
     estimated scf accuracy    <       0.00000673 Ry
     smearing contrib. (-TS)   =      -0.07112746 Ry
     internal energy E=F+TS    =   -1371.45554892 Ry

     The total energy is F=E-TS. E is the sum of the following terms:
     one-electron contribution =   -5881.44100954 Ry
     hartree contribution      =    2988.42180549 Ry
     xc contribution           =    -589.74009278 Ry
     ewald contribution        =    2111.30374662 Ry
     electric field correction =       0.00000128 Ry

     convergence has been achieved in  21 iterations

     negative rho (up, down):  2.775E-03 0.000E+00

     Forces acting on atoms (cartesian axes, Ry/au):

     atom    1 type  1   force =     0.00130996    0.00094365    0.00902797
     atom    2 type  1   force =     0.00130646    0.00094884    0.00901515
     atom    3 type  2   force =     0.00034960    0.00025041    0.00111616
     atom    4 type  2   force =     0.00035976    0.00025384    0.00111536
     atom    5 type  1   force =    -0.00022942   -0.00016039   -0.00266729
     atom    6 type  1   force =    -0.00026451   -0.00019111   -0.00266049
     atom    7 type  2   force =    -0.00008815   -0.00009884   -0.00565265
     atom    8 type  2   force =    -0.00011678   -0.00004814   -0.00564538
     atom    9 type  1   force =    -0.00014339   -0.00010090   -0.00108940
     atom   10 type  1   force =    -0.00015135   -0.00011009   -0.00110800
     atom   11 type  2   force =    -0.00116586   -0.00085231   -0.00072987
     atom   12 type  2   force =    -0.00116630   -0.00083497   -0.00072156

     Total force =     0.016024     Total SCF correction =     0.012752
     SCF correction compared to forces is large: reduce conv_thr to get better values

     Writing output data file ./La2Cd2/La2Cd2_beef.save/

     init_run     :    384.56s CPU    386.06s WALL (       1 calls)
     electrons    :  13793.94s CPU  13855.39s WALL (       1 calls)
     forces       :    162.31s CPU    163.03s WALL (       1 calls)

     Called by init_run:
     wfcinit      :    363.06s CPU    363.84s WALL (       1 calls)
     potinit      :     10.97s CPU     11.16s WALL (       1 calls)
     hinit0       :      3.64s CPU      3.67s WALL (       1 calls)

     Called by electrons:
     c_bands      :  12443.57s CPU  12475.96s WALL (      21 calls)
     sum_band     :   1181.54s CPU   1196.54s WALL (      21 calls)
     v_of_rho     :     72.65s CPU     76.15s WALL (      22 calls)
     newd         :    105.94s CPU    116.53s WALL (      22 calls)
     mix_rho      :      2.73s CPU      2.80s WALL (      21 calls)
     vdW_kernel   :      6.17s CPU      6.18s WALL (       1 calls)

     Called by c_bands:
     init_us_2    :     40.09s CPU     40.39s WALL (    3256 calls)
     cegterg      :  12325.25s CPU  12354.68s WALL (    1656 calls)

     Called by *egterg:
     cdiaghg      :    337.62s CPU    338.26s WALL (   17660 calls)
     h_psi        :   5868.56s CPU   5889.11s WALL (   17734 calls)
     s_psi        :   2004.63s CPU   2006.77s WALL (   17734 calls)
     g_psi        :      4.64s CPU      4.72s WALL (   16004 calls)

     Called by h_psi:
     h_psi:calbec :   2348.81s CPU   2352.33s WALL (   17734 calls)
     vloc_psi     :   1483.04s CPU   1497.56s WALL (   17734 calls)
     add_vuspsi   :   2021.56s CPU   2023.81s WALL (   17734 calls)

     General routines
     calbec       :   3226.76s CPU   3231.56s WALL (   19584 calls)
     fft          :     54.31s CPU     56.16s WALL (    1445 calls)
     ffts         :      0.29s CPU      0.31s WALL (      43 calls)
     fftw         :   1576.16s CPU   1592.05s WALL (  944750 calls)
     interpolate  :      1.08s CPU      1.11s WALL (      22 calls)

     Parallel routines
     fft_scatt_xy :    156.35s CPU    157.50s WALL (  946238 calls)
     fft_scatt_yz :    608.59s CPU    617.26s WALL (  946238 calls)

     PWSCF        :      3h59m CPU      4h 0m WALL


   This run was terminated on:  16:51: 4  24Jun2022            

=------------------------------------------------------------------------------=
   JOB DONE.
=------------------------------------------------------------------------------=
