
     Program PWSCF v.6.6 starts on 24Jun2022 at 19:26:50 

     This program is part of the open-source Quantum ESPRESSO suite
     for quantum simulation of materials; please cite
         "P. Giannozzi et al., J. Phys.:Condens. Matter 21 395502 (2009);
         "P. Giannozzi et al., J. Phys.:Condens. Matter 29 465901 (2017);
          URL http://www.quantum-espresso.org", 
     in publications or presentations arising from this work. More details at
     http://www.quantum-espresso.org/quote

     Parallel version (MPI), running on    37 processors

     MPI processes distributed on     1 nodes
     R & G space division:  proc/nbgrp/npool/nimage =      37
     Fft bands division:     nmany     =       1
     Reading input from La2Hg2.in
Warning: card &CELL ignored
Warning: card / ignored

     Current dimensions of program PWSCF are:
     Max number of different atomic species (ntypx) = 10
     Max number of k-points (npk) =  40000
     Max angular momentum in pseudopotentials (lmaxx) =  3
     Presently stress not available with electric field and gates

     Message from routine cell_base_init:
     DEPRECATED: use true lattice parameter, not A to a.u. conversion factor
     file La.pbe-spfn-rrkjus_psl.1.0.0.UPF: wavefunction(s)  4F renormalized
     file Hg.pbe-n-rrkjus_psl.1.0.0.UPF: wavefunction(s)  6S renormalized

     **************************************************************************
     Initializing libbeef V0.1.2 with the BEEF-vdW functional.
     Citation: Wellendorff et al., PRB 85, 235149 (2012).
     **************************************************************************


     IMPORTANT: XC functional enforced from input :
     Exchange-correlation= BEEF-VDW
                           (   1   4  43  14   2   0   0)
     Any further DFT definition will be discarded
     Please, verify this is what you really want


     Subspace diagonalization in iterative solution of the eigenvalue problem:
     a serial algorithm will be used


     Parallelization info
     --------------------
     sticks:   dense  smooth     PW     G-vecs:    dense   smooth      PW
     Min         186      74     20                45016    11384    1650
     Max         187      75     21                45041    11403    1663
     Sum        6917    2767    769              1666273   421699   61357



     bravais-lattice index     =            0
     lattice parameter (alat)  =       1.8897  a.u.
     unit-cell volume          =    7623.8762 (a.u.)^3
     number of atoms/cell      =           12
     number of atomic types    =            2
     number of electrons       =       138.00
     number of Kohn-Sham states=           83
     kinetic-energy cutoff     =      55.1240  Ry
     charge density cutoff     =     551.2396  Ry
     convergence threshold     =      1.0E-05
     mixing beta               =       0.1000
     number of iterations used =           10  plain     mixing
     Exchange-correlation= BEEF-VDW
                           (   1   4  43  14   2   0   0)

     celldm(1)=   1.889726  celldm(2)=   0.000000  celldm(3)=   0.000000
     celldm(4)=   0.000000  celldm(5)=   0.000000  celldm(6)=   0.000000

     crystal axes: (cart. coord. in units of alat)
               a(1) = (   6.845099   0.000000   0.000000 )  
               a(2) = (   2.295412   6.448757   0.000000 )  
               a(3) = (   0.000000   0.000000  25.593140 )  

     reciprocal axes: (cart. coord. in units 2 pi/alat)
               b(1) = (  0.146090 -0.052000  0.000000 )  
               b(2) = (  0.000000  0.155069  0.000000 )  
               b(3) = (  0.000000  0.000000  0.039073 )  


     PseudoPot. # 1 for La read from file:
     ../pseudo/La.pbe-spfn-rrkjus_psl.1.0.0.UPF
     MD5 check sum: e3bc141c2ecb461b8d0a035ce9ac970e
     Pseudo is Ultrasoft + core correction, Zval = 11.0
     Generated using "atomic" code by A. Dal Corso v.6.2.2
     Using radial grid of 1253 points,  8 beta functions with: 
                l(1) =   0
                l(2) =   0
                l(3) =   1
                l(4) =   1
                l(5) =   2
                l(6) =   2
                l(7) =   3
                l(8) =   3
     Q(r) pseudized with 0 coefficients 


     PseudoPot. # 2 for Hg read from file:
     ../pseudo/Hg.pbe-n-rrkjus_psl.1.0.0.UPF
     MD5 check sum: 7519ac2e5b9cac440d3cfd4127d6ea3c
     Pseudo is Ultrasoft + core correction, Zval = 12.0
     Generated using "atomic" code by A. Dal Corso v.6.3
     Using radial grid of 1279 points,  6 beta functions with: 
                l(1) =   0
                l(2) =   0
                l(3) =   1
                l(4) =   1
                l(5) =   2
                l(6) =   2
     Q(r) pseudized with 0 coefficients 


     atomic species   valence    mass     pseudopotential
        La            11.00   138.90547     La( 1.00)
        Hg            12.00   200.59200     Hg( 1.00)

     No symmetry found



   Cartesian axes

     site n.     atom                  positions (alat units)
         1           La  tau(   1) = (   0.0000000   0.0000000  10.0000000  )
         2           La  tau(   2) = (   4.5702556   3.2243784  10.0000000  )
         3           Hg  tau(   3) = (   3.4225496   0.0000000  10.0000000  )
         4           Hg  tau(   4) = (   1.1477061   3.2243784  10.0000000  )
         5           La  tau(   5) = (   6.8450991   4.8293119  12.7965702  )
         6           La  tau(   6) = (   2.2748435   1.6049334  12.7965702  )
         7           Hg  tau(   7) = (   3.4225496   4.8293119  12.7965702  )
         8           Hg  tau(   8) = (   5.6973930   1.6049334  12.7965702  )
         9           La  tau(   9) = (   4.5520598   3.2115273  15.5135559  )
        10           La  tau(  10) = (   9.1223091   6.4359137  15.5135646  )
        11           Hg  tau(  11) = (   7.9728728   3.2103704  15.5714350  )
        12           Hg  tau(  12) = (   5.6980895   6.4346850  15.5714567  )

     number of k points=    74  Fermi-Dirac smearing, width (Ry)=  0.0100
                       cart. coord. in units 2pi/alat
        k(    1) = (   0.0000000   0.0000000   0.0000000), wk =   0.0138889
        k(    2) = (   0.0000000   0.0129224   0.0000000), wk =   0.0277778
        k(    3) = (   0.0000000   0.0258448   0.0000000), wk =   0.0277778
        k(    4) = (   0.0000000   0.0387672   0.0000000), wk =   0.0277778
        k(    5) = (   0.0000000   0.0516895   0.0000000), wk =   0.0277778
        k(    6) = (   0.0000000   0.0646119   0.0000000), wk =   0.0277778
        k(    7) = (   0.0000000  -0.0775343   0.0000000), wk =   0.0138889
        k(    8) = (   0.0121742  -0.0043333   0.0000000), wk =   0.0277778
        k(    9) = (   0.0121742   0.0085890   0.0000000), wk =   0.0277778
        k(   10) = (   0.0121742   0.0215114   0.0000000), wk =   0.0277778
        k(   11) = (   0.0121742   0.0344338   0.0000000), wk =   0.0277778
        k(   12) = (   0.0121742   0.0473562   0.0000000), wk =   0.0277778
        k(   13) = (   0.0121742   0.0602786   0.0000000), wk =   0.0277778
        k(   14) = (   0.0121742  -0.0818677   0.0000000), wk =   0.0277778
        k(   15) = (   0.0121742  -0.0689453   0.0000000), wk =   0.0277778
        k(   16) = (   0.0121742  -0.0560229   0.0000000), wk =   0.0277778
        k(   17) = (   0.0121742  -0.0431005   0.0000000), wk =   0.0277778
        k(   18) = (   0.0121742  -0.0301781   0.0000000), wk =   0.0277778
        k(   19) = (   0.0121742  -0.0172557   0.0000000), wk =   0.0277778
        k(   20) = (   0.0243483  -0.0086667   0.0000000), wk =   0.0277778
        k(   21) = (   0.0243483   0.0042557   0.0000000), wk =   0.0277778
        k(   22) = (   0.0243483   0.0171781   0.0000000), wk =   0.0277778
        k(   23) = (   0.0243483   0.0301005   0.0000000), wk =   0.0277778
        k(   24) = (   0.0243483   0.0430229   0.0000000), wk =   0.0277778
        k(   25) = (   0.0243483   0.0559452   0.0000000), wk =   0.0277778
        k(   26) = (   0.0243483  -0.0862010   0.0000000), wk =   0.0277778
        k(   27) = (   0.0243483  -0.0732786   0.0000000), wk =   0.0277778
        k(   28) = (   0.0243483  -0.0603562   0.0000000), wk =   0.0277778
        k(   29) = (   0.0243483  -0.0474339   0.0000000), wk =   0.0277778
        k(   30) = (   0.0243483  -0.0345115   0.0000000), wk =   0.0277778
        k(   31) = (   0.0243483  -0.0215891   0.0000000), wk =   0.0277778
        k(   32) = (   0.0365225  -0.0130000   0.0000000), wk =   0.0277778
        k(   33) = (   0.0365225  -0.0000777   0.0000000), wk =   0.0277778
        k(   34) = (   0.0365225   0.0128447   0.0000000), wk =   0.0277778
        k(   35) = (   0.0365225   0.0257671   0.0000000), wk =   0.0277778
        k(   36) = (   0.0365225   0.0386895   0.0000000), wk =   0.0277778
        k(   37) = (   0.0365225   0.0516119   0.0000000), wk =   0.0277778
        k(   38) = (   0.0365225  -0.0905344   0.0000000), wk =   0.0277778
        k(   39) = (   0.0365225  -0.0776120   0.0000000), wk =   0.0277778
        k(   40) = (   0.0365225  -0.0646896   0.0000000), wk =   0.0277778
        k(   41) = (   0.0365225  -0.0517672   0.0000000), wk =   0.0277778
        k(   42) = (   0.0365225  -0.0388448   0.0000000), wk =   0.0277778
        k(   43) = (   0.0365225  -0.0259224   0.0000000), wk =   0.0277778
        k(   44) = (   0.0486966  -0.0173334   0.0000000), wk =   0.0277778
        k(   45) = (   0.0486966  -0.0044110   0.0000000), wk =   0.0277778
        k(   46) = (   0.0486966   0.0085114   0.0000000), wk =   0.0277778
        k(   47) = (   0.0486966   0.0214338   0.0000000), wk =   0.0277778
        k(   48) = (   0.0486966   0.0343562   0.0000000), wk =   0.0277778
        k(   49) = (   0.0486966   0.0472785   0.0000000), wk =   0.0277778
        k(   50) = (   0.0486966  -0.0948677   0.0000000), wk =   0.0277778
        k(   51) = (   0.0486966  -0.0819453   0.0000000), wk =   0.0277778
        k(   52) = (   0.0486966  -0.0690229   0.0000000), wk =   0.0277778
        k(   53) = (   0.0486966  -0.0561006   0.0000000), wk =   0.0277778
        k(   54) = (   0.0486966  -0.0431782   0.0000000), wk =   0.0277778
        k(   55) = (   0.0486966  -0.0302558   0.0000000), wk =   0.0277778
        k(   56) = (   0.0608708  -0.0216667   0.0000000), wk =   0.0277778
        k(   57) = (   0.0608708  -0.0087444   0.0000000), wk =   0.0277778
        k(   58) = (   0.0608708   0.0041780   0.0000000), wk =   0.0277778
        k(   59) = (   0.0608708   0.0171004   0.0000000), wk =   0.0277778
        k(   60) = (   0.0608708   0.0300228   0.0000000), wk =   0.0277778
        k(   61) = (   0.0608708   0.0429452   0.0000000), wk =   0.0277778
        k(   62) = (   0.0608708  -0.0992011   0.0000000), wk =   0.0277778
        k(   63) = (   0.0608708  -0.0862787   0.0000000), wk =   0.0277778
        k(   64) = (   0.0608708  -0.0733563   0.0000000), wk =   0.0277778
        k(   65) = (   0.0608708  -0.0604339   0.0000000), wk =   0.0277778
        k(   66) = (   0.0608708  -0.0475115   0.0000000), wk =   0.0277778
        k(   67) = (   0.0608708  -0.0345891   0.0000000), wk =   0.0277778
        k(   68) = (  -0.0730450   0.0260001   0.0000000), wk =   0.0138889
        k(   69) = (  -0.0730450   0.0389225   0.0000000), wk =   0.0277778
        k(   70) = (  -0.0730450   0.0518449   0.0000000), wk =   0.0277778
        k(   71) = (  -0.0730450   0.0647673   0.0000000), wk =   0.0277778
        k(   72) = (  -0.0730450   0.0776896   0.0000000), wk =   0.0277778
        k(   73) = (  -0.0730450   0.0906120   0.0000000), wk =   0.0277778
        k(   74) = (  -0.0730450  -0.0515342   0.0000000), wk =   0.0138889

     Dense  grid:  1666273 G-vectors     FFT dimensions: ( 100, 100, 375)

     Smooth grid:   421699 G-vectors     FFT dimensions: (  64,  64, 240)

     Estimated max dynamical RAM per process >     573.70 MB

     Estimated total dynamical RAM >      20.73 GB

     Initial potential from superposition of free atoms

     starting charge  137.82077, renormalised to  138.00000

     negative rho (up, down):  1.458E-03 0.000E+00


     %%%%%%%%%%%%%%%%%%%%%%%%%%%%%%%%%%%%%%%%%%%%%%%%%%%%%%%%%%%%%%%%%%%%%%%%
     %                                                                      %
     % You are using vdW-DF, which was implemented by the Thonhauser group. %
     % Please cite the following two papers that made this development      %
     % possible and the two reviews that describe the various versions:     %
     %                                                                      %
     %   T. Thonhauser et al., PRL 115, 136402 (2015).                      %
     %   T. Thonhauser et al., PRB 76, 125112 (2007).                       %
     %   K. Berland et al., Rep. Prog. Phys. 78, 066501 (2015).             %
     %   D.C. Langreth et al., J. Phys.: Condens. Matter 21, 084203 (2009). %
     %                                                                      %
     %                                                                      %
     % If you are calculating the stress with vdW-DF, please also cite:     %
     %                                                                      %
     %   R. Sabatini et al., J. Phys.: Condens. Matter 24, 424209 (2012).   %
     %                                                                      %
     %%%%%%%%%%%%%%%%%%%%%%%%%%%%%%%%%%%%%%%%%%%%%%%%%%%%%%%%%%%%%%%%%%%%%%%%



     Adding external electric field

     Computed dipole along edir(3) : 
        Dipole               -0.0034 Ry au,         -0.0086 Debye
        Dipole field         -0.0000 Ry au, 

        Potential amp.        0.0005 Ry
        Total length         47.1549 bohr

     Starting wfcs are  174 randomized atomic wfcs

     total cpu time spent up to now is      392.3 secs

     Self-consistent Calculation

     iteration #  1     ecut=    55.12 Ry     beta= 0.10
     Davidson diagonalization with overlap
     ethr =  1.00E-02,  avg # of iterations =  1.9

     negative rho (up, down):  1.361E-03 0.000E+00

     Adding external electric field

     Computed dipole along edir(3) : 
        Dipole               -0.1853 Ry au,         -0.4709 Debye
        Dipole field         -0.0003 Ry au, 

        Potential amp.        0.0288 Ry
        Total length         47.1549 bohr


     total cpu time spent up to now is      869.2 secs

     total energy              =   -1370.54315495 Ry
     estimated scf accuracy    <       4.60508462 Ry

     iteration #  2     ecut=    55.12 Ry     beta= 0.10
     Davidson diagonalization with overlap
     c_bands:  1 eigenvalues not converged
     c_bands:  1 eigenvalues not converged
     c_bands:  2 eigenvalues not converged
     c_bands:  1 eigenvalues not converged
     c_bands:  1 eigenvalues not converged
     c_bands:  1 eigenvalues not converged
     ethr =  3.34E-03,  avg # of iterations = 12.9

     negative rho (up, down):  1.311E-03 0.000E+00

     Adding external electric field

     Computed dipole along edir(3) : 
        Dipole                0.6485 Ry au,          1.6483 Debye
        Dipole field          0.0011 Ry au, 

        Potential amp.       -0.1008 Ry
        Total length         47.1549 bohr


     total cpu time spent up to now is     1560.1 secs

     total energy              =   -1370.83311463 Ry
     estimated scf accuracy    <       1.94835492 Ry

     iteration #  3     ecut=    55.12 Ry     beta= 0.10
     Davidson diagonalization with overlap
     c_bands:  1 eigenvalues not converged
     c_bands:  1 eigenvalues not converged
     c_bands:  1 eigenvalues not converged
     c_bands:  1 eigenvalues not converged
     c_bands:  1 eigenvalues not converged
     ethr =  1.41E-03,  avg # of iterations = 10.3

     negative rho (up, down):  1.369E-03 0.000E+00

     Adding external electric field

     Computed dipole along edir(3) : 
        Dipole               -0.0621 Ry au,         -0.1578 Debye
        Dipole field         -0.0001 Ry au, 

        Potential amp.        0.0096 Ry
        Total length         47.1549 bohr


     total cpu time spent up to now is     2114.6 secs

     total energy              =   -1370.82485603 Ry
     estimated scf accuracy    <       8.84668358 Ry

     iteration #  4     ecut=    55.12 Ry     beta= 0.10
     Davidson diagonalization with overlap
     ethr =  1.41E-03,  avg # of iterations =  1.7

     negative rho (up, down):  1.298E-03 0.000E+00

     Adding external electric field

     Computed dipole along edir(3) : 
        Dipole               -0.1420 Ry au,         -0.3609 Debye
        Dipole field         -0.0002 Ry au, 

        Potential amp.        0.0221 Ry
        Total length         47.1549 bohr


     total cpu time spent up to now is     2545.7 secs

     total energy              =   -1370.95539608 Ry
     estimated scf accuracy    <       0.25543828 Ry

     iteration #  5     ecut=    55.12 Ry     beta= 0.10
     Davidson diagonalization with overlap
     c_bands:  2 eigenvalues not converged
     c_bands:  1 eigenvalues not converged
     c_bands:  1 eigenvalues not converged
     c_bands:  1 eigenvalues not converged
     ethr =  1.85E-04,  avg # of iterations = 15.1

     negative rho (up, down):  1.213E-03 0.000E+00

     Adding external electric field

     Computed dipole along edir(3) : 
        Dipole                0.1247 Ry au,          0.3169 Debye
        Dipole field          0.0002 Ry au, 

        Potential amp.       -0.0194 Ry
        Total length         47.1549 bohr


     total cpu time spent up to now is     3332.4 secs

     total energy              =   -1371.01307884 Ry
     estimated scf accuracy    <       0.35323490 Ry

     iteration #  6     ecut=    55.12 Ry     beta= 0.10
     Davidson diagonalization with overlap
     ethr =  1.85E-04,  avg # of iterations =  2.4

     negative rho (up, down):  1.211E-03 0.000E+00

     Adding external electric field

     Computed dipole along edir(3) : 
        Dipole                0.1977 Ry au,          0.5025 Debye
        Dipole field          0.0003 Ry au, 

        Potential amp.       -0.0307 Ry
        Total length         47.1549 bohr


     total cpu time spent up to now is     3783.4 secs

     total energy              =   -1371.02771934 Ry
     estimated scf accuracy    <       0.15769461 Ry

     iteration #  7     ecut=    55.12 Ry     beta= 0.10
     Davidson diagonalization with overlap
     ethr =  1.14E-04,  avg # of iterations =  2.4

     negative rho (up, down):  1.371E-03 0.000E+00

     Adding external electric field

     Computed dipole along edir(3) : 
        Dipole               -0.0100 Ry au,         -0.0254 Debye
        Dipole field         -0.0000 Ry au, 

        Potential amp.        0.0016 Ry
        Total length         47.1549 bohr


     total cpu time spent up to now is     4231.5 secs

     total energy              =   -1371.01319910 Ry
     estimated scf accuracy    <       0.39199720 Ry

     iteration #  8     ecut=    55.12 Ry     beta= 0.10
     Davidson diagonalization with overlap
     ethr =  1.14E-04,  avg # of iterations =  2.6

     negative rho (up, down):  1.304E-03 0.000E+00

     Adding external electric field

     Computed dipole along edir(3) : 
        Dipole               -0.0025 Ry au,         -0.0063 Debye
        Dipole field         -0.0000 Ry au, 

        Potential amp.        0.0004 Ry
        Total length         47.1549 bohr


     total cpu time spent up to now is     4684.8 secs

     total energy              =   -1371.02362043 Ry
     estimated scf accuracy    <       0.00444352 Ry

     iteration #  9     ecut=    55.12 Ry     beta= 0.10
     Davidson diagonalization with overlap
     c_bands:  4 eigenvalues not converged
     c_bands:  4 eigenvalues not converged
     c_bands:  4 eigenvalues not converged
     c_bands:  4 eigenvalues not converged
     c_bands:  5 eigenvalues not converged
     c_bands:  5 eigenvalues not converged
     c_bands:  4 eigenvalues not converged
     c_bands:  1 eigenvalues not converged
     c_bands:  2 eigenvalues not converged
     c_bands:  5 eigenvalues not converged
     c_bands:  4 eigenvalues not converged
     c_bands:  4 eigenvalues not converged
     c_bands:  4 eigenvalues not converged
     c_bands:  3 eigenvalues not converged
     c_bands:  5 eigenvalues not converged
     c_bands:  2 eigenvalues not converged
     c_bands:  2 eigenvalues not converged
     c_bands:  3 eigenvalues not converged
     c_bands:  5 eigenvalues not converged
     c_bands:  5 eigenvalues not converged
     c_bands:  5 eigenvalues not converged
     c_bands:  5 eigenvalues not converged
     c_bands:  3 eigenvalues not converged
     c_bands:  4 eigenvalues not converged
     c_bands:  3 eigenvalues not converged
     c_bands:  2 eigenvalues not converged
     c_bands:  4 eigenvalues not converged
     c_bands:  3 eigenvalues not converged
     c_bands:  4 eigenvalues not converged
     c_bands:  5 eigenvalues not converged
     c_bands:  5 eigenvalues not converged
     c_bands:  2 eigenvalues not converged
     c_bands:  3 eigenvalues not converged
     c_bands:  2 eigenvalues not converged
     c_bands:  5 eigenvalues not converged
     c_bands:  4 eigenvalues not converged
     c_bands:  2 eigenvalues not converged
     c_bands:  4 eigenvalues not converged
     c_bands:  2 eigenvalues not converged
     c_bands:  4 eigenvalues not converged
     c_bands:  4 eigenvalues not converged
     c_bands:  5 eigenvalues not converged
     c_bands:  4 eigenvalues not converged
     c_bands:  2 eigenvalues not converged
     c_bands:  3 eigenvalues not converged
     c_bands:  3 eigenvalues not converged
     c_bands:  2 eigenvalues not converged
     c_bands:  3 eigenvalues not converged
     c_bands:  2 eigenvalues not converged
     c_bands:  4 eigenvalues not converged
     c_bands:  5 eigenvalues not converged
     c_bands:  4 eigenvalues not converged
     c_bands:  3 eigenvalues not converged
     c_bands:  2 eigenvalues not converged
     c_bands:  2 eigenvalues not converged
     c_bands:  2 eigenvalues not converged
     c_bands:  3 eigenvalues not converged
     c_bands:  2 eigenvalues not converged
     c_bands:  4 eigenvalues not converged
     c_bands:  5 eigenvalues not converged
     c_bands:  5 eigenvalues not converged
     c_bands:  2 eigenvalues not converged
     c_bands:  2 eigenvalues not converged
     c_bands:  3 eigenvalues not converged
     c_bands:  4 eigenvalues not converged
     ethr =  3.22E-06,  avg # of iterations = 47.0

     negative rho (up, down):  1.213E-03 0.000E+00

     Adding external electric field

     Computed dipole along edir(3) : 
        Dipole                0.0122 Ry au,          0.0310 Debye
        Dipole field          0.0000 Ry au, 

        Potential amp.       -0.0019 Ry
        Total length         47.1549 bohr


     total cpu time spent up to now is     7461.6 secs

     total energy              =   -1371.03326941 Ry
     estimated scf accuracy    <       0.01381783 Ry

     iteration # 10     ecut=    55.12 Ry     beta= 0.10
     Davidson diagonalization with overlap
     c_bands:  1 eigenvalues not converged
     c_bands:  1 eigenvalues not converged
     c_bands:  2 eigenvalues not converged
     c_bands:  5 eigenvalues not converged
     c_bands:  4 eigenvalues not converged
     c_bands:  3 eigenvalues not converged
     c_bands:  1 eigenvalues not converged
     c_bands:  1 eigenvalues not converged
     c_bands:  3 eigenvalues not converged
     c_bands:  2 eigenvalues not converged
     c_bands:  1 eigenvalues not converged
     c_bands:  1 eigenvalues not converged
     c_bands:  3 eigenvalues not converged
     c_bands:  4 eigenvalues not converged
     c_bands:  1 eigenvalues not converged
     c_bands:  2 eigenvalues not converged
     c_bands:  1 eigenvalues not converged
     c_bands:  1 eigenvalues not converged
     c_bands:  2 eigenvalues not converged
     c_bands:  1 eigenvalues not converged
     c_bands:  1 eigenvalues not converged
     c_bands:  3 eigenvalues not converged
     c_bands:  1 eigenvalues not converged
     c_bands:  3 eigenvalues not converged
     c_bands:  1 eigenvalues not converged
     c_bands:  3 eigenvalues not converged
     c_bands:  1 eigenvalues not converged
     c_bands:  1 eigenvalues not converged
     c_bands:  2 eigenvalues not converged
     c_bands:  1 eigenvalues not converged
     c_bands:  4 eigenvalues not converged
     c_bands:  2 eigenvalues not converged
     c_bands:  2 eigenvalues not converged
     c_bands:  3 eigenvalues not converged
     c_bands:  3 eigenvalues not converged
     c_bands:  1 eigenvalues not converged
     c_bands:  1 eigenvalues not converged
     c_bands:  3 eigenvalues not converged
     c_bands:  1 eigenvalues not converged
     c_bands:  3 eigenvalues not converged
     c_bands:  3 eigenvalues not converged
     c_bands:  3 eigenvalues not converged
     ethr =  3.22E-06,  avg # of iterations = 15.1

     negative rho (up, down):  1.307E-03 0.000E+00

     Adding external electric field

     Computed dipole along edir(3) : 
        Dipole               -0.0056 Ry au,         -0.0142 Debye
        Dipole field         -0.0000 Ry au, 

        Potential amp.        0.0009 Ry
        Total length         47.1549 bohr


     total cpu time spent up to now is     8027.9 secs

     total energy              =   -1371.02969089 Ry
     estimated scf accuracy    <       0.03222448 Ry

     iteration # 11     ecut=    55.12 Ry     beta= 0.10
     Davidson diagonalization with overlap
     c_bands:  1 eigenvalues not converged
     c_bands:  1 eigenvalues not converged
     c_bands:  1 eigenvalues not converged
     c_bands:  5 eigenvalues not converged
     c_bands:  1 eigenvalues not converged
     c_bands:  2 eigenvalues not converged
     c_bands:  3 eigenvalues not converged
     c_bands:  1 eigenvalues not converged
     c_bands:  2 eigenvalues not converged
     c_bands:  1 eigenvalues not converged
     c_bands:  1 eigenvalues not converged
     c_bands:  1 eigenvalues not converged
     c_bands:  2 eigenvalues not converged
     c_bands:  1 eigenvalues not converged
     c_bands:  1 eigenvalues not converged
     c_bands:  1 eigenvalues not converged
     c_bands:  1 eigenvalues not converged
     c_bands:  2 eigenvalues not converged
     c_bands:  1 eigenvalues not converged
     c_bands:  1 eigenvalues not converged
     c_bands:  2 eigenvalues not converged
     c_bands:  3 eigenvalues not converged
     c_bands:  3 eigenvalues not converged
     c_bands:  1 eigenvalues not converged
     c_bands:  4 eigenvalues not converged
     c_bands:  1 eigenvalues not converged
     c_bands:  1 eigenvalues not converged
     c_bands:  2 eigenvalues not converged
     c_bands:  2 eigenvalues not converged
     ethr =  3.22E-06,  avg # of iterations = 15.4

     negative rho (up, down):  1.253E-03 0.000E+00

     Adding external electric field

     Computed dipole along edir(3) : 
        Dipole               -0.0061 Ry au,         -0.0155 Debye
        Dipole field         -0.0000 Ry au, 

        Potential amp.        0.0009 Ry
        Total length         47.1549 bohr


     total cpu time spent up to now is     8723.2 secs

     total energy              =   -1371.02973838 Ry
     estimated scf accuracy    <       0.00632581 Ry

     iteration # 12     ecut=    55.12 Ry     beta= 0.10
     Davidson diagonalization with overlap
     c_bands:  1 eigenvalues not converged
     c_bands:  1 eigenvalues not converged
     c_bands:  1 eigenvalues not converged
     c_bands:  3 eigenvalues not converged
     c_bands:  1 eigenvalues not converged
     c_bands:  2 eigenvalues not converged
     c_bands:  3 eigenvalues not converged
     c_bands:  2 eigenvalues not converged
     ethr =  3.22E-06,  avg # of iterations =  4.9

     negative rho (up, down):  1.260E-03 0.000E+00

     Adding external electric field

     Computed dipole along edir(3) : 
        Dipole               -0.0111 Ry au,         -0.0281 Debye
        Dipole field         -0.0000 Ry au, 

        Potential amp.        0.0017 Ry
        Total length         47.1549 bohr


     total cpu time spent up to now is     9196.3 secs

     total energy              =   -1371.02996560 Ry
     estimated scf accuracy    <       0.00270079 Ry

     iteration # 13     ecut=    55.12 Ry     beta= 0.10
     Davidson diagonalization with overlap
     c_bands:  1 eigenvalues not converged
     c_bands:  3 eigenvalues not converged
     c_bands:  1 eigenvalues not converged
     c_bands:  5 eigenvalues not converged
     c_bands:  1 eigenvalues not converged
     ethr =  1.96E-06,  avg # of iterations =  3.9

     negative rho (up, down):  1.252E-03 0.000E+00

     Adding external electric field

     Computed dipole along edir(3) : 
        Dipole               -0.0137 Ry au,         -0.0349 Debye
        Dipole field         -0.0000 Ry au, 

        Potential amp.        0.0021 Ry
        Total length         47.1549 bohr


     total cpu time spent up to now is     9671.7 secs

     total energy              =   -1371.02972561 Ry
     estimated scf accuracy    <       0.00184958 Ry

     iteration # 14     ecut=    55.12 Ry     beta= 0.10
     Davidson diagonalization with overlap
     c_bands:  2 eigenvalues not converged
     c_bands:  3 eigenvalues not converged
     c_bands:  4 eigenvalues not converged
     c_bands:  5 eigenvalues not converged
     c_bands:  2 eigenvalues not converged
     c_bands:  4 eigenvalues not converged
     c_bands:  2 eigenvalues not converged
     c_bands:  4 eigenvalues not converged
     c_bands:  3 eigenvalues not converged
     c_bands:  3 eigenvalues not converged
     c_bands:  4 eigenvalues not converged
     c_bands:  2 eigenvalues not converged
     c_bands:  4 eigenvalues not converged
     c_bands:  5 eigenvalues not converged
     c_bands:  4 eigenvalues not converged
     c_bands:  4 eigenvalues not converged
     c_bands:  4 eigenvalues not converged
     c_bands:  4 eigenvalues not converged
     c_bands:  3 eigenvalues not converged
     c_bands:  2 eigenvalues not converged
     c_bands:  1 eigenvalues not converged
     c_bands:  4 eigenvalues not converged
     c_bands:  2 eigenvalues not converged
     c_bands:  1 eigenvalues not converged
     c_bands:  2 eigenvalues not converged
     c_bands:  1 eigenvalues not converged
     c_bands:  4 eigenvalues not converged
     c_bands:  3 eigenvalues not converged
     c_bands:  2 eigenvalues not converged
     c_bands:  3 eigenvalues not converged
     c_bands:  1 eigenvalues not converged
     c_bands:  4 eigenvalues not converged
     c_bands:  1 eigenvalues not converged
     c_bands:  4 eigenvalues not converged
     c_bands:  4 eigenvalues not converged
     c_bands:  1 eigenvalues not converged
     c_bands:  2 eigenvalues not converged
     c_bands:  4 eigenvalues not converged
     c_bands:  3 eigenvalues not converged
     c_bands:  1 eigenvalues not converged
     c_bands:  3 eigenvalues not converged
     c_bands:  1 eigenvalues not converged
     c_bands:  3 eigenvalues not converged
     c_bands:  5 eigenvalues not converged
     c_bands:  1 eigenvalues not converged
     c_bands:  2 eigenvalues not converged
     c_bands:  1 eigenvalues not converged
     c_bands:  2 eigenvalues not converged
     c_bands:  1 eigenvalues not converged
     c_bands:  3 eigenvalues not converged
     c_bands:  4 eigenvalues not converged
     c_bands:  4 eigenvalues not converged
     c_bands:  4 eigenvalues not converged
     ethr =  1.34E-06,  avg # of iterations = 18.2

     negative rho (up, down):  1.240E-03 0.000E+00

     Adding external electric field

     Computed dipole along edir(3) : 
        Dipole               -0.0131 Ry au,         -0.0332 Debye
        Dipole field         -0.0000 Ry au, 

        Potential amp.        0.0020 Ry
        Total length         47.1549 bohr


     total cpu time spent up to now is    10637.1 secs

     total energy              =   -1371.03014224 Ry
     estimated scf accuracy    <       0.00042676 Ry

     iteration # 15     ecut=    55.12 Ry     beta= 0.10
     Davidson diagonalization with overlap
     c_bands:  1 eigenvalues not converged
     c_bands:  2 eigenvalues not converged
     c_bands:  3 eigenvalues not converged
     c_bands:  3 eigenvalues not converged
     c_bands:  2 eigenvalues not converged
     c_bands:  4 eigenvalues not converged
     c_bands:  1 eigenvalues not converged
     c_bands:  1 eigenvalues not converged
     c_bands:  3 eigenvalues not converged
     c_bands:  5 eigenvalues not converged
     c_bands:  2 eigenvalues not converged
     c_bands:  2 eigenvalues not converged
     c_bands:  3 eigenvalues not converged
     c_bands:  3 eigenvalues not converged
     c_bands:  3 eigenvalues not converged
     c_bands:  3 eigenvalues not converged
     c_bands:  2 eigenvalues not converged
     c_bands:  2 eigenvalues not converged
     c_bands:  3 eigenvalues not converged
     c_bands:  5 eigenvalues not converged
     c_bands:  3 eigenvalues not converged
     c_bands:  1 eigenvalues not converged
     c_bands:  1 eigenvalues not converged
     c_bands:  2 eigenvalues not converged
     c_bands:  2 eigenvalues not converged
     c_bands:  1 eigenvalues not converged
     c_bands:  2 eigenvalues not converged
     c_bands:  1 eigenvalues not converged
     c_bands:  1 eigenvalues not converged
     c_bands:  1 eigenvalues not converged
     c_bands:  1 eigenvalues not converged
     c_bands:  1 eigenvalues not converged
     c_bands:  5 eigenvalues not converged
     c_bands:  1 eigenvalues not converged
     c_bands:  2 eigenvalues not converged
     c_bands:  1 eigenvalues not converged
     c_bands:  1 eigenvalues not converged
     c_bands:  1 eigenvalues not converged
     ethr =  3.09E-07,  avg # of iterations = 17.5

     negative rho (up, down):  1.166E-03 0.000E+00

     Adding external electric field

     Computed dipole along edir(3) : 
        Dipole               -0.0157 Ry au,         -0.0400 Debye
        Dipole field         -0.0000 Ry au, 

        Potential amp.        0.0024 Ry
        Total length         47.1549 bohr


     total cpu time spent up to now is    11622.3 secs

     total energy              =   -1371.03017401 Ry
     estimated scf accuracy    <       0.00053113 Ry

     iteration # 16     ecut=    55.12 Ry     beta= 0.10
     Davidson diagonalization with overlap
     c_bands:  2 eigenvalues not converged
     c_bands:  2 eigenvalues not converged
     c_bands:  2 eigenvalues not converged
     c_bands:  2 eigenvalues not converged
     c_bands:  3 eigenvalues not converged
     c_bands:  2 eigenvalues not converged
     c_bands:  2 eigenvalues not converged
     c_bands:  1 eigenvalues not converged
     c_bands:  1 eigenvalues not converged
     c_bands:  2 eigenvalues not converged
     c_bands:  1 eigenvalues not converged
     c_bands:  2 eigenvalues not converged
     c_bands:  3 eigenvalues not converged
     c_bands:  3 eigenvalues not converged
     c_bands:  1 eigenvalues not converged
     ethr =  3.09E-07,  avg # of iterations = 12.4

     negative rho (up, down):  1.114E-03 0.000E+00

     Adding external electric field

     Computed dipole along edir(3) : 
        Dipole               -0.0150 Ry au,         -0.0381 Debye
        Dipole field         -0.0000 Ry au, 

        Potential amp.        0.0023 Ry
        Total length         47.1549 bohr


     total cpu time spent up to now is    12139.5 secs

     total energy              =   -1371.03015501 Ry
     estimated scf accuracy    <       0.00021936 Ry

     iteration # 17     ecut=    55.12 Ry     beta= 0.10
     Davidson diagonalization with overlap
     c_bands:  1 eigenvalues not converged
     c_bands:  2 eigenvalues not converged
     c_bands:  1 eigenvalues not converged
     c_bands:  2 eigenvalues not converged
     c_bands:  1 eigenvalues not converged
     c_bands:  1 eigenvalues not converged
     c_bands:  1 eigenvalues not converged
     ethr =  1.59E-07,  avg # of iterations = 11.2

     negative rho (up, down):  1.080E-03 0.000E+00

     Adding external electric field

     Computed dipole along edir(3) : 
        Dipole               -0.0160 Ry au,         -0.0408 Debye
        Dipole field         -0.0000 Ry au, 

        Potential amp.        0.0025 Ry
        Total length         47.1549 bohr


     total cpu time spent up to now is    12709.0 secs

     total energy              =   -1371.03016457 Ry
     estimated scf accuracy    <       0.00005130 Ry

     iteration # 18     ecut=    55.12 Ry     beta= 0.10
     Davidson diagonalization with overlap
     c_bands:  3 eigenvalues not converged
     c_bands:  1 eigenvalues not converged
     c_bands:  1 eigenvalues not converged
     c_bands:  2 eigenvalues not converged
     c_bands:  1 eigenvalues not converged
     ethr =  3.72E-08,  avg # of iterations = 11.9

     negative rho (up, down):  1.052E-03 0.000E+00

     Adding external electric field

     Computed dipole along edir(3) : 
        Dipole               -0.0144 Ry au,         -0.0367 Debye
        Dipole field         -0.0000 Ry au, 

        Potential amp.        0.0022 Ry
        Total length         47.1549 bohr


     total cpu time spent up to now is    13353.5 secs

     total energy              =   -1371.03018338 Ry
     estimated scf accuracy    <       0.00003647 Ry

     iteration # 19     ecut=    55.12 Ry     beta= 0.10
     Davidson diagonalization with overlap
     c_bands:  1 eigenvalues not converged
     ethr =  2.64E-08,  avg # of iterations =  5.1

     negative rho (up, down):  1.023E-03 0.000E+00

     Adding external electric field

     Computed dipole along edir(3) : 
        Dipole               -0.0144 Ry au,         -0.0365 Debye
        Dipole field         -0.0000 Ry au, 

        Potential amp.        0.0022 Ry
        Total length         47.1549 bohr


     total cpu time spent up to now is    13844.3 secs

     total energy              =   -1371.03017467 Ry
     estimated scf accuracy    <       0.00003747 Ry

     iteration # 20     ecut=    55.12 Ry     beta= 0.10
     Davidson diagonalization with overlap
     ethr =  2.64E-08,  avg # of iterations =  1.7

     negative rho (up, down):  9.994E-04 0.000E+00

     Adding external electric field

     Computed dipole along edir(3) : 
        Dipole               -0.0158 Ry au,         -0.0402 Debye
        Dipole field         -0.0000 Ry au, 

        Potential amp.        0.0025 Ry
        Total length         47.1549 bohr


     total cpu time spent up to now is    14275.3 secs

     total energy              =   -1371.03016477 Ry
     estimated scf accuracy    <       0.00001790 Ry

     iteration # 21     ecut=    55.12 Ry     beta= 0.10
     Davidson diagonalization with overlap
     c_bands:  1 eigenvalues not converged
     c_bands:  1 eigenvalues not converged
     c_bands:  1 eigenvalues not converged
     c_bands:  1 eigenvalues not converged
     c_bands:  1 eigenvalues not converged
     ethr =  1.30E-08,  avg # of iterations = 17.1

     negative rho (up, down):  9.837E-04 0.000E+00

     Adding external electric field

     Computed dipole along edir(3) : 
        Dipole               -0.0155 Ry au,         -0.0393 Debye
        Dipole field         -0.0000 Ry au, 

        Potential amp.        0.0024 Ry
        Total length         47.1549 bohr


     total cpu time spent up to now is    15080.0 secs

     total energy              =   -1371.03017086 Ry
     estimated scf accuracy    <       0.00001080 Ry

     iteration # 22     ecut=    55.12 Ry     beta= 0.10
     Davidson diagonalization with overlap
     ethr =  7.83E-09,  avg # of iterations =  2.6

     negative rho (up, down):  9.250E-04 0.000E+00

     Adding external electric field

     Computed dipole along edir(3) : 
        Dipole               -0.0167 Ry au,         -0.0425 Debye
        Dipole field         -0.0000 Ry au, 

        Potential amp.        0.0026 Ry
        Total length         47.1549 bohr


     total cpu time spent up to now is    15562.1 secs

     End of self-consistent calculation

          k = 0.0000 0.0000 0.0000 ( 52699 PWs)   bands (ev):

   -32.2872 -32.2611 -32.2533 -32.2267 -31.9505 -31.9181 -16.0664 -16.0486
   -16.0243 -15.9971 -15.9863 -15.9652 -15.9497 -15.9247 -15.9034 -15.8609
   -15.8435 -15.6214 -15.6031 -15.5922 -15.5416 -15.4947 -15.4835 -15.3705
    -5.9148  -5.8970  -5.8820  -5.8776  -5.8694  -5.8656  -5.8370  -5.8210
    -5.8010  -5.7924  -5.7843  -5.7446  -5.7433  -5.7389  -5.7371  -5.7366
    -5.7349  -5.7307  -5.7000  -5.6657  -5.6656  -5.6571  -5.6489  -5.6467
    -5.5814  -5.5650  -5.4669  -5.4452  -5.4017  -5.3890  -4.7128  -3.7078
    -3.0961  -2.9601  -2.8560  -2.6865   0.8414   0.9127   0.9201   1.0071
     1.1115   1.4311   1.5374   1.7150   1.7403   1.8033   1.8485   2.0764
     2.0979   2.1073   2.1708   2.2838   2.3205   2.3446   2.3776   2.3801
     2.4882   2.5354   2.5821

          k = 0.0000 0.0129 0.0000 ( 52707 PWs)   bands (ev):

   -32.2866 -32.2605 -32.2539 -32.2273 -31.9500 -31.9186 -16.0597 -16.0419
   -16.0235 -15.9977 -15.9901 -15.9605 -15.9525 -15.9236 -15.9044 -15.8628
   -15.8359 -15.6299 -15.6117 -15.5900 -15.5412 -15.4963 -15.4849 -15.3793
    -5.9077  -5.8911  -5.8761  -5.8760  -5.8641  -5.8600  -5.8287  -5.8129
    -5.7992  -5.7888  -5.7815  -5.7437  -5.7426  -5.7384  -5.7365  -5.7337
    -5.7305  -5.7290  -5.6981  -5.6663  -5.6637  -5.6555  -5.6467  -5.6429
    -5.5839  -5.5677  -5.4731  -5.4467  -5.4067  -5.3938  -4.6805  -3.6852
    -3.0815  -2.9714  -2.8547  -2.6936   0.8084   0.9036   0.9476   0.9999
     1.0828   1.4374   1.5264   1.6939   1.7036   1.7359   1.9234   1.9637
     2.0747   2.0813   2.1496   2.2831   2.3096   2.3487   2.3873   2.4191
     2.4367   2.4844   2.5349

          k = 0.0000 0.0258 0.0000 ( 52740 PWs)   bands (ev):

   -32.2849 -32.2588 -32.2555 -32.2290 -31.9483 -31.9202 -16.0400 -16.0221
   -16.0210 -15.9991 -15.9969 -15.9593 -15.9511 -15.9216 -15.9072 -15.8681
   -15.8139 -15.6545 -15.6363 -15.5841 -15.5398 -15.5008 -15.4891 -15.4050
    -5.8873  -5.8752  -5.8705  -5.8608  -5.8508  -5.8450  -5.8062  -5.7947
    -5.7911  -5.7782  -5.7714  -5.7440  -5.7412  -5.7381  -5.7328  -5.7272
    -5.7184  -5.7180  -5.6922  -5.6709  -5.6595  -5.6513  -5.6392  -5.6316
    -5.5912  -5.5753  -5.4911  -5.4513  -5.4211  -5.4085  -4.5841  -3.6180
    -3.0390  -3.0139  -2.8535  -2.7086   0.7684   0.8523   0.9737   0.9893
     1.0112   1.4469   1.4871   1.4895   1.6684   1.6917   1.7289   2.0120
     2.0525   2.0985   2.1032   2.2503   2.2701   2.3332   2.3825   2.4350
     2.4627   2.4914   2.5119

          k = 0.0000 0.0388 0.0000 ( 52703 PWs)   bands (ev):

   -32.2822 -32.2582 -32.2560 -32.2317 -31.9457 -31.9228 -16.0174 -16.0111
   -16.0025 -16.0001 -15.9887 -15.9677 -15.9405 -15.9201 -15.9109 -15.8758
   -15.7787 -15.6929 -15.6749 -15.5753 -15.5372 -15.5079 -15.4954 -15.4452
    -5.8611  -5.8559  -5.8549  -5.8434  -5.8358  -5.8228  -5.7912  -5.7743
    -5.7664  -5.7625  -5.7503  -5.7466  -5.7347  -5.7311  -5.7261  -5.7156
    -5.7077  -5.7011  -5.6812  -5.6794  -5.6544  -5.6453  -5.6298  -5.6161
    -5.6021  -5.5863  -5.5194  -5.4586  -5.4430  -5.4331  -4.4271  -3.5101
    -3.1069  -2.9732  -2.8609  -2.7185   0.7537   0.7652   0.9145   0.9192
     0.9817   1.2554   1.3953   1.4316   1.4334   1.6498   1.7481   2.0028
     2.0533   2.0780   2.0986   2.1981   2.2370   2.3039   2.3380   2.4582
     2.4855   2.5101   2.5293

          k = 0.0000 0.0517 0.0000 ( 52685 PWs)   bands (ev):

   -32.2786 -32.2617 -32.2525 -32.2352 -31.9424 -31.9261 -16.0138 -16.0072
   -16.0049 -15.9783 -15.9637 -15.9458 -15.9298 -15.9191 -15.9145 -15.8850
   -15.7418 -15.7324 -15.7239 -15.5644 -15.5334 -15.5172 -15.5032 -15.4963
    -5.8480  -5.8374  -5.8294  -5.8280  -5.8148  -5.7979  -5.7915  -5.7652
    -5.7467  -5.7447  -5.7295  -5.7240  -5.7219  -5.7137  -5.7120  -5.7040
    -5.7015  -5.6919  -5.6804  -5.6685  -5.6477  -5.6353  -5.6262  -5.6112
    -5.6031  -5.5973  -5.5552  -5.4693  -5.4683  -5.4654  -4.2185  -3.3707
    -3.2614  -2.8940  -2.8912  -2.7208   0.6568   0.7455   0.8023   0.8354
     0.8973   1.0999   1.2741   1.3108   1.3490   1.6752   1.8043   1.8294
     2.0155   2.0196   2.1178   2.1416   2.2907   2.3011   2.3434   2.4738
     2.4780   2.4925   2.4980

          k = 0.0000 0.0646 0.0000 ( 52688 PWs)   bands (ev):

   -32.2745 -32.2657 -32.2483 -32.2394 -31.9384 -31.9300 -16.0124 -16.0096
   -16.0018 -15.9870 -15.9213 -15.9199 -15.9164 -15.9135 -15.8981 -15.8894
   -15.7974 -15.7795 -15.6775 -15.5565 -15.5523 -15.5281 -15.5262 -15.5116
    -5.8344  -5.8281  -5.8225  -5.8157  -5.7962  -5.7817  -5.7751  -5.7721
    -5.7371  -5.7286  -5.7160  -5.7101  -5.7064  -5.7035  -5.6977  -5.6926
    -5.6866  -5.6832  -5.6632  -5.6607  -5.6423  -5.6399  -5.6248  -5.6066
    -5.6025  -5.5930  -5.5917  -5.5090  -5.4846  -5.4789  -3.9744  -3.4709
    -3.2167  -2.9596  -2.8168  -2.7288   0.5697   0.6361   0.7010   0.7413
     0.9571   1.0500   1.1519   1.2575   1.2997   1.5106   1.8387   1.8646
     1.9522   1.9957   2.0507   2.1201   2.3381   2.3645   2.3892   2.4459
     2.4882   2.5126   2.5240

          k = 0.0000-0.0775 0.0000 ( 52706 PWs)   bands (ev):

   -32.2702 -32.2700 -32.2438 -32.2438 -31.9342 -31.9342 -16.0116 -16.0115
   -15.9951 -15.9951 -15.9193 -15.9192 -15.9085 -15.9084 -15.8550 -15.8548
   -15.8373 -15.8373 -15.6175 -15.6174 -15.5401 -15.5401 -15.5196 -15.5196
    -5.8258  -5.8258  -5.8178  -5.8178  -5.7885  -5.7885  -5.7620  -5.7620
    -5.7316  -5.7315  -5.7103  -5.7103  -5.7048  -5.7048  -5.6845  -5.6845
    -5.6742  -5.6742  -5.6516  -5.6516  -5.6464  -5.6464  -5.6225  -5.6225
    -5.6055  -5.6055  -5.5538  -5.5538  -5.4869  -5.4869  -3.7168  -3.7168
    -3.0719  -3.0719  -2.7588  -2.7588   0.5555   0.5555   0.6810   0.6811
     1.0662   1.0663   1.1261   1.1261   1.3489   1.3489   1.9002   1.9002
     1.9464   1.9464   2.0570   2.0570   2.3912   2.3920   2.4346   2.4360
     2.4431   2.4447   2.5214

          k = 0.0122-0.0043 0.0000 ( 52707 PWs)   bands (ev):

   -32.2866 -32.2605 -32.2539 -32.2273 -31.9500 -31.9186 -16.0597 -16.0419
   -16.0235 -15.9977 -15.9901 -15.9605 -15.9525 -15.9236 -15.9044 -15.8628
   -15.8359 -15.6299 -15.6117 -15.5900 -15.5412 -15.4963 -15.4849 -15.3793
    -5.9077  -5.8911  -5.8761  -5.8760  -5.8641  -5.8600  -5.8287  -5.8129
    -5.7992  -5.7888  -5.7815  -5.7437  -5.7426  -5.7384  -5.7365  -5.7337
    -5.7305  -5.7290  -5.6981  -5.6663  -5.6637  -5.6555  -5.6467  -5.6429
    -5.5839  -5.5677  -5.4731  -5.4467  -5.4067  -5.3938  -4.6805  -3.6852
    -3.0815  -2.9714  -2.8547  -2.6936   0.8084   0.9036   0.9476   0.9999
     1.0828   1.4374   1.5264   1.6939   1.7036   1.7359   1.9234   1.9637
     2.0747   2.0813   2.1497   2.2825   2.3095   2.3498   2.3875   2.4205
     2.4398   2.4849   2.5402

          k = 0.0122 0.0086 0.0000 ( 52699 PWs)   bands (ev):

   -32.2871 -32.2610 -32.2533 -32.2268 -31.9506 -31.9179 -16.0679 -16.0499
   -16.0242 -16.0008 -15.9945 -15.9543 -15.9541 -15.9180 -15.9101 -15.8628
   -15.8436 -15.6216 -15.6033 -15.5880 -15.5425 -15.4973 -15.4847 -15.3712
    -5.9115  -5.8865  -5.8758  -5.8715  -5.8618  -5.8555  -5.8295  -5.8188
    -5.7995  -5.7842  -5.7772  -5.7443  -5.7437  -5.7375  -5.7335  -5.7299
    -5.7299  -5.7249  -5.6979  -5.6648  -5.6622  -5.6552  -5.6450  -5.6337
    -5.5825  -5.5653  -5.4711  -5.4519  -5.4029  -5.3878  -4.6690  -3.6698
    -3.0800  -2.9592  -2.8382  -2.6367   0.6638   0.7835   0.8910   0.8912
     1.0177   1.3979   1.5097   1.6176   1.7857   1.7996   1.9159   1.9521
     2.0544   2.0855   2.1436   2.2565   2.3278   2.3310   2.4111   2.4135
     2.4182   2.4834   2.5770

          k = 0.0122 0.0215 0.0000 ( 52715 PWs)   bands (ev):

   -32.2864 -32.2603 -32.2540 -32.2275 -31.9501 -31.9184 -16.0626 -16.0442
   -16.0237 -16.0103 -15.9926 -15.9592 -15.9466 -15.9169 -15.9127 -15.8666
   -15.8361 -15.6302 -15.6119 -15.5823 -15.5427 -15.5013 -15.4873 -15.3806
    -5.9014  -5.8718  -5.8716  -5.8571  -5.8509  -5.8414  -5.8158  -5.8090
    -5.7975  -5.7732  -5.7670  -5.7423  -5.7409  -5.7342  -5.7338  -5.7306
    -5.7139  -5.7128  -5.6940  -5.6633  -5.6624  -5.6505  -5.6390  -5.6192
    -5.5861  -5.5683  -5.4811  -5.4599  -5.4088  -5.3920  -4.5930  -3.6101
    -3.0520  -2.9731  -2.8219  -2.5969   0.5448   0.6577   0.7814   0.8404
     0.9335   1.3884   1.4210   1.4855   1.7021   1.7986   1.8219   1.9624
     2.0469   2.1028   2.1094   2.2054   2.2994   2.3254   2.4121   2.4172
     2.4694   2.4747   2.4969

          k = 0.0122 0.0344 0.0000 ( 52696 PWs)   bands (ev):

   -32.2846 -32.2585 -32.2557 -32.2292 -31.9486 -31.9199 -16.0439 -16.0251
   -16.0240 -16.0154 -15.9918 -15.9658 -15.9388 -15.9235 -15.9087 -15.8732
   -15.8142 -15.6546 -15.6364 -15.5740 -15.5414 -15.5079 -15.4923 -15.4066
    -5.8790  -5.8619  -5.8521  -5.8394  -5.8367  -5.8212  -5.7963  -5.7924
    -5.7865  -5.7564  -5.7496  -5.7401  -5.7370  -5.7342  -5.7273  -5.7210
    -5.6984  -5.6979  -5.6833  -5.6705  -5.6577  -5.6441  -5.6302  -5.6018
    -5.5938  -5.5763  -5.5022  -5.4705  -5.4235  -5.4072  -4.4546  -3.5095
    -3.0345  -3.0040  -2.8163  -2.5721   0.4850   0.5400   0.6716   0.7716
     0.8586   1.1810   1.4038   1.4553   1.4670   1.7597   1.7804   1.8768
     2.0129   2.0956   2.1391   2.2395   2.2454   2.2967   2.3601   2.4291
     2.4775   2.5152   2.5205

          k = 0.0122 0.0474 0.0000 ( 52692 PWs)   bands (ev):

   -32.2819 -32.2584 -32.2557 -32.2320 -31.9461 -31.9224 -16.0269 -16.0138
   -16.0131 -15.9952 -15.9900 -15.9727 -15.9314 -15.9283 -15.9060 -15.8819
   -15.7790 -15.6926 -15.6745 -15.5639 -15.5384 -15.5167 -15.4990 -15.4468
    -5.8497  -5.8458  -5.8342  -5.8244  -5.8244  -5.7997  -5.7952  -5.7651
    -5.7587  -5.7459  -5.7380  -5.7299  -5.7249  -5.7240  -5.7151  -5.7075
    -5.6947  -5.6817  -5.6789  -5.6676  -5.6506  -5.6350  -5.6264  -5.6029
    -5.5874  -5.5866  -5.5327  -5.4831  -5.4438  -5.4335  -4.2622  -3.3772
    -3.1625  -2.9471  -2.8374  -2.5616   0.4481   0.5040   0.5642   0.6666
     0.8079   0.9737   1.3228   1.3950   1.4344   1.6853   1.7477   1.7679
     1.9715   2.0489   2.1045   2.1812   2.3040   2.3243   2.3292   2.4460
     2.4657   2.5241   2.5335

          k = 0.0122 0.0603 0.0000 ( 52699 PWs)   bands (ev):

   -32.2783 -32.2619 -32.2520 -32.2356 -31.9427 -31.9257 -16.0287 -16.0090
   -15.9952 -15.9817 -15.9680 -15.9494 -15.9327 -15.9218 -15.9041 -15.8918
   -15.7409 -15.7324 -15.7230 -15.5527 -15.5338 -15.5273 -15.5065 -15.4977
    -5.8327  -5.8242  -5.8189  -5.8142  -5.8102  -5.7992  -5.7713  -5.7636
    -5.7378  -5.7258  -5.7227  -5.7158  -5.7118  -5.7061  -5.7000  -5.6955
    -5.6929  -5.6921  -5.6617  -5.6608  -5.6422  -5.6329  -5.6239  -5.6064
    -5.5963  -5.5824  -5.5683  -5.4965  -5.4717  -5.4610  -4.0315  -3.3577
    -3.2299  -2.9014  -2.8962  -2.5743   0.4096   0.4761   0.5210   0.6577
     0.7882   0.8660   1.2876   1.3263   1.4124   1.5483   1.7007   1.7943
     1.9181   2.0420   2.0601   2.1271   2.2919   2.3783   2.3926   2.4272
     2.4382   2.4750   2.4970

          k = 0.0122-0.0819 0.0000 ( 52691 PWs)   bands (ev):

   -32.2742 -32.2660 -32.2479 -32.2397 -31.9388 -31.9296 -16.0281 -16.0024
   -15.9963 -15.9875 -15.9340 -15.9204 -15.9128 -15.9068 -15.9015 -15.8924
   -15.7956 -15.7779 -15.6772 -15.5576 -15.5412 -15.5391 -15.5254 -15.5142
    -5.8253  -5.8199  -5.8135  -5.8129  -5.7891  -5.7839  -5.7748  -5.7501
    -5.7250  -5.7243  -5.7175  -5.7108  -5.7017  -5.6993  -5.6886  -5.6868
    -5.6834  -5.6783  -5.6618  -5.6496  -5.6408  -5.6375  -5.6289  -5.6073
    -5.6057  -5.5915  -5.5792  -5.5174  -5.5081  -5.4680  -3.7836  -3.6011
    -3.0915  -3.0137  -2.8654  -2.6222   0.4374   0.4593   0.5014   0.8108
     0.8421   0.8768   1.2619   1.3258   1.3486   1.3730   1.7834   1.8579
     1.8729   2.0486   2.0694   2.0752   2.3331   2.3567   2.3830   2.4046
     2.4500   2.4588   2.4893

          k = 0.0122-0.0689 0.0000 ( 52711 PWs)   bands (ev):

   -32.2704 -32.2698 -32.2442 -32.2435 -31.9346 -31.9338 -16.0252 -16.0005
   -15.9941 -15.9900 -15.9337 -15.9180 -15.9032 -15.9024 -15.8577 -15.8526
   -15.8395 -15.8352 -15.6181 -15.6167 -15.5513 -15.5299 -15.5212 -15.5179
    -5.8353  -5.8193  -5.8140  -5.8068  -5.7880  -5.7769  -5.7708  -5.7485
    -5.7410  -5.7291  -5.7139  -5.7096  -5.7057  -5.6999  -5.6942  -5.6867
    -5.6794  -5.6666  -5.6526  -5.6525  -5.6482  -5.6454  -5.6224  -5.6209
    -5.6084  -5.6063  -5.5677  -5.5430  -5.5108  -5.4638  -3.8640  -3.5421
    -3.1619  -2.9848  -2.8580  -2.7057   0.4894   0.5828   0.6043   0.8970
     0.9741   1.0450   1.1973   1.2436   1.3375   1.4376   1.8635   1.8827
     1.9421   2.0069   2.0185   2.1194   2.3034   2.3102   2.4036   2.4126
     2.4399   2.5071   2.5149

          k = 0.0122-0.0560 0.0000 ( 52663 PWs)   bands (ev):

   -32.2748 -32.2655 -32.2486 -32.2391 -31.9381 -31.9304 -16.0206 -16.0065
   -15.9889 -15.9844 -15.9327 -15.9300 -15.9104 -15.9007 -15.8948 -15.8876
   -15.7991 -15.7810 -15.6778 -15.5633 -15.5551 -15.5270 -15.5194 -15.5092
    -5.8476  -5.8269  -5.8179  -5.8166  -5.7893  -5.7830  -5.7793  -5.7655
    -5.7549  -5.7405  -5.7184  -5.7148  -5.7146  -5.7098  -5.6994  -5.6966
    -5.6926  -5.6770  -5.6708  -5.6681  -5.6458  -5.6427  -5.6248  -5.6148
    -5.6125  -5.6033  -5.5844  -5.5033  -5.4961  -5.4562  -4.1180  -3.3288
    -3.3211  -2.9200  -2.8630  -2.8092   0.6305   0.7510   0.8275   0.9922
     1.1349   1.1530   1.1775   1.2702   1.3079   1.6037   1.8683   1.9405
     1.9616   1.9942   2.0213   2.1401   2.2415   2.2721   2.4247   2.4301
     2.4599   2.4642   2.4854

          k = 0.0122-0.0431 0.0000 ( 52661 PWs)   bands (ev):

   -32.2789 -32.2615 -32.2527 -32.2350 -31.9421 -31.9265 -16.0153 -16.0124
   -15.9860 -15.9740 -15.9605 -15.9431 -15.9427 -15.9310 -15.8995 -15.8816
   -15.7427 -15.7324 -15.7247 -15.5741 -15.5326 -15.5102 -15.5007 -15.4955
    -5.8591  -5.8439  -5.8329  -5.8303  -5.8162  -5.8123  -5.7860  -5.7668
    -5.7613  -5.7570  -5.7375  -5.7301  -5.7242  -5.7220  -5.7167  -5.7130
    -5.7100  -5.6923  -5.6813  -5.6785  -5.6495  -5.6457  -5.6312  -5.6260
    -5.6150  -5.5960  -5.5460  -5.4703  -5.4647  -5.4496  -4.3399  -3.4667
    -3.1612  -2.9115  -2.8904  -2.8592   0.8207   0.9370   0.9813   1.0834
     1.2242   1.2701   1.2743   1.3313   1.3719   1.6512   1.7437   1.9860
     2.0313   2.0365   2.1064   2.1129   2.2173   2.2915   2.3621   2.4385
     2.4593   2.4717   2.5004

          k = 0.0122-0.0302 0.0000 ( 52703 PWs)   bands (ev):

   -32.2823 -32.2581 -32.2563 -32.2316 -31.9455 -31.9230 -16.0175 -16.0126
   -16.0011 -15.9864 -15.9824 -15.9634 -15.9548 -15.9297 -15.8992 -15.8729
   -15.7786 -15.6931 -15.6751 -15.5827 -15.5362 -15.5030 -15.4934 -15.4443
    -5.8683  -5.8657  -5.8612  -5.8512  -5.8388  -5.8368  -5.7902  -5.7819
    -5.7788  -5.7746  -5.7552  -5.7425  -5.7367  -5.7329  -5.7293  -5.7252
    -5.7248  -5.7110  -5.6883  -5.6725  -5.6528  -5.6507  -5.6404  -5.6397
    -5.6015  -5.5850  -5.5121  -5.4456  -5.4423  -5.4332  -4.5130  -3.5812
    -3.0534  -2.9959  -2.8765  -2.8273   0.9647   1.0039   1.0282   1.1284
     1.1567   1.4005   1.4707   1.5144   1.5525   1.5883   1.6441   1.9050
     2.0853   2.1103   2.1282   2.1896   2.2315   2.3485   2.3585   2.4090
     2.4567   2.4983   2.5179

          k = 0.0122-0.0173 0.0000 ( 52689 PWs)   bands (ev):

   -32.2850 -32.2589 -32.2555 -32.2289 -31.9482 -31.9204 -16.0386 -16.0212
   -16.0209 -16.0015 -15.9822 -15.9624 -15.9556 -15.9276 -15.9007 -15.8664
   -15.8138 -15.6544 -15.6363 -15.5882 -15.5391 -15.4982 -15.4879 -15.4044
    -5.8902  -5.8834  -5.8737  -5.8684  -5.8554  -5.8533  -5.8116  -5.7957
    -5.7909  -5.7868  -5.7809  -5.7403  -5.7391  -5.7374  -5.7337  -5.7337
    -5.7317  -5.7241  -5.6947  -5.6684  -5.6580  -5.6538  -5.6462  -5.6461
    -5.5904  -5.5748  -5.4871  -5.4446  -5.4202  -5.4092  -4.6279  -3.6553
    -3.0537  -2.9995  -2.8669  -2.7631   0.9238   0.9977   1.0369   1.0844
     1.0923   1.5011   1.5304   1.5682   1.6549   1.6574   1.8027   1.9377
     2.0135   2.0977   2.2069   2.2261   2.2632   2.3628   2.3882   2.4430
     2.4625   2.5224   2.5383

          k = 0.0243-0.0087 0.0000 ( 52740 PWs)   bands (ev):

   -32.2849 -32.2588 -32.2555 -32.2290 -31.9483 -31.9202 -16.0400 -16.0221
   -16.0210 -15.9991 -15.9969 -15.9593 -15.9511 -15.9216 -15.9072 -15.8681
   -15.8139 -15.6545 -15.6363 -15.5841 -15.5398 -15.5008 -15.4891 -15.4050
    -5.8873  -5.8752  -5.8705  -5.8608  -5.8508  -5.8450  -5.8062  -5.7947
    -5.7911  -5.7782  -5.7714  -5.7440  -5.7412  -5.7381  -5.7328  -5.7272
    -5.7184  -5.7180  -5.6922  -5.6709  -5.6595  -5.6513  -5.6392  -5.6316
    -5.5912  -5.5753  -5.4911  -5.4513  -5.4211  -5.4085  -4.5841  -3.6180
    -3.0390  -3.0139  -2.8535  -2.7086   0.7684   0.8523   0.9737   0.9893
     1.0112   1.4469   1.4871   1.4895   1.6684   1.6917   1.7289   2.0120
     2.0525   2.0985   2.1032   2.2503   2.2694   2.3335   2.3831   2.4400
     2.4627   2.4876   2.5333

          k = 0.0243 0.0043 0.0000 ( 52715 PWs)   bands (ev):

   -32.2864 -32.2603 -32.2540 -32.2275 -31.9501 -31.9184 -16.0626 -16.0442
   -16.0237 -16.0103 -15.9926 -15.9592 -15.9466 -15.9169 -15.9127 -15.8666
   -15.8361 -15.6302 -15.6119 -15.5823 -15.5427 -15.5013 -15.4873 -15.3806
    -5.9014  -5.8718  -5.8716  -5.8571  -5.8509  -5.8414  -5.8158  -5.8090
    -5.7975  -5.7732  -5.7670  -5.7423  -5.7409  -5.7342  -5.7338  -5.7306
    -5.7139  -5.7128  -5.6940  -5.6633  -5.6624  -5.6505  -5.6390  -5.6192
    -5.5861  -5.5683  -5.4811  -5.4599  -5.4088  -5.3920  -4.5930  -3.6101
    -3.0520  -2.9731  -2.8219  -2.5969   0.5448   0.6577   0.7814   0.8404
     0.9335   1.3884   1.4210   1.4855   1.7021   1.7986   1.8219   1.9624
     2.0469   2.1028   2.1094   2.2054   2.2996   2.3255   2.4112   2.4141
     2.4659   2.4793   2.5283

          k = 0.0243 0.0172 0.0000 ( 52689 PWs)   bands (ev):

   -32.2868 -32.2607 -32.2535 -32.2270 -31.9509 -31.9176 -16.0722 -16.0532
   -16.0278 -16.0192 -15.9871 -15.9617 -15.9421 -15.9268 -15.9047 -15.8686
   -15.8438 -15.6222 -15.6037 -15.5776 -15.5445 -15.5045 -15.4883 -15.3730
    -5.9023  -5.8704  -5.8576  -5.8429  -5.8428  -5.8276  -5.8137  -5.8061
    -5.7992  -5.7634  -5.7573  -5.7410  -5.7383  -5.7334  -5.7284  -5.7165
    -5.7108  -5.7036  -5.6913  -5.6621  -5.6535  -5.6486  -5.6383  -5.6028
    -5.5863  -5.5657  -5.4827  -5.4713  -5.4062  -5.3852  -4.5381  -3.5582
    -3.0399  -2.9469  -2.7868  -2.4998   0.3471   0.4738   0.5955   0.7175
     0.8366   1.2785   1.3350   1.4661   1.5360   1.8209   1.8319   1.9237
     1.9970   2.1049   2.1440   2.1587   2.2771   2.3576   2.4102   2.4135
     2.4838   2.4895   2.4971

          k = 0.0243 0.0301 0.0000 ( 52668 PWs)   bands (ev):

   -32.2861 -32.2599 -32.2541 -32.2277 -31.9505 -31.9179 -16.0678 -16.0482
   -16.0353 -16.0207 -15.9832 -15.9658 -15.9381 -15.9351 -15.8984 -15.8740
   -15.8365 -15.6308 -15.6123 -15.5705 -15.5447 -15.5101 -15.4916 -15.3828
    -5.8902  -5.8637  -5.8379  -5.8309  -5.8242  -5.8083  -5.8017  -5.8007
    -5.7878  -5.7489  -5.7418  -5.7380  -5.7306  -5.7271  -5.7203  -5.7197
    -5.6898  -5.6891  -5.6854  -5.6591  -5.6555  -5.6418  -5.6326  -5.5910
    -5.5842  -5.5685  -5.4956  -5.4849  -5.4129  -5.3895  -4.4205  -3.4658
    -3.0109  -2.9615  -2.7611  -2.4257   0.2201   0.3205   0.4255   0.6058
     0.7562   1.0807   1.2987   1.3109   1.4483   1.7311   1.7949   1.8518
     1.9307   2.0451   2.1877   2.2170   2.2724   2.3612   2.3816   2.4060
     2.4737   2.5182   2.5499

          k = 0.0243 0.0430 0.0000 ( 52702 PWs)   bands (ev):

   -32.2843 -32.2581 -32.2559 -32.2295 -31.9490 -31.9194 -16.0493 -16.0414
   -16.0292 -16.0193 -15.9811 -15.9704 -15.9426 -15.9321 -15.8940 -15.8818
   -15.8146 -15.6549 -15.6365 -15.5620 -15.5429 -15.5179 -15.4968 -15.4088
    -5.8672  -5.8509  -5.8205  -5.8162  -5.8082  -5.8021  -5.7862  -5.7844
    -5.7615  -5.7334  -5.7313  -5.7290  -5.7223  -5.7198  -5.7139  -5.7077
    -5.6838  -5.6722  -5.6680  -5.6638  -5.6532  -5.6350  -5.6279  -5.5985
    -5.5762  -5.5670  -5.5188  -5.5003  -5.4271  -5.4060  -4.2472  -3.3419
    -3.0458  -2.9777  -2.7636  -2.3846   0.2009   0.2186   0.2797   0.4856
     0.7058   0.8925   1.1596   1.2699   1.4379   1.6677   1.7528   1.7787
     1.8509   1.9698   2.1472   2.1863   2.3195   2.3689   2.3776   2.3970
     2.4650   2.5022   2.5169

          k = 0.0243 0.0559 0.0000 ( 52716 PWs)   bands (ev):

   -32.2815 -32.2586 -32.2552 -32.2323 -31.9464 -31.9219 -16.0442 -16.0177
   -16.0160 -15.9975 -15.9820 -15.9730 -15.9462 -15.9262 -15.8932 -15.8894
   -15.7792 -15.6924 -15.6742 -15.5525 -15.5390 -15.5274 -15.5031 -15.4488
    -5.8379  -5.8333  -5.8171  -5.8035  -5.7998  -5.7932  -5.7631  -5.7628
    -5.7414  -5.7274  -5.7267  -5.7164  -5.7136  -5.7027  -5.6997  -5.6929
    -5.6833  -5.6761  -5.6587  -5.6563  -5.6446  -5.6359  -5.6213  -5.6050
    -5.5869  -5.5595  -5.5491  -5.5163  -5.4437  -5.4347  -4.0331  -3.2117
    -3.2035  -2.9551  -2.8139  -2.3886   0.1755   0.1931   0.2970   0.3909
     0.6787   0.8031   1.1333   1.2320   1.4252   1.6600   1.7285   1.7355
     1.7765   1.9007   2.0911   2.1442   2.2683   2.3746   2.4203   2.4320
     2.4437   2.4741   2.4785

          k = 0.0243-0.0862 0.0000 ( 52693 PWs)   bands (ev):

   -32.2780 -32.2621 -32.2516 -32.2359 -31.9431 -31.9252 -16.0437 -16.0107
   -15.9883 -15.9778 -15.9698 -15.9525 -15.9471 -15.9189 -15.9033 -15.8887
   -15.7400 -15.7324 -15.7220 -15.5426 -15.5382 -15.5333 -15.5098 -15.4993
    -5.8241  -5.8173  -5.8059  -5.7965  -5.7955  -5.7799  -5.7531  -5.7412
    -5.7370  -5.7220  -5.7136  -5.7022  -5.7006  -5.6980  -5.6881  -5.6859
    -5.6835  -5.6809  -5.6621  -5.6458  -5.6453  -5.6363  -5.6175  -5.6055
    -5.5918  -5.5876  -5.5651  -5.5308  -5.4762  -5.4523  -3.7987  -3.4423
    -3.0748  -2.9540  -2.9193  -2.4477   0.1442   0.2617   0.3579   0.5187
     0.6802   0.8541   1.1959   1.2057   1.4036   1.6047   1.7140   1.7715
     1.8145   1.8668   2.0661   2.1303   2.2604   2.3416   2.3832   2.3905
     2.4463   2.4626   2.4971

          k = 0.0243-0.0733 0.0000 ( 52669 PWs)   bands (ev):

   -32.2739 -32.2662 -32.2475 -32.2400 -31.9392 -31.9292 -16.0402 -16.0032
   -15.9941 -15.9734 -15.9459 -15.9252 -15.9121 -15.9103 -15.9005 -15.8867
   -15.7943 -15.7765 -15.6768 -15.5582 -15.5494 -15.5326 -15.5246 -15.5163
    -5.8341  -5.8035  -5.7941  -5.7940  -5.7841  -5.7682  -5.7673  -5.7287
    -5.7258  -5.7193  -5.7183  -5.7157  -5.6945  -5.6910  -5.6905  -5.6885
    -5.6815  -5.6728  -5.6565  -5.6458  -5.6432  -5.6339  -5.6313  -5.6145
    -5.6103  -5.5907  -5.5696  -5.5382  -5.5261  -5.4518  -3.7043  -3.5668
    -3.0667  -2.9839  -2.9681  -2.5553   0.2101   0.4282   0.4627   0.7316
     0.7779   1.0047   1.2028   1.3458   1.3928   1.5099   1.7768   1.8200
     1.8569   1.9320   2.0748   2.1525   2.2643   2.2947   2.3027   2.3149
     2.4264   2.4353   2.4774

          k = 0.0243-0.0604 0.0000 ( 52666 PWs)   bands (ev):

   -32.2706 -32.2696 -32.2444 -32.2432 -31.9350 -31.9335 -16.0341 -16.0007
   -15.9935 -15.9713 -15.9433 -15.9314 -15.9005 -15.8890 -15.8601 -15.8513
   -15.8414 -15.8338 -15.6185 -15.6160 -15.5604 -15.5232 -15.5223 -15.5164
    -5.8450  -5.8039  -5.7965  -5.7939  -5.7832  -5.7735  -5.7583  -5.7546
    -5.7442  -5.7332  -5.7192  -5.7146  -5.7050  -5.7035  -5.6994  -5.6872
    -5.6798  -5.6633  -5.6539  -5.6507  -5.6492  -5.6452  -5.6249  -5.6222
    -5.6127  -5.6087  -5.5805  -5.5367  -5.5283  -5.4473  -3.9640  -3.3573
    -3.2292  -3.0007  -2.9212  -2.6868   0.3755   0.6617   0.6684   0.8498
     0.9942   1.2072   1.2753   1.4163   1.4362   1.5175   1.7940   1.8524
     1.9526   1.9715   2.1112   2.1558   2.1687   2.2118   2.3134   2.3663
     2.3972   2.4324   2.4350

          k = 0.0243-0.0474 0.0000 ( 52669 PWs)   bands (ev):

   -32.2749 -32.2654 -32.2488 -32.2389 -31.9379 -31.9306 -16.0265 -16.0071
   -15.9825 -15.9692 -15.9449 -15.9399 -15.9078 -15.8915 -15.8902 -15.8886
   -15.8003 -15.7819 -15.6779 -15.5703 -15.5541 -15.5275 -15.5146 -15.5078
    -5.8552  -5.8207  -5.8091  -5.8063  -5.7935  -5.7822  -5.7771  -5.7701
    -5.7593  -5.7494  -5.7247  -5.7235  -5.7172  -5.7142  -5.7103  -5.6981
    -5.6791  -5.6760  -5.6748  -5.6648  -5.6471  -5.6453  -5.6344  -5.6292
    -5.6214  -5.6041  -5.5795  -5.5027  -5.4990  -5.4438  -4.1957  -3.3799
    -3.1879  -3.0068  -2.8971  -2.8147   0.6062   0.9132   0.9396   0.9903
     1.1269   1.2735   1.3889   1.4530   1.4960   1.6303   1.7653   1.8086
     1.9284   1.9457   2.1780   2.1916   2.2036   2.2100   2.3333   2.3740
     2.3885   2.4486   2.4583

          k = 0.0243-0.0345 0.0000 ( 52687 PWs)   bands (ev):

   -32.2789 -32.2614 -32.2528 -32.2349 -31.9420 -31.9266 -16.0181 -16.0128
   -15.9717 -15.9710 -15.9594 -15.9549 -15.9423 -15.9356 -15.8935 -15.8806
   -15.7430 -15.7324 -15.7250 -15.5779 -15.5322 -15.5077 -15.4999 -15.4953
    -5.8632  -5.8454  -5.8304  -5.8294  -5.8193  -5.8144  -5.7852  -5.7755
    -5.7707  -5.7530  -5.7313  -5.7309  -5.7301  -5.7265  -5.7227  -5.7201
    -5.7091  -5.6949  -5.6833  -5.6727  -5.6482  -5.6451  -5.6410  -5.6404
    -5.6152  -5.5953  -5.5427  -5.4707  -5.4642  -5.4431  -4.3820  -3.5005
    -3.0933  -2.9472  -2.9206  -2.8854   0.8366   1.1186   1.1346   1.1474
     1.1772   1.1803   1.4433   1.4912   1.5585   1.6307   1.6345   1.8370
     1.8989   2.0700   2.1517   2.1891   2.2957   2.3100   2.3124   2.3535
     2.4346   2.4630   2.5063

          k = 0.0243-0.0216 0.0000 ( 52703 PWs)   bands (ev):

   -32.2823 -32.2581 -32.2563 -32.2316 -31.9455 -31.9230 -16.0175 -16.0126
   -16.0011 -15.9864 -15.9824 -15.9634 -15.9548 -15.9297 -15.8992 -15.8729
   -15.7786 -15.6931 -15.6751 -15.5827 -15.5362 -15.5030 -15.4934 -15.4443
    -5.8683  -5.8657  -5.8612  -5.8512  -5.8388  -5.8368  -5.7902  -5.7819
    -5.7788  -5.7746  -5.7552  -5.7425  -5.7367  -5.7329  -5.7293  -5.7252
    -5.7248  -5.7110  -5.6883  -5.6725  -5.6528  -5.6507  -5.6404  -5.6397
    -5.6015  -5.5850  -5.5121  -5.4456  -5.4423  -5.4332  -4.5130  -3.5812
    -3.0534  -2.9959  -2.8765  -2.8273   0.9647   1.0039   1.0282   1.1284
     1.1567   1.4005   1.4707   1.5144   1.5525   1.5883   1.6441   1.9050
     2.0853   2.1103   2.1282   2.1896   2.2315   2.3479   2.3596   2.4083
     2.4603   2.5103   2.5178

          k = 0.0365-0.0130 0.0000 ( 52703 PWs)   bands (ev):

   -32.2822 -32.2582 -32.2560 -32.2317 -31.9457 -31.9228 -16.0174 -16.0111
   -16.0025 -16.0001 -15.9887 -15.9677 -15.9405 -15.9201 -15.9109 -15.8758
   -15.7787 -15.6929 -15.6749 -15.5753 -15.5372 -15.5079 -15.4954 -15.4452
    -5.8611  -5.8559  -5.8549  -5.8434  -5.8358  -5.8228  -5.7912  -5.7743
    -5.7664  -5.7625  -5.7503  -5.7466  -5.7347  -5.7311  -5.7261  -5.7156
    -5.7077  -5.7011  -5.6812  -5.6794  -5.6544  -5.6453  -5.6298  -5.6161
    -5.6021  -5.5863  -5.5194  -5.4586  -5.4430  -5.4331  -4.4271  -3.5101
    -3.1069  -2.9732  -2.8609  -2.7185   0.7537   0.7652   0.9145   0.9192
     0.9817   1.2554   1.3953   1.4316   1.4334   1.6498   1.7481   2.0028
     2.0533   2.0780   2.0986   2.1983   2.2368   2.3036   2.3379   2.4915
     2.4990   2.5054   2.5289

          k = 0.0365-0.0001 0.0000 ( 52696 PWs)   bands (ev):

   -32.2846 -32.2585 -32.2557 -32.2292 -31.9486 -31.9199 -16.0439 -16.0251
   -16.0240 -16.0154 -15.9918 -15.9658 -15.9388 -15.9235 -15.9087 -15.8732
   -15.8142 -15.6546 -15.6364 -15.5740 -15.5414 -15.5079 -15.4923 -15.4066
    -5.8790  -5.8619  -5.8521  -5.8394  -5.8367  -5.8212  -5.7963  -5.7924
    -5.7865  -5.7564  -5.7496  -5.7401  -5.7370  -5.7342  -5.7273  -5.7210
    -5.6984  -5.6979  -5.6833  -5.6705  -5.6577  -5.6441  -5.6302  -5.6018
    -5.5938  -5.5763  -5.5022  -5.4705  -5.4235  -5.4072  -4.4546  -3.5095
    -3.0345  -3.0040  -2.8163  -2.5721   0.4850   0.5400   0.6716   0.7716
     0.8586   1.1810   1.4038   1.4553   1.4670   1.7597   1.7804   1.8768
     2.0129   2.0956   2.1391   2.2392   2.2455   2.2967   2.3603   2.4297
     2.4744   2.5185   2.5324

          k = 0.0365 0.0128 0.0000 ( 52668 PWs)   bands (ev):

   -32.2861 -32.2599 -32.2541 -32.2277 -31.9505 -31.9179 -16.0678 -16.0482
   -16.0353 -16.0207 -15.9832 -15.9658 -15.9381 -15.9351 -15.8984 -15.8740
   -15.8365 -15.6308 -15.6123 -15.5705 -15.5447 -15.5101 -15.4916 -15.3828
    -5.8902  -5.8637  -5.8379  -5.8309  -5.8242  -5.8083  -5.8017  -5.8007
    -5.7878  -5.7489  -5.7418  -5.7380  -5.7306  -5.7271  -5.7203  -5.7197
    -5.6898  -5.6891  -5.6854  -5.6591  -5.6555  -5.6418  -5.6326  -5.5910
    -5.5842  -5.5685  -5.4956  -5.4849  -5.4129  -5.3895  -4.4205  -3.4658
    -3.0109  -2.9615  -2.7611  -2.4257   0.2201   0.3205   0.4255   0.6058
     0.7562   1.0807   1.2987   1.3109   1.4483   1.7311   1.7949   1.8518
     1.9307   2.0451   2.1877   2.2174   2.2730   2.3618   2.3817   2.4106
     2.4720   2.5239   2.5281

          k = 0.0365 0.0258 0.0000 ( 52693 PWs)   bands (ev):

   -32.2865 -32.2602 -32.2537 -32.2273 -31.9512 -31.9171 -16.0781 -16.0576
   -16.0460 -16.0230 -15.9767 -15.9666 -15.9462 -15.9359 -15.8902 -15.8779
   -15.8443 -15.6230 -15.6043 -15.5654 -15.5464 -15.5145 -15.4933 -15.3756
    -5.8891  -5.8624  -5.8275  -5.8176  -5.8046  -5.8044  -5.7919  -5.7890
    -5.7742  -5.7398  -5.7365  -5.7289  -5.7254  -5.7199  -5.7123  -5.7001
    -5.6858  -5.6792  -5.6768  -5.6584  -5.6430  -5.6383  -5.6355  -5.5930
    -5.5653  -5.5646  -5.5015  -5.4998  -5.4117  -5.3824  -4.3248  -3.3827
    -3.0044  -2.9163  -2.7095  -2.2934   0.0132   0.1386   0.2010   0.4739
     0.6693   0.9357   1.0546   1.1823   1.4315   1.6299   1.6362   1.7715
     1.9917   2.0177   2.1627   2.2346   2.3491   2.3667   2.3704   2.4044
     2.4828   2.5029   2.5471

          k = 0.0365 0.0387 0.0000 ( 52693 PWs)   bands (ev):

   -32.2857 -32.2595 -32.2543 -32.2280 -31.9508 -31.9174 -16.0738 -16.0535
   -16.0525 -16.0239 -15.9751 -15.9655 -15.9531 -15.9340 -15.8864 -15.8825
   -15.8370 -15.6315 -15.6127 -15.5590 -15.5461 -15.5207 -15.4967 -15.3853
    -5.8763  -5.8547  -5.8193  -5.8096  -5.7964  -5.7868  -5.7763  -5.7699
    -5.7523  -5.7327  -5.7279  -5.7179  -5.7124  -5.7080  -5.7014  -5.6984
    -5.6731  -5.6671  -5.6627  -5.6548  -5.6463  -5.6360  -5.6290  -5.5983
    -5.5677  -5.5462  -5.5195  -5.5145  -5.4191  -5.3874  -4.1730  -3.2691
    -2.9985  -2.9365  -2.6838  -2.2001  -0.0795   0.0115   0.0225   0.3501
     0.6113   0.7836   0.8534   1.0709   1.4278   1.4849   1.5885   1.7262
     1.9253   2.0085   2.0927   2.2512   2.3263   2.3305   2.4277   2.4314
     2.4754   2.4908   2.5044

          k = 0.0365 0.0516 0.0000 ( 52699 PWs)   bands (ev):

   -32.2839 -32.2576 -32.2561 -32.2298 -31.9493 -31.9189 -16.0573 -16.0548
   -16.0331 -16.0231 -15.9782 -15.9621 -15.9566 -15.9308 -15.8945 -15.8797
   -15.8150 -15.6553 -15.6366 -15.5519 -15.5435 -15.5285 -15.5014 -15.4111
    -5.8543  -5.8408  -5.8150  -5.8036  -5.7802  -5.7747  -5.7632  -5.7526
    -5.7276  -5.7263  -5.7156  -5.7106  -5.7087  -5.6969  -5.6941  -5.6823
    -5.6700  -5.6579  -5.6539  -5.6509  -5.6465  -5.6401  -5.6209  -5.6045
    -5.5752  -5.5416  -5.5378  -5.5314  -5.4316  -5.4055  -3.9787  -3.1426
    -3.0506  -3.0079  -2.7090  -2.1747  -0.1167  -0.0230  -0.0088   0.2383
     0.5567   0.7292   0.8053   0.9784   1.4398   1.4425   1.5947   1.6876
     1.8630   1.9325   2.0327   2.2286   2.2844   2.2967   2.4326   2.4476
     2.4828   2.4882   2.5011

          k = 0.0365-0.0905 0.0000 ( 52671 PWs)   bands (ev):

   -32.2812 -32.2588 -32.2548 -32.2325 -31.9468 -31.9215 -16.0571 -16.0219
   -16.0198 -16.0003 -15.9828 -15.9586 -15.9570 -15.9257 -15.9055 -15.8779
   -15.7794 -15.6923 -15.6738 -15.5443 -15.5385 -15.5373 -15.5068 -15.4507
    -5.8277  -5.8230  -5.8222  -5.7839  -5.7711  -5.7652  -5.7518  -5.7363
    -5.7232  -5.7224  -5.7080  -5.6999  -5.6975  -5.6884  -5.6868  -5.6714
    -5.6688  -5.6687  -5.6603  -5.6489  -5.6432  -5.6375  -5.6120  -5.6073
    -5.5866  -5.5725  -5.5547  -5.5352  -5.4424  -5.4361  -3.7619  -3.2518
    -3.0437  -3.0247  -2.7976  -2.2340  -0.1591   0.0609   0.1620   0.2191
     0.5292   0.8101   0.8966   0.9329   1.4628   1.4783   1.6476   1.6878
     1.8176   1.8423   2.0089   2.2095   2.2637   2.2680   2.3854   2.4091
     2.4620   2.5066   2.5188

          k = 0.0365-0.0776 0.0000 ( 52661 PWs)   bands (ev):

   -32.2777 -32.2623 -32.2513 -32.2361 -31.9434 -31.9249 -16.0533 -16.0136
   -15.9893 -15.9775 -15.9579 -15.9551 -15.9524 -15.9185 -15.9180 -15.8778
   -15.7395 -15.7324 -15.7214 -15.5467 -15.5365 -15.5318 -15.5122 -15.5009
    -5.8308  -5.8062  -5.8016  -5.7693  -5.7683  -5.7562  -5.7412  -5.7342
    -5.7288  -5.7189  -5.7039  -5.7006  -5.6902  -5.6870  -5.6846  -5.6828
    -5.6783  -5.6632  -5.6579  -5.6524  -5.6409  -5.6333  -5.6176  -5.6052
    -5.6043  -5.5880  -5.5655  -5.5578  -5.4801  -5.4435  -3.5446  -3.5027
    -3.0908  -2.9476  -2.9377  -2.3640  -0.0910   0.2212   0.3011   0.4442
     0.5741   0.9717   0.9808   1.0903   1.4752   1.5889   1.7206   1.7396
     1.7661   1.7978   2.0341   2.2078   2.2435   2.2579   2.3488   2.3584
     2.3642   2.4767   2.4966

          k = 0.0365-0.0647 0.0000 ( 52644 PWs)   bands (ev):

   -32.2738 -32.2663 -32.2473 -32.2402 -31.9394 -31.9290 -16.0465 -16.0044
   -15.9951 -15.9549 -15.9515 -15.9346 -15.9191 -15.9095 -15.9010 -15.8795
   -15.7936 -15.7758 -15.6766 -15.5584 -15.5558 -15.5284 -15.5239 -15.5176
    -5.8400  -5.7919  -5.7842  -5.7698  -5.7683  -5.7593  -5.7494  -5.7408
    -5.7385  -5.7204  -5.7185  -5.6985  -5.6953  -5.6947  -5.6893  -5.6854
    -5.6800  -5.6736  -5.6468  -5.6448  -5.6431  -5.6324  -5.6315  -5.6238
    -5.6136  -5.5914  -5.5655  -5.5596  -5.5319  -5.4419  -3.7623  -3.3453
    -3.1403  -3.0998  -2.9094  -2.5260   0.0860   0.4425   0.4846   0.6724
     0.7369   1.1201   1.1862   1.3395   1.4919   1.6352   1.7667   1.7745
     1.8134   1.8574   2.1074   2.1686   2.1969   2.2255   2.2663   2.2896
     2.3868   2.4261   2.4430

          k = 0.0365-0.0518 0.0000 ( 52664 PWs)   bands (ev):

   -32.2707 -32.2696 -32.2445 -32.2431 -31.9351 -31.9334 -16.0372 -16.0012
   -15.9935 -15.9559 -15.9466 -15.9445 -15.8997 -15.8836 -15.8611 -15.8509
   -15.8422 -15.8333 -15.6186 -15.6158 -15.5640 -15.5226 -15.5209 -15.5158
    -5.8485  -5.7914  -5.7846  -5.7819  -5.7768  -5.7747  -5.7720  -5.7552
    -5.7460  -5.7312  -5.7243  -5.7179  -5.7095  -5.7060  -5.7006  -5.6818
    -5.6761  -5.6666  -5.6543  -5.6500  -5.6440  -5.6431  -5.6325  -5.6257
    -5.6128  -5.6099  -5.5859  -5.5363  -5.5330  -5.4413  -3.9997  -3.2541
    -3.1970  -3.1467  -2.8995  -2.6834   0.3378   0.6929   0.7074   0.8239
     0.9773   1.3312   1.3458   1.5097   1.5226   1.5450   1.7110   1.8592
     1.9337   1.9534   2.0501   2.1164   2.2035   2.2429   2.2483   2.3434
     2.3782   2.3892   2.4226

          k = 0.0365-0.0388 0.0000 ( 52669 PWs)   bands (ev):

   -32.2749 -32.2654 -32.2488 -32.2389 -31.9379 -31.9306 -16.0265 -16.0071
   -15.9825 -15.9692 -15.9449 -15.9399 -15.9078 -15.8915 -15.8902 -15.8886
   -15.8003 -15.7819 -15.6779 -15.5703 -15.5541 -15.5275 -15.5146 -15.5078
    -5.8552  -5.8207  -5.8091  -5.8063  -5.7935  -5.7822  -5.7771  -5.7701
    -5.7593  -5.7494  -5.7247  -5.7235  -5.7172  -5.7142  -5.7103  -5.6981
    -5.6791  -5.6760  -5.6748  -5.6648  -5.6471  -5.6453  -5.6344  -5.6292
    -5.6214  -5.6041  -5.5795  -5.5027  -5.4990  -5.4438  -4.1957  -3.3799
    -3.1879  -3.0068  -2.8971  -2.8147   0.6062   0.9132   0.9396   0.9903
     1.1269   1.2735   1.3889   1.4530   1.4960   1.6303   1.7653   1.8086
     1.9284   1.9457   2.1780   2.1922   2.2037   2.2099   2.3331   2.3743
     2.3896   2.4407   2.4550

          k = 0.0365-0.0259 0.0000 ( 52661 PWs)   bands (ev):

   -32.2789 -32.2615 -32.2527 -32.2350 -31.9421 -31.9265 -16.0153 -16.0124
   -15.9860 -15.9740 -15.9605 -15.9431 -15.9427 -15.9310 -15.8995 -15.8816
   -15.7427 -15.7324 -15.7247 -15.5741 -15.5326 -15.5102 -15.5007 -15.4955
    -5.8591  -5.8439  -5.8329  -5.8303  -5.8162  -5.8123  -5.7860  -5.7668
    -5.7613  -5.7570  -5.7375  -5.7301  -5.7242  -5.7220  -5.7167  -5.7130
    -5.7100  -5.6923  -5.6813  -5.6785  -5.6495  -5.6457  -5.6312  -5.6260
    -5.6150  -5.5960  -5.5460  -5.4703  -5.4647  -5.4496  -4.3399  -3.4667
    -3.1612  -2.9115  -2.8904  -2.8592   0.8207   0.9370   0.9813   1.0834
     1.2241   1.2701   1.2743   1.3313   1.3719   1.6512   1.7437   1.9860
     2.0313   2.0365   2.1064   2.1129   2.2171   2.2914   2.3622   2.4391
     2.4603   2.4740   2.5073

          k = 0.0487-0.0173 0.0000 ( 52685 PWs)   bands (ev):

   -32.2786 -32.2617 -32.2525 -32.2352 -31.9424 -31.9261 -16.0138 -16.0072
   -16.0049 -15.9783 -15.9637 -15.9458 -15.9298 -15.9191 -15.9145 -15.8850
   -15.7418 -15.7324 -15.7239 -15.5644 -15.5334 -15.5172 -15.5032 -15.4963
    -5.8480  -5.8374  -5.8294  -5.8280  -5.8148  -5.7979  -5.7915  -5.7652
    -5.7467  -5.7447  -5.7295  -5.7240  -5.7219  -5.7137  -5.7120  -5.7040
    -5.7015  -5.6919  -5.6804  -5.6685  -5.6477  -5.6353  -5.6262  -5.6112
    -5.6031  -5.5973  -5.5552  -5.4693  -5.4683  -5.4654  -4.2185  -3.3707
    -3.2614  -2.8940  -2.8912  -2.7208   0.6568   0.7455   0.8023   0.8354
     0.8973   1.0999   1.2741   1.3108   1.3490   1.6752   1.8043   1.8294
     2.0155   2.0196   2.1178   2.1426   2.2906   2.3014   2.3452   2.4844
     2.4913   2.5011   2.5173

          k = 0.0487-0.0044 0.0000 ( 52692 PWs)   bands (ev):

   -32.2819 -32.2584 -32.2557 -32.2320 -31.9461 -31.9224 -16.0269 -16.0138
   -16.0131 -15.9952 -15.9900 -15.9727 -15.9314 -15.9283 -15.9060 -15.8819
   -15.7790 -15.6926 -15.6745 -15.5639 -15.5384 -15.5167 -15.4990 -15.4468
    -5.8497  -5.8458  -5.8342  -5.8244  -5.8244  -5.7997  -5.7952  -5.7651
    -5.7587  -5.7459  -5.7380  -5.7299  -5.7249  -5.7240  -5.7151  -5.7076
    -5.6947  -5.6817  -5.6789  -5.6676  -5.6506  -5.6350  -5.6264  -5.6029
    -5.5874  -5.5866  -5.5327  -5.4831  -5.4438  -5.4335  -4.2622  -3.3772
    -3.1625  -2.9471  -2.8374  -2.5616   0.4481   0.5040   0.5642   0.6666
     0.8079   0.9737   1.3228   1.3950   1.4344   1.6853   1.7477   1.7679
     1.9715   2.0489   2.1045   2.1810   2.3014   2.3240   2.3291   2.4442
     2.4662   2.4943   2.5282

          k = 0.0487 0.0085 0.0000 ( 52702 PWs)   bands (ev):

   -32.2843 -32.2581 -32.2559 -32.2295 -31.9490 -31.9194 -16.0493 -16.0414
   -16.0292 -16.0193 -15.9811 -15.9704 -15.9426 -15.9321 -15.8940 -15.8818
   -15.8146 -15.6549 -15.6365 -15.5620 -15.5429 -15.5179 -15.4968 -15.4088
    -5.8672  -5.8509  -5.8205  -5.8162  -5.8082  -5.8021  -5.7862  -5.7844
    -5.7615  -5.7334  -5.7313  -5.7290  -5.7223  -5.7198  -5.7139  -5.7077
    -5.6838  -5.6722  -5.6680  -5.6638  -5.6532  -5.6350  -5.6279  -5.5985
    -5.5762  -5.5670  -5.5188  -5.5003  -5.4271  -5.4060  -4.2472  -3.3419
    -3.0458  -2.9777  -2.7636  -2.3846   0.2009   0.2186   0.2797   0.4856
     0.7058   0.8924   1.1596   1.2699   1.4379   1.6677   1.7528   1.7787
     1.8509   1.9698   2.1470   2.1863   2.3196   2.3684   2.3764   2.3964
     2.4608   2.4999   2.5197

          k = 0.0487 0.0214 0.0000 ( 52693 PWs)   bands (ev):

   -32.2857 -32.2595 -32.2543 -32.2280 -31.9508 -31.9174 -16.0738 -16.0535
   -16.0525 -16.0239 -15.9751 -15.9655 -15.9531 -15.9340 -15.8864 -15.8825
   -15.8370 -15.6315 -15.6127 -15.5590 -15.5461 -15.5207 -15.4967 -15.3853
    -5.8763  -5.8547  -5.8193  -5.8096  -5.7964  -5.7868  -5.7763  -5.7699
    -5.7523  -5.7327  -5.7279  -5.7179  -5.7124  -5.7080  -5.7014  -5.6984
    -5.6731  -5.6671  -5.6627  -5.6548  -5.6463  -5.6360  -5.6290  -5.5983
    -5.5677  -5.5462  -5.5195  -5.5145  -5.4191  -5.3874  -4.1730  -3.2691
    -2.9985  -2.9365  -2.6838  -2.2001  -0.0795   0.0115   0.0225   0.3501
     0.6113   0.7836   0.8534   1.0709   1.4278   1.4849   1.5885   1.7262
     1.9253   2.0085   2.0927   2.2515   2.3263   2.3303   2.4269   2.4312
     2.4727   2.4884   2.4979

          k = 0.0487 0.0344 0.0000 ( 52707 PWs)   bands (ev):

[...]
    -5.8344  -5.8281  -5.8225  -5.8157  -5.7962  -5.7817  -5.7751  -5.7721
    -5.7371  -5.7286  -5.7160  -5.7101  -5.7064  -5.7035  -5.6977  -5.6926
    -5.6866  -5.6832  -5.6632  -5.6607  -5.6423  -5.6399  -5.6248  -5.6066
    -5.6025  -5.5930  -5.5917  -5.5090  -5.4846  -5.4789  -3.9744  -3.4709
    -3.2167  -2.9596  -2.8168  -2.7288   0.5697   0.6361   0.7010   0.7413
     0.9571   1.0500   1.1519   1.2575   1.2997   1.5106   1.8387   1.8646
     1.9522   1.9957   2.0507   2.1201   2.3368   2.3641   2.3887   2.4490
     2.4852   2.4947   2.4977

          k = 0.0609-0.0087 0.0000 ( 52699 PWs)   bands (ev):

   -32.2783 -32.2619 -32.2520 -32.2356 -31.9427 -31.9257 -16.0287 -16.0090
   -15.9952 -15.9817 -15.9680 -15.9494 -15.9327 -15.9218 -15.9041 -15.8918
   -15.7409 -15.7324 -15.7230 -15.5527 -15.5338 -15.5273 -15.5065 -15.4977
    -5.8327  -5.8242  -5.8189  -5.8142  -5.8102  -5.7992  -5.7713  -5.7636
    -5.7378  -5.7258  -5.7227  -5.7158  -5.7118  -5.7061  -5.7000  -5.6955
    -5.6929  -5.6921  -5.6617  -5.6608  -5.6422  -5.6329  -5.6239  -5.6064
    -5.5963  -5.5824  -5.5683  -5.4965  -5.4717  -5.4610  -4.0315  -3.3577
    -3.2299  -2.9014  -2.8962  -2.5743   0.4096   0.4761   0.5210   0.6577
     0.7882   0.8660   1.2876   1.3263   1.4124   1.5483   1.7007   1.7943
     1.9181   2.0420   2.0601   2.1271   2.2929   2.3796   2.3929   2.4274
     2.4424   2.4738   2.4946

          k = 0.0609 0.0042 0.0000 ( 52716 PWs)   bands (ev):

   -32.2815 -32.2586 -32.2552 -32.2323 -31.9464 -31.9219 -16.0442 -16.0177
   -16.0160 -15.9975 -15.9820 -15.9730 -15.9462 -15.9262 -15.8932 -15.8894
   -15.7792 -15.6924 -15.6742 -15.5525 -15.5390 -15.5274 -15.5031 -15.4488
    -5.8379  -5.8333  -5.8171  -5.8035  -5.7998  -5.7932  -5.7631  -5.7628
    -5.7414  -5.7274  -5.7267  -5.7164  -5.7136  -5.7027  -5.6997  -5.6929
    -5.6833  -5.6761  -5.6587  -5.6563  -5.6446  -5.6359  -5.6213  -5.6050
    -5.5869  -5.5595  -5.5491  -5.5163  -5.4437  -5.4347  -4.0331  -3.2117
    -3.2035  -2.9551  -2.8139  -2.3886   0.1755   0.1931   0.2970   0.3909
     0.6787   0.8031   1.1333   1.2320   1.4252   1.6600   1.7285   1.7355
     1.7765   1.9007   2.0911   2.1443   2.2685   2.3739   2.4201   2.4317
     2.4439   2.4763   2.4816

          k = 0.0609 0.0171 0.0000 ( 52699 PWs)   bands (ev):

   -32.2839 -32.2576 -32.2561 -32.2298 -31.9493 -31.9189 -16.0573 -16.0548
   -16.0331 -16.0231 -15.9782 -15.9621 -15.9566 -15.9308 -15.8945 -15.8797
   -15.8150 -15.6553 -15.6366 -15.5519 -15.5435 -15.5285 -15.5014 -15.4111
    -5.8543  -5.8408  -5.8150  -5.8036  -5.7802  -5.7747  -5.7632  -5.7526
    -5.7276  -5.7263  -5.7156  -5.7106  -5.7087  -5.6969  -5.6941  -5.6823
    -5.6700  -5.6579  -5.6539  -5.6509  -5.6465  -5.6401  -5.6209  -5.6045
    -5.5752  -5.5416  -5.5378  -5.5314  -5.4316  -5.4055  -3.9787  -3.1426
    -3.0506  -3.0079  -2.7090  -2.1747  -0.1167  -0.0230  -0.0088   0.2383
     0.5567   0.7292   0.8053   0.9784   1.4398   1.4425   1.5947   1.6876
     1.8630   1.9325   2.0327   2.2287   2.2839   2.2962   2.4313   2.4461
     2.4881   2.4956   2.5225

          k = 0.0609 0.0300 0.0000 ( 52699 PWs)   bands (ev):

   -32.2854 -32.2591 -32.2545 -32.2282 -31.9511 -31.9170 -16.0791 -16.0669
   -16.0561 -16.0295 -15.9769 -15.9633 -15.9509 -15.9345 -15.8992 -15.8719
   -15.8375 -15.6321 -15.6131 -15.5511 -15.5460 -15.5303 -15.5012 -15.3876
    -5.8626  -5.8472  -5.8168  -5.8150  -5.7645  -5.7585  -5.7408  -5.7406
    -5.7231  -5.7142  -5.7101  -5.6983  -5.6918  -5.6895  -5.6815  -5.6679
    -5.6575  -5.6556  -5.6514  -5.6443  -5.6407  -5.6382  -5.6200  -5.6066
    -5.5665  -5.5605  -5.5370  -5.5100  -5.4276  -5.3859  -3.8725  -3.0739
    -3.0554  -2.9084  -2.6097  -1.9538  -0.3688  -0.3015  -0.1490   0.1388
     0.4229   0.4909   0.6213   0.7466   1.1325   1.4344   1.5277   1.6339
     1.8246   1.9571   2.0837   2.2309   2.2562   2.3010   2.4340   2.4621
     2.5054   2.5295   2.5446

          k = 0.0609 0.0429 0.0000 ( 52707 PWs)   bands (ev):

   -32.2858 -32.2595 -32.2540 -32.2277 -31.9518 -31.9162 -16.0885 -16.0725
   -16.0647 -16.0337 -15.9770 -15.9665 -15.9412 -15.9365 -15.9063 -15.8671
   -15.8453 -15.6244 -15.6052 -15.5505 -15.5459 -15.5328 -15.5021 -15.3800
    -5.8619  -5.8488  -5.8222  -5.8160  -5.7554  -5.7523  -5.7285  -5.7206
    -5.7152  -5.7113  -5.6886  -5.6873  -5.6861  -5.6791  -5.6697  -5.6620
    -5.6541  -5.6520  -5.6459  -5.6419  -5.6338  -5.6334  -5.6176  -5.6107
    -5.5831  -5.5629  -5.5417  -5.4924  -5.4309  -5.3787  -3.7257  -3.1556
    -2.9707  -2.8390  -2.5505  -1.7858  -0.5456  -0.4562  -0.2039   0.0977
     0.1255   0.4693   0.5292   0.5705   0.9432   1.4397   1.4929   1.5825
     1.7908   1.8890   2.1384   2.1897   2.2317   2.3178   2.4652   2.4864
     2.4975   2.5319   2.5529

          k = 0.0609-0.0992 0.0000 ( 52698 PWs)   bands (ev):

   -32.2852 -32.2588 -32.2546 -32.2284 -31.9513 -31.9167 -16.0821 -16.0738
   -16.0582 -16.0343 -15.9784 -15.9671 -15.9359 -15.9333 -15.9156 -15.8652
   -15.8379 -15.6325 -15.6133 -15.5489 -15.5439 -15.5360 -15.5038 -15.3888
    -5.8530  -5.8437  -5.8183  -5.8172  -5.7507  -5.7472  -5.7233  -5.7110
    -5.7081  -5.7062  -5.6834  -5.6800  -5.6799  -5.6737  -5.6661  -5.6633
    -5.6492  -5.6438  -5.6435  -5.6427  -5.6380  -5.6294  -5.6145  -5.6133
    -5.6018  -5.5655  -5.5543  -5.4857  -5.4371  -5.3852  -3.5580  -3.2587
    -2.9082  -2.8903  -2.5634  -1.7682  -0.6118  -0.4170  -0.1758  -0.0072
     0.1650   0.3937   0.4886   0.6303   0.8724   1.4710   1.5017   1.5462
     1.7692   1.8631   2.1547   2.1725   2.2222   2.3215   2.3733   2.4799
     2.5189   2.5581   2.5744

          k = 0.0609-0.0863 0.0000 ( 52626 PWs)   bands (ev):

   -32.2836 -32.2572 -32.2563 -32.2301 -31.9497 -31.9184 -16.0708 -16.0603
   -16.0368 -16.0307 -15.9809 -15.9653 -15.9324 -15.9274 -15.9265 -15.8664
   -15.8155 -15.6557 -15.6367 -15.5457 -15.5408 -15.5396 -15.5061 -15.4134
    -5.8386  -5.8323  -5.8219  -5.8018  -5.7483  -5.7419  -5.7241  -5.7108
    -5.7103  -5.7014  -5.6897  -5.6870  -5.6842  -5.6775  -5.6677  -5.6577
    -5.6562  -5.6456  -5.6443  -5.6419  -5.6396  -5.6309  -5.6144  -5.6106
    -5.6062  -5.5742  -5.5725  -5.4974  -5.4392  -5.4054  -3.4188  -3.3390
    -3.0541  -2.8895  -2.6528  -1.9171  -0.5463  -0.2039  -0.0884   0.0358
     0.3704   0.3834   0.5372   0.8608   0.8799   1.5051   1.5507   1.5590
     1.7635   1.8926   2.1733   2.1884   2.2015   2.2461   2.3239   2.4821
     2.4857   2.4996   2.5439

          k = 0.0609-0.0734 0.0000 ( 52670 PWs)   bands (ev):

   -32.2810 -32.2589 -32.2546 -32.2327 -31.9470 -31.9212 -16.0638 -16.0245
   -16.0234 -16.0019 -15.9843 -15.9614 -15.9403 -15.9263 -15.9219 -15.8705
   -15.7796 -15.6922 -15.6736 -15.5433 -15.5411 -15.5369 -15.5089 -15.4518
    -5.8264  -5.8213  -5.8175  -5.7788  -5.7494  -5.7454  -5.7293  -5.7237
    -5.7152  -5.7093  -5.7088  -5.6877  -5.6849  -5.6810  -5.6786  -5.6735
    -5.6652  -5.6538  -5.6482  -5.6461  -5.6400  -5.6342  -5.6141  -5.6022
    -5.5916  -5.5913  -5.5868  -5.5240  -5.4408  -5.4370  -3.4810  -3.2755
    -3.2203  -2.9104  -2.7902  -2.1406  -0.3599   0.0432   0.1020   0.1544
     0.4482   0.7161   0.7161   0.9233   1.2024   1.4999   1.6362   1.6453
     1.7737   1.9642   1.9869   2.1918   2.2392   2.2715   2.3045   2.4112
     2.4560   2.5054   2.5078

          k = 0.0609-0.0604 0.0000 ( 52661 PWs)   bands (ev):

   -32.2777 -32.2623 -32.2513 -32.2361 -31.9434 -31.9249 -16.0533 -16.0136
   -15.9893 -15.9775 -15.9579 -15.9551 -15.9524 -15.9185 -15.9180 -15.8778
   -15.7395 -15.7324 -15.7214 -15.5467 -15.5365 -15.5318 -15.5122 -15.5009
    -5.8308  -5.8062  -5.8016  -5.7693  -5.7683  -5.7562  -5.7412  -5.7342
    -5.7288  -5.7189  -5.7039  -5.7006  -5.6902  -5.6870  -5.6846  -5.6828
    -5.6783  -5.6632  -5.6579  -5.6524  -5.6409  -5.6333  -5.6176  -5.6052
    -5.6043  -5.5880  -5.5655  -5.5578  -5.4801  -5.4435  -3.5446  -3.5027
    -3.0908  -2.9476  -2.9377  -2.3640  -0.0910   0.2212   0.3011   0.4442
     0.5741   0.9717   0.9808   1.0903   1.4752   1.5889   1.7206   1.7396
     1.7661   1.7978   2.0341   2.2078   2.2434   2.2580   2.3491   2.3592
     2.3636   2.4765   2.5079

          k = 0.0609-0.0475 0.0000 ( 52669 PWs)   bands (ev):

   -32.2739 -32.2662 -32.2475 -32.2400 -31.9392 -31.9292 -16.0402 -16.0032
   -15.9941 -15.9734 -15.9459 -15.9252 -15.9121 -15.9103 -15.9005 -15.8867
   -15.7943 -15.7765 -15.6768 -15.5582 -15.5494 -15.5326 -15.5246 -15.5163
    -5.8341  -5.8035  -5.7941  -5.7940  -5.7841  -5.7682  -5.7673  -5.7287
    -5.7258  -5.7193  -5.7183  -5.7157  -5.6945  -5.6910  -5.6905  -5.6885
    -5.6815  -5.6728  -5.6565  -5.6458  -5.6432  -5.6339  -5.6313  -5.6145
    -5.6103  -5.5907  -5.5696  -5.5382  -5.5261  -5.4518  -3.7043  -3.5668
    -3.0667  -2.9839  -2.9681  -2.5553   0.2101   0.4282   0.4627   0.7316
     0.7779   1.0047   1.2028   1.3458   1.3928   1.5099   1.7768   1.8200
     1.8569   1.9320   2.0748   2.1525   2.2646   2.2951   2.3032   2.3150
     2.4274   2.4361   2.4737

          k = 0.0609-0.0346 0.0000 ( 52711 PWs)   bands (ev):

   -32.2704 -32.2698 -32.2442 -32.2435 -31.9346 -31.9338 -16.0252 -16.0005
   -15.9941 -15.9900 -15.9337 -15.9180 -15.9032 -15.9024 -15.8577 -15.8526
   -15.8395 -15.8352 -15.6181 -15.6167 -15.5513 -15.5299 -15.5212 -15.5179
    -5.8353  -5.8193  -5.8140  -5.8068  -5.7880  -5.7769  -5.7708  -5.7485
    -5.7410  -5.7291  -5.7139  -5.7096  -5.7057  -5.6999  -5.6942  -5.6867
    -5.6794  -5.6666  -5.6526  -5.6525  -5.6482  -5.6454  -5.6224  -5.6209
    -5.6084  -5.6063  -5.5677  -5.5430  -5.5108  -5.4638  -3.8640  -3.5421
    -3.1619  -2.9848  -2.8580  -2.7057   0.4894   0.5828   0.6043   0.8970
     0.9741   1.0450   1.1973   1.2436   1.3375   1.4376   1.8635   1.8827
     1.9421   2.0069   2.0185   2.1194   2.3024   2.3097   2.4041   2.4136
     2.4390   2.4904   2.5189

          k =-0.0730 0.0260 0.0000 ( 52706 PWs)   bands (ev):

   -32.2702 -32.2700 -32.2438 -32.2438 -31.9342 -31.9342 -16.0116 -16.0115
   -15.9951 -15.9951 -15.9193 -15.9192 -15.9085 -15.9084 -15.8550 -15.8548
   -15.8373 -15.8373 -15.6175 -15.6174 -15.5401 -15.5401 -15.5196 -15.5196
    -5.8258  -5.8258  -5.8178  -5.8178  -5.7885  -5.7885  -5.7620  -5.7620
    -5.7315  -5.7315  -5.7103  -5.7103  -5.7048  -5.7048  -5.6845  -5.6845
    -5.6742  -5.6742  -5.6516  -5.6516  -5.6464  -5.6464  -5.6225  -5.6225
    -5.6055  -5.6055  -5.5538  -5.5538  -5.4869  -5.4869  -3.7168  -3.7167
    -3.0719  -3.0719  -2.7588  -2.7588   0.5555   0.5555   0.6810   0.6811
     1.0662   1.0663   1.1261   1.1261   1.3489   1.3489   1.9002   1.9002
     1.9464   1.9464   2.0570   2.0570   2.3883   2.3917   2.4335   2.4345
     2.4453   2.4455   2.5112

          k =-0.0730 0.0389 0.0000 ( 52691 PWs)   bands (ev):

   -32.2742 -32.2660 -32.2479 -32.2397 -31.9388 -31.9296 -16.0281 -16.0024
   -15.9963 -15.9875 -15.9340 -15.9204 -15.9128 -15.9068 -15.9015 -15.8924
   -15.7956 -15.7779 -15.6772 -15.5576 -15.5412 -15.5391 -15.5254 -15.5142
    -5.8253  -5.8199  -5.8135  -5.8129  -5.7891  -5.7839  -5.7748  -5.7501
    -5.7250  -5.7243  -5.7175  -5.7108  -5.7017  -5.6993  -5.6886  -5.6868
    -5.6834  -5.6783  -5.6618  -5.6496  -5.6408  -5.6375  -5.6289  -5.6073
    -5.6057  -5.5915  -5.5792  -5.5174  -5.5081  -5.4680  -3.7836  -3.6011
    -3.0915  -3.0137  -2.8654  -2.6222   0.4374   0.4593   0.5014   0.8108
     0.8421   0.8768   1.2619   1.3258   1.3486   1.3730   1.7834   1.8579
     1.8729   2.0486   2.0694   2.0752   2.3331   2.3559   2.3830   2.4028
     2.4515   2.4590   2.4891

          k =-0.0730 0.0518 0.0000 ( 52693 PWs)   bands (ev):

   -32.2780 -32.2621 -32.2516 -32.2359 -31.9431 -31.9252 -16.0437 -16.0107
   -15.9883 -15.9778 -15.9698 -15.9525 -15.9471 -15.9189 -15.9033 -15.8887
   -15.7400 -15.7324 -15.7220 -15.5426 -15.5382 -15.5333 -15.5098 -15.4993
    -5.8241  -5.8173  -5.8059  -5.7965  -5.7955  -5.7799  -5.7531  -5.7412
    -5.7370  -5.7220  -5.7136  -5.7022  -5.7006  -5.6980  -5.6881  -5.6859
    -5.6835  -5.6809  -5.6621  -5.6458  -5.6453  -5.6363  -5.6175  -5.6055
    -5.5918  -5.5876  -5.5651  -5.5308  -5.4762  -5.4523  -3.7987  -3.4423
    -3.0748  -2.9540  -2.9193  -2.4477   0.1442   0.2617   0.3579   0.5187
     0.6802   0.8541   1.1959   1.2057   1.4036   1.6047   1.7140   1.7715
     1.8145   1.8668   2.0661   2.1303   2.2611   2.3419   2.3839   2.3910
     2.4480   2.4679   2.4952

          k =-0.0730 0.0648 0.0000 ( 52671 PWs)   bands (ev):

   -32.2812 -32.2588 -32.2548 -32.2325 -31.9468 -31.9215 -16.0571 -16.0219
   -16.0198 -16.0003 -15.9828 -15.9586 -15.9570 -15.9257 -15.9055 -15.8779
   -15.7794 -15.6923 -15.6738 -15.5443 -15.5385 -15.5373 -15.5068 -15.4507
    -5.8277  -5.8230  -5.8222  -5.7839  -5.7711  -5.7652  -5.7518  -5.7363
    -5.7232  -5.7224  -5.7080  -5.6999  -5.6975  -5.6884  -5.6868  -5.6714
    -5.6688  -5.6687  -5.6603  -5.6489  -5.6432  -5.6375  -5.6120  -5.6073
    -5.5866  -5.5725  -5.5547  -5.5352  -5.4424  -5.4361  -3.7619  -3.2518
    -3.0437  -3.0247  -2.7976  -2.2340  -0.1591   0.0609   0.1620   0.2191
     0.5292   0.8101   0.8966   0.9329   1.4627   1.4783   1.6476   1.6878
     1.8176   1.8423   2.0089   2.2097   2.2635   2.2679   2.3850   2.4095
     2.4593   2.5076   2.5153

          k =-0.0730 0.0777 0.0000 ( 52674 PWs)   bands (ev):

   -32.2837 -32.2573 -32.2562 -32.2300 -31.9496 -31.9186 -16.0674 -16.0588
   -16.0358 -16.0283 -15.9802 -15.9635 -15.9451 -15.9317 -15.9096 -15.8700
   -15.8154 -15.6556 -15.6367 -15.5466 -15.5422 -15.5366 -15.5048 -15.4128
    -5.8434  -5.8342  -5.8201  -5.8016  -5.7554  -5.7499  -5.7333  -5.7296
    -5.7181  -5.7089  -5.6966  -5.6886  -5.6867  -5.6852  -5.6752  -5.6651
    -5.6552  -5.6545  -5.6511  -5.6458  -5.6455  -5.6341  -5.6129  -5.6101
    -5.5795  -5.5741  -5.5612  -5.5074  -5.4366  -5.4054  -3.6774  -3.1400
    -3.0531  -2.9644  -2.6679  -1.9931  -0.4255  -0.1594  -0.0919   0.0835
     0.4295   0.4996   0.6774   0.7336   1.1177   1.4704   1.5637   1.6101
     1.7895   1.9337   2.0507   2.2056   2.2470   2.2968   2.3379   2.4478
     2.4917   2.5368   2.5495

          k =-0.0730 0.0906 0.0000 ( 52698 PWs)   bands (ev):

   -32.2852 -32.2588 -32.2546 -32.2284 -31.9513 -31.9167 -16.0821 -16.0738
   -16.0582 -16.0343 -15.9784 -15.9671 -15.9359 -15.9333 -15.9156 -15.8652
   -15.8379 -15.6325 -15.6133 -15.5489 -15.5439 -15.5360 -15.5038 -15.3888
    -5.8530  -5.8437  -5.8183  -5.8172  -5.7507  -5.7472  -5.7233  -5.7110
    -5.7081  -5.7062  -5.6834  -5.6800  -5.6799  -5.6737  -5.6661  -5.6633
    -5.6492  -5.6438  -5.6435  -5.6427  -5.6380  -5.6294  -5.6145  -5.6133
    -5.6018  -5.5655  -5.5543  -5.4857  -5.4371  -5.3852  -3.5580  -3.2587
    -2.9082  -2.8903  -2.5634  -1.7682  -0.6118  -0.4170  -0.1758  -0.0072
     0.1650   0.3937   0.4886   0.6303   0.8724   1.4710   1.5017   1.5462
     1.7692   1.8631   2.1547   2.1728   2.2221   2.3215   2.3734   2.4793
     2.4980   2.5547   2.5690

          k =-0.0730-0.0515 0.0000 ( 52706 PWs)   bands (ev):

   -32.2857 -32.2593 -32.2540 -32.2278 -31.9519 -31.9161 -16.0901 -16.0760
   -16.0658 -16.0365 -15.9779 -15.9682 -15.9374 -15.9238 -15.9231 -15.8637
   -15.8455 -15.6246 -15.6053 -15.5498 -15.5443 -15.5358 -15.5035 -15.3807
    -5.8561  -5.8475  -5.8227  -5.8176  -5.7500  -5.7476  -5.7195  -5.7074
    -5.7071  -5.6937  -5.6811  -5.6808  -5.6770  -5.6749  -5.6577  -5.6515
    -5.6510  -5.6425  -5.6399  -5.6380  -5.6366  -5.6273  -5.6166  -5.6157
    -5.6116  -5.5624  -5.5520  -5.4764  -5.4390  -5.3782  -3.4559  -3.3590
    -2.8851  -2.8247  -2.5224  -1.6644  -0.6795  -0.5215  -0.1995  -0.0567
     0.0441   0.4055   0.4170   0.5479   0.8032   1.4721   1.4854   1.5150
     1.7617   1.8350   2.1620   2.1626   2.2072   2.3256   2.4547   2.4910
     2.5195   2.5688   2.5771

     the Fermi energy is     1.5119 ev

!    total energy              =   -1371.03016241 Ry
     estimated scf accuracy    <       0.00000428 Ry
     smearing contrib. (-TS)   =      -0.07262384 Ry
     internal energy E=F+TS    =   -1370.95753857 Ry

     The total energy is F=E-TS. E is the sum of the following terms:
     one-electron contribution =   -5871.96002468 Ry
     hartree contribution      =    2985.50084571 Ry
     xc contribution           =    -648.03752627 Ry
     ewald contribution        =    2163.53916621 Ry
     electric field correction =       0.00000046 Ry

     convergence has been achieved in  22 iterations

     negative rho (up, down):  9.250E-04 0.000E+00

     Forces acting on atoms (cartesian axes, Ry/au):

     atom    1 type  1   force =    -0.00013619   -0.00009520    0.00702181
     atom    2 type  1   force =    -0.00014163   -0.00009793    0.00701344
     atom    3 type  2   force =    -0.00001942   -0.00001026    0.00078394
     atom    4 type  2   force =    -0.00001205   -0.00001450    0.00078625
     atom    5 type  1   force =    -0.00002243   -0.00001767   -0.00271356
     atom    6 type  1   force =    -0.00004488   -0.00003282   -0.00271471
     atom    7 type  2   force =     0.00005379    0.00001488   -0.00377285
     atom    8 type  2   force =     0.00003283    0.00004818   -0.00376894
     atom    9 type  1   force =    -0.00008239   -0.00005978   -0.00136361
     atom   10 type  1   force =    -0.00008088   -0.00005451   -0.00135609
     atom   11 type  2   force =     0.00022823    0.00015713    0.00004444
     atom   12 type  2   force =     0.00022504    0.00016249    0.00003988

     Total force =     0.012118     Total SCF correction =     0.005313
     SCF correction compared to forces is large: reduce conv_thr to get better values

     Writing output data file ./La2Hg2/La2Hg2_beef.save/

     init_run     :    370.41s CPU    388.94s WALL (       1 calls)
     electrons    :  15048.99s CPU  15170.20s WALL (       1 calls)
     forces       :    155.89s CPU    156.60s WALL (       1 calls)

     Called by init_run:
     wfcinit      :    350.11s CPU    368.05s WALL (       1 calls)
     potinit      :     10.82s CPU     11.00s WALL (       1 calls)
     hinit0       :      3.65s CPU      3.69s WALL (       1 calls)

     Called by electrons:
     c_bands      :  13554.23s CPU  13624.27s WALL (      22 calls)
     sum_band     :   1321.98s CPU   1357.40s WALL (      22 calls)
     v_of_rho     :     76.72s CPU     80.42s WALL (      23 calls)
     newd         :    104.63s CPU    116.61s WALL (      23 calls)
     mix_rho      :      2.52s CPU      2.79s WALL (      22 calls)
     vdW_kernel   :      6.27s CPU      6.29s WALL (       1 calls)

     Called by c_bands:
     init_us_2    :     37.00s CPU     37.30s WALL (    3404 calls)
     cegterg      :  13418.70s CPU  13484.35s WALL (    1738 calls)

     Called by *egterg:
     cdiaghg      :    364.40s CPU    365.59s WALL (   19005 calls)
     h_psi        :   6823.34s CPU   6881.38s WALL (   19079 calls)
     s_psi        :   1942.26s CPU   1946.92s WALL (   19079 calls)
     g_psi        :      4.68s CPU      4.76s WALL (   17267 calls)

     Called by h_psi:
     h_psi:calbec :   2423.37s CPU   2432.18s WALL (   19079 calls)
     vloc_psi     :   2369.73s CPU   2415.09s WALL (   19079 calls)
     add_vuspsi   :   2015.54s CPU   2019.07s WALL (   19079 calls)

     General routines
     calbec       :   3299.36s CPU   3314.81s WALL (   21003 calls)
     fft          :     66.37s CPU     68.71s WALL (    1508 calls)
     ffts         :      0.40s CPU      0.41s WALL (      45 calls)
     fftw         :   2604.90s CPU   2665.75s WALL ( 1001900 calls)
     interpolate  :      1.24s CPU      1.28s WALL (      23 calls)

     Parallel routines
     fft_scatt_xy :    164.16s CPU    165.39s WALL ( 1003453 calls)
     fft_scatt_yz :   1588.86s CPU   1643.08s WALL ( 1003453 calls)

     PWSCF        :      4h19m CPU      4h22m WALL


   This run was terminated on:  23:49:28  24Jun2022            

=------------------------------------------------------------------------------=
   JOB DONE.
=------------------------------------------------------------------------------=
