
     Program PWSCF v.6.6 starts on 25Jun2022 at  2:39:53 

     This program is part of the open-source Quantum ESPRESSO suite
     for quantum simulation of materials; please cite
         "P. Giannozzi et al., J. Phys.:Condens. Matter 21 395502 (2009);
         "P. Giannozzi et al., J. Phys.:Condens. Matter 29 465901 (2017);
          URL http://www.quantum-espresso.org", 
     in publications or presentations arising from this work. More details at
     http://www.quantum-espresso.org/quote

     Parallel version (MPI), running on    37 processors

     MPI processes distributed on     1 nodes
     R & G space division:  proc/nbgrp/npool/nimage =      37
     Fft bands division:     nmany     =       1
     Reading input from La2Mo2.in
Warning: card &CELL ignored
Warning: card / ignored

     Current dimensions of program PWSCF are:
     Max number of different atomic species (ntypx) = 10
     Max number of k-points (npk) =  40000
     Max angular momentum in pseudopotentials (lmaxx) =  3
     Presently stress not available with electric field and gates

     Message from routine cell_base_init:
     DEPRECATED: use true lattice parameter, not A to a.u. conversion factor
     file La.pbe-spfn-rrkjus_psl.1.0.0.UPF: wavefunction(s)  4F renormalized
     file Mo.pbe-spn-rrkjus_psl.1.0.0.UPF: wavefunction(s)  4S renormalized

     **************************************************************************
     Initializing libbeef V0.1.2 with the BEEF-vdW functional.
     Citation: Wellendorff et al., PRB 85, 235149 (2012).
     **************************************************************************


     IMPORTANT: XC functional enforced from input :
     Exchange-correlation= BEEF-VDW
                           (   1   4  43  14   2   0   0)
     Any further DFT definition will be discarded
     Please, verify this is what you really want


     Subspace diagonalization in iterative solution of the eigenvalue problem:
     a serial algorithm will be used

     Found symmetry operation: I + ( -0.5000  0.0000  0.0000)
     This is a supercell, fractional translations are disabled

     Parallelization info
     --------------------
     sticks:   dense  smooth     PW     G-vecs:    dense   smooth      PW
     Min         151      60     17                35895     9072    1369
     Max         152      61     18                35914     9087    1385
     Sum        5609    2239    635              1328355   335867   50969



     bravais-lattice index     =            0
     lattice parameter (alat)  =       1.8897  a.u.
     unit-cell volume          =    6077.0668 (a.u.)^3
     number of atoms/cell      =           12
     number of atomic types    =            2
     number of electrons       =       150.00
     number of Kohn-Sham states=           90
     kinetic-energy cutoff     =      55.1240  Ry
     charge density cutoff     =     551.2396  Ry
     convergence threshold     =      1.0E-05
     mixing beta               =       0.1000
     number of iterations used =           10  plain     mixing
     Exchange-correlation= BEEF-VDW
                           (   1   4  43  14   2   0   0)

     celldm(1)=   1.889726  celldm(2)=   0.000000  celldm(3)=   0.000000
     celldm(4)=   0.000000  celldm(5)=   0.000000  celldm(6)=   0.000000

     crystal axes: (cart. coord. in units of alat)
               a(1) = (   5.929550   0.000000   0.000000 )  
               a(2) = (  -2.964775   6.035087   0.000000 )  
               a(3) = (   0.000000   0.000000  25.164727 )  

     reciprocal axes: (cart. coord. in units 2 pi/alat)
               b(1) = (  0.168647  0.082849 -0.000000 )  
               b(2) = (  0.000000  0.165698  0.000000 )  
               b(3) = (  0.000000 -0.000000  0.039738 )  


     PseudoPot. # 1 for La read from file:
     ../pseudo/La.pbe-spfn-rrkjus_psl.1.0.0.UPF
     MD5 check sum: e3bc141c2ecb461b8d0a035ce9ac970e
     Pseudo is Ultrasoft + core correction, Zval = 11.0
     Generated using "atomic" code by A. Dal Corso v.6.2.2
     Using radial grid of 1253 points,  8 beta functions with: 
                l(1) =   0
                l(2) =   0
                l(3) =   1
                l(4) =   1
                l(5) =   2
                l(6) =   2
                l(7) =   3
                l(8) =   3
     Q(r) pseudized with 0 coefficients 


     PseudoPot. # 2 for Mo read from file:
     ../pseudo/Mo.pbe-spn-rrkjus_psl.1.0.0.UPF
     MD5 check sum: 03f09b12e49601d1a456a78ce8b2d514
     Pseudo is Ultrasoft + core correction, Zval = 14.0
     Generated using "atomic" code by A. Dal Corso v.6.3
     Using radial grid of 1229 points,  6 beta functions with: 
                l(1) =   0
                l(2) =   0
                l(3) =   1
                l(4) =   1
                l(5) =   2
                l(6) =   2
     Q(r) pseudized with 0 coefficients 


     atomic species   valence    mass     pseudopotential
        La            11.00   138.90547     La( 1.00)
        Mo            14.00    95.95000     Mo( 1.00)

     No symmetry found



   Cartesian axes

     site n.     atom                  positions (alat units)
         1           La  tau(   1) = (   0.0000000   0.0000000  10.0000000  )
         2           La  tau(   2) = (   2.9647750   0.0000000  10.0000000  )
         3           Mo  tau(   3) = (   1.4823875   3.0175433  10.0000000  )
         4           Mo  tau(   4) = (  -1.4823875   3.0175433  10.0000000  )
         5           La  tau(   5) = (   2.9647750   1.4564648  12.5823635  )
         6           La  tau(   6) = (  -0.0000000   1.4564648  12.5823635  )
         7           Mo  tau(   7) = (  -1.4823875   4.4740081  12.5823635  )
         8           Mo  tau(   8) = (   1.4823875   4.4740081  12.5823635  )
         9           La  tau(   9) = (  -0.0000513   3.0764943  15.4729062  )
        10           La  tau(  10) = (   2.9647247   3.0765217  15.4728977  )
        11           Mo  tau(  11) = (   1.4823486   5.6540449  14.6514215  )
        12           Mo  tau(  12) = (  -1.4824143   5.6540860  14.6514052  )

     number of k points=    74  Fermi-Dirac smearing, width (Ry)=  0.0100
                       cart. coord. in units 2pi/alat
        k(    1) = (   0.0000000   0.0000000   0.0000000), wk =   0.0138889
        k(    2) = (   0.0000000   0.0138081   0.0000000), wk =   0.0277778
        k(    3) = (   0.0000000   0.0276163   0.0000000), wk =   0.0277778
        k(    4) = (   0.0000000   0.0414244   0.0000000), wk =   0.0277778
        k(    5) = (   0.0000000   0.0552326   0.0000000), wk =   0.0277778
        k(    6) = (   0.0000000   0.0690407   0.0000000), wk =   0.0277778
        k(    7) = (   0.0000000  -0.0828488   0.0000000), wk =   0.0138889
        k(    8) = (   0.0140539   0.0069041   0.0000000), wk =   0.0277778
        k(    9) = (   0.0140539   0.0207122   0.0000000), wk =   0.0277778
        k(   10) = (   0.0140539   0.0345204   0.0000000), wk =   0.0277778
        k(   11) = (   0.0140539   0.0483285   0.0000000), wk =   0.0277778
        k(   12) = (   0.0140539   0.0621366   0.0000000), wk =   0.0277778
        k(   13) = (   0.0140539   0.0759448   0.0000000), wk =   0.0277778
        k(   14) = (   0.0140539  -0.0759448   0.0000000), wk =   0.0277778
        k(   15) = (   0.0140539  -0.0621366   0.0000000), wk =   0.0277778
        k(   16) = (   0.0140539  -0.0483285   0.0000000), wk =   0.0277778
        k(   17) = (   0.0140539  -0.0345204   0.0000000), wk =   0.0277778
        k(   18) = (   0.0140539  -0.0207122   0.0000000), wk =   0.0277778
        k(   19) = (   0.0140539  -0.0069041   0.0000000), wk =   0.0277778
        k(   20) = (   0.0281078   0.0138081   0.0000000), wk =   0.0277778
        k(   21) = (   0.0281078   0.0276163   0.0000000), wk =   0.0277778
        k(   22) = (   0.0281078   0.0414244   0.0000000), wk =   0.0277778
        k(   23) = (   0.0281078   0.0552326   0.0000000), wk =   0.0277778
        k(   24) = (   0.0281078   0.0690407   0.0000000), wk =   0.0277778
        k(   25) = (   0.0281078   0.0828488   0.0000000), wk =   0.0277778
        k(   26) = (   0.0281078  -0.0690407   0.0000000), wk =   0.0277778
        k(   27) = (   0.0281078  -0.0552326   0.0000000), wk =   0.0277778
        k(   28) = (   0.0281078  -0.0414244   0.0000000), wk =   0.0277778
        k(   29) = (   0.0281078  -0.0276163   0.0000000), wk =   0.0277778
        k(   30) = (   0.0281078  -0.0138081   0.0000000), wk =   0.0277778
        k(   31) = (   0.0281078  -0.0000000   0.0000000), wk =   0.0277778
        k(   32) = (   0.0421617   0.0207122   0.0000000), wk =   0.0277778
        k(   33) = (   0.0421617   0.0345204   0.0000000), wk =   0.0277778
        k(   34) = (   0.0421617   0.0483285   0.0000000), wk =   0.0277778
        k(   35) = (   0.0421617   0.0621366   0.0000000), wk =   0.0277778
        k(   36) = (   0.0421617   0.0759448   0.0000000), wk =   0.0277778
        k(   37) = (   0.0421617   0.0897529   0.0000000), wk =   0.0277778
        k(   38) = (   0.0421617  -0.0621366   0.0000000), wk =   0.0277778
        k(   39) = (   0.0421617  -0.0483285   0.0000000), wk =   0.0277778
        k(   40) = (   0.0421617  -0.0345204   0.0000000), wk =   0.0277778
        k(   41) = (   0.0421617  -0.0207122   0.0000000), wk =   0.0277778
        k(   42) = (   0.0421617  -0.0069041   0.0000000), wk =   0.0277778
        k(   43) = (   0.0421617   0.0069041   0.0000000), wk =   0.0277778
        k(   44) = (   0.0562156   0.0276163   0.0000000), wk =   0.0277778
        k(   45) = (   0.0562156   0.0414244   0.0000000), wk =   0.0277778
        k(   46) = (   0.0562156   0.0552326   0.0000000), wk =   0.0277778
        k(   47) = (   0.0562156   0.0690407   0.0000000), wk =   0.0277778
        k(   48) = (   0.0562156   0.0828488   0.0000000), wk =   0.0277778
        k(   49) = (   0.0562156   0.0966570   0.0000000), wk =   0.0277778
        k(   50) = (   0.0562156  -0.0552326   0.0000000), wk =   0.0277778
        k(   51) = (   0.0562156  -0.0414244   0.0000000), wk =   0.0277778
        k(   52) = (   0.0562156  -0.0276163   0.0000000), wk =   0.0277778
        k(   53) = (   0.0562156  -0.0138081   0.0000000), wk =   0.0277778
        k(   54) = (   0.0562156   0.0000000   0.0000000), wk =   0.0277778
        k(   55) = (   0.0562156   0.0138081   0.0000000), wk =   0.0277778
        k(   56) = (   0.0702695   0.0345204   0.0000000), wk =   0.0277778
        k(   57) = (   0.0702695   0.0483285   0.0000000), wk =   0.0277778
        k(   58) = (   0.0702695   0.0621366   0.0000000), wk =   0.0277778
        k(   59) = (   0.0702695   0.0759448   0.0000000), wk =   0.0277778
        k(   60) = (   0.0702695   0.0897529   0.0000000), wk =   0.0277778
        k(   61) = (   0.0702695   0.1035611   0.0000000), wk =   0.0277778
        k(   62) = (   0.0702695  -0.0483285   0.0000000), wk =   0.0277778
        k(   63) = (   0.0702695  -0.0345204   0.0000000), wk =   0.0277778
        k(   64) = (   0.0702695  -0.0207122   0.0000000), wk =   0.0277778
        k(   65) = (   0.0702695  -0.0069041   0.0000000), wk =   0.0277778
        k(   66) = (   0.0702695   0.0069041   0.0000000), wk =   0.0277778
        k(   67) = (   0.0702695   0.0207122   0.0000000), wk =   0.0277778
        k(   68) = (  -0.0843234  -0.0414244   0.0000000), wk =   0.0138889
        k(   69) = (  -0.0843234  -0.0276163   0.0000000), wk =   0.0277778
        k(   70) = (  -0.0843234  -0.0138081   0.0000000), wk =   0.0277778
        k(   71) = (  -0.0843234   0.0000000   0.0000000), wk =   0.0277778
        k(   72) = (  -0.0843234   0.0138081   0.0000000), wk =   0.0277778
        k(   73) = (  -0.0843234   0.0276163   0.0000000), wk =   0.0277778
        k(   74) = (  -0.0843234  -0.1242733   0.0000000), wk =   0.0138889

     Dense  grid:  1328355 G-vectors     FFT dimensions: (  90,  96, 360)

     Smooth grid:   335867 G-vectors     FFT dimensions: (  54,  64, 225)

     Estimated max dynamical RAM per process >     468.19 MB

     Estimated total dynamical RAM >      16.92 GB

     Initial potential from superposition of free atoms

     starting charge  149.81598, renormalised to  150.00000

     negative rho (up, down):  6.335E-04 0.000E+00


     %%%%%%%%%%%%%%%%%%%%%%%%%%%%%%%%%%%%%%%%%%%%%%%%%%%%%%%%%%%%%%%%%%%%%%%%
     %                                                                      %
     % You are using vdW-DF, which was implemented by the Thonhauser group. %
     % Please cite the following two papers that made this development      %
     % possible and the two reviews that describe the various versions:     %
     %                                                                      %
     %   T. Thonhauser et al., PRL 115, 136402 (2015).                      %
     %   T. Thonhauser et al., PRB 76, 125112 (2007).                       %
     %   K. Berland et al., Rep. Prog. Phys. 78, 066501 (2015).             %
     %   D.C. Langreth et al., J. Phys.: Condens. Matter 21, 084203 (2009). %
     %                                                                      %
     %                                                                      %
     % If you are calculating the stress with vdW-DF, please also cite:     %
     %                                                                      %
     %   R. Sabatini et al., J. Phys.: Condens. Matter 24, 424209 (2012).   %
     %                                                                      %
     %%%%%%%%%%%%%%%%%%%%%%%%%%%%%%%%%%%%%%%%%%%%%%%%%%%%%%%%%%%%%%%%%%%%%%%%



     Adding external electric field

     Computed dipole along edir(3) : 
        Dipole                0.0507 Ry au,          0.1287 Debye
        Dipole field          0.0001 Ry au, 

        Potential amp.       -0.0097 Ry
        Total length         46.3656 bohr

     Starting wfcs are  180 randomized atomic wfcs

     total cpu time spent up to now is      332.4 secs

     Self-consistent Calculation

     iteration #  1     ecut=    55.12 Ry     beta= 0.10
     Davidson diagonalization with overlap
     ethr =  1.00E-02,  avg # of iterations =  2.0

     negative rho (up, down):  5.508E-04 0.000E+00

     Adding external electric field

     Computed dipole along edir(3) : 
        Dipole               -1.3817 Ry au,         -3.5119 Debye
        Dipole field         -0.0029 Ry au, 

        Potential amp.        0.2649 Ry
        Total length         46.3656 bohr


     total cpu time spent up to now is      772.9 secs

     total energy              =   -1602.84468647 Ry
     estimated scf accuracy    <      14.51158080 Ry

     iteration #  2     ecut=    55.12 Ry     beta= 0.10
     Davidson diagonalization with overlap
     ethr =  9.67E-03,  avg # of iterations =  5.0

     negative rho (up, down):  5.932E-04 0.000E+00

     Adding external electric field

     Computed dipole along edir(3) : 
        Dipole                0.9240 Ry au,          2.3486 Debye
        Dipole field          0.0019 Ry au, 

        Potential amp.       -0.1772 Ry
        Total length         46.3656 bohr


     total cpu time spent up to now is     1228.9 secs

     total energy              =   -1602.43997325 Ry
     estimated scf accuracy    <      75.03218659 Ry

     iteration #  3     ecut=    55.12 Ry     beta= 0.10
     Davidson diagonalization with overlap
     ethr =  9.67E-03,  avg # of iterations =  2.0

     negative rho (up, down):  4.660E-04 0.000E+00

     Adding external electric field

     Computed dipole along edir(3) : 
        Dipole                0.2656 Ry au,          0.6750 Debye
        Dipole field          0.0005 Ry au, 

        Potential amp.       -0.0509 Ry
        Total length         46.3656 bohr


     total cpu time spent up to now is     1611.9 secs

     total energy              =   -1604.20164295 Ry
     estimated scf accuracy    <      10.55958224 Ry

     iteration #  4     ecut=    55.12 Ry     beta= 0.10
     Davidson diagonalization with overlap
     ethr =  7.04E-03,  avg # of iterations =  1.0

     negative rho (up, down):  4.623E-04 0.000E+00

     Adding external electric field

     Computed dipole along edir(3) : 
        Dipole                0.2229 Ry au,          0.5666 Debye
        Dipole field          0.0005 Ry au, 

        Potential amp.       -0.0427 Ry
        Total length         46.3656 bohr


     total cpu time spent up to now is     1958.4 secs

     total energy              =   -1604.23857768 Ry
     estimated scf accuracy    <       1.10601035 Ry

     iteration #  5     ecut=    55.12 Ry     beta= 0.10
     Davidson diagonalization with overlap
     ethr =  7.37E-04,  avg # of iterations =  4.3

     negative rho (up, down):  4.358E-04 0.000E+00

     Adding external electric field

     Computed dipole along edir(3) : 
        Dipole                0.2240 Ry au,          0.5692 Debye
        Dipole field          0.0005 Ry au, 

        Potential amp.       -0.0429 Ry
        Total length         46.3656 bohr


     total cpu time spent up to now is     2367.2 secs

     total energy              =   -1604.24616475 Ry
     estimated scf accuracy    <       0.48047463 Ry

     iteration #  6     ecut=    55.12 Ry     beta= 0.10
     Davidson diagonalization with overlap
     ethr =  3.20E-04,  avg # of iterations =  9.6

     negative rho (up, down):  4.101E-04 0.000E+00

     Adding external electric field

     Computed dipole along edir(3) : 
        Dipole                0.2657 Ry au,          0.6752 Debye
        Dipole field          0.0005 Ry au, 

        Potential amp.       -0.0509 Ry
        Total length         46.3656 bohr


     total cpu time spent up to now is     2894.3 secs

     total energy              =   -1604.29166366 Ry
     estimated scf accuracy    <       0.12606231 Ry

     iteration #  7     ecut=    55.12 Ry     beta= 0.10
     Davidson diagonalization with overlap
     ethr =  8.40E-05,  avg # of iterations =  9.6

     negative rho (up, down):  4.328E-04 0.000E+00

     Adding external electric field

     Computed dipole along edir(3) : 
        Dipole                0.2844 Ry au,          0.7228 Debye
        Dipole field          0.0006 Ry au, 

        Potential amp.       -0.0545 Ry
        Total length         46.3656 bohr


     total cpu time spent up to now is     3399.7 secs

     total energy              =   -1604.29759386 Ry
     estimated scf accuracy    <       0.08548502 Ry

     iteration #  8     ecut=    55.12 Ry     beta= 0.10
     Davidson diagonalization with overlap
     ethr =  5.70E-05,  avg # of iterations =  2.7

     negative rho (up, down):  6.069E-04 0.000E+00

     Adding external electric field

     Computed dipole along edir(3) : 
        Dipole                0.3458 Ry au,          0.8790 Debye
        Dipole field          0.0007 Ry au, 

        Potential amp.       -0.0663 Ry
        Total length         46.3656 bohr


     total cpu time spent up to now is     3780.8 secs

     total energy              =   -1604.28896859 Ry
     estimated scf accuracy    <       0.04506505 Ry

     iteration #  9     ecut=    55.12 Ry     beta= 0.10
     Davidson diagonalization with overlap
     c_bands:  1 eigenvalues not converged
     c_bands:  1 eigenvalues not converged
     c_bands:  1 eigenvalues not converged
     c_bands:  1 eigenvalues not converged
     ethr =  3.00E-05,  avg # of iterations = 10.0

     negative rho (up, down):  6.306E-04 0.000E+00

     Adding external electric field

     Computed dipole along edir(3) : 
        Dipole                0.3806 Ry au,          0.9675 Debye
        Dipole field          0.0008 Ry au, 

        Potential amp.       -0.0730 Ry
        Total length         46.3656 bohr


     total cpu time spent up to now is     4396.6 secs

     total energy              =   -1604.28406725 Ry
     estimated scf accuracy    <       0.13319356 Ry

     iteration # 10     ecut=    55.12 Ry     beta= 0.10
     Davidson diagonalization with overlap
     ethr =  3.00E-05,  avg # of iterations =  5.0

     negative rho (up, down):  6.362E-04 0.000E+00

     Adding external electric field

     Computed dipole along edir(3) : 
        Dipole                0.3457 Ry au,          0.8786 Debye
        Dipole field          0.0007 Ry au, 

        Potential amp.       -0.0663 Ry
        Total length         46.3656 bohr


     total cpu time spent up to now is     5036.8 secs

     total energy              =   -1604.29700223 Ry
     estimated scf accuracy    <       0.01007294 Ry

     iteration # 11     ecut=    55.12 Ry     beta= 0.10
     Davidson diagonalization with overlap
     c_bands:  1 eigenvalues not converged
     c_bands:  1 eigenvalues not converged
     c_bands:  1 eigenvalues not converged
     c_bands:  1 eigenvalues not converged
     c_bands:  1 eigenvalues not converged
     c_bands:  1 eigenvalues not converged
     c_bands:  1 eigenvalues not converged
     c_bands:  1 eigenvalues not converged
     c_bands:  1 eigenvalues not converged
     c_bands:  2 eigenvalues not converged
     c_bands:  1 eigenvalues not converged
     c_bands:  2 eigenvalues not converged
     ethr =  6.72E-06,  avg # of iterations = 12.9

     negative rho (up, down):  5.990E-04 0.000E+00

     Adding external electric field

     Computed dipole along edir(3) : 
        Dipole                0.3570 Ry au,          0.9075 Debye
        Dipole field          0.0007 Ry au, 

        Potential amp.       -0.0685 Ry
        Total length         46.3656 bohr


     total cpu time spent up to now is     5540.5 secs

     total energy              =   -1604.29779379 Ry
     estimated scf accuracy    <       0.01261010 Ry

     iteration # 12     ecut=    55.12 Ry     beta= 0.10
     Davidson diagonalization with overlap
     c_bands:  1 eigenvalues not converged
     ethr =  6.72E-06,  avg # of iterations =  2.2

     negative rho (up, down):  5.903E-04 0.000E+00

     Adding external electric field

     Computed dipole along edir(3) : 
        Dipole                0.3372 Ry au,          0.8571 Debye
        Dipole field          0.0007 Ry au, 

        Potential amp.       -0.0647 Ry
        Total length         46.3656 bohr


     total cpu time spent up to now is     5904.1 secs

     total energy              =   -1604.29754656 Ry
     estimated scf accuracy    <       0.00481989 Ry

     iteration # 13     ecut=    55.12 Ry     beta= 0.10
     Davidson diagonalization with overlap
     c_bands:  1 eigenvalues not converged
     c_bands:  1 eigenvalues not converged
     c_bands:  1 eigenvalues not converged
     ethr =  3.21E-06,  avg # of iterations =  6.4

     negative rho (up, down):  5.800E-04 0.000E+00

     Adding external electric field

     Computed dipole along edir(3) : 
        Dipole                0.3537 Ry au,          0.8991 Debye
        Dipole field          0.0007 Ry au, 

        Potential amp.       -0.0678 Ry
        Total length         46.3656 bohr


     total cpu time spent up to now is     6308.0 secs

     total energy              =   -1604.29780542 Ry
     estimated scf accuracy    <       0.00504509 Ry

     iteration # 14     ecut=    55.12 Ry     beta= 0.10
     Davidson diagonalization with overlap
     c_bands:  1 eigenvalues not converged
     ethr =  3.21E-06,  avg # of iterations =  2.3

     negative rho (up, down):  5.568E-04 0.000E+00

     Adding external electric field

     Computed dipole along edir(3) : 
        Dipole                0.3401 Ry au,          0.8644 Debye
        Dipole field          0.0007 Ry au, 

        Potential amp.       -0.0652 Ry
        Total length         46.3656 bohr


     total cpu time spent up to now is     6660.6 secs

     total energy              =   -1604.29792738 Ry
     estimated scf accuracy    <       0.00184256 Ry

     iteration # 15     ecut=    55.12 Ry     beta= 0.10
     Davidson diagonalization with overlap
     c_bands:  1 eigenvalues not converged
     ethr =  1.23E-06,  avg # of iterations =  5.6

     negative rho (up, down):  5.513E-04 0.000E+00

     Adding external electric field

     Computed dipole along edir(3) : 
        Dipole                0.3446 Ry au,          0.8760 Debye
        Dipole field          0.0007 Ry au, 

        Potential amp.       -0.0661 Ry
        Total length         46.3656 bohr


     total cpu time spent up to now is     7080.7 secs

     total energy              =   -1604.29805385 Ry
     estimated scf accuracy    <       0.00025898 Ry

     iteration # 16     ecut=    55.12 Ry     beta= 0.10
     Davidson diagonalization with overlap
     c_bands:  1 eigenvalues not converged
     c_bands:  1 eigenvalues not converged
     ethr =  1.73E-07,  avg # of iterations =  9.4

     negative rho (up, down):  5.209E-04 0.000E+00

     Adding external electric field

     Computed dipole along edir(3) : 
        Dipole                0.3445 Ry au,          0.8757 Debye
        Dipole field          0.0007 Ry au, 

        Potential amp.       -0.0661 Ry
        Total length         46.3656 bohr


     total cpu time spent up to now is     7710.8 secs

     total energy              =   -1604.29817737 Ry
     estimated scf accuracy    <       0.00006312 Ry

     iteration # 17     ecut=    55.12 Ry     beta= 0.10
     Davidson diagonalization with overlap
     c_bands:  2 eigenvalues not converged
     ethr =  4.21E-08,  avg # of iterations =  5.5

     negative rho (up, down):  4.999E-04 0.000E+00

     Adding external electric field

     Computed dipole along edir(3) : 
        Dipole                0.3441 Ry au,          0.8747 Debye
        Dipole field          0.0007 Ry au, 

        Potential amp.       -0.0660 Ry
        Total length         46.3656 bohr


     total cpu time spent up to now is     8123.4 secs

     total energy              =   -1604.29817981 Ry
     estimated scf accuracy    <       0.00004130 Ry

     iteration # 18     ecut=    55.12 Ry     beta= 0.10
     Davidson diagonalization with overlap
     ethr =  2.75E-08,  avg # of iterations =  4.4

     negative rho (up, down):  4.857E-04 0.000E+00

     Adding external electric field

     Computed dipole along edir(3) : 
        Dipole                0.3442 Ry au,          0.8748 Debye
        Dipole field          0.0007 Ry au, 

        Potential amp.       -0.0660 Ry
        Total length         46.3656 bohr


     total cpu time spent up to now is     8525.9 secs

     total energy              =   -1604.29818194 Ry
     estimated scf accuracy    <       0.00001822 Ry

     iteration # 19     ecut=    55.12 Ry     beta= 0.10
     Davidson diagonalization with overlap
     ethr =  1.21E-08,  avg # of iterations =  6.3

     negative rho (up, down):  4.682E-04 0.000E+00

     Adding external electric field

     Computed dipole along edir(3) : 
        Dipole                0.3445 Ry au,          0.8757 Debye
        Dipole field          0.0007 Ry au, 

        Potential amp.       -0.0661 Ry
        Total length         46.3656 bohr


     total cpu time spent up to now is     9088.3 secs

     total energy              =   -1604.29818451 Ry
     estimated scf accuracy    <       0.00001105 Ry

     iteration # 20     ecut=    55.12 Ry     beta= 0.10
     Davidson diagonalization with overlap
     ethr =  7.37E-09,  avg # of iterations =  3.8

     negative rho (up, down):  4.003E-04 0.000E+00

     Adding external electric field

     Computed dipole along edir(3) : 
        Dipole                0.3481 Ry au,          0.8849 Debye
        Dipole field          0.0007 Ry au, 

        Potential amp.       -0.0668 Ry
        Total length         46.3656 bohr


     total cpu time spent up to now is     9500.3 secs

     End of self-consistent calculation

          k = 0.0000 0.0000 0.0000 ( 41843 PWs)   bands (ev):

   -58.3970 -58.3551 -58.3227 -58.2820 -58.0794 -58.0387 -33.0589 -33.0046
   -32.5996 -32.5390 -32.4338 -32.3888 -32.3783 -32.3439 -32.3208 -32.3175
   -32.2690 -32.1812 -32.1641 -32.1207 -32.1203 -31.8988 -31.6527 -31.6154
   -30.5977 -30.4689 -29.9346 -29.9236 -29.7853 -29.2529 -16.0681 -15.9820
   -15.5217 -15.1847 -14.5128 -14.3705 -14.2169 -14.0369 -13.7498 -13.6041
   -13.5932 -13.4019 -12.9632 -12.9464 -12.4057 -12.1763 -12.0557 -11.6228
    -1.6813  -0.7278  -0.6668  -0.6206  -0.5610  -0.3544  -0.0184   0.0009
     0.1123   0.2135   0.2526   0.3975   0.4990   0.7210   0.8586   0.9471
     1.2826   1.2886   1.3540   1.5364   1.8340   2.0699   2.4113   2.4761
     2.5674   2.6688   2.9031   2.9171   2.9899   3.0177   3.2579   3.2992
     3.4545   3.5481   3.6031   3.7561   3.7809   3.8918   3.9518   4.0238
     4.0354   4.1005

          k = 0.0000 0.0138 0.0000 ( 41939 PWs)   bands (ev):

   -58.3971 -58.3552 -58.3227 -58.2821 -58.0794 -58.0389 -33.0590 -33.0046
   -32.5998 -32.5390 -32.4345 -32.3889 -32.3782 -32.3439 -32.3208 -32.3179
   -32.2691 -32.1812 -32.1641 -32.1207 -32.1203 -31.8988 -31.6527 -31.6155
   -30.5968 -30.4681 -29.9345 -29.9234 -29.7851 -29.2529 -16.0692 -15.9826
   -15.5220 -15.1862 -14.5135 -14.3701 -14.2199 -14.0402 -13.7496 -13.6052
   -13.5939 -13.4028 -12.9633 -12.9475 -12.4057 -12.1764 -12.0559 -11.6228
    -1.6379  -0.7132  -0.6323  -0.5880  -0.5262  -0.3379  -0.0016   0.0306
     0.1272   0.2381   0.2939   0.4177   0.5305   0.7526   0.8801   0.9426
     1.2763   1.2943   1.3512   1.5422   1.7961   2.1020   2.3795   2.4261
     2.5697   2.6391   2.8783   2.8805   2.9684   3.0158   3.2660   3.2893
     3.4097   3.5263   3.6233   3.7620   3.7817   3.8608   3.9532   4.0048
     4.0509   4.0606

          k = 0.0000 0.0276 0.0000 ( 41961 PWs)   bands (ev):

   -58.3970 -58.3553 -58.3227 -58.2822 -58.0793 -58.0390 -33.0592 -33.0046
   -32.6002 -32.5392 -32.4365 -32.3889 -32.3781 -32.3439 -32.3208 -32.3188
   -32.2691 -32.1812 -32.1641 -32.1208 -32.1203 -31.8988 -31.6525 -31.6155
   -30.5943 -30.4660 -29.9342 -29.9229 -29.7846 -29.2529 -16.0723 -15.9841
   -15.5228 -15.1904 -14.5152 -14.3690 -14.2281 -14.0491 -13.7492 -13.6081
   -13.5961 -13.4051 -12.9636 -12.9506 -12.4058 -12.1768 -12.0563 -11.6230
    -1.5140  -0.6733  -0.5486  -0.5077  -0.4130  -0.2780   0.0520   0.1085
     0.1723   0.3088   0.4078   0.4803   0.6236   0.8367   0.9319   0.9481
     1.2644   1.3091   1.3382   1.5419   1.7599   2.1412   2.2906   2.3008
     2.5632   2.5760   2.8089   2.8168   2.8729   3.0129   3.2803   3.2871
     3.3376   3.4517   3.4530   3.7637   3.7767   3.8485   3.9298   3.9560
     3.9605   4.0042

          k = 0.0000 0.0414 0.0000 ( 42049 PWs)   bands (ev):

   -58.3971 -58.3554 -58.3227 -58.2823 -58.0794 -58.0390 -33.0596 -33.0045
   -32.6008 -32.5393 -32.4393 -32.3890 -32.3780 -32.3439 -32.3208 -32.3201
   -32.2690 -32.1812 -32.1641 -32.1209 -32.1204 -31.8988 -31.6524 -31.6155
   -30.5909 -30.4630 -29.9337 -29.9221 -29.7840 -29.2529 -16.0764 -15.9862
   -15.5239 -15.1960 -14.5175 -14.3675 -14.2394 -14.0609 -13.7485 -13.6121
   -13.5993 -13.4082 -12.9639 -12.9548 -12.4059 -12.1773 -12.0569 -11.6233
    -1.3295  -0.6184  -0.4688  -0.4058  -0.2215  -0.1542   0.1394   0.1957
     0.2550   0.4147   0.5613   0.5886   0.7690   0.9353   0.9359   1.0710
     1.2776   1.3080   1.3290   1.5375   1.7715   2.1079   2.1335   2.2132
     2.4724   2.5844   2.7055   2.7069   2.7644   2.9939   3.1938   3.2321
     3.2392   3.3177   3.3328   3.6029   3.6332   3.7262   3.7956   3.8109
     3.8929   3.9589

          k = 0.0000 0.0552 0.0000 ( 42075 PWs)   bands (ev):

   -58.3972 -58.3554 -58.3228 -58.2823 -58.0795 -58.0390 -33.0600 -33.0045
   -32.6014 -32.5394 -32.4420 -32.3891 -32.3778 -32.3439 -32.3213 -32.3207
   -32.2690 -32.1812 -32.1641 -32.1209 -32.1204 -31.8988 -31.6522 -31.6155
   -30.5876 -30.4600 -29.9333 -29.9214 -29.7833 -29.2529 -16.0805 -15.9882
   -15.5251 -15.2016 -14.5199 -14.3661 -14.2507 -14.0725 -13.7479 -13.6161
   -13.6027 -13.4114 -12.9641 -12.9590 -12.4059 -12.1779 -12.0574 -11.6235
    -1.1213  -0.5625  -0.4208  -0.2993   0.0010   0.0195   0.2387   0.2549
     0.3754   0.5322   0.6621   0.7338   0.9324   0.9975   1.0361   1.2338
     1.2987   1.3474   1.3648   1.5811   1.7555   1.9174   2.0480   2.1539
     2.4149   2.5339   2.5928   2.5934   2.6781   2.9408   2.9621   3.0497
     3.0657   3.1894   3.3251   3.3504   3.4019   3.4566   3.6887   3.7210
     3.7685   3.8119

          k = 0.0000 0.0690 0.0000 ( 42077 PWs)   bands (ev):

   -58.3972 -58.3554 -58.3228 -58.2823 -58.0795 -58.0390 -33.0602 -33.0045
   -32.6018 -32.5395 -32.4439 -32.3892 -32.3777 -32.3439 -32.3222 -32.3207
   -32.2689 -32.1813 -32.1641 -32.1209 -32.1204 -31.8988 -31.6521 -31.6155
   -30.5852 -30.4578 -29.9330 -29.9209 -29.7828 -29.2529 -16.0835 -15.9898
   -15.5259 -15.2057 -14.5216 -14.3651 -14.2590 -14.0808 -13.7475 -13.6190
   -13.6053 -13.4138 -12.9641 -12.9620 -12.4059 -12.1782 -12.0578 -11.6237
    -0.9465  -0.5202  -0.3980  -0.2111   0.1128   0.2275   0.2829   0.3391
     0.4964   0.6229   0.6732   0.8875   0.9775   1.1221   1.2119   1.2626
     1.3735   1.4503   1.4830   1.6661   1.7355   1.7730   1.8716   2.1613
     2.3574   2.4801   2.5093   2.5125   2.5989   2.6697   2.7610   2.8424
     2.9954   3.0452   3.0783   3.2264   3.3153   3.3747   3.5505   3.5971
     3.6916   3.8225

          k = 0.0000-0.0828 0.0000 ( 42112 PWs)   bands (ev):

   -58.3972 -58.3555 -58.3228 -58.2823 -58.0794 -58.0390 -33.0603 -33.0045
   -32.6019 -32.5395 -32.4446 -32.3892 -32.3777 -32.3440 -32.3226 -32.3207
   -32.2690 -32.1813 -32.1641 -32.1210 -32.1204 -31.8988 -31.6521 -31.6155
   -30.5843 -30.4570 -29.9329 -29.9207 -29.7827 -29.2529 -16.0846 -15.9903
   -15.5262 -15.2072 -14.5222 -14.3647 -14.2620 -14.0838 -13.7473 -13.6201
   -13.6062 -13.4146 -12.9641 -12.9631 -12.4059 -12.1784 -12.0580 -11.6238
    -0.8757  -0.5044  -0.3922  -0.1746   0.1497   0.2762   0.2894   0.4284
     0.5491   0.6554   0.6700   0.9744   0.9807   1.1928   1.2282   1.2706
     1.4551   1.4822   1.5332   1.6653   1.7335   1.7830   1.8522   2.2337
     2.2559   2.3678   2.4865   2.4961   2.5110   2.5727   2.6011   2.8344
     2.9675   2.9714   3.0438   3.1012   3.3055   3.3841   3.4773   3.5103
     3.6957   3.8260

          k = 0.0141 0.0069 0.0000 ( 41924 PWs)   bands (ev):

   -58.3964 -58.3559 -58.3220 -58.2828 -58.0787 -58.0395 -33.0580 -33.0055
   -32.5925 -32.5321 -32.4330 -32.3881 -32.3793 -32.3447 -32.3168 -32.3138
   -32.2699 -32.1802 -32.1718 -32.1277 -32.1217 -31.9063 -31.6520 -31.6161
   -30.5871 -30.4582 -29.9362 -29.9242 -29.7981 -29.2659 -16.0142 -15.9276
   -15.4674 -15.1748 -14.5261 -14.3607 -14.2083 -14.0280 -13.7611 -13.6165
   -13.5835 -13.4151 -12.9592 -12.9545 -12.4160 -12.2640 -12.1448 -11.7108
    -1.6271  -0.6981  -0.6156  -0.5693  -0.5085  -0.3145   0.0042   0.0297
     0.1570   0.2283   0.3034   0.4395   0.5296   0.7486   0.9228   0.9421
     1.3077   1.3292   1.3897   1.5425   1.8305   2.0991   2.4394   2.4518
     2.5702   2.7129   2.8417   2.9516   3.0009   3.0278   3.1762   3.3428
     3.4384   3.5302   3.5958   3.6649   3.7111   3.8262   3.8892   3.9258
     3.9834   3.9999

          k = 0.0141 0.0207 0.0000 ( 41966 PWs)   bands (ev):

   -58.3964 -58.3560 -58.3220 -58.2828 -58.0787 -58.0396 -33.0582 -33.0055
   -32.5928 -32.5321 -32.4344 -32.3881 -32.3793 -32.3447 -32.3174 -32.3138
   -32.2699 -32.1802 -32.1718 -32.1277 -32.1218 -31.9063 -31.6520 -31.6161
   -30.5853 -30.4567 -29.9359 -29.9240 -29.7978 -29.2659 -16.0163 -15.9287
   -15.4680 -15.1777 -14.5272 -14.3599 -14.2139 -14.0342 -13.7608 -13.6184
   -13.5850 -13.4165 -12.9612 -12.9547 -12.4160 -12.2643 -12.1450 -11.7109
    -1.5423  -0.6712  -0.5511  -0.5065  -0.4410  -0.2820   0.0378   0.0879
     0.1838   0.2804   0.3792   0.4825   0.5912   0.8079   0.9370   0.9637
     1.2972   1.3399   1.3798   1.5564   1.7719   2.1519   2.3633   2.3852
     2.5514   2.6587   2.7605   2.9148   2.9412   3.0508   3.1514   3.3451
     3.3717   3.5054   3.5229   3.6743   3.7681   3.7952   3.8636   3.8692
     3.9464   3.9872

          k = 0.0141 0.0345 0.0000 ( 42004 PWs)   bands (ev):

   -58.3964 -58.3561 -58.3221 -58.2829 -58.0787 -58.0396 -33.0585 -33.0055
   -32.5933 -32.5323 -32.4368 -32.3882 -32.3791 -32.3447 -32.3185 -32.3138
   -32.2699 -32.1802 -32.1718 -32.1277 -32.1218 -31.9063 -31.6518 -31.6161
   -30.5824 -30.4541 -29.9353 -29.9236 -29.7973 -29.2659 -16.0199 -15.9305
   -15.4690 -15.1826 -14.5292 -14.3586 -14.2238 -14.0448 -13.7603 -13.6218
   -13.5877 -13.4190 -12.9648 -12.9550 -12.4161 -12.2646 -12.1454 -11.7111
    -1.3850  -0.6228  -0.4626  -0.4119  -0.2942  -0.1953   0.1089   0.1777
     0.2425   0.3737   0.5128   0.5714   0.7106   0.8933   0.9479   1.0517
     1.2915   1.3533   1.3577   1.5587   1.7584   2.1814   2.2036   2.2901
     2.5014   2.6005   2.6741   2.8134   2.8445   3.0597   3.1293   3.2633
     3.3172   3.3185   3.4576   3.6166   3.6580   3.7180   3.8173   3.8723
     3.9246   3.9451

          k = 0.0141 0.0483 0.0000 ( 42009 PWs)   bands (ev):

   -58.3964 -58.3561 -58.3221 -58.2829 -58.0787 -58.0396 -33.0589 -33.0055
   -32.5939 -32.5324 -32.4395 -32.3882 -32.3789 -32.3447 -32.3198 -32.3138
   -32.2699 -32.1802 -32.1717 -32.1277 -32.1219 -31.9063 -31.6517 -31.6161
   -30.5790 -30.4511 -29.9345 -29.9231 -29.7966 -29.2659 -16.0241 -15.9327
   -15.4702 -15.1883 -14.5315 -14.3571 -14.2352 -14.0567 -13.7598 -13.6256
   -13.5910 -13.4220 -12.9690 -12.9552 -12.4161 -12.2651 -12.1459 -11.7112
    -1.1826  -0.5654  -0.4009  -0.3062  -0.0812  -0.0492   0.2077   0.2496
     0.3476   0.4888   0.6424   0.7051   0.8705   0.9673   1.0089   1.1927
     1.3194   1.3342   1.3812   1.5737   1.7787   2.0129   2.1504   2.1923
     2.4028   2.5592   2.5794   2.6701   2.7569   3.0290   3.0494   3.0913
     3.1251   3.2109   3.3559   3.3956   3.5299   3.5795   3.6558   3.7685
     3.8048   3.9158

          k = 0.0141 0.0621 0.0000 ( 42052 PWs)   bands (ev):

   -58.3964 -58.3561 -58.3221 -58.2829 -58.0788 -58.0397 -33.0592 -33.0054
   -32.5944 -32.5325 -32.4419 -32.3883 -32.3787 -32.3447 -32.3209 -32.3138
   -32.2698 -32.1802 -32.1717 -32.1277 -32.1219 -31.9063 -31.6515 -31.6161
   -30.5761 -30.4485 -29.9339 -29.9227 -29.7961 -29.2659 -16.0277 -15.9345
   -15.4712 -15.1933 -14.5334 -14.3558 -14.2452 -14.0668 -13.7593 -13.6290
   -13.5940 -13.4246 -12.9726 -12.9553 -12.4162 -12.2655 -12.1462 -11.7114
    -0.9813  -0.5139  -0.3690  -0.2070   0.0890   0.1532   0.2906   0.3093
     0.4780   0.5850   0.6893   0.8646   0.9943   1.0674   1.1568   1.2781
     1.3820   1.4073   1.4647   1.6412   1.7615   1.8346   1.9830   2.1711
     2.3355   2.4702   2.4901   2.5810   2.6019   2.8081   2.8735   2.9397
     3.0018   3.1212   3.1536   3.2373   3.3675   3.3807   3.5813   3.6625
     3.7591   3.8057

          k = 0.0141 0.0759 0.0000 ( 42060 PWs)   bands (ev):

   -58.3964 -58.3561 -58.3221 -58.2829 -58.0788 -58.0396 -33.0594 -33.0054
   -32.5946 -32.5326 -32.4432 -32.3884 -32.3786 -32.3447 -32.3216 -32.3137
   -32.2698 -32.1802 -32.1717 -32.1277 -32.1220 -31.9063 -31.6514 -31.6161
   -30.5744 -30.4470 -29.9336 -29.9225 -29.7958 -29.2659 -16.0298 -15.9356
   -15.4717 -15.1961 -14.5346 -14.3551 -14.2509 -14.0726 -13.7590 -13.6309
   -13.5958 -13.4260 -12.9746 -12.9553 -12.4162 -12.2657 -12.1465 -11.7115
    -0.8484  -0.4832  -0.3571  -0.1419   0.1610   0.2842   0.3045   0.4283
     0.5779   0.6131   0.7046   1.0059   1.0103   1.1870   1.2730   1.2933
     1.4416   1.5076   1.5579   1.6873   1.7471   1.7996   1.8565   2.2050
     2.3201   2.3499   2.3646   2.4037   2.5034   2.6547   2.6555   2.8305
     2.9201   3.0776   3.0957   3.1724   3.2711   3.2943   3.4336   3.6519
     3.6673   3.8165

          k = 0.0141-0.0759 0.0000 ( 42060 PWs)   bands (ev):

   -58.3964 -58.3561 -58.3221 -58.2829 -58.0788 -58.0396 -33.0594 -33.0054
   -32.5946 -32.5326 -32.4432 -32.3884 -32.3786 -32.3447 -32.3216 -32.3137
   -32.2698 -32.1802 -32.1717 -32.1277 -32.1220 -31.9063 -31.6514 -31.6161
   -30.5744 -30.4470 -29.9336 -29.9225 -29.7958 -29.2659 -16.0298 -15.9356
   -15.4717 -15.1961 -14.5346 -14.3551 -14.2509 -14.0726 -13.7590 -13.6309
   -13.5958 -13.4260 -12.9746 -12.9553 -12.4162 -12.2657 -12.1465 -11.7115
    -0.8484  -0.4832  -0.3571  -0.1419   0.1610   0.2842   0.3045   0.4283
     0.5779   0.6131   0.7046   1.0059   1.0103   1.1870   1.2730   1.2933
     1.4416   1.5076   1.5579   1.6873   1.7470   1.7996   1.8565   2.2050
     2.3201   2.3499   2.3646   2.4037   2.5034   2.6547   2.6555   2.8305
     2.9201   3.0776   3.0957   3.1724   3.2711   3.2941   3.4336   3.6519
     3.6673   3.8165

          k = 0.0141-0.0621 0.0000 ( 42052 PWs)   bands (ev):

   -58.3964 -58.3561 -58.3221 -58.2829 -58.0788 -58.0397 -33.0592 -33.0054
   -32.5944 -32.5325 -32.4419 -32.3883 -32.3787 -32.3447 -32.3209 -32.3138
   -32.2698 -32.1802 -32.1717 -32.1277 -32.1219 -31.9063 -31.6515 -31.6161
   -30.5761 -30.4485 -29.9339 -29.9227 -29.7961 -29.2659 -16.0277 -15.9345
   -15.4712 -15.1933 -14.5334 -14.3558 -14.2452 -14.0668 -13.7593 -13.6290
   -13.5940 -13.4246 -12.9726 -12.9553 -12.4162 -12.2655 -12.1462 -11.7114
    -0.9813  -0.5139  -0.3690  -0.2070   0.0890   0.1532   0.2906   0.3093
     0.4780   0.5850   0.6893   0.8646   0.9943   1.0674   1.1568   1.2781
     1.3820   1.4073   1.4647   1.6411   1.7615   1.8345   1.9830   2.1711
     2.3355   2.4702   2.4901   2.5810   2.6019   2.8081   2.8735   2.9397
     3.0018   3.1212   3.1536   3.2373   3.3675   3.3807   3.5813   3.6627
     3.7591   3.8057

          k = 0.0141-0.0483 0.0000 ( 42009 PWs)   bands (ev):

   -58.3964 -58.3561 -58.3221 -58.2829 -58.0787 -58.0396 -33.0589 -33.0055
   -32.5939 -32.5324 -32.4395 -32.3882 -32.3789 -32.3447 -32.3198 -32.3138
   -32.2699 -32.1802 -32.1717 -32.1277 -32.1219 -31.9063 -31.6517 -31.6161
   -30.5790 -30.4511 -29.9345 -29.9231 -29.7966 -29.2659 -16.0241 -15.9327
   -15.4702 -15.1883 -14.5315 -14.3571 -14.2352 -14.0567 -13.7598 -13.6256
   -13.5910 -13.4220 -12.9690 -12.9552 -12.4161 -12.2651 -12.1459 -11.7112
    -1.1826  -0.5654  -0.4009  -0.3062  -0.0812  -0.0492   0.2077   0.2496
     0.3476   0.4888   0.6424   0.7051   0.8705   0.9673   1.0089   1.1927
     1.3194   1.3342   1.3812   1.5737   1.7787   2.0129   2.1504   2.1923
     2.4028   2.5592   2.5794   2.6701   2.7569   3.0290   3.0494   3.0913
     3.1251   3.2109   3.3561   3.3956   3.5298   3.5795   3.6557   3.7683
     3.8047   3.9165

          k = 0.0141-0.0345 0.0000 ( 42004 PWs)   bands (ev):

   -58.3964 -58.3561 -58.3221 -58.2829 -58.0787 -58.0396 -33.0585 -33.0055
   -32.5933 -32.5323 -32.4368 -32.3882 -32.3791 -32.3447 -32.3185 -32.3138
   -32.2699 -32.1802 -32.1718 -32.1277 -32.1218 -31.9063 -31.6518 -31.6161
   -30.5824 -30.4541 -29.9353 -29.9236 -29.7973 -29.2659 -16.0199 -15.9305
   -15.4690 -15.1826 -14.5292 -14.3586 -14.2238 -14.0448 -13.7603 -13.6218
   -13.5877 -13.4190 -12.9648 -12.9550 -12.4161 -12.2646 -12.1454 -11.7111
    -1.3850  -0.6228  -0.4626  -0.4119  -0.2942  -0.1953   0.1089   0.1777
     0.2425   0.3737   0.5128   0.5714   0.7106   0.8933   0.9479   1.0517
     1.2915   1.3533   1.3577   1.5587   1.7584   2.1814   2.2036   2.2901
     2.5014   2.6005   2.6741   2.8134   2.8445   3.0596   3.1294   3.2631
     3.3171   3.3184   3.4577   3.6166   3.6581   3.7176   3.8170   3.8723
     3.9242   3.9451

          k = 0.0141-0.0207 0.0000 ( 41966 PWs)   bands (ev):

   -58.3964 -58.3560 -58.3220 -58.2828 -58.0787 -58.0396 -33.0582 -33.0055
   -32.5928 -32.5321 -32.4344 -32.3881 -32.3793 -32.3447 -32.3174 -32.3138
   -32.2699 -32.1802 -32.1718 -32.1277 -32.1218 -31.9063 -31.6520 -31.6161
   -30.5853 -30.4567 -29.9359 -29.9240 -29.7978 -29.2659 -16.0163 -15.9287
   -15.4680 -15.1777 -14.5272 -14.3599 -14.2139 -14.0342 -13.7608 -13.6184
   -13.5850 -13.4165 -12.9612 -12.9547 -12.4160 -12.2643 -12.1450 -11.7109
    -1.5423  -0.6712  -0.5511  -0.5065  -0.4410  -0.2820   0.0378   0.0879
     0.1838   0.2804   0.3792   0.4825   0.5913   0.8079   0.9370   0.9637
     1.2972   1.3399   1.3798   1.5564   1.7719   2.1519   2.3633   2.3852
     2.5514   2.6587   2.7605   2.9148   2.9412   3.0508   3.1515   3.3451
     3.3717   3.5054   3.5232   3.6743   3.7682   3.7952   3.8634   3.8692
     3.9464   3.9873

          k = 0.0141-0.0069 0.0000 ( 41924 PWs)   bands (ev):

   -58.3964 -58.3559 -58.3220 -58.2828 -58.0787 -58.0395 -33.0580 -33.0055
   -32.5925 -32.5321 -32.4330 -32.3881 -32.3793 -32.3447 -32.3168 -32.3138
   -32.2699 -32.1802 -32.1718 -32.1277 -32.1217 -31.9063 -31.6520 -31.6161
   -30.5871 -30.4582 -29.9362 -29.9242 -29.7981 -29.2659 -16.0142 -15.9276
   -15.4674 -15.1748 -14.5261 -14.3607 -14.2083 -14.0280 -13.7611 -13.6165
   -13.5835 -13.4151 -12.9592 -12.9545 -12.4160 -12.2640 -12.1448 -11.7108
    -1.6271  -0.6981  -0.6156  -0.5693  -0.5085  -0.3145   0.0042   0.0297
     0.1570   0.2283   0.3034   0.4395   0.5296   0.7486   0.9228   0.9421
     1.3077   1.3292   1.3897   1.5425   1.8305   2.0991   2.4394   2.4518
     2.5702   2.7129   2.8417   2.9516   3.0009   3.0278   3.1762   3.3428
     3.4387   3.5302   3.5960   3.6649   3.7111   3.8260   3.8890   3.9257
     3.9826   4.0004

          k = 0.0281 0.0138 0.0000 ( 41945 PWs)   bands (ev):

   -58.3943 -58.3581 -58.3200 -58.2849 -58.0767 -58.0416 -33.0554 -33.0083
   -32.5714 -32.5117 -32.4306 -32.3859 -32.3825 -32.3470 -32.3146 -32.2933
   -32.2726 -32.1943 -32.1771 -32.1492 -32.1247 -31.9280 -31.6501 -31.6179
   -30.5557 -30.4267 -29.9729 -29.8934 -29.8354 -29.3037 -15.8546 -15.7667
   -15.3070 -15.1456 -14.5646 -14.3317 -14.1826 -14.0016 -13.7943 -13.6524
   -13.5551 -13.4530 -12.9962 -12.9289 -12.5137 -12.4460 -12.3981 -11.9613
    -1.4690  -0.6119  -0.4677  -0.4254  -0.3547  -0.2045   0.0645   0.1128
     0.2608   0.2958   0.4260   0.5693   0.6156   0.8270   0.9443   1.0872
     1.3814   1.4422   1.4852   1.5395   1.8157   2.1372   2.3936   2.4107
     2.7197   2.7236   2.8039   2.8727   2.9714   3.0588   3.2558   3.3681
     3.3715   3.4471   3.4891   3.5226   3.5805   3.6107   3.7602   3.8354
     3.8708   3.9267

          k = 0.0281 0.0276 0.0000 ( 41989 PWs)   bands (ev):

   -58.3943 -58.3581 -58.3201 -58.2849 -58.0767 -58.0416 -33.0556 -33.0083
   -32.5718 -32.5118 -32.4325 -32.3859 -32.3823 -32.3469 -32.3154 -32.2933
   -32.2725 -32.1943 -32.1771 -32.1492 -32.1247 -31.9280 -31.6500 -31.6179
   -30.5535 -30.4247 -29.9725 -29.8931 -29.8351 -29.3037 -15.8574 -15.7682
   -15.3078 -15.1494 -14.5658 -14.3306 -14.1901 -14.0099 -13.7940 -13.6545
   -13.5570 -13.4543 -12.9987 -12.9291 -12.5139 -12.4460 -12.3981 -11.9613
    -1.3471  -0.5764  -0.3832  -0.3352  -0.2709  -0.1616   0.1140   0.1955
     0.2980   0.3731   0.5248   0.6352   0.7010   0.8895   0.9724   1.1341
     1.3717   1.4554   1.4564   1.5788   1.7429   2.1845   2.2887   2.3666
     2.6012   2.6493   2.7401   2.8429   2.9051   2.9883   3.2564   3.2597
     3.3083   3.3501   3.4566   3.5139   3.5592   3.6439   3.7439   3.7626
     3.9063   3.9216

          k = 0.0281 0.0414 0.0000 ( 41984 PWs)   bands (ev):

   -58.3943 -58.3581 -58.3201 -58.2849 -58.0767 -58.0416 -33.0559 -33.0082
   -32.5723 -32.5119 -32.4350 -32.3860 -32.3820 -32.3469 -32.3166 -32.2933
   -32.2724 -32.1942 -32.1771 -32.1492 -32.1248 -31.9280 -31.6499 -31.6180
   -30.5505 -30.4220 -29.9720 -29.8926 -29.8347 -29.3038 -15.8613 -15.7702
   -15.3089 -15.1545 -14.5675 -14.3293 -14.2004 -14.0210 -13.7935 -13.6574
   -13.5598 -13.4562 -13.0022 -12.9294 -12.5141 -12.4460 -12.3982 -11.9612
    -1.1638  -0.5227  -0.3100  -0.2292  -0.1189  -0.0507   0.2018   0.2762
     0.3846   0.4805   0.6428   0.7475   0.8361   0.9569   1.0474   1.2194
     1.3870   1.4086   1.4739   1.6101   1.7389   2.1165   2.1474   2.2989
     2.5111   2.5459   2.6598   2.7850   2.7878   2.9355   3.0642   3.1323
     3.1734   3.2952   3.3207   3.4198   3.5695   3.6283   3.6406   3.7548
     3.7650   3.8384

          k = 0.0281 0.0552 0.0000 ( 42039 PWs)   bands (ev):

   -58.3943 -58.3582 -58.3201 -58.2850 -58.0768 -58.0416 -33.0563 -33.0082
   -32.5729 -32.5120 -32.4375 -32.3861 -32.3817 -32.3469 -32.3178 -32.2933
   -32.2723 -32.1941 -32.1771 -32.1492 -32.1249 -31.9280 -31.6497 -31.6180
   -30.5475 -30.4193 -29.9715 -29.8922 -29.8343 -29.3038 -15.8651 -15.7722
   -15.3099 -15.1597 -14.5693 -14.3279 -14.2108 -14.0318 -13.7931 -13.6604
   -13.5628 -13.4581 -13.0057 -12.9295 -12.5143 -12.4461 -12.3983 -11.9612
    -0.9532  -0.4654  -0.2738  -0.1281   0.0806   0.0939   0.3150   0.3288
     0.5160   0.5752   0.7167   0.9004   1.0020   1.0820   1.1158   1.3164
     1.4055   1.4473   1.5185   1.6377   1.7925   1.9257   2.0412   2.1596
     2.4115   2.4147   2.5911   2.6374   2.7353   2.7853   2.8826   2.9850
     3.0249   3.0911   3.1964   3.3329   3.4462   3.4788   3.6195   3.6384
     3.7318   3.8578

          k = 0.0281 0.0690 0.0000 ( 42046 PWs)   bands (ev):

   -58.3943 -58.3582 -58.3201 -58.2850 -58.0768 -58.0417 -33.0565 -33.0082
   -32.5733 -32.5121 -32.4393 -32.3861 -32.3814 -32.3469 -32.3186 -32.2933
   -32.2722 -32.1941 -32.1771 -32.1492 -32.1249 -31.9280 -31.6496 -31.6180
   -30.5453 -30.4173 -29.9711 -29.8919 -29.8340 -29.3038 -15.8679 -15.7737
   -15.3108 -15.1635 -14.5705 -14.3269 -14.2183 -14.0395 -13.7928 -13.6625
   -13.5651 -13.4596 -13.0083 -12.9295 -12.5145 -12.4460 -12.3984 -11.9611
    -0.7720  -0.4212  -0.2588  -0.0487   0.1907   0.2632   0.3541   0.4325
     0.6058   0.6551   0.7563   1.0665   1.0807   1.1764   1.3191   1.3343
     1.4670   1.5123   1.6239   1.6905   1.7826   1.8154   1.9079   2.0865
     2.3002   2.3045   2.3532   2.4586   2.6212   2.6617   2.7402   2.8404
     2.9343   3.0157   3.0826   3.3076   3.3129   3.3823   3.4704   3.6183
     3.7487   3.7520

          k = 0.0281 0.0828 0.0000 ( 42056 PWs)   bands (ev):

   -58.3943 -58.3582 -58.3201 -58.2850 -58.0767 -58.0417 -33.0566 -33.0082
   -32.5734 -32.5122 -32.4399 -32.3862 -32.3814 -32.3469 -32.3189 -32.2933
   -32.2722 -32.1941 -32.1771 -32.1492 -32.1249 -31.9280 -31.6496 -31.6180
   -30.5445 -30.4166 -29.9710 -29.8918 -29.8338 -29.3038 -15.8689 -15.7743
   -15.3110 -15.1648 -14.5710 -14.3266 -14.2211 -14.0424 -13.7927 -13.6633
   -13.5660 -13.4601 -13.0092 -12.9295 -12.5146 -12.4460 -12.3984 -11.9611
    -0.6968  -0.4044  -0.2559  -0.0171   0.2211   0.3288   0.3578   0.5285
     0.5817   0.7211   0.7609   1.0980   1.1633   1.2409   1.3469   1.3909
     1.4891   1.5245   1.6769   1.6795   1.7907   1.8133   1.9260   2.1128
     2.1152   2.2592   2.2684   2.3371   2.5221   2.5955   2.7058   2.7567
     2.9441   3.0038   3.0998   3.2488   3.2547   3.3663   3.3979   3.6000
     3.7178   3.7669

          k = 0.0281-0.0690 0.0000 ( 42046 PWs)   bands (ev):

   -58.3943 -58.3582 -58.3201 -58.2850 -58.0768 -58.0417 -33.0565 -33.0082
   -32.5733 -32.5121 -32.4393 -32.3861 -32.3814 -32.3469 -32.3186 -32.2933
   -32.2722 -32.1941 -32.1771 -32.1492 -32.1249 -31.9280 -31.6496 -31.6180
   -30.5453 -30.4173 -29.9711 -29.8919 -29.8340 -29.3038 -15.8679 -15.7737
   -15.3108 -15.1635 -14.5705 -14.3269 -14.2183 -14.0395 -13.7928 -13.6625
   -13.5651 -13.4596 -13.0083 -12.9295 -12.5145 -12.4460 -12.3984 -11.9611
    -0.7720  -0.4212  -0.2588  -0.0487   0.1907   0.2632   0.3541   0.4325
     0.6058   0.6551   0.7563   1.0665   1.0807   1.1764   1.3191   1.3343
     1.4670   1.5123   1.6239   1.6905   1.7826   1.8154   1.9079   2.0865
     2.3002   2.3045   2.3532   2.4586   2.6212   2.6617   2.7402   2.8403
     2.9343   3.0157   3.0826   3.3076   3.3130   3.3824   3.4704   3.6185
     3.7488   3.7517

          k = 0.0281-0.0552 0.0000 ( 42039 PWs)   bands (ev):

   -58.3943 -58.3582 -58.3201 -58.2850 -58.0768 -58.0416 -33.0563 -33.0082
   -32.5729 -32.5120 -32.4375 -32.3861 -32.3817 -32.3469 -32.3178 -32.2933
   -32.2723 -32.1941 -32.1771 -32.1492 -32.1249 -31.9280 -31.6497 -31.6180
   -30.5475 -30.4193 -29.9715 -29.8922 -29.8343 -29.3038 -15.8651 -15.7722
   -15.3099 -15.1597 -14.5693 -14.3279 -14.2108 -14.0318 -13.7931 -13.6604
   -13.5628 -13.4581 -13.0057 -12.9295 -12.5143 -12.4461 -12.3983 -11.9612
    -0.9532  -0.4654  -0.2738  -0.1281   0.0806   0.0939   0.3150   0.3288
     0.5160   0.5753   0.7167   0.9004   1.0020   1.0821   1.1158   1.3164
     1.4055   1.4473   1.5185   1.6377   1.7925   1.9257   2.0412   2.1596
     2.4115   2.4147   2.5911   2.6374   2.7353   2.7853   2.8826   2.9850
     3.0249   3.0911   3.1964   3.3328   3.4463   3.4787   3.6196   3.6384
     3.7316   3.8810

          k = 0.0281-0.0414 0.0000 ( 41984 PWs)   bands (ev):

   -58.3943 -58.3581 -58.3201 -58.2849 -58.0767 -58.0416 -33.0559 -33.0082
   -32.5723 -32.5119 -32.4350 -32.3860 -32.3820 -32.3469 -32.3166 -32.2933
   -32.2724 -32.1942 -32.1771 -32.1492 -32.1248 -31.9280 -31.6499 -31.6180
   -30.5505 -30.4220 -29.9720 -29.8926 -29.8347 -29.3038 -15.8613 -15.7702
   -15.3089 -15.1545 -14.5675 -14.3293 -14.2004 -14.0210 -13.7935 -13.6574
   -13.5598 -13.4562 -13.0022 -12.9294 -12.5141 -12.4460 -12.3982 -11.9612
    -1.1638  -0.5227  -0.3100  -0.2292  -0.1189  -0.0507   0.2018   0.2762
     0.3846   0.4805   0.6428   0.7475   0.8362   0.9569   1.0474   1.2194
     1.3870   1.4086   1.4739   1.6101   1.7388   2.1165   2.1474   2.2989
     2.5111   2.5459   2.6598   2.7849   2.7878   2.9355   3.0642   3.1322
     3.1734   3.2953   3.3207   3.4198   3.5695   3.6283   3.6406   3.7548
     3.7650   3.8384

          k = 0.0281-0.0276 0.0000 ( 41989 PWs)   bands (ev):

   -58.3943 -58.3581 -58.3201 -58.2849 -58.0767 -58.0416 -33.0556 -33.0083
   -32.5718 -32.5118 -32.4325 -32.3859 -32.3823 -32.3469 -32.3154 -32.2933
   -32.2725 -32.1943 -32.1771 -32.1492 -32.1247 -31.9280 -31.6500 -31.6179
   -30.5535 -30.4247 -29.9725 -29.8931 -29.8351 -29.3037 -15.8574 -15.7682
   -15.3078 -15.1494 -14.5658 -14.3306 -14.1901 -14.0099 -13.7940 -13.6545
   -13.5570 -13.4543 -12.9987 -12.9291 -12.5139 -12.4460 -12.3981 -11.9613
    -1.3471  -0.5764  -0.3832  -0.3352  -0.2709  -0.1616   0.1140   0.1956
     0.2980   0.3731   0.5248   0.6352   0.7010   0.8895   0.9724   1.1341
     1.3717   1.4554   1.4564   1.5788   1.7428   2.1845   2.2887   2.3666
     2.6012   2.6493   2.7401   2.8429   2.9051   2.9883   3.2564   3.2597
     3.3082   3.3501   3.4566   3.5140   3.5592   3.6439   3.7440   3.7628
     3.9064   3.9216

          k = 0.0281-0.0138 0.0000 ( 41945 PWs)   bands (ev):

   -58.3943 -58.3581 -58.3200 -58.2849 -58.0767 -58.0416 -33.0554 -33.0083
   -32.5714 -32.5117 -32.4306 -32.3859 -32.3825 -32.3470 -32.3146 -32.2933
   -32.2726 -32.1943 -32.1771 -32.1492 -32.1247 -31.9280 -31.6501 -31.6179
   -30.5557 -30.4267 -29.9729 -29.8934 -29.8354 -29.3037 -15.8546 -15.7667
   -15.3070 -15.1456 -14.5646 -14.3317 -14.1826 -14.0016 -13.7943 -13.6524
   -13.5551 -13.4530 -12.9962 -12.9289 -12.5137 -12.4460 -12.3981 -11.9613
    -1.4690  -0.6119  -0.4677  -0.4254  -0.3547  -0.2045   0.0645   0.1128
     0.2608   0.2958   0.4260   0.5693   0.6156   0.8270   0.9443   1.0872
     1.3814   1.4422   1.4852   1.5395   1.8157   2.1372   2.3936   2.4107
     2.7197   2.7236   2.8039   2.8727   2.9714   3.0588   3.2559   3.3681
     3.3715   3.4471   3.4891   3.5224   3.5802   3.6107   3.7602   3.8353
     3.8708   3.9267

          k = 0.0281-0.0000 0.0000 ( 41945 PWs)   bands (ev):

   -58.3943 -58.3581 -58.3200 -58.2848 -58.0767 -58.0415 -33.0553 -33.0083
   -32.5712 -32.5117 -32.4300 -32.3859 -32.3825 -32.3469 -32.3143 -32.2933
   -32.2726 -32.1943 -32.1771 -32.1492 -32.1247 -31.9280 -31.6502 -31.6179
   -30.5566 -30.4274 -29.9730 -29.8935 -29.8355 -29.3037 -15.8536 -15.7661
   -15.3067 -15.1442 -14.5641 -14.3321 -14.1798 -13.9986 -13.7944 -13.6516
   -13.5544 -13.4525 -12.9952 -12.9288 -12.5137 -12.4460 -12.3981 -11.9613
    -1.5115  -0.6235  -0.5027  -0.4608  -0.3815  -0.2137   0.0496   0.0794
     0.2501   0.2676   0.3895   0.5476   0.5870   0.7976   0.9419   1.0725
     1.3868   1.4364   1.4945   1.5232   1.8676   2.0953   2.4225   2.4238
     2.7698   2.7948   2.8150   2.8808   2.9855   3.0867   3.2498   3.3846
     3.4358   3.4558   3.4809   3.4912   3.5721   3.5981   3.7863   3.8716
     3.8764   3.9203

          k = 0.0422 0.0207 0.0000 ( 41948 PWs)   bands (ev):

   -58.3910 -58.3614 -58.3168 -58.2881 -58.0735 -58.0448 -33.0511 -33.0128
   -32.5377 -32.4792 -32.4268 -32.3873 -32.3823 -32.3505 -32.3110 -32.2767
   -32.2606 -32.2299 -32.1833 -32.1722 -32.1294 -31.9625 -31.6471 -31.6208
   -30.5056 -30.3761 -30.0304 -29.8939 -29.8437 -29.3629 -15.5960 -15.5060
   -15.0982 -15.0472 -14.6245 -14.2852 -14.1407 -13.9587 -13.8465 -13.7081
   -13.5116 -13.5091 -13.0537 -12.9031 -12.8761 -12.7790 -12.4932 -12.3390
    -1.2202  -0.4765  -0.2431  -0.2292  -0.1117  -0.0549   0.1480   0.2451
     0.3935   0.4203   0.5871   0.7344   0.7526   0.9279   1.0237   1.2770
     1.4762   1.4960   1.6059   1.6075   1.8057   2.0986   2.3290   2.4034
     2.5503   2.5808   2.7614   2.8975   3.0808   3.0923   3.1329   3.2178
     3.2778   3.2928   3.3637   3.4258   3.4898   3.6249   3.6473   3.8046
     3.8463   3.9312

          k = 0.0422 0.0345 0.0000 ( 41976 PWs)   bands (ev):

   -58.3910 -58.3614 -58.3168 -58.2881 -58.0735 -58.0448 -33.0514 -33.0127
   -32.5382 -32.4793 -32.4288 -32.3869 -32.3824 -32.3505 -32.3120 -32.2765
   -32.2606 -32.2298 -32.1832 -32.1722 -32.1295 -31.9625 -31.6470 -31.6208
   -30.5032 -30.3739 -30.0302 -29.8938 -29.8434 -29.3629 -15.5991 -15.5078
   -15.1023 -15.0481 -14.6253 -14.2840 -14.1489 -13.9678 -13.8462 -13.7096
   -13.5120 -13.5112 -13.0561 -12.9020 -12.8773 -12.7787 -12.4931 -12.3387
    -1.0687  -0.4356  -0.1632  -0.1345  -0.0323  -0.0014   0.2152   0.3283
     0.4680   0.5141   0.6769   0.8205   0.8362   0.9843   1.1149   1.3025
     1.5014   1.5100   1.5612   1.6183   1.7507   2.0997   2.2185   2.3420
     2.4249   2.5326   2.7120   2.7567   2.9320   3.0026   3.0940   3.1308
     3.1651   3.2645   3.3378   3.4072   3.5031   3.5856   3.6443   3.7557
     3.7734   3.8796

          k = 0.0422 0.0483 0.0000 ( 41998 PWs)   bands (ev):

   -58.3910 -58.3615 -58.3168 -58.2882 -58.0735 -58.0448 -33.0517 -33.0126
   -32.5387 -32.4794 -32.4311 -32.3864 -32.3825 -32.3505 -32.3131 -32.2763
   -32.2606 -32.2296 -32.1832 -32.1722 -32.1295 -31.9625 -31.6468 -31.6209
   -30.5004 -30.3715 -30.0300 -29.8936 -29.8430 -29.3630 -15.6027 -15.5098
   -15.1071 -15.0492 -14.6264 -14.2827 -14.1585 -13.9781 -13.8460 -13.7113
   -13.5138 -13.5125 -13.0590 -12.9005 -12.8788 -12.7784 -12.4931 -12.3383
    -0.8688  -0.3792  -0.1297  -0.0222   0.0705   0.1248   0.3254   0.3932
     0.5958   0.6052   0.7630   0.9319   0.9930   1.0912   1.1817   1.3439
     1.4736   1.5487   1.6075   1.6405   1.7375   2.0113   2.0377   2.1845
     2.3570   2.4556   2.5589   2.7156   2.7382   2.9040   2.9552   3.0007
     3.0870   3.1645   3.1742   3.4391   3.4579   3.5321   3.5932   3.6388
     3.7274   3.8760

          k = 0.0422 0.0621 0.0000 ( 42009 PWs)   bands (ev):

   -58.3910 -58.3615 -58.3169 -58.2882 -58.0736 -58.0448 -33.0520 -33.0126
   -32.5392 -32.4795 -32.4331 -32.3860 -32.3825 -32.3505 -32.3140 -32.2762
   -32.2606 -32.2295 -32.1832 -32.1722 -32.1296 -31.9625 -31.6467 -31.6209
   -30.4981 -30.3693 -30.0298 -29.8935 -29.8426 -29.3631 -15.6059 -15.5116
   -15.1112 -15.0501 -14.6272 -14.2816 -14.1667 -13.9869 -13.8458 -13.7128
   -13.5161 -13.5129 -13.0614 -12.8990 -12.8801 -12.7781 -12.4931 -12.3381
    -0.6618  -0.3247  -0.1191   0.0721   0.1868   0.2291   0.4458   0.4617
     0.6571   0.7495   0.8339   1.0834   1.1463   1.1934   1.2876   1.3617
     1.4980   1.5602   1.6457   1.7182   1.7860   1.8771   1.8855   1.9798
     2.2663   2.3159   2.3642   2.4891   2.6464   2.8203   2.8833   2.8932
     2.9781   2.9823   3.1318   3.3186   3.4374   3.4786   3.5237   3.6488
     3.7185   3.7245

          k = 0.0422 0.0759 0.0000 ( 42020 PWs)   bands (ev):

   -58.3910 -58.3615 -58.3168 -58.2882 -58.0735 -58.0449 -33.0522 -33.0125
   -32.5394 -32.4796 -32.4343 -32.3858 -32.3826 -32.3505 -32.3145 -32.2761
   -32.2606 -32.2294 -32.1831 -32.1721 -32.1296 -31.9625 -31.6467 -31.6209
   -30.4967 -30.3680 -30.0297 -29.8934 -29.8424 -29.3631 -15.6076 -15.5126
   -15.1136 -15.0507 -14.6277 -14.2810 -14.1715 -13.9918 -13.8457 -13.7137
   -13.5175 -13.5132 -13.0628 -12.8981 -12.8809 -12.7780 -12.4930 -12.3379
    -0.5178  -0.2909  -0.1179   0.1220   0.2735   0.2752   0.4603   0.5742
     0.6904   0.8394   0.8930   1.2096   1.2410   1.2554   1.3545   1.4775
     1.4970   1.5557   1.6544   1.7279   1.7383   1.8292   1.8730   1.9972
     2.0293   2.1634   2.2190   2.3864   2.4407   2.7924   2.8228   2.8771
     2.9038   2.9581   3.1243   3.2294   3.3881   3.3884   3.5234   3.6529
     3.6902   3.7332

          k = 0.0422 0.0898 0.0000 ( 42020 PWs)   bands (ev):

   -58.3910 -58.3615 -58.3168 -58.2882 -58.0735 -58.0449 -33.0522 -33.0125
   -32.5394 -32.4796 -32.4343 -32.3858 -32.3826 -32.3505 -32.3145 -32.2761
   -32.2606 -32.2294 -32.1831 -32.1721 -32.1296 -31.9625 -31.6467 -31.6209
   -30.4967 -30.3680 -30.0297 -29.8934 -29.8424 -29.3631 -15.6076 -15.5126
   -15.1136 -15.0507 -14.6277 -14.2810 -14.1715 -13.9918 -13.8457 -13.7137
   -13.5175 -13.5132 -13.0628 -12.8981 -12.8809 -12.7780 -12.4930 -12.3379
    -0.5178  -0.2909  -0.1179   0.1220   0.2735   0.2752   0.4603   0.5742
     0.6904   0.8395   0.8930   1.2096   1.2410   1.2554   1.3545   1.4775
     1.4970   1.5556   1.6544   1.7279   1.7383   1.8292   1.8730   1.9972
     2.0293   2.1634   2.2190   2.3864   2.4407   2.7924   2.8228   2.8771
     2.9038   2.9581   3.1243   3.2294   3.3883   3.3884   3.5234   3.6530
     3.6912   3.7332

          k = 0.0422-0.0621 0.0000 ( 42009 PWs)   bands (ev):

   -58.3910 -58.3615 -58.3169 -58.2882 -58.0736 -58.0448 -33.0520 -33.0126
   -32.5392 -32.4795 -32.4331 -32.3860 -32.3825 -32.3505 -32.3140 -32.2762
   -32.2606 -32.2295 -32.1832 -32.1722 -32.1296 -31.9625 -31.6467 -31.6209
   -30.4981 -30.3693 -30.0298 -29.8935 -29.8426 -29.3631 -15.6059 -15.5116
   -15.1112 -15.0501 -14.6272 -14.2816 -14.1667 -13.9869 -13.8458 -13.7128
   -13.5161 -13.5129 -13.0614 -12.8990 -12.8801 -12.7781 -12.4931 -12.3381
    -0.6618  -0.3247  -0.1191   0.0721   0.1868   0.2291   0.4458   0.4617
     0.6571   0.7495   0.8339   1.0834   1.1463   1.1934   1.2876   1.3617
     1.4980   1.5602   1.6457   1.7182   1.7860   1.8771   1.8855   1.9798
     2.2663   2.3159   2.3642   2.4891   2.6464   2.8203   2.8833   2.8932
     2.9782   2.9823   3.1318   3.3185   3.4374   3.4786   3.5236   3.6488
     3.7185   3.7245

          k = 0.0422-0.0483 0.0000 ( 41998 PWs)   bands (ev):

   -58.3910 -58.3615 -58.3168 -58.2882 -58.0735 -58.0448 -33.0517 -33.0126
   -32.5387 -32.4794 -32.4311 -32.3864 -32.3825 -32.3505 -32.3131 -32.2763
   -32.2606 -32.2296 -32.1832 -32.1722 -32.1295 -31.9625 -31.6468 -31.6209
   -30.5004 -30.3715 -30.0300 -29.8936 -29.8430 -29.3630 -15.6027 -15.5098
   -15.1071 -15.0492 -14.6264 -14.2827 -14.1585 -13.9781 -13.8460 -13.7113
   -13.5138 -13.5125 -13.0590 -12.9005 -12.8788 -12.7784 -12.4931 -12.3383
    -0.8688  -0.3792  -0.1298  -0.0222   0.0705   0.1248   0.3254   0.3932
     0.5958   0.6052   0.7630   0.9319   0.9930   1.0913   1.1817   1.3439
     1.4736   1.5487   1.6074   1.6405   1.7375   2.0113   2.0377   2.1845
     2.3570   2.4556   2.5589   2.7156   2.7382   2.9040   2.9552   3.0007
     3.0870   3.1645   3.1742   3.4392   3.4578   3.5318   3.5929   3.6388
     3.7274   3.8427

          k = 0.0422-0.0345 0.0000 ( 41976 PWs)   bands (ev):

   -58.3910 -58.3614 -58.3168 -58.2881 -58.0735 -58.0448 -33.0514 -33.0127
   -32.5382 -32.4793 -32.4288 -32.3869 -32.3824 -32.3505 -32.3120 -32.2765
   -32.2606 -32.2298 -32.1832 -32.1722 -32.1295 -31.9625 -31.6470 -31.6208
   -30.5032 -30.3739 -30.0302 -29.8938 -29.8434 -29.3629 -15.5991 -15.5078
   -15.1023 -15.0481 -14.6253 -14.2840 -14.1489 -13.9678 -13.8462 -13.7096
   -13.5120 -13.5112 -13.0561 -12.9020 -12.8773 -12.7787 -12.4931 -12.3387
    -1.0687  -0.4356  -0.1632  -0.1345  -0.0323  -0.0013   0.2152   0.3283
     0.4680   0.5142   0.6769   0.8205   0.8362   0.9843   1.1149   1.3025
     1.5014   1.5100   1.5612   1.6183   1.7506   2.0997   2.2185   2.3420
     2.4249   2.5327   2.7120   2.7567   2.9320   3.0026   3.0940   3.1308
     3.1651   3.2645   3.3377   3.4072   3.5030   3.5855   3.6442   3.7550
     3.7735   3.8795

          k = 0.0422-0.0207 0.0000 ( 41948 PWs)   bands (ev):

   -58.3910 -58.3614 -58.3168 -58.2881 -58.0735 -58.0448 -33.0511 -33.0128
   -32.5377 -32.4792 -32.4268 -32.3873 -32.3823 -32.3505 -32.3110 -32.2767
   -32.2606 -32.2299 -32.1833 -32.1722 -32.1294 -31.9625 -31.6471 -31.6208
   -30.5056 -30.3761 -30.0304 -29.8939 -29.8437 -29.3629 -15.5960 -15.5060
   -15.0982 -15.0472 -14.6245 -14.2852 -14.1407 -13.9587 -13.8465 -13.7081
   -13.5116 -13.5091 -13.0537 -12.9031 -12.8761 -12.7790 -12.4932 -12.3390
    -1.2202  -0.4765  -0.2431  -0.2292  -0.1117  -0.0549   0.1480   0.2451
     0.3935   0.4203   0.5871   0.7344   0.7526   0.9279   1.0237   1.2770
     1.4762   1.4960   1.6059   1.6075   1.8056   2.0986   2.3290   2.4034
     2.5503   2.5808   2.7614   2.8975   3.0809   3.0923   3.1329   3.2178
     3.2778   3.2928   3.3636   3.4258   3.4898   3.6251   3.6475   3.8046
     3.8465   3.9308

          k = 0.0422-0.0069 0.0000 ( 41975 PWs)   bands (ev):

   -58.3911 -58.3615 -58.3168 -58.2881 -58.0735 -58.0448 -33.0510 -33.0128
   -32.5374 -32.4791 -32.4256 -32.3876 -32.3823 -32.3505 -32.3105 -32.2768
   -32.2606 -32.2300 -32.1833 -32.1722 -32.1294 -31.9625 -31.6472 -31.6208
   -30.5069 -30.3773 -30.0305 -29.8940 -29.8440 -29.3628 -15.5942 -15.5050
   -15.0958 -15.0466 -14.6240 -14.2859 -14.1360 -13.9533 -13.8466 -13.7072
   -13.5114 -13.5080 -13.0523 -12.9037 -12.8754 -12.7793 -12.4932 -12.3391
    -1.3009  -0.4946  -0.3073  -0.2852  -0.1553  -0.0581   0.1188   0.1771
     0.3651   0.3677   0.5273   0.6857   0.7208   0.8945   0.9775   1.2661
     1.4480   1.5020   1.5967   1.6435   1.8805   2.0442   2.3569   2.4141
     2.6111   2.7032   2.8128   2.9549   3.1078   3.1748   3.1759   3.2286
     3.3140   3.3406   3.3411   3.4101   3.4636   3.6107   3.6734   3.8251
     3.8288   3.9267

          k = 0.0422 0.0069 0.0000 ( 41975 PWs)   bands (ev):

   -58.3911 -58.3615 -58.3168 -58.2881 -58.0735 -58.0448 -33.0510 -33.0128
   -32.5374 -32.4791 -32.4256 -32.3876 -32.3823 -32.3505 -32.3105 -32.2768
   -32.2606 -32.2300 -32.1833 -32.1722 -32.1294 -31.9625 -31.6472 -31.6208
   -30.5069 -30.3773 -30.0305 -29.8940 -29.8440 -29.3628 -15.5942 -15.5050
   -15.0958 -15.0466 -14.6240 -14.2859 -14.1360 -13.9533 -13.8466 -13.7072
   -13.5114 -13.5080 -13.0523 -12.9037 -12.8754 -12.7793 -12.4932 -12.3391
    -1.3009  -0.4946  -0.3073  -0.2852  -0.1553  -0.0581   0.1188   0.1771
     0.3651   0.3677   0.5273   0.6857   0.7208   0.8945   0.9775   1.2661
     1.4480   1.5020   1.5967   1.6435   1.8805   2.0442   2.3569   2.4141
     2.6111   2.7032   2.8128   2.9549   3.1078   3.1748   3.1759   3.2286
     3.3142   3.3406   3.3413   3.4101   3.4639   3.6107   3.6734   3.8249
     3.8288   3.9267

          k = 0.0562 0.0276 0.0000 ( 41973 PWs)   bands (ev):

   -58.3867 -58.3658 -58.3126 -58.2923 -58.0693 -58.0490 -33.0456 -33.0185
   -32.4936 -32.4366 -32.4215 -32.3935 -32.3778 -32.3552 -32.3063 -32.2820
   -32.2759 -32.2274 -32.2179 -32.1658 -32.1356 -32.0071 -31.6432 -31.6246
   -30.4394 -30.3092 -30.1039 -29.9687 -29.7778 -29.4382 -15.2492 -15.1566
   -15.0348 -14.7022 -14.6973 -14.2238 -14.0844 -13.9134 -13.9007 -13.7783
   -13.5851 -13.4487 -13.3514 -13.2455 -13.1265 -12.8344 -12.7964 -12.5536
    -0.9059  -0.3097  -0.0625   0.0034   0.0973   0.1563   0.2776   0.4074
     0.5811   0.5831   0.7413   0.8786   0.8856   1.0462   1.2147   1.2825
     1.5145   1.6476   1.6723   1.7716   1.8366   2.0643   2.2527   2.2633
     2.3501   2.3762   2.6047   2.6701   2.7367   2.9526   3.0101   3.0846
     3.0973   3.3049   3.3172   3.4285   3.5349   3.6324   3.6395   3.7588
     3.8363   3.8511

          k = 0.0562 0.0414 0.0000 ( 42017 PWs)   bands (ev):

   -58.3867 -58.3658 -58.3127 -58.2924 -58.0694 -58.0491 -33.0459 -33.0184
   -32.4941 -32.4367 -32.4235 -32.3929 -32.3778 -32.3551 -32.3072 -32.2817
   -32.2756 -32.2273 -32.2179 -32.1658 -32.1356 -32.0071 -31.6431 -31.6247
   -30.4372 -30.3072 -30.1041 -29.9689 -29.7775 -29.4383 -15.2523 -15.1585
   -15.0387 -14.7026 -14.6978 -14.2227 -14.0921 -13.9134 -13.9095 -13.7784
   -13.5838 -13.4503 -13.3507 -13.2446 -13.1282 -12.8346 -12.7959 -12.5535
    -0.7382  -0.2701  -0.0180   0.0278   0.1782   0.2133   0.3683   0.4755
     0.6610   0.7027   0.8277   0.9293   0.9954   1.1274   1.2901   1.2993
     1.5091   1.6299   1.6709   1.7864   1.7985   2.0378   2.1173   2.1353
     2.3002   2.3079   2.4513   2.6170   2.6181   2.8894   2.9176   2.9918
     3.1473   3.1633   3.3755   3.4404   3.4875   3.5186   3.6132   3.7048
     3.7844   3.7877

          k = 0.0562 0.0552 0.0000 ( 42036 PWs)   bands (ev):

   -58.3867 -58.3658 -58.3127 -58.2924 -58.0694 -58.0491 -33.0462 -33.0183
   -32.4945 -32.4368 -32.4254 -32.3922 -32.3779 -32.3551 -32.3082 -32.2814
   -32.2754 -32.2273 -32.2178 -32.1658 -32.1357 -32.0071 -31.6430 -31.6247
   -30.4350 -30.3052 -30.1042 -29.9691 -29.7771 -29.4385 -15.2553 -15.1604
   -15.0426 -14.7027 -14.6987 -14.2216 -14.0998 -13.9180 -13.9134 -13.7785
   -13.5825 -13.4521 -13.3501 -13.2438 -13.1300 -12.8346 -12.7956 -12.5534
    -0.5376  -0.2160   0.0262   0.0364   0.2573   0.2681   0.5029   0.5586
     0.7268   0.8319   0.9219   1.0244   1.1375   1.2071   1.2988   1.3621
     1.5279   1.6092   1.6580   1.7342   1.8572   1.9013   1.9863   2.0064
     2.2245   2.2506   2.2972   2.4686   2.5438   2.7671   2.8315   2.8523
     3.0304   3.2477   3.2686   3.4119   3.4470   3.5282   3.6302   3.6692
     3.6863   3.7176

          k = 0.0562 0.0690 0.0000 ( 41990 PWs)   bands (ev):

   -58.3867 -58.3658 -58.3126 -58.2924 -58.0693 -58.0491 -33.0464 -33.0182
   -32.4949 -32.4369 -32.4268 -32.3917 -32.3779 -32.3551 -32.3088 -32.2812
   -32.2753 -32.2272 -32.2178 -32.1658 -32.1357 -32.0070 -31.6429 -31.6247
   -30.4334 -30.3037 -30.1043 -29.9693 -29.7768 -29.4386 -15.2575 -15.1618
   -15.0454 -14.7024 -14.6997 -14.2208 -14.1055 -13.9242 -13.9134 -13.7786
   -13.5815 -13.4534 -13.3497 -13.2431 -13.1313 -12.8345 -12.7955 -12.5534
    -0.3543  -0.1694   0.0216   0.0912   0.2757   0.3132   0.6104   0.6510
     0.7969   0.9506   0.9779   1.1469   1.2128   1.3041   1.3187   1.4592
     1.5109   1.5838   1.5977   1.6741   1.8072   1.8127   1.9090   1.9787
     2.1054   2.1227   2.2885   2.3286   2.3626   2.7500   2.7565   2.8173
     2.8976   3.1602   3.3140   3.3166   3.4760   3.5141   3.6209   3.6514
     3.6519   3.7704

          k = 0.0562 0.0828 0.0000 ( 41947 PWs)   bands (ev):

   -58.3866 -58.3658 -58.3126 -58.2923 -58.0693 -58.0491 -33.0464 -33.0182
   -32.4950 -32.4369 -32.4274 -32.3915 -32.3779 -32.3551 -32.3090 -32.2811
   -32.2752 -32.2272 -32.2178 -32.1658 -32.1357 -32.0070 -31.6428 -31.6247
   -30.4329 -30.3031 -30.1044 -29.9693 -29.7767 -29.4386 -15.2583 -15.1622
   -15.0465 -14.7021 -14.7003 -14.2205 -14.1075 -13.9264 -13.9134 -13.7786
   -13.5812 -13.4539 -13.3496 -13.2429 -13.1318 -12.8345 -12.7955 -12.5534
    -0.2731  -0.1512   0.0177   0.1175   0.2767   0.3269   0.6114   0.7277
     0.8429   0.9341   1.0952   1.2033   1.2051   1.3576   1.3601   1.3726
     1.5186   1.5899   1.6411   1.6516   1.7691   1.8012   1.8345   1.9621
     2.0422   2.1076   2.1501   2.2766   2.4022   2.7202   2.7870   2.8074
     2.8110   3.1259   3.2811   3.3332   3.4723   3.5090   3.6091   3.6454
     3.6597   3.7495

          k = 0.0562 0.0967 0.0000 ( 41990 PWs)   bands (ev):

   -58.3867 -58.3658 -58.3126 -58.2924 -58.0693 -58.0491 -33.0464 -33.0182
   -32.4949 -32.4369 -32.4268 -32.3917 -32.3779 -32.3551 -32.3088 -32.2812
   -32.2753 -32.2272 -32.2178 -32.1658 -32.1357 -32.0070 -31.6429 -31.6247
   -30.4334 -30.3037 -30.1043 -29.9693 -29.7768 -29.4386 -15.2575 -15.1618
   -15.0454 -14.7025 -14.6997 -14.2208 -14.1055 -13.9242 -13.9134 -13.7786
   -13.5815 -13.4534 -13.3497 -13.2431 -13.1313 -12.8345 -12.7955 -12.5534
    -0.3543  -0.1694   0.0216   0.0912   0.2757   0.3132   0.6104   0.6510
     0.7969   0.9506   0.9779   1.1469   1.2128   1.3041   1.3187   1.4593
     1.5109   1.5838   1.5977   1.6741   1.8072   1.8127   1.9090   1.9787
     2.1054   2.1227   2.2885   2.3286   2.3626   2.7499   2.7565   2.8173
     2.8976   3.1602   3.3140   3.3166   3.4761   3.5140   3.6211   3.6514
     3.6519   3.7707

          k = 0.0562-0.0552 0.0000 ( 42036 PWs)   bands (ev):

   -58.3867 -58.3658 -58.3127 -58.2924 -58.0694 -58.0491 -33.0462 -33.0183
   -32.4945 -32.4368 -32.4255 -32.3922 -32.3779 -32.3551 -32.3082 -32.2814
   -32.2754 -32.2273 -32.2178 -32.1658 -32.1357 -32.0071 -31.6430 -31.6247
   -30.4350 -30.3052 -30.1042 -29.9691 -29.7771 -29.4385 -15.2553 -15.1604
   -15.0426 -14.7027 -14.6987 -14.2216 -14.0998 -13.9180 -13.9134 -13.7785
   -13.5825 -13.4521 -13.3501 -13.2438 -13.1300 -12.8346 -12.7956 -12.5534
    -0.5376  -0.2161   0.0262   0.0364   0.2573   0.2681   0.5029   0.5586
     0.7268   0.8320   0.9219   1.0244   1.1375   1.2071   1.2988   1.3621
     1.5279   1.6091   1.6580   1.7342   1.8572   1.9012   1.9863   2.0064
     2.2245   2.2506   2.2971   2.4686   2.5438   2.7671   2.8315   2.8523
     3.0304   3.2476   3.2686   3.4119   3.4474   3.5285   3.6302   3.6694
     3.6869   3.7180

          k = 0.0562-0.0414 0.0000 ( 42017 PWs)   bands (ev):

   -58.3867 -58.3658 -58.3127 -58.2924 -58.0694 -58.0491 -33.0459 -33.0184
   -32.4941 -32.4367 -32.4235 -32.3929 -32.3778 -32.3551 -32.3072 -32.2817
   -32.2756 -32.2273 -32.2179 -32.1658 -32.1356 -32.0071 -31.6431 -31.6247
   -30.4372 -30.3072 -30.1041 -29.9689 -29.7775 -29.4383 -15.2523 -15.1585
   -15.0387 -14.7026 -14.6978 -14.2227 -14.0921 -13.9134 -13.9095 -13.7784
   -13.5838 -13.4503 -13.3507 -13.2446 -13.1282 -12.8346 -12.7959 -12.5535
    -0.7382  -0.2701  -0.0180   0.0278   0.1782   0.2134   0.3683   0.4755
     0.6610   0.7027   0.8277   0.9293   0.9954   1.1275   1.2901   1.2993
     1.5091   1.6299   1.6709   1.7863   1.7985   2.0378   2.1173   2.1354
     2.3002   2.3079   2.4513   2.6170   2.6181   2.8894   2.9176   2.9918
     3.1473   3.1633   3.3755   3.4404   3.4876   3.5186   3.6132   3.7048
     3.7844   3.7877

          k = 0.0562-0.0276 0.0000 ( 41973 PWs)   bands (ev):

   -58.3867 -58.3658 -58.3126 -58.2923 -58.0693 -58.0490 -33.0456 -33.0185
   -32.4936 -32.4366 -32.4215 -32.3935 -32.3778 -32.3552 -32.3063 -32.2820
   -32.2759 -32.2274 -32.2179 -32.1658 -32.1356 -32.0071 -31.6432 -31.6246
   -30.4394 -30.3092 -30.1039 -29.9687 -29.7778 -29.4382 -15.2492 -15.1566
   -15.0348 -14.7022 -14.6972 -14.2238 -14.0844 -13.9134 -13.9007 -13.7783
   -13.5851 -13.4487 -13.3514 -13.2455 -13.1265 -12.8344 -12.7964 -12.5536
    -0.9059  -0.3097  -0.0625   0.0034   0.0973   0.1563   0.2776   0.4074
     0.5811   0.5831   0.7413   0.8786   0.8856   1.0462   1.2147   1.2825
     1.5145   1.6476   1.6723   1.7716   1.8366   2.0643   2.2527   2.2633
     2.3501   2.3762   2.6047   2.6701   2.7367   2.9526   3.0101   3.0845
     3.0973   3.3048   3.3171   3.4285   3.5350   3.6324   3.6395   3.7588
     3.8364   3.8515

          k = 0.0562-0.0138 0.0000 ( 41989 PWs)   bands (ev):

   -58.3867 -58.3658 -58.3127 -58.2923 -58.0694 -58.0490 -33.0454 -33.0186
   -32.4932 -32.4365 -32.4201 -32.3941 -32.3778 -32.3552 -32.3056 -32.2822
   -32.2760 -32.2274 -32.2178 -32.1659 -32.1356 -32.0071 -31.6433 -31.6246
   -30.4410 -30.3106 -30.1038 -29.9685 -29.7781 -29.4381 -15.2470 -15.1553
   -15.0320 -14.7016 -14.6970 -14.2246 -14.0787 -13.9134 -13.8942 -13.7783
   -13.5861 -13.4475 -13.3519 -13.2461 -13.1252 -12.8341 -12.7969 -12.5537
    -1.0148  -0.3264  -0.0953  -0.0635   0.0971   0.1097   0.2309   0.3361
     0.5114   0.5148   0.6829   0.8082   0.8708   1.0040   1.1219   1.2682
     1.5299   1.6421   1.7269   1.7648   1.8900   2.0130   2.2733   2.3335
     2.3825   2.5387   2.7076   2.7172   2.8188   2.9051   3.0147   3.1420
     3.1552   3.3195   3.3436   3.3816   3.5962   3.6455   3.7226   3.7830
     3.7996   3.8271

          k = 0.0562 0.0000 0.0000 ( 42005 PWs)   bands (ev):

   -58.3867 -58.3659 -58.3126 -58.2924 -58.0693 -58.0490 -33.0454 -33.0186
   -32.4931 -32.4365 -32.4195 -32.3943 -32.3777 -32.3552 -32.3054 -32.2823
   -32.2761 -32.2274 -32.2179 -32.1659 -32.1355 -32.0071 -31.6433 -31.6246
   -30.4416 -30.3112 -30.1037 -29.9685 -29.7782 -29.4381 -15.2461 -15.1547
   -15.0309 -14.7014 -14.6970 -14.2250 -14.0766 -13.9134 -13.8918 -13.7783
   -13.5865 -13.4472 -13.3521 -13.2463 -13.1247 -12.8340 -12.7971 -12.5537
    -1.0524  -0.3289  -0.1092  -0.0927   0.0930   0.1089   0.2167   0.2986
     0.4827   0.4975   0.6602   0.7863   0.8681   0.9951   1.0810   1.2613
     1.5364   1.6422   1.7544   1.7634   1.9350   1.9634   2.2696   2.3332
     2.4125   2.6456   2.7225   2.7292   2.8508   2.8741   3.0108   3.1723
     3.1862   3.3186   3.3310   3.3510   3.6249   3.6478   3.7118   3.7915
     3.8117   3.8520

          k = 0.0562 0.0138 0.0000 ( 41989 PWs)   bands (ev):

   -58.3867 -58.3658 -58.3127 -58.2923 -58.0694 -58.0490 -33.0454 -33.0186
   -32.4932 -32.4365 -32.4201 -32.3941 -32.3778 -32.3552 -32.3056 -32.2822
   -32.2760 -32.2274 -32.2178 -32.1659 -32.1356 -32.0071 -31.6433 -31.6246
   -30.4410 -30.3106 -30.1038 -29.9685 -29.7781 -29.4381 -15.2470 -15.1553
   -15.0320 -14.7016 -14.6970 -14.2246 -14.0787 -13.9134 -13.8942 -13.7783
   -13.5861 -13.4475 -13.3519 -13.2461 -13.1252 -12.8341 -12.7969 -12.5537
    -1.0148  -0.3264  -0.0953  -0.0635   0.0971   0.1097   0.2309   0.3361
     0.5114   0.5148   0.6829   0.8082   0.8708   1.0040   1.1219   1.2682
     1.5299   1.6421   1.7269   1.7648   1.8901   2.0130   2.2733   2.3335
     2.3825   2.5387   2.7076   2.7172   2.8188   2.9051   3.0147   3.1420
     3.1552   3.3195   3.3436   3.3815   3.5962   3.6455   3.7226   3.7831
     3.7995   3.8276

          k = 0.0703 0.0345 0.0000 ( 42005 PWs)   bands (ev):

   -58.3817 -58.3708 -58.3078 -58.2973 -58.0645 -58.0539 -33.0392 -33.0251
   -32.4419 -32.4152 -32.4007 -32.3867 -32.3725 -32.3605 -32.3289 -32.3007
   -32.2880 -32.2784 -32.1677 -32.1585 -32.1428 -32.0586 -31.6387 -31.6291
   -30.3610 -30.2298 -30.1876 -30.0538 -29.6993 -29.5236 -14.9587 -14.8301
   -14.7866 -14.7318 -14.2790 -14.1514 -14.0170 -13.9896 -13.8567 -13.8543
   -13.8282 -13.7490 -13.6669 -13.3747 -13.2996 -13.2082 -12.7661 -12.6227
    -0.5725  -0.1880   0.0182   0.1365   0.2537   0.2755   0.5476   0.5789
     0.7206   0.7937   0.8701   0.8711   1.0684   1.2077   1.2369   1.4175
     1.5392   1.7074   1.7683   1.8087   1.9258   2.0081   2.0723   2.1161
     2.1545   2.1899   2.4249   2.5542   2.5562   2.7184   2.8648   2.9092
     2.9300   3.0849   3.2795   3.4078   3.4082   3.4692   3.7283   3.7944
     3.8117   3.9859

          k = 0.0703 0.0483 0.0000 ( 42004 PWs)   bands (ev):

   -58.3817 -58.3709 -58.3078 -58.2973 -58.0644 -58.0540 -33.0394 -33.0250
   -32.4423 -32.4169 -32.3997 -32.3868 -32.3726 -32.3605 -32.3286 -32.3014
   -32.2876 -32.2783 -32.1677 -32.1585 -32.1428 -32.0585 -31.6386 -31.6291
   -30.3593 -30.2282 -30.1882 -30.0544 -29.6990 -29.5239 -14.9618 -14.8329
   -14.7856 -14.7334 -14.2799 -14.1505 -14.0232 -13.9898 -13.8550 -13.8530
   -13.8354 -13.7477 -13.6635 -13.3759 -13.2987 -13.2090 -12.7664 -12.6225
    -0.4140  -0.1987   0.0358   0.1254   0.2982   0.3145   0.6055   0.6432
     0.7745   0.8523   0.9141   0.9557   1.1655   1.2326   1.2949   1.4912
     1.4946   1.6373   1.7244   1.7454   1.9000   1.9463   2.0453   2.0909
     2.1464   2.1561   2.3394   2.4398   2.4792   2.6801   2.8119   2.8509
     2.9946   3.0258   3.2468   3.3407   3.4049   3.5147   3.6898   3.7271
     3.8287   3.9481

          k = 0.0703 0.0621 0.0000 ( 42001 PWs)   bands (ev):

   -58.3816 -58.3709 -58.3077 -58.2973 -58.0644 -58.0540 -33.0396 -33.0248
   -32.4427 -32.4183 -32.3988 -32.3869 -32.3726 -32.3605 -32.3284 -32.3021
   -32.2872 -32.2782 -32.1677 -32.1584 -32.1429 -32.0585 -31.6385 -31.6292
   -30.3579 -30.2268 -30.1888 -30.0550 -29.6987 -29.5240 -14.9645 -14.8352
   -14.7848 -14.7348 -14.2806 -14.1496 -14.0286 -13.9900 -13.8536 -13.8518
   -13.8416 -13.7468 -13.6606 -13.3768 -13.2981 -13.2097 -12.7666 -12.6224
    -0.2420  -0.1998   0.0703   0.1122   0.3248   0.3277   0.6875   0.7184
     0.8389   0.9120   0.9501   1.0303   1.2198   1.2827   1.3740   1.4093
     1.5429   1.5452   1.6798   1.6813   1.8450   1.8664   1.9549   2.0572
     2.1223   2.2509   2.2559   2.3227   2.4034   2.6855   2.7509   2.7813
     2.9567   3.0672   3.1489   3.2390   3.4572   3.6094   3.6389   3.6573
     3.8125   3.9274

          k = 0.0703 0.0759 0.0000 ( 42000 PWs)   bands (ev):

   -58.3816 -58.3709 -58.3077 -58.2973 -58.0644 -58.0540 -33.0397 -33.0248
   -32.4429 -32.4191 -32.3983 -32.3869 -32.3726 -32.3605 -32.3282 -32.3025
   -32.2870 -32.2782 -32.1677 -32.1584 -32.1429 -32.0585 -31.6384 -31.6292
   -30.3570 -30.2260 -30.1891 -30.0553 -29.6985 -29.5241 -14.9660 -14.8366
   -14.7843 -14.7356 -14.2810 -14.1491 -14.0316 -13.9902 -13.8527 -13.8508
   -13.8454 -13.7464 -13.6589 -13.3774 -13.2977 -13.2102 -12.7667 -12.6223
    -0.1983  -0.1136   0.0992   0.1045   0.3181   0.3340   0.7507   0.7543
     0.8999   0.9741   1.0053   1.0676   1.2148   1.2472   1.3422   1.4366
     1.5300   1.5350   1.6787   1.6819   1.8073   1.8142   1.9110   1.9895
     2.0731   2.0828   2.2527   2.3610   2.4973   2.6512   2.7171   2.7811
     2.8185   3.0619   3.1838   3.2438   3.3892   3.6065   3.6352   3.6998
     3.7611   3.9263

          k = 0.0703 0.0898 0.0000 ( 42000 PWs)   bands (ev):

   -58.3816 -58.3709 -58.3077 -58.2973 -58.0644 -58.0540 -33.0397 -33.0248
   -32.4429 -32.4191 -32.3983 -32.3869 -32.3726 -32.3605 -32.3282 -32.3025
   -32.2870 -32.2782 -32.1677 -32.1584 -32.1429 -32.0585 -31.6384 -31.6292
   -30.3570 -30.2260 -30.1891 -30.0553 -29.6985 -29.5241 -14.9660 -14.8366
   -14.7843 -14.7356 -14.2810 -14.1491 -14.0316 -13.9902 -13.8527 -13.8508
   -13.8454 -13.7464 -13.6589 -13.3774 -13.2977 -13.2102 -12.7667 -12.6223
    -0.1983  -0.1136   0.0992   0.1045   0.3181   0.3340   0.7507   0.7543
     0.8999   0.9741   1.0053   1.0676   1.2148   1.2472   1.3422   1.4366
     1.5300   1.5350   1.6787   1.6819   1.8073   1.8142   1.9110   1.9895
     2.0731   2.0828   2.2527   2.3610   2.4973   2.6512   2.7171   2.7811
     2.8185   3.0619   3.1838   3.2438   3.3893   3.6064   3.6352   3.6998
     3.7611   3.9263

          k = 0.0703 0.1036 0.0000 ( 42001 PWs)   bands (ev):

   -58.3816 -58.3709 -58.3077 -58.2973 -58.0644 -58.0540 -33.0396 -33.0248
   -32.4427 -32.4183 -32.3988 -32.3869 -32.3726 -32.3605 -32.3284 -32.3021
   -32.2872 -32.2782 -32.1677 -32.1584 -32.1429 -32.0585 -31.6385 -31.6292
   -30.3579 -30.2268 -30.1888 -30.0550 -29.6987 -29.5240 -14.9645 -14.8352
   -14.7848 -14.7348 -14.2806 -14.1496 -14.0286 -13.9900 -13.8536 -13.8518
   -13.8416 -13.7468 -13.6606 -13.3768 -13.2981 -13.2097 -12.7666 -12.6224
    -0.2420  -0.1999   0.0703   0.1122   0.3248   0.3277   0.6875   0.7184
     0.8389   0.9120   0.9501   1.0304   1.2198   1.2827   1.3740   1.4093
     1.5429   1.5452   1.6798   1.6814   1.8450   1.8664   1.9549   2.0572
     2.1223   2.2509   2.2559   2.3226   2.4034   2.6855   2.7509   2.7813
     2.9567   3.0671   3.1489   3.2390   3.4572   3.6095   3.6390   3.6574
     3.8125   3.9273

          k = 0.0703-0.0483 0.0000 ( 42004 PWs)   bands (ev):

   -58.3817 -58.3709 -58.3078 -58.2973 -58.0644 -58.0540 -33.0394 -33.0250
   -32.4423 -32.4169 -32.3997 -32.3868 -32.3726 -32.3605 -32.3286 -32.3014
   -32.2876 -32.2783 -32.1677 -32.1585 -32.1428 -32.0585 -31.6386 -31.6291
   -30.3593 -30.2282 -30.1882 -30.0544 -29.6990 -29.5239 -14.9618 -14.8329
   -14.7856 -14.7334 -14.2799 -14.1505 -14.0232 -13.9898 -13.8550 -13.8530
   -13.8354 -13.7477 -13.6635 -13.3759 -13.2987 -13.2090 -12.7664 -12.6225
    -0.4140  -0.1987   0.0358   0.1254   0.2982   0.3145   0.6055   0.6432
     0.7744   0.8523   0.9141   0.9557   1.1655   1.2326   1.2949   1.4912
     1.4947   1.6373   1.7244   1.7454   1.9000   1.9463   2.0453   2.0909
     2.1464   2.1561   2.3394   2.4398   2.4792   2.6801   2.8119   2.8509
     2.9946   3.0257   3.2467   3.3408   3.4049   3.5147   3.6897   3.7270
     3.8279   3.9483

          k = 0.0703-0.0345 0.0000 ( 42005 PWs)   bands (ev):

   -58.3817 -58.3708 -58.3078 -58.2973 -58.0645 -58.0539 -33.0392 -33.0251
   -32.4419 -32.4152 -32.4007 -32.3867 -32.3725 -32.3605 -32.3289 -32.3007
   -32.2880 -32.2784 -32.1677 -32.1585 -32.1428 -32.0586 -31.6387 -31.6291
   -30.3610 -30.2298 -30.1876 -30.0538 -29.6993 -29.5236 -14.9587 -14.8301
   -14.7866 -14.7318 -14.2790 -14.1514 -14.0170 -13.9896 -13.8567 -13.8543
   -13.8282 -13.7490 -13.6669 -13.3747 -13.2996 -13.2082 -12.7661 -12.6227
    -0.5725  -0.1880   0.0182   0.1366   0.2537   0.2756   0.5476   0.5789
     0.7206   0.7937   0.8701   0.8711   1.0684   1.2077   1.2369   1.4175
     1.5392   1.7074   1.7683   1.8088   1.9259   2.0081   2.0723   2.1161
     2.1545   2.1899   2.4249   2.5542   2.5562   2.7184   2.8648   2.9092
     2.9300   3.0849   3.2795   3.4078   3.4083   3.4692   3.7282   3.7943
     3.8117   3.9870

          k = 0.0703-0.0207 0.0000 ( 42022 PWs)   bands (ev):

   -58.3817 -58.3709 -58.3078 -58.2973 -58.0645 -58.0539 -33.0390 -33.0252
   -32.4415 -32.4137 -32.4016 -32.3866 -32.3725 -32.3605 -32.3291 -32.3000
   -32.2884 -32.2784 -32.1677 -32.1585 -32.1427 -32.0586 -31.6387 -31.6290
   -30.3625 -30.2312 -30.1870 -30.0532 -29.6996 -29.5235 -14.9560 -14.8276
   -14.7876 -14.7304 -14.2783 -14.1523 -14.0114 -13.9894 -13.8582 -13.8556
   -13.8216 -13.7504 -13.6698 -13.3737 -13.3004 -13.2076 -12.7659 -12.6228
    -0.6890  -0.1659   0.0161   0.1345   0.2220   0.2326   0.5173   0.5344
     0.6719   0.7081   0.8324   0.8524   0.9793   1.1227   1.2566   1.3398
     1.6031   1.7238   1.7885   1.8434   1.8595   2.0290   2.1604   2.1664
     2.1890   2.2449   2.4861   2.5754   2.6423   2.6929   2.8193   2.9693
     3.0216   3.1824   3.1885   3.3512   3.4293   3.6097   3.6994   3.7487
     3.7575   4.0424

          k = 0.0703-0.0069 0.0000 ( 42012 PWs)   bands (ev):

   -58.3817 -58.3709 -58.3078 -58.2972 -58.0645 -58.0539 -33.0389 -33.0253
   -32.4413 -32.4129 -32.4021 -32.3865 -32.3725 -32.3606 -32.3293 -32.2996
   -32.2886 -32.2785 -32.1677 -32.1586 -32.1427 -32.0586 -31.6388 -31.6290
   -30.3634 -30.2320 -30.1867 -30.0529 -29.6998 -29.5234 -14.9545 -14.8261
   -14.7881 -14.7296 -14.2779 -14.1528 -14.0081 -13.9893 -13.8591 -13.8563
   -13.8176 -13.7514 -13.6715 -13.3730 -13.3010 -13.2072 -12.7658 -12.6229
    -0.7501  -0.1444   0.0191   0.1199   0.2051   0.2200   0.5034   0.5085
     0.6326   0.6610   0.8075   0.8542   0.9302   1.0786   1.2720   1.2826
     1.6632   1.7118   1.7741   1.8386   1.8634   2.0291   2.1523   2.2390
     2.2440   2.2977   2.4918   2.5087   2.6623   2.7206   2.8141   3.0292
     3.0941   3.1688   3.2219   3.3316   3.3735   3.6621   3.6835   3.7000
     3.7839   4.0291

          k = 0.0703 0.0069 0.0000 ( 42012 PWs)   bands (ev):

   -58.3817 -58.3709 -58.3078 -58.2972 -58.0645 -58.0539 -33.0389 -33.0253
   -32.4413 -32.4129 -32.4021 -32.3865 -32.3725 -32.3606 -32.3293 -32.2996
   -32.2886 -32.2785 -32.1677 -32.1586 -32.1427 -32.0586 -31.6388 -31.6290
   -30.3634 -30.2320 -30.1867 -30.0529 -29.6998 -29.5234 -14.9545 -14.8261
   -14.7881 -14.7296 -14.2779 -14.1528 -14.0081 -13.9893 -13.8591 -13.8563
   -13.8176 -13.7514 -13.6715 -13.3730 -13.3010 -13.2072 -12.7658 -12.6229
    -0.7501  -0.1444   0.0191   0.1199   0.2051   0.2200   0.5034   0.5085
     0.6327   0.6610   0.8075   0.8542   0.9302   1.0786   1.2720   1.2826
     1.6631   1.7118   1.7741   1.8386   1.8635   2.0291   2.1523   2.2390
     2.2440   2.2977   2.4918   2.5087   2.6623   2.7206   2.8141   3.0292
     3.0941   3.1688   3.2219   3.3316   3.3735   3.6622   3.6835   3.6999
     3.7840   4.0293

          k = 0.0703 0.0207 0.0000 ( 42022 PWs)   bands (ev):

   -58.3817 -58.3709 -58.3078 -58.2973 -58.0645 -58.0539 -33.0390 -33.0252
   -32.4415 -32.4137 -32.4016 -32.3866 -32.3725 -32.3605 -32.3291 -32.3000
   -32.2884 -32.2784 -32.1677 -32.1585 -32.1427 -32.0586 -31.6387 -31.6290
   -30.3625 -30.2312 -30.1870 -30.0532 -29.6996 -29.5235 -14.9560 -14.8276
   -14.7876 -14.7304 -14.2783 -14.1523 -14.0114 -13.9894 -13.8582 -13.8556
   -13.8216 -13.7504 -13.6698 -13.3737 -13.3004 -13.2076 -12.7659 -12.6228
    -0.6890  -0.1659   0.0161   0.1345   0.2220   0.2325   0.5173   0.5344
     0.6719   0.7081   0.8324   0.8524   0.9793   1.1227   1.2565   1.3398
     1.6031   1.7238   1.7885   1.8434   1.8595   2.0290   2.1604   2.1664
     2.1890   2.2449   2.4861   2.5754   2.6423   2.6929   2.8193   2.9693
     3.0217   3.1824   3.1885   3.3513   3.4292   3.6097   3.6992   3.7487
     3.7575   4.0433

          k =-0.0843-0.0414 0.0000 ( 41990 PWs)   bands (ev):

   -58.3763 -58.3763 -58.3026 -58.3025 -58.0592 -58.0592 -33.0322 -33.0322
   -32.4081 -32.4081 -32.3862 -32.3862 -32.3659 -32.3658 -32.3328 -32.3327
   -32.2944 -32.2943 -32.1507 -32.1507 -32.1133 -32.1133 -31.6339 -31.6338
   -30.2753 -30.2753 -30.1428 -30.1428 -29.6127 -29.6127 -14.8741 -14.8740
   -14.3560 -14.3560 -14.2568 -14.2568 -14.0721 -14.0721 -13.9391 -13.9391
   -13.8011 -13.8010 -13.7502 -13.7502 -13.2927 -13.2927 -12.6952 -12.6952
    -0.2963  -0.2963   0.1206   0.1206   0.3124   0.3124   0.7214   0.7214
     0.7459   0.7459   0.9150   0.9150   1.2432   1.2432   1.3955   1.3955
     1.6086   1.6086   1.7143   1.7144   1.9825   1.9825   2.0215   2.0215
     2.1778   2.1778   2.3504   2.3504   2.6158   2.6158   2.8191   2.8191
     2.9204   2.9205   3.2913   3.2913   3.3970   3.3970   3.7416   3.7416
     3.8929   3.8929

          k =-0.0843-0.0276 0.0000 ( 42009 PWs)   bands (ev):

   -58.3763 -58.3762 -58.3026 -58.3025 -58.0593 -58.0592 -33.0324 -33.0320
   -32.4094 -32.4068 -32.3866 -32.3858 -32.3659 -32.3658 -32.3329 -32.3327
   -32.2949 -32.2938 -32.1507 -32.1507 -32.1133 -32.1133 -31.6339 -31.6338
   -30.2764 -30.2742 -30.1439 -30.1417 -29.6130 -29.6125 -14.8760 -14.8721
   -14.3580 -14.3540 -14.2583 -14.2553 -14.0727 -14.0716 -13.9435 -13.9347
   -13.8024 -13.8000 -13.7551 -13.7450 -13.2929 -13.2925 -12.6954 -12.6950
    -0.3841  -0.1856   0.1010   0.1474   0.3000   0.3151   0.7144   0.7354
     0.7496   0.7627   0.8816   0.9427   1.1953   1.2888   1.2986   1.4562
     1.5056   1.6720   1.7220   1.7504   1.9470   1.9595   2.0172   2.0506
     2.1331   2.2266   2.2660   2.4344   2.5427   2.6822   2.7726   2.8252
     2.9659   2.9897   3.1135   3.2695   3.4136   3.5258   3.6691   3.7364
     3.8234   3.9599

          k =-0.0843-0.0138 0.0000 ( 42028 PWs)   bands (ev):

   -58.3763 -58.3763 -58.3026 -58.3025 -58.0593 -58.0592 -33.0325 -33.0319
   -32.4103 -32.4059 -32.3869 -32.3856 -32.3660 -32.3658 -32.3330 -32.3326
   -32.2954 -32.2934 -32.1508 -32.1506 -32.1133 -32.1133 -31.6340 -31.6337
   -30.2772 -30.2733 -30.1447 -30.1409 -29.6132 -29.6123 -14.8775 -14.8706
   -14.3593 -14.3525 -14.2593 -14.2542 -14.0731 -14.0712 -13.9467 -13.9315
   -13.8036 -13.7994 -13.7585 -13.7412 -13.2932 -13.2924 -12.6955 -12.6949
    -0.4391  -0.0743   0.0801   0.1811   0.2874   0.3014   0.7102   0.7525
     0.7635   0.7944   0.8595   0.9680   1.1162   1.1822   1.3435   1.4762
     1.4985   1.6281   1.7476   1.8028   1.8883   1.9175   2.0013   2.0844
     2.1294   2.2261   2.2749   2.4016   2.5441   2.7072   2.7208   2.8613
     2.9736   3.0660   3.0879   3.2008   3.3755   3.6352   3.6373   3.7049
     3.7130   4.0229

          k =-0.0843 0.0000 0.0000 ( 42001 PWs)   bands (ev):

   -58.3764 -58.3762 -58.3026 -58.3024 -58.0593 -58.0591 -33.0325 -33.0318
   -32.4106 -32.4055 -32.3870 -32.3855 -32.3660 -32.3658 -32.3330 -32.3326
   -32.2955 -32.2932 -32.1508 -32.1506 -32.1133 -32.1133 -31.6340 -31.6337
   -30.2775 -30.2730 -30.1450 -30.1406 -29.6133 -29.6122 -14.8780 -14.8701
   -14.3598 -14.3519 -14.2597 -14.2537 -14.0733 -14.0711 -13.9479 -13.9303
   -13.8040 -13.7992 -13.7597 -13.7397 -13.2933 -13.2924 -12.6956 -12.6948
    -0.4577  -0.0121   0.0582   0.2020   0.2821   0.2873   0.7102   0.7547
     0.7671   0.8215   0.8556   0.9881   1.0756   1.1106   1.3834   1.4831
     1.4923   1.6129   1.7668   1.8000   1.8521   1.9125   1.9802   2.0791
     2.1943   2.2109   2.2965   2.3360   2.5607   2.6728   2.7354   2.8843
     2.9362   3.1197   3.1559   3.1740   3.3039   3.6243   3.6284   3.6521
     3.8109   3.9810

          k =-0.0843 0.0138 0.0000 ( 42028 PWs)   bands (ev):

   -58.3763 -58.3763 -58.3026 -58.3025 -58.0593 -58.0592 -33.0325 -33.0319
   -32.4103 -32.4059 -32.3869 -32.3856 -32.3660 -32.3658 -32.3330 -32.3326
   -32.2954 -32.2934 -32.1508 -32.1506 -32.1133 -32.1133 -31.6340 -31.6337
   -30.2772 -30.2733 -30.1447 -30.1409 -29.6132 -29.6123 -14.8775 -14.8706
   -14.3593 -14.3525 -14.2593 -14.2542 -14.0731 -14.0712 -13.9467 -13.9315
   -13.8036 -13.7994 -13.7585 -13.7412 -13.2932 -13.2924 -12.6955 -12.6949
    -0.4391  -0.0743   0.0801   0.1811   0.2874   0.3015   0.7102   0.7525
     0.7635   0.7944   0.8595   0.9680   1.1162   1.1822   1.3435   1.4762
     1.4985   1.6281   1.7476   1.8028   1.8882   1.9175   2.0013   2.0844
     2.1294   2.2261   2.2749   2.4016   2.5441   2.7072   2.7208   2.8613
     2.9736   3.0660   3.0878   3.2009   3.3756   3.6352   3.6373   3.7049
     3.7130   4.0231

          k =-0.0843 0.0276 0.0000 ( 42009 PWs)   bands (ev):

   -58.3763 -58.3762 -58.3026 -58.3025 -58.0593 -58.0592 -33.0324 -33.0320
   -32.4094 -32.4068 -32.3866 -32.3858 -32.3659 -32.3658 -32.3329 -32.3327
   -32.2949 -32.2938 -32.1507 -32.1506 -32.1133 -32.1133 -31.6339 -31.6338
   -30.2764 -30.2742 -30.1439 -30.1417 -29.6130 -29.6125 -14.8760 -14.8721
   -14.3580 -14.3540 -14.2583 -14.2553 -14.0727 -14.0716 -13.9435 -13.9347
   -13.8024 -13.8000 -13.7551 -13.7450 -13.2929 -13.2925 -12.6954 -12.6950
    -0.3841  -0.1856   0.1010   0.1474   0.3000   0.3151   0.7144   0.7354
     0.7496   0.7627   0.8816   0.9428   1.1953   1.2888   1.2986   1.4562
     1.5056   1.6720   1.7220   1.7504   1.9470   1.9595   2.0172   2.0506
     2.1331   2.2266   2.2660   2.4345   2.5427   2.6822   2.7726   2.8252
     2.9659   2.9897   3.1135   3.2695   3.4136   3.5256   3.6691   3.7366
     3.8234   3.9595

          k =-0.0843-0.1243 0.0000 ( 41990 PWs)   bands (ev):

   -58.3763 -58.3763 -58.3026 -58.3025 -58.0592 -58.0592 -33.0322 -33.0322
   -32.4081 -32.4081 -32.3862 -32.3862 -32.3659 -32.3658 -32.3328 -32.3327
   -32.2944 -32.2943 -32.1507 -32.1507 -32.1133 -32.1133 -31.6339 -31.6338
   -30.2753 -30.2753 -30.1428 -30.1428 -29.6127 -29.6127 -14.8741 -14.8740
   -14.3560 -14.3560 -14.2568 -14.2568 -14.0721 -14.0721 -13.9391 -13.9391
   -13.8011 -13.8010 -13.7502 -13.7502 -13.2927 -13.2927 -12.6952 -12.6952
    -0.2963  -0.2963   0.1206   0.1206   0.3124   0.3124   0.7214   0.7214
     0.7459   0.7459   0.9150   0.9150   1.2432   1.2432   1.3955   1.3955
     1.6086   1.6086   1.7143   1.7144   1.9825   1.9825   2.0215   2.0215
     2.1778   2.1778   2.3504   2.3504   2.6158   2.6158   2.8191   2.8191
     2.9204   2.9204   3.2913   3.2913   3.3970   3.3970   3.7416   3.7416
     3.8928   3.8930

     the Fermi energy is     2.5663 ev

!    total energy              =   -1604.29818112 Ry
     estimated scf accuracy    <       0.00000304 Ry
     smearing contrib. (-TS)   =      -0.08329921 Ry
     internal energy E=F+TS    =   -1604.21488191 Ry

     The total energy is F=E-TS. E is the sum of the following terms:
     one-electron contribution =   -9079.42545421 Ry
     hartree contribution      =    4548.68874805 Ry
     xc contribution           =    -569.56533310 Ry
     ewald contribution        =    3496.08690673 Ry
     electric field correction =       0.00025062 Ry

     convergence has been achieved in  20 iterations

     negative rho (up, down):  4.003E-04 0.000E+00

     Forces acting on atoms (cartesian axes, Ry/au):

     atom    1 type  1   force =    -0.00001501   -0.02088747   -0.03726812
     atom    2 type  1   force =    -0.00001573   -0.02088671   -0.03727037
     atom    3 type  2   force =    -0.00001580    0.01809986    0.05176568
     atom    4 type  2   force =    -0.00001757    0.01810216    0.05176755
     atom    5 type  1   force =     0.00006015    0.01785444   -0.00636220
     atom    6 type  1   force =     0.00005989    0.01785250   -0.00636538
     atom    7 type  2   force =    -0.00001876   -0.01388336   -0.00947439
     atom    8 type  2   force =    -0.00001696   -0.01388552   -0.00947827
     atom    9 type  1   force =     0.00001118   -0.00039477    0.00005815
     atom   10 type  1   force =     0.00001224   -0.00039208    0.00005858
     atom   11 type  2   force =    -0.00002125   -0.00078394    0.00128158
     atom   12 type  2   force =    -0.00002238   -0.00079511    0.00128719

     Total force =     0.104661     Total SCF correction =     0.006078

     Writing output data file ./La2Mo2/La2Mo2_beef.save/

     init_run     :    322.45s CPU    329.07s WALL (       1 calls)
     electrons    :   9118.42s CPU   9168.89s WALL (       1 calls)
     forces       :    135.14s CPU    136.35s WALL (       1 calls)

     Called by init_run:
     wfcinit      :    305.05s CPU    311.13s WALL (       1 calls)
     potinit      :      9.78s CPU      9.92s WALL (       1 calls)
     hinit0       :      2.95s CPU      2.98s WALL (       1 calls)

     Called by electrons:
     c_bands      :   8055.35s CPU   8084.32s WALL (      20 calls)
     sum_band     :    937.79s CPU    949.42s WALL (      20 calls)
     v_of_rho     :     62.66s CPU     65.03s WALL (      21 calls)
     newd         :     70.51s CPU     77.99s WALL (      21 calls)
     mix_rho      :      2.01s CPU      2.09s WALL (      20 calls)
     vdW_kernel   :      6.24s CPU      6.26s WALL (       1 calls)

     Called by c_bands:
     init_us_2    :     29.00s CPU     29.21s WALL (    3108 calls)
     cegterg      :   7956.46s CPU   7982.24s WALL (    1480 calls)

     Called by *egterg:
     cdiaghg      :    224.14s CPU    224.69s WALL (    9606 calls)
     h_psi        :   4452.89s CPU   4477.42s WALL (    9680 calls)
     s_psi        :   1276.48s CPU   1277.53s WALL (    9680 calls)
     g_psi        :      2.35s CPU      2.39s WALL (    8126 calls)

     Called by h_psi:
     h_psi:calbec :   1513.74s CPU   1516.83s WALL (    9680 calls)
     vloc_psi     :   1595.13s CPU   1615.24s WALL (    9680 calls)
     add_vuspsi   :   1333.80s CPU   1335.09s WALL (    9680 calls)

     General routines
     calbec       :   2212.55s CPU   2217.40s WALL (   11456 calls)
     fft          :     49.88s CPU     51.15s WALL (    1382 calls)
     ffts         :      0.28s CPU      0.30s WALL (      41 calls)
     fftw         :   1737.73s CPU   1759.98s WALL (  809346 calls)
     interpolate  :      0.86s CPU      0.89s WALL (      21 calls)

     Parallel routines
     fft_scatt_xy :    100.94s CPU    101.98s WALL (  810769 calls)
     fft_scatt_yz :   1012.73s CPU   1028.81s WALL (  810769 calls)

     PWSCF        :      2h41m CPU      2h42m WALL


   This run was terminated on:   5:22:50  25Jun2022            

=------------------------------------------------------------------------------=
   JOB DONE.
=------------------------------------------------------------------------------=
