
     Program PWSCF v.6.6 starts on 25Jun2022 at  8:17: 3 

     This program is part of the open-source Quantum ESPRESSO suite
     for quantum simulation of materials; please cite
         "P. Giannozzi et al., J. Phys.:Condens. Matter 21 395502 (2009);
         "P. Giannozzi et al., J. Phys.:Condens. Matter 29 465901 (2017);
          URL http://www.quantum-espresso.org", 
     in publications or presentations arising from this work. More details at
     http://www.quantum-espresso.org/quote

     Parallel version (MPI), running on    37 processors

     MPI processes distributed on     1 nodes
     R & G space division:  proc/nbgrp/npool/nimage =      37
     Fft bands division:     nmany     =       1
     Reading input from La2Os2.in
Warning: card &CELL ignored
Warning: card / ignored

     Current dimensions of program PWSCF are:
     Max number of different atomic species (ntypx) = 10
     Max number of k-points (npk) =  40000
     Max angular momentum in pseudopotentials (lmaxx) =  3
     Presently stress not available with electric field and gates

     Message from routine cell_base_init:
     DEPRECATED: use true lattice parameter, not A to a.u. conversion factor
     file La.pbe-spfn-rrkjus_psl.1.0.0.UPF: wavefunction(s)  4F renormalized

     **************************************************************************
     Initializing libbeef V0.1.2 with the BEEF-vdW functional.
     Citation: Wellendorff et al., PRB 85, 235149 (2012).
     **************************************************************************


     IMPORTANT: XC functional enforced from input :
     Exchange-correlation= BEEF-VDW
                           (   1   4  43  14   2   0   0)
     Any further DFT definition will be discarded
     Please, verify this is what you really want


     Subspace diagonalization in iterative solution of the eigenvalue problem:
     a serial algorithm will be used


     Parallelization info
     --------------------
     sticks:   dense  smooth     PW     G-vecs:    dense   smooth      PW
     Min         154      61     17                36600     9251    1363
     Max         155      62     18                36617     9268    1371
     Sum        5725    2293    637              1354507   342785   50583



     bravais-lattice index     =            0
     lattice parameter (alat)  =       1.8897  a.u.
     unit-cell volume          =    6199.0906 (a.u.)^3
     number of atoms/cell      =           12
     number of atomic types    =            2
     number of electrons       =       162.00
     number of Kohn-Sham states=           97
     kinetic-energy cutoff     =      55.1240  Ry
     charge density cutoff     =     551.2396  Ry
     convergence threshold     =      1.0E-05
     mixing beta               =       0.1000
     number of iterations used =           10  plain     mixing
     Exchange-correlation= BEEF-VDW
                           (   1   4  43  14   2   0   0)

     celldm(1)=   1.889726  celldm(2)=   0.000000  celldm(3)=   0.000000
     celldm(4)=   0.000000  celldm(5)=   0.000000  celldm(6)=   0.000000

     crystal axes: (cart. coord. in units of alat)
               a(1) = (   6.230664   0.000000   0.000000 )  
               a(2) = (   2.067963   5.877474   0.000000 )  
               a(3) = (   0.000000   0.000000  25.084556 )  

     reciprocal axes: (cart. coord. in units 2 pi/alat)
               b(1) = (  0.160497 -0.056470  0.000000 )  
               b(2) = (  0.000000  0.170141  0.000000 )  
               b(3) = (  0.000000  0.000000  0.039865 )  


     PseudoPot. # 1 for La read from file:
     ../pseudo/La.pbe-spfn-rrkjus_psl.1.0.0.UPF
     MD5 check sum: e3bc141c2ecb461b8d0a035ce9ac970e
     Pseudo is Ultrasoft + core correction, Zval = 11.0
     Generated using "atomic" code by A. Dal Corso v.6.2.2
     Using radial grid of 1253 points,  8 beta functions with: 
                l(1) =   0
                l(2) =   0
                l(3) =   1
                l(4) =   1
                l(5) =   2
                l(6) =   2
                l(7) =   3
                l(8) =   3
     Q(r) pseudized with 0 coefficients 


     PseudoPot. # 2 for Os read from file:
     ../pseudo/Os.pbe-spn-rrkjus_psl.1.0.0.UPF
     MD5 check sum: 3e7416ed594f6513d36e5cb31ba709d9
     Pseudo is Ultrasoft + core correction, Zval = 16.0
     Generated using "atomic" code by A. Dal Corso v.6.2.2
     Using radial grid of 1275 points,  6 beta functions with: 
                l(1) =   0
                l(2) =   0
                l(3) =   1
                l(4) =   1
                l(5) =   2
                l(6) =   2
     Q(r) pseudized with 0 coefficients 


     atomic species   valence    mass     pseudopotential
        La            11.00   138.90547     La( 1.00)
        Os            16.00   190.23000     Os( 1.00)

     No symmetry found



   Cartesian axes

     site n.     atom                  positions (alat units)
         1           La  tau(   1) = (   0.0000000   0.0000000  10.0000000  )
         2           La  tau(   2) = (   4.1493136   2.9387369  10.0000000  )
         3           Os  tau(   3) = (   3.1153319   0.0000000  10.0000000  )
         4           Os  tau(   4) = (   1.0339817   2.9387369  10.0000000  )
         5           La  tau(   5) = (   6.2306637   4.4128459  12.5422779  )
         6           La  tau(   6) = (   2.0813502   1.4741090  12.5422779  )
         7           Os  tau(   7) = (   3.1153319   4.4128459  12.5422779  )
         8           Os  tau(   8) = (   5.1966820   1.4741090  12.5422779  )
         9           La  tau(   9) = (   4.1546707   2.9425358  15.1602993  )
        10           La  tau(  10) = (   0.0053773   0.0038163  15.1603190  )
        11           Os  tau(  11) = (   1.0608652   2.9577174  14.7992593  )
        12           Os  tau(  12) = (   3.1422201   0.0190541  14.7993234  )

     number of k points=    74  Fermi-Dirac smearing, width (Ry)=  0.0100
                       cart. coord. in units 2pi/alat
        k(    1) = (   0.0000000   0.0000000   0.0000000), wk =   0.0138889
        k(    2) = (   0.0000000   0.0141784   0.0000000), wk =   0.0277778
        k(    3) = (   0.0000000   0.0283569   0.0000000), wk =   0.0277778
        k(    4) = (   0.0000000   0.0425353   0.0000000), wk =   0.0277778
        k(    5) = (   0.0000000   0.0567137   0.0000000), wk =   0.0277778
        k(    6) = (   0.0000000   0.0708921   0.0000000), wk =   0.0277778
        k(    7) = (   0.0000000  -0.0850706   0.0000000), wk =   0.0138889
        k(    8) = (   0.0133747  -0.0047058   0.0000000), wk =   0.0277778
        k(    9) = (   0.0133747   0.0094726   0.0000000), wk =   0.0277778
        k(   10) = (   0.0133747   0.0236510   0.0000000), wk =   0.0277778
        k(   11) = (   0.0133747   0.0378294   0.0000000), wk =   0.0277778
        k(   12) = (   0.0133747   0.0520079   0.0000000), wk =   0.0277778
        k(   13) = (   0.0133747   0.0661863   0.0000000), wk =   0.0277778
        k(   14) = (   0.0133747  -0.0897764   0.0000000), wk =   0.0277778
        k(   15) = (   0.0133747  -0.0755980   0.0000000), wk =   0.0277778
        k(   16) = (   0.0133747  -0.0614195   0.0000000), wk =   0.0277778
        k(   17) = (   0.0133747  -0.0472411   0.0000000), wk =   0.0277778
        k(   18) = (   0.0133747  -0.0330627   0.0000000), wk =   0.0277778
        k(   19) = (   0.0133747  -0.0188843   0.0000000), wk =   0.0277778
        k(   20) = (   0.0267494  -0.0094117   0.0000000), wk =   0.0277778
        k(   21) = (   0.0267494   0.0047668   0.0000000), wk =   0.0277778
        k(   22) = (   0.0267494   0.0189452   0.0000000), wk =   0.0277778
        k(   23) = (   0.0267494   0.0331236   0.0000000), wk =   0.0277778
        k(   24) = (   0.0267494   0.0473020   0.0000000), wk =   0.0277778
        k(   25) = (   0.0267494   0.0614805   0.0000000), wk =   0.0277778
        k(   26) = (   0.0267494  -0.0944822   0.0000000), wk =   0.0277778
        k(   27) = (   0.0267494  -0.0803038   0.0000000), wk =   0.0277778
        k(   28) = (   0.0267494  -0.0661254   0.0000000), wk =   0.0277778
        k(   29) = (   0.0267494  -0.0519469   0.0000000), wk =   0.0277778
        k(   30) = (   0.0267494  -0.0377685   0.0000000), wk =   0.0277778
        k(   31) = (   0.0267494  -0.0235901   0.0000000), wk =   0.0277778
        k(   32) = (   0.0401241  -0.0141175   0.0000000), wk =   0.0277778
        k(   33) = (   0.0401241   0.0000609   0.0000000), wk =   0.0277778
        k(   34) = (   0.0401241   0.0142394   0.0000000), wk =   0.0277778
        k(   35) = (   0.0401241   0.0284178   0.0000000), wk =   0.0277778
        k(   36) = (   0.0401241   0.0425962   0.0000000), wk =   0.0277778
        k(   37) = (   0.0401241   0.0567746   0.0000000), wk =   0.0277778
        k(   38) = (   0.0401241  -0.0991881   0.0000000), wk =   0.0277778
        k(   39) = (   0.0401241  -0.0850096   0.0000000), wk =   0.0277778
        k(   40) = (   0.0401241  -0.0708312   0.0000000), wk =   0.0277778
        k(   41) = (   0.0401241  -0.0566528   0.0000000), wk =   0.0277778
        k(   42) = (   0.0401241  -0.0424744   0.0000000), wk =   0.0277778
        k(   43) = (   0.0401241  -0.0282959   0.0000000), wk =   0.0277778
        k(   44) = (   0.0534988  -0.0188233   0.0000000), wk =   0.0277778
        k(   45) = (   0.0534988  -0.0046449   0.0000000), wk =   0.0277778
        k(   46) = (   0.0534988   0.0095335   0.0000000), wk =   0.0277778
        k(   47) = (   0.0534988   0.0237119   0.0000000), wk =   0.0277778
        k(   48) = (   0.0534988   0.0378904   0.0000000), wk =   0.0277778
        k(   49) = (   0.0534988   0.0520688   0.0000000), wk =   0.0277778
        k(   50) = (   0.0534988  -0.1038939   0.0000000), wk =   0.0277778
        k(   51) = (   0.0534988  -0.0897155   0.0000000), wk =   0.0277778
        k(   52) = (   0.0534988  -0.0755370   0.0000000), wk =   0.0277778
        k(   53) = (   0.0534988  -0.0613586   0.0000000), wk =   0.0277778
        k(   54) = (   0.0534988  -0.0471802   0.0000000), wk =   0.0277778
        k(   55) = (   0.0534988  -0.0330018   0.0000000), wk =   0.0277778
        k(   56) = (   0.0668736  -0.0235292   0.0000000), wk =   0.0277778
        k(   57) = (   0.0668736  -0.0093507   0.0000000), wk =   0.0277778
        k(   58) = (   0.0668736   0.0048277   0.0000000), wk =   0.0277778
        k(   59) = (   0.0668736   0.0190061   0.0000000), wk =   0.0277778
        k(   60) = (   0.0668736   0.0331845   0.0000000), wk =   0.0277778
        k(   61) = (   0.0668736   0.0473630   0.0000000), wk =   0.0277778
        k(   62) = (   0.0668736  -0.1085997   0.0000000), wk =   0.0277778
        k(   63) = (   0.0668736  -0.0944213   0.0000000), wk =   0.0277778
        k(   64) = (   0.0668736  -0.0802429   0.0000000), wk =   0.0277778
        k(   65) = (   0.0668736  -0.0660644   0.0000000), wk =   0.0277778
        k(   66) = (   0.0668736  -0.0518860   0.0000000), wk =   0.0277778
        k(   67) = (   0.0668736  -0.0377076   0.0000000), wk =   0.0277778
        k(   68) = (  -0.0802483   0.0282350   0.0000000), wk =   0.0138889
        k(   69) = (  -0.0802483   0.0424134   0.0000000), wk =   0.0277778
        k(   70) = (  -0.0802483   0.0565918   0.0000000), wk =   0.0277778
        k(   71) = (  -0.0802483   0.0707703   0.0000000), wk =   0.0277778
        k(   72) = (  -0.0802483   0.0849487   0.0000000), wk =   0.0277778
        k(   73) = (  -0.0802483   0.0991271   0.0000000), wk =   0.0277778
        k(   74) = (  -0.0802483  -0.0568356   0.0000000), wk =   0.0138889

     Dense  grid:  1354507 G-vectors     FFT dimensions: (  90,  90, 360)

     Smooth grid:   342785 G-vectors     FFT dimensions: (  60,  60, 225)

     Estimated max dynamical RAM per process >     486.09 MB

     Estimated total dynamical RAM >      17.56 GB

     Initial potential from superposition of free atoms

     starting charge  161.81981, renormalised to  162.00000

     negative rho (up, down):  6.143E-04 0.000E+00


     %%%%%%%%%%%%%%%%%%%%%%%%%%%%%%%%%%%%%%%%%%%%%%%%%%%%%%%%%%%%%%%%%%%%%%%%
     %                                                                      %
     % You are using vdW-DF, which was implemented by the Thonhauser group. %
     % Please cite the following two papers that made this development      %
     % possible and the two reviews that describe the various versions:     %
     %                                                                      %
     %   T. Thonhauser et al., PRL 115, 136402 (2015).                      %
     %   T. Thonhauser et al., PRB 76, 125112 (2007).                       %
     %   K. Berland et al., Rep. Prog. Phys. 78, 066501 (2015).             %
     %   D.C. Langreth et al., J. Phys.: Condens. Matter 21, 084203 (2009). %
     %                                                                      %
     %                                                                      %
     % If you are calculating the stress with vdW-DF, please also cite:     %
     %                                                                      %
     %   R. Sabatini et al., J. Phys.: Condens. Matter 24, 424209 (2012).   %
     %                                                                      %
     %%%%%%%%%%%%%%%%%%%%%%%%%%%%%%%%%%%%%%%%%%%%%%%%%%%%%%%%%%%%%%%%%%%%%%%%



     Adding external electric field

     Computed dipole along edir(3) : 
        Dipole                0.0240 Ry au,          0.0609 Debye
        Dipole field          0.0000 Ry au, 

        Potential amp.       -0.0045 Ry
        Total length         46.2179 bohr

     Starting wfcs are  180 randomized atomic wfcs

     total cpu time spent up to now is      351.9 secs

     Self-consistent Calculation

     iteration #  1     ecut=    55.12 Ry     beta= 0.10
     Davidson diagonalization with overlap
     ethr =  1.00E-02,  avg # of iterations =  2.0

     negative rho (up, down):  4.812E-04 0.000E+00

     Adding external electric field

     Computed dipole along edir(3) : 
        Dipole               -0.3260 Ry au,         -0.8286 Debye
        Dipole field         -0.0007 Ry au, 

        Potential amp.        0.0611 Ry
        Total length         46.2179 bohr


     total cpu time spent up to now is      848.7 secs

     total energy              =   -1967.28864566 Ry
     estimated scf accuracy    <       6.09308043 Ry

     iteration #  2     ecut=    55.12 Ry     beta= 0.10
     Davidson diagonalization with overlap
     ethr =  3.76E-03,  avg # of iterations =  2.1

     negative rho (up, down):  4.102E-04 0.000E+00

     Adding external electric field

     Computed dipole along edir(3) : 
        Dipole                0.7724 Ry au,          1.9632 Debye
        Dipole field          0.0016 Ry au, 

        Potential amp.       -0.1447 Ry
        Total length         46.2179 bohr


     total cpu time spent up to now is     1282.8 secs

     total energy              =   -1967.27595541 Ry
     estimated scf accuracy    <       4.98313489 Ry

     iteration #  3     ecut=    55.12 Ry     beta= 0.10
     Davidson diagonalization with overlap
     ethr =  3.08E-03,  avg # of iterations =  2.0

     negative rho (up, down):  3.356E-04 0.000E+00

     Adding external electric field

     Computed dipole along edir(3) : 
        Dipole               -0.0084 Ry au,         -0.0214 Debye
        Dipole field         -0.0000 Ry au, 

        Potential amp.        0.0016 Ry
        Total length         46.2179 bohr


     total cpu time spent up to now is     1708.0 secs

     total energy              =   -1967.25038368 Ry
     estimated scf accuracy    <      10.86088788 Ry

     iteration #  4     ecut=    55.12 Ry     beta= 0.10
     Davidson diagonalization with overlap
     ethr =  3.08E-03,  avg # of iterations =  1.2

     negative rho (up, down):  2.482E-04 0.000E+00

     Adding external electric field

     Computed dipole along edir(3) : 
        Dipole                0.1784 Ry au,          0.4536 Debye
        Dipole field          0.0004 Ry au, 

        Potential amp.       -0.0334 Ry
        Total length         46.2179 bohr


     total cpu time spent up to now is     2231.1 secs

     total energy              =   -1967.49186444 Ry
     estimated scf accuracy    <       0.97534888 Ry

     iteration #  5     ecut=    55.12 Ry     beta= 0.10
     Davidson diagonalization with overlap
     c_bands:  1 eigenvalues not converged
     c_bands:  1 eigenvalues not converged
     ethr =  6.02E-04,  avg # of iterations = 11.9

     negative rho (up, down):  2.298E-04 0.000E+00

     Adding external electric field

     Computed dipole along edir(3) : 
        Dipole               -0.0961 Ry au,         -0.2443 Debye
        Dipole field         -0.0002 Ry au, 

        Potential amp.        0.0180 Ry
        Total length         46.2179 bohr


     total cpu time spent up to now is     2781.2 secs

     total energy              =   -1967.50461420 Ry
     estimated scf accuracy    <       0.26588437 Ry

     iteration #  6     ecut=    55.12 Ry     beta= 0.10
     Davidson diagonalization with overlap
     ethr =  1.64E-04,  avg # of iterations = 10.9

     negative rho (up, down):  2.475E-04 0.000E+00

     Adding external electric field

     Computed dipole along edir(3) : 
        Dipole                0.0145 Ry au,          0.0368 Debye
        Dipole field          0.0000 Ry au, 

        Potential amp.       -0.0027 Ry
        Total length         46.2179 bohr


     total cpu time spent up to now is     3795.1 secs

     total energy              =   -1967.53875686 Ry
     estimated scf accuracy    <       0.75669606 Ry

     iteration #  7     ecut=    55.12 Ry     beta= 0.10
     Davidson diagonalization with overlap
     ethr =  1.64E-04,  avg # of iterations =  1.8

     negative rho (up, down):  3.095E-04 0.000E+00

     Adding external electric field

     Computed dipole along edir(3) : 
        Dipole                0.1776 Ry au,          0.4514 Debye
        Dipole field          0.0004 Ry au, 

        Potential amp.       -0.0333 Ry
        Total length         46.2179 bohr


     total cpu time spent up to now is     4217.6 secs

     total energy              =   -1967.52163556 Ry
     estimated scf accuracy    <       0.23059942 Ry

     iteration #  8     ecut=    55.12 Ry     beta= 0.10
     Davidson diagonalization with overlap
     ethr =  1.42E-04,  avg # of iterations =  6.5

     negative rho (up, down):  4.180E-04 0.000E+00

     Adding external electric field

     Computed dipole along edir(3) : 
        Dipole                0.2158 Ry au,          0.5486 Debye
        Dipole field          0.0004 Ry au, 

        Potential amp.       -0.0404 Ry
        Total length         46.2179 bohr


     total cpu time spent up to now is     4684.0 secs

     total energy              =   -1967.53533114 Ry
     estimated scf accuracy    <       0.01978677 Ry

     iteration #  9     ecut=    55.12 Ry     beta= 0.10
     Davidson diagonalization with overlap
     c_bands:  1 eigenvalues not converged
     c_bands:  2 eigenvalues not converged
     c_bands:  3 eigenvalues not converged
     c_bands:  4 eigenvalues not converged
     c_bands:  4 eigenvalues not converged
     c_bands:  4 eigenvalues not converged
     c_bands:  4 eigenvalues not converged
     c_bands:  2 eigenvalues not converged
     c_bands:  3 eigenvalues not converged
     c_bands:  2 eigenvalues not converged
     c_bands:  4 eigenvalues not converged
     c_bands:  3 eigenvalues not converged
     c_bands:  3 eigenvalues not converged
     c_bands:  2 eigenvalues not converged
     c_bands:  4 eigenvalues not converged
     c_bands:  4 eigenvalues not converged
     c_bands:  4 eigenvalues not converged
     c_bands:  3 eigenvalues not converged
     c_bands:  4 eigenvalues not converged
     c_bands:  4 eigenvalues not converged
     c_bands:  3 eigenvalues not converged
     c_bands:  3 eigenvalues not converged
     c_bands:  3 eigenvalues not converged
     c_bands:  2 eigenvalues not converged
     c_bands:  2 eigenvalues not converged
     c_bands:  3 eigenvalues not converged
     c_bands:  3 eigenvalues not converged
     c_bands:  2 eigenvalues not converged
     c_bands:  4 eigenvalues not converged
     c_bands:  4 eigenvalues not converged
     c_bands:  4 eigenvalues not converged
     c_bands:  4 eigenvalues not converged
     c_bands:  4 eigenvalues not converged
     c_bands:  3 eigenvalues not converged
     c_bands:  2 eigenvalues not converged
     c_bands:  2 eigenvalues not converged
     c_bands:  1 eigenvalues not converged
     c_bands:  2 eigenvalues not converged
     c_bands:  1 eigenvalues not converged
     c_bands:  2 eigenvalues not converged
     c_bands:  4 eigenvalues not converged
     c_bands:  1 eigenvalues not converged
     c_bands:  4 eigenvalues not converged
     c_bands:  3 eigenvalues not converged
     c_bands:  2 eigenvalues not converged
     c_bands:  2 eigenvalues not converged
     c_bands:  1 eigenvalues not converged
     c_bands:  1 eigenvalues not converged
     c_bands:  1 eigenvalues not converged
     c_bands:  1 eigenvalues not converged
     c_bands:  2 eigenvalues not converged
     c_bands:  2 eigenvalues not converged
     c_bands:  4 eigenvalues not converged
     c_bands:  4 eigenvalues not converged
     c_bands:  3 eigenvalues not converged
     c_bands:  1 eigenvalues not converged
     c_bands:  2 eigenvalues not converged
     c_bands:  1 eigenvalues not converged
     c_bands:  2 eigenvalues not converged
     c_bands:  3 eigenvalues not converged
     c_bands:  3 eigenvalues not converged
     c_bands:  5 eigenvalues not converged
     c_bands:  2 eigenvalues not converged
     c_bands:  3 eigenvalues not converged
     c_bands:  1 eigenvalues not converged
     c_bands:  1 eigenvalues not converged
     ethr =  1.22E-05,  avg # of iterations = 19.7

     negative rho (up, down):  3.988E-04 0.000E+00

     Adding external electric field

     Computed dipole along edir(3) : 
        Dipole                0.1986 Ry au,          0.5048 Debye
        Dipole field          0.0004 Ry au, 

        Potential amp.       -0.0372 Ry
        Total length         46.2179 bohr


     total cpu time spent up to now is     5603.5 secs

     total energy              =   -1967.53983874 Ry
     estimated scf accuracy    <       0.02577010 Ry

     iteration # 10     ecut=    55.12 Ry     beta= 0.10
     Davidson diagonalization with overlap
     c_bands:  1 eigenvalues not converged
     c_bands:  1 eigenvalues not converged
     c_bands:  1 eigenvalues not converged
     c_bands:  1 eigenvalues not converged
     c_bands:  1 eigenvalues not converged
     c_bands:  2 eigenvalues not converged
     c_bands:  1 eigenvalues not converged
     c_bands:  1 eigenvalues not converged
     c_bands:  1 eigenvalues not converged
     c_bands:  1 eigenvalues not converged
     ethr =  1.22E-05,  avg # of iterations =  9.0

     negative rho (up, down):  4.650E-04 0.000E+00

     Adding external electric field

     Computed dipole along edir(3) : 
        Dipole                0.1631 Ry au,          0.4147 Debye
        Dipole field          0.0003 Ry au, 

        Potential amp.       -0.0306 Ry
        Total length         46.2179 bohr


     total cpu time spent up to now is     6097.8 secs

     total energy              =   -1967.53973050 Ry
     estimated scf accuracy    <       0.01023357 Ry

     iteration # 11     ecut=    55.12 Ry     beta= 0.10
     Davidson diagonalization with overlap
     c_bands:  1 eigenvalues not converged
     c_bands:  1 eigenvalues not converged
     c_bands:  1 eigenvalues not converged
     c_bands:  1 eigenvalues not converged
     c_bands:  1 eigenvalues not converged
     c_bands:  1 eigenvalues not converged
     c_bands:  1 eigenvalues not converged
     c_bands:  1 eigenvalues not converged
     c_bands:  2 eigenvalues not converged
     c_bands:  1 eigenvalues not converged
     ethr =  6.32E-06,  avg # of iterations = 11.7

     negative rho (up, down):  4.019E-04 0.000E+00

     Adding external electric field

     Computed dipole along edir(3) : 
        Dipole                0.1825 Ry au,          0.4639 Debye
        Dipole field          0.0004 Ry au, 

        Potential amp.       -0.0342 Ry
        Total length         46.2179 bohr


     total cpu time spent up to now is     6609.7 secs

     total energy              =   -1967.54009084 Ry
     estimated scf accuracy    <       0.01206209 Ry

     iteration # 12     ecut=    55.12 Ry     beta= 0.10
     Davidson diagonalization with overlap
     c_bands:  1 eigenvalues not converged
     ethr =  6.32E-06,  avg # of iterations =  2.3

     negative rho (up, down):  3.880E-04 0.000E+00

     Adding external electric field

     Computed dipole along edir(3) : 
        Dipole                0.1985 Ry au,          0.5046 Debye
        Dipole field          0.0004 Ry au, 

        Potential amp.       -0.0372 Ry
        Total length         46.2179 bohr


     total cpu time spent up to now is     6955.0 secs

     total energy              =   -1967.54031854 Ry
     estimated scf accuracy    <       0.00145386 Ry

     iteration # 13     ecut=    55.12 Ry     beta= 0.10
     Davidson diagonalization with overlap
     c_bands:  1 eigenvalues not converged
     c_bands:  2 eigenvalues not converged
     c_bands:  1 eigenvalues not converged
     c_bands:  1 eigenvalues not converged
     c_bands:  2 eigenvalues not converged
     c_bands:  1 eigenvalues not converged
     c_bands:  2 eigenvalues not converged
     c_bands:  1 eigenvalues not converged
     c_bands:  1 eigenvalues not converged
     c_bands:  1 eigenvalues not converged
     c_bands:  1 eigenvalues not converged
     c_bands:  1 eigenvalues not converged
     c_bands:  1 eigenvalues not converged
     c_bands:  1 eigenvalues not converged
     c_bands:  1 eigenvalues not converged
     ethr =  8.97E-07,  avg # of iterations = 13.5

     negative rho (up, down):  3.616E-04 0.000E+00

     Adding external electric field

     Computed dipole along edir(3) : 
        Dipole                0.1787 Ry au,          0.4541 Debye
        Dipole field          0.0004 Ry au, 

        Potential amp.       -0.0335 Ry
        Total length         46.2179 bohr


     total cpu time spent up to now is     7424.3 secs

     total energy              =   -1967.54050957 Ry
     estimated scf accuracy    <       0.00194035 Ry

     iteration # 14     ecut=    55.12 Ry     beta= 0.10
     Davidson diagonalization with overlap
     c_bands:  2 eigenvalues not converged
     c_bands:  1 eigenvalues not converged
     c_bands:  1 eigenvalues not converged
     c_bands:  1 eigenvalues not converged
     c_bands:  1 eigenvalues not converged
     c_bands:  1 eigenvalues not converged
     ethr =  8.97E-07,  avg # of iterations =  4.1

     negative rho (up, down):  3.512E-04 0.000E+00

     Adding external electric field

     Computed dipole along edir(3) : 
        Dipole                0.1790 Ry au,          0.4549 Debye
        Dipole field          0.0004 Ry au, 

        Potential amp.       -0.0335 Ry
        Total length         46.2179 bohr


     total cpu time spent up to now is     7753.9 secs

     total energy              =   -1967.54060474 Ry
     estimated scf accuracy    <       0.00038255 Ry

     iteration # 15     ecut=    55.12 Ry     beta= 0.10
     Davidson diagonalization with overlap
     c_bands:  1 eigenvalues not converged
     c_bands:  1 eigenvalues not converged
     c_bands:  1 eigenvalues not converged
     c_bands:  1 eigenvalues not converged
     c_bands:  1 eigenvalues not converged
     ethr =  2.36E-07,  avg # of iterations =  5.1

     negative rho (up, down):  3.304E-04 0.000E+00

     Adding external electric field

     Computed dipole along edir(3) : 
        Dipole                0.1854 Ry au,          0.4713 Debye
        Dipole field          0.0004 Ry au, 

        Potential amp.       -0.0347 Ry
        Total length         46.2179 bohr


     total cpu time spent up to now is     8107.2 secs

     total energy              =   -1967.54060884 Ry
     estimated scf accuracy    <       0.00025728 Ry

     iteration # 16     ecut=    55.12 Ry     beta= 0.10
     Davidson diagonalization with overlap
     c_bands:  1 eigenvalues not converged
     c_bands:  1 eigenvalues not converged
     ethr =  1.59E-07,  avg # of iterations =  2.6

     negative rho (up, down):  3.046E-04 0.000E+00

     Adding external electric field

     Computed dipole along edir(3) : 
        Dipole                0.1856 Ry au,          0.4718 Debye
        Dipole field          0.0004 Ry au, 

        Potential amp.       -0.0348 Ry
        Total length         46.2179 bohr


     total cpu time spent up to now is     8427.7 secs

     total energy              =   -1967.54060662 Ry
     estimated scf accuracy    <       0.00006621 Ry

     iteration # 17     ecut=    55.12 Ry     beta= 0.10
     Davidson diagonalization with overlap
     c_bands:  1 eigenvalues not converged
     c_bands:  1 eigenvalues not converged
     ethr =  4.09E-08,  avg # of iterations =  7.5

     negative rho (up, down):  2.875E-04 0.000E+00

     Adding external electric field

     Computed dipole along edir(3) : 
        Dipole                0.1840 Ry au,          0.4677 Debye
        Dipole field          0.0004 Ry au, 

        Potential amp.       -0.0345 Ry
        Total length         46.2179 bohr


     total cpu time spent up to now is     8922.4 secs

     total energy              =   -1967.54062701 Ry
     estimated scf accuracy    <       0.00002118 Ry

     iteration # 18     ecut=    55.12 Ry     beta= 0.10
     Davidson diagonalization with overlap
     c_bands:  1 eigenvalues not converged
     ethr =  1.31E-08,  avg # of iterations =  4.7

     negative rho (up, down):  2.014E-04 0.000E+00

     Adding external electric field

     Computed dipole along edir(3) : 
        Dipole                0.1943 Ry au,          0.4939 Debye
        Dipole field          0.0004 Ry au, 

        Potential amp.       -0.0364 Ry
        Total length         46.2179 bohr


     total cpu time spent up to now is     9397.2 secs

     End of self-consistent calculation

          k = 0.0000 0.0000 0.0000 ( 42771 PWs)   bands (ev):

   -83.0368 -83.0363 -82.8262 -82.8258 -82.8073 -82.8069 -42.3791 -42.3772
   -42.3588 -42.3565 -42.3500 -42.3267 -42.2117 -42.2097 -42.2070 -42.1825
   -42.1722 -42.1494 -42.1347 -42.1327 -42.1164 -42.1142 -42.1015 -42.0981
   -30.1781 -30.0737 -29.9787 -29.8725 -28.9964 -28.8937 -14.4196 -14.2452
   -14.0545 -13.9420 -13.8871 -13.8787 -13.8266 -13.7495 -13.7179 -13.6349
   -13.4325 -13.4083 -13.2295 -12.9261 -12.8066 -12.7269 -12.6597 -12.3376
    -2.1955  -1.3968  -1.3922  -1.3415  -1.0727  -0.6715  -0.5047  -0.4856
    -0.1040  -0.0170   0.0481   0.1187   0.4946   0.5796   0.5868   0.7515
     0.7634   0.7781   0.8132   0.8840   0.9992   1.0974   1.4680   1.4942
     1.6208   1.7097   1.9020   1.9976   2.1163   2.1207   2.3775   2.4863
     2.6373   3.0202   3.0488   3.2934   3.3945   3.5208   3.7283   3.7722
     4.1016   4.2090   4.4302   4.4610   4.4630   4.5475   4.5817   4.6926
     4.7113

          k = 0.0000 0.0142 0.0000 ( 42762 PWs)   bands (ev):

   -83.0367 -83.0364 -82.8262 -82.8258 -82.8073 -82.8069 -42.3790 -42.3773
   -42.3587 -42.3566 -42.3496 -42.3271 -42.2116 -42.2098 -42.2065 -42.1829
   -42.1718 -42.1498 -42.1347 -42.1327 -42.1163 -42.1142 -42.1015 -42.0981
   -30.1761 -30.0754 -29.9768 -29.8742 -28.9945 -28.8953 -14.4053 -14.2311
   -14.0532 -13.9447 -13.8995 -13.8657 -13.8320 -13.7503 -13.7204 -13.6396
   -13.4290 -13.4170 -13.2508 -12.9213 -12.8067 -12.7297 -12.6646 -12.3605
    -2.1401  -1.3618  -1.3472  -1.3009  -1.0259  -0.6331  -0.4682  -0.4678
    -0.0618   0.0256   0.0678   0.1448   0.5146   0.5969   0.5972   0.7409
     0.7724   0.8044   0.8406   0.8753   0.9931   1.1100   1.4727   1.4836
     1.6258   1.7092   1.9194   1.9759   2.0662   2.1351   2.3654   2.4718
     2.6064   2.7562   2.8373   3.0884   3.5391   3.6358   3.7790   3.9763
     4.0824   4.1689   4.3702   4.4456   4.4685   4.5597   4.5962   4.6233
     4.7196

          k = 0.0000 0.0284 0.0000 ( 42790 PWs)   bands (ev):

   -83.0367 -83.0364 -82.8262 -82.8258 -82.8073 -82.8069 -42.3789 -42.3774
   -42.3586 -42.3567 -42.3485 -42.3282 -42.2116 -42.2099 -42.2053 -42.1841
   -42.1707 -42.1510 -42.1346 -42.1328 -42.1162 -42.1143 -42.1013 -42.0983
   -30.1705 -30.0802 -29.9710 -29.8790 -28.9889 -28.9000 -14.3630 -14.1894
   -14.0494 -13.9523 -13.9135 -13.8498 -13.8466 -13.7533 -13.7271 -13.6526
   -13.4888 -13.3712 -13.3118 -12.9078 -12.8065 -12.7380 -12.6785 -12.4265
    -1.9804  -1.2625  -1.2168  -1.1875  -0.8948  -0.5213  -0.4156  -0.3728
     0.0559   0.1237   0.1460   0.2161   0.5726   0.6281   0.6441   0.7474
     0.8073   0.8501   0.8539   0.9034   0.9818   1.1464   1.4146   1.5356
     1.6053   1.7458   1.9113   1.9401   1.9903   2.1360   2.2953   2.3319
     2.4273   2.4300   2.5731   2.7860   3.5840   3.7792   3.8693   4.0280
     4.0724   4.2564   4.3152   4.3785   4.4156   4.5123   4.5806   4.6367
     4.7345

          k = 0.0000 0.0425 0.0000 ( 42822 PWs)   bands (ev):

   -83.0367 -83.0364 -82.8262 -82.8258 -82.8073 -82.8070 -42.3788 -42.3775
   -42.3585 -42.3569 -42.3466 -42.3301 -42.2114 -42.2101 -42.2034 -42.1861
   -42.1689 -42.1528 -42.1345 -42.1330 -42.1160 -42.1145 -42.1010 -42.0986
   -30.1617 -30.0879 -29.9619 -29.8868 -28.9802 -28.9076 -14.2942 -14.1217
   -14.0432 -13.9638 -13.9244 -13.8662 -13.8347 -13.7592 -13.7351 -13.6710
   -13.5808 -13.4055 -13.2971 -12.8878 -12.8049 -12.7511 -12.6989 -12.5277
    -1.7365  -1.1180  -1.0232  -1.0142  -0.7104  -0.3482  -0.3307  -0.2604
     0.2023   0.2179   0.3120   0.3190   0.6255   0.6785   0.7221   0.7938
     0.8122   0.8689   0.9239   0.9829   0.9868   1.2165   1.3382   1.5462
     1.6305   1.8060   1.8145   1.8360   1.8629   2.0194   2.0246   2.1484
     2.2839   2.3632   2.4459   2.4856   3.5744   3.7552   3.7939   3.9587
     4.0249   4.1630   4.2772   4.3364   4.4569   4.5308   4.5540   4.6199
     4.6889

          k = 0.0000 0.0567 0.0000 ( 42834 PWs)   bands (ev):

   -83.0367 -83.0365 -82.8261 -82.8259 -82.8072 -82.8070 -42.3786 -42.3777
   -42.3583 -42.3572 -42.3442 -42.3326 -42.2113 -42.2103 -42.2009 -42.1887
   -42.1666 -42.1552 -42.1343 -42.1333 -42.1158 -42.1147 -42.1007 -42.0989
   -30.1503 -30.0981 -29.9502 -29.8971 -28.9689 -28.9176 -14.2022 -14.0347
   -14.0322 -13.9767 -13.9305 -13.8866 -13.8219 -13.7677 -13.7414 -13.6943
   -13.6912 -13.5216 -13.1980 -12.8640 -12.8017 -12.7686 -12.7225 -12.6519
    -1.4417  -0.9675  -0.8370  -0.7628  -0.5374  -0.2153  -0.1873  -0.1290
     0.2680   0.3636   0.3997   0.5070   0.6228   0.7407   0.7691   0.7845
     0.8635   0.9300   1.0276   1.0320   1.0987   1.2521   1.3538   1.4736
     1.5158   1.6620   1.6857   1.6961   1.7835   1.8808   2.0727   2.1255
     2.1880   2.2527   2.2858   2.4009   3.3751   3.5698   3.6936   3.7870
     3.9065   4.1624   4.2484   4.2803   4.3361   4.5027   4.5170   4.5814
     4.6852

          k = 0.0000 0.0709 0.0000 ( 42844 PWs)   bands (ev):

   -83.0366 -83.0365 -82.8261 -82.8259 -82.8072 -82.8070 -42.3784 -42.3779
   -42.3580 -42.3574 -42.3414 -42.3354 -42.2111 -42.2105 -42.1980 -42.1916
   -42.1638 -42.1579 -42.1341 -42.1335 -42.1155 -42.1150 -42.1002 -42.0993
   -30.1373 -30.1103 -29.9369 -29.9094 -28.9561 -28.9295 -14.0923 -14.0243
   -13.9941 -13.9313 -13.9254 -13.8986 -13.8395 -13.7905 -13.7777 -13.7463
   -13.7088 -13.6456 -13.0783 -12.8385 -12.8210 -12.7896 -12.7620 -12.7456
    -1.1477  -0.8783  -0.6592  -0.5048  -0.4662  -0.1953  -0.0502   0.0997
     0.2498   0.4278   0.4512   0.6175   0.6696   0.6972   0.7438   0.8153
     0.9055   0.9292   1.0849   1.0952   1.1626   1.2163   1.4174   1.4646
     1.5430   1.5640   1.5680   1.5749   1.7602   1.8707   2.0430   2.0850
     2.2002   2.2278   2.3037   2.3336   3.1481   3.3446   3.4388   3.4828
     3.9817   4.1442   4.1795   4.2481   4.2905   4.4307   4.4733   4.5179
     4.6352

          k = 0.0000-0.0851 0.0000 ( 42888 PWs)   bands (ev):

   -83.0366 -83.0366 -82.8261 -82.8259 -82.8072 -82.8071 -42.3782 -42.3782
   -42.3578 -42.3577 -42.3384 -42.3384 -42.2109 -42.2107 -42.1949 -42.1947
   -42.1610 -42.1608 -42.1339 -42.1337 -42.1153 -42.1152 -42.0999 -42.0997
   -30.1237 -30.1237 -29.9230 -29.9230 -28.9427 -28.9427 -14.0148 -14.0148
   -13.9647 -13.9647 -13.9172 -13.9171 -13.8021 -13.8021 -13.7865 -13.7865
   -13.7154 -13.7154 -12.9452 -12.9451 -12.8133 -12.8133 -12.7643 -12.7643
    -0.9338  -0.9337  -0.5225  -0.5225  -0.2991  -0.2990   0.1255   0.1255
     0.3104   0.3104   0.5373   0.5373   0.6623   0.6623   0.8168   0.8169
     0.9816   0.9816   1.0153   1.0154   1.2110   1.2111   1.4221   1.4221
     1.5340   1.5341   1.6541   1.6542   1.7750   1.7751   2.0650   2.0650
     2.2433   2.2433   2.2951   2.2951   3.1542   3.1542   3.3115   3.3115
     4.0441   4.0442   4.2137   4.2138   4.3498   4.3498   4.4718   4.4719
     4.6128

          k = 0.0134-0.0047 0.0000 ( 42762 PWs)   bands (ev):

   -83.0367 -83.0364 -82.8262 -82.8258 -82.8073 -82.8069 -42.3790 -42.3773
   -42.3587 -42.3566 -42.3496 -42.3271 -42.2116 -42.2098 -42.2065 -42.1829
   -42.1718 -42.1498 -42.1347 -42.1327 -42.1163 -42.1142 -42.1015 -42.0981
   -30.1761 -30.0754 -29.9768 -29.8742 -28.9945 -28.8953 -14.4053 -14.2311
   -14.0532 -13.9447 -13.8995 -13.8657 -13.8320 -13.7503 -13.7204 -13.6396
   -13.4290 -13.4170 -13.2508 -12.9213 -12.8067 -12.7297 -12.6646 -12.3605
    -2.1401  -1.3618  -1.3472  -1.3009  -1.0259  -0.6331  -0.4682  -0.4678
    -0.0618   0.0256   0.0678   0.1448   0.5146   0.5969   0.5972   0.7409
     0.7724   0.8044   0.8406   0.8753   0.9931   1.1100   1.4727   1.4836
     1.6257   1.7092   1.9194   1.9759   2.0662   2.1351   2.3654   2.4718
     2.6064   2.7562   2.8373   3.0884   3.5391   3.6358   3.7790   3.9764
     4.0824   4.1688   4.3696   4.4462   4.4684   4.5598   4.5964   4.6233
     4.7204

          k = 0.0134 0.0095 0.0000 ( 42771 PWs)   bands (ev):

   -83.0368 -83.0364 -82.8262 -82.8258 -82.8073 -82.8069 -42.3791 -42.3772
   -42.3588 -42.3565 -42.3500 -42.3267 -42.2117 -42.2097 -42.2070 -42.1825
   -42.1722 -42.1494 -42.1348 -42.1327 -42.1164 -42.1142 -42.1015 -42.0981
   -30.1774 -30.0736 -29.9780 -29.8725 -28.9961 -28.8932 -14.4237 -14.2499
   -14.0579 -13.9405 -13.9205 -13.8568 -13.8304 -13.7438 -13.7320 -13.6376
   -13.4360 -13.4094 -13.2308 -12.9174 -12.8115 -12.7305 -12.6648 -12.3396
    -2.1193  -1.3471  -1.3324  -1.2726  -1.0006  -0.6415  -0.4528  -0.4375
    -0.0732   0.0226   0.0814   0.1689   0.5329   0.5952   0.6316   0.7313
     0.7711   0.8310   0.8364   0.8988   0.9940   1.1381   1.4893   1.4937
     1.6474   1.7036   1.8853   1.9852   2.1123   2.1167   2.3412   2.4260
     2.6010   3.0229   3.0444   3.2885   3.3281   3.5331   3.6478   3.7349
     3.9782   4.1159   4.2786   4.4214   4.4451   4.4999   4.5487   4.5807
     4.7306

          k = 0.0134 0.0237 0.0000 ( 42792 PWs)   bands (ev):

   -83.0368 -83.0364 -82.8262 -82.8258 -82.8073 -82.8069 -42.3791 -42.3772
   -42.3588 -42.3565 -42.3497 -42.3270 -42.2118 -42.2097 -42.2066 -42.1829
   -42.1719 -42.1498 -42.1348 -42.1327 -42.1163 -42.1142 -42.1014 -42.0982
   -30.1750 -30.0752 -29.9753 -29.8741 -28.9939 -28.8944 -14.4131 -14.2401
   -14.0602 -13.9417 -13.9392 -13.8482 -13.8377 -13.7461 -13.7406 -13.6443
   -13.4309 -13.4236 -13.2529 -12.9054 -12.8157 -12.7366 -12.6743 -12.3642
    -1.9921  -1.2640  -1.2324  -1.1718  -0.8875  -0.5747  -0.4032  -0.3431
    -0.0033   0.1015   0.1334   0.2380   0.5881   0.6244   0.6830   0.7392
     0.7945   0.8657   0.8864   0.9025   0.9870   1.1878   1.4689   1.5304
     1.6394   1.7324   1.8891   1.9517   2.0499   2.1391   2.3004   2.3607
     2.5384   2.7071   2.8215   3.0633   3.5385   3.5466   3.6809   3.8125
     3.8796   4.0549   4.1206   4.3520   4.3625   4.5040   4.5437   4.5632
     4.7099

          k = 0.0134 0.0378 0.0000 ( 42814 PWs)   bands (ev):

   -83.0367 -83.0364 -82.8262 -82.8258 -82.8073 -82.8069 -42.3791 -42.3772
   -42.3587 -42.3567 -42.3485 -42.3282 -42.2117 -42.2098 -42.2054 -42.1841
   -42.1708 -42.1509 -42.1347 -42.1328 -42.1162 -42.1143 -42.1012 -42.0984
   -30.1690 -30.0800 -29.9690 -29.8790 -28.9883 -28.8988 -14.3735 -14.2014
   -14.0599 -13.9535 -13.9478 -13.8504 -13.8403 -13.7591 -13.7419 -13.6574
   -13.4904 -13.3801 -13.3136 -12.8874 -12.8175 -12.7479 -12.6909 -12.4304
    -1.7739  -1.1295  -1.0594  -1.0183  -0.7110  -0.4391  -0.3217  -0.2234
     0.1305   0.2113   0.2459   0.3332   0.6205   0.7069   0.7347   0.7847
     0.8557   0.8783   0.9271   0.9553   0.9908   1.2618   1.4096   1.5773
     1.6204   1.8094   1.8771   1.9120   1.9566   2.1538   2.2306   2.2543
     2.2931   2.3667   2.4964   2.7493   3.4369   3.6352   3.6940   3.8033
     3.9147   4.0561   4.0921   4.2620   4.2721   4.4787   4.5374   4.5678
     4.6424

          k = 0.0134 0.0520 0.0000 ( 42839 PWs)   bands (ev):

   -83.0367 -83.0364 -82.8262 -82.8258 -82.8073 -82.8070 -42.3790 -42.3774
   -42.3586 -42.3569 -42.3467 -42.3301 -42.2116 -42.2100 -42.2034 -42.1861
   -42.1690 -42.1528 -42.1346 -42.1329 -42.1160 -42.1145 -42.1009 -42.0987
   -30.1600 -30.0879 -29.9597 -29.8870 -28.9796 -28.9063 -14.3061 -14.1352
   -14.0566 -13.9619 -13.9578 -13.8653 -13.8328 -13.7674 -13.7475 -13.6734
   -13.5810 -13.4056 -13.3071 -12.8659 -12.8155 -12.7637 -12.7115 -12.5301
    -1.4928  -0.9765  -0.8394  -0.8320  -0.5241  -0.2517  -0.2062  -0.1328
     0.2810   0.2901   0.4228   0.4265   0.6067   0.7508   0.7903   0.8330
     0.8667   0.9558   0.9843   1.0372   1.0876   1.3320   1.3861   1.4967
     1.7309   1.7723   1.7957   1.8198   1.8777   1.9782   1.9865   2.1422
     2.2167   2.2738   2.3741   2.4246   3.2220   3.4231   3.6770   3.7783
     3.7903   4.0643   4.1092   4.2042   4.3508   4.3920   4.4937   4.5466
     4.6166

          k = 0.0134 0.0662 0.0000 ( 42843 PWs)   bands (ev):

   -83.0367 -83.0365 -82.8261 -82.8259 -82.8072 -82.8070 -42.3788 -42.3775
   -42.3584 -42.3571 -42.3443 -42.3325 -42.2114 -42.2102 -42.2009 -42.1886
   -42.1666 -42.1552 -42.1344 -42.1332 -42.1158 -42.1147 -42.1006 -42.0990
   -30.1487 -30.0985 -29.9481 -29.8976 -28.9686 -28.9165 -14.2137 -14.0497
   -14.0441 -13.9697 -13.9631 -13.8792 -13.8259 -13.7686 -13.7569 -13.6926
   -13.6888 -13.5193 -13.2074 -12.8426 -12.8094 -12.7835 -12.7330 -12.6518
    -1.1923  -0.8604  -0.6632  -0.5787  -0.4198  -0.1116  -0.0535  -0.0233
     0.2702   0.4188   0.4826   0.5974   0.6025   0.7404   0.7888   0.7901
     0.9215   1.0121   1.0485   1.0999   1.2093   1.2791   1.4184   1.5541
     1.5925   1.6285   1.6637   1.6829   1.8486   1.8635   2.0137   2.1168
     2.1263   2.2194   2.3175   2.3440   3.0245   3.2271   3.4181   3.4719
     3.9135   4.1125   4.1626   4.1868   4.2011   4.4142   4.4577   4.5151
     4.6190

          k = 0.0134-0.0898 0.0000 ( 42811 PWs)   bands (ev):

   -83.0366 -83.0365 -82.8261 -82.8259 -82.8072 -82.8070 -42.3786 -42.3777
   -42.3581 -42.3574 -42.3415 -42.3353 -42.2112 -42.2104 -42.1980 -42.1916
   -42.1639 -42.1579 -42.1342 -42.1334 -42.1155 -42.1150 -42.1001 -42.0994
   -30.1360 -30.1110 -29.9352 -29.9104 -28.9562 -28.9287 -14.1015 -14.0389
   -13.9837 -13.9569 -13.9321 -13.8883 -13.8376 -13.7976 -13.7694 -13.7626
   -13.7002 -13.6427 -13.0855 -12.8210 -12.8190 -12.8066 -12.7625 -12.7525
    -0.9404  -0.8613  -0.5178  -0.4471  -0.3480  -0.1772   0.1401   0.1540
     0.1937   0.4378   0.4932   0.6147   0.6596   0.7012   0.7303   0.8628
     0.9305   0.9962   1.0550   1.1058   1.1643   1.2740   1.3736   1.4937
     1.5033   1.5803   1.6368   1.6977   1.7583   1.7991   2.0120   2.0784
     2.1910   2.2449   2.2728   2.3014   3.0636   3.1536   3.2209   3.2490
     4.0320   4.0873   4.1427   4.1766   4.3023   4.3537   4.4234   4.5373
     4.5955

          k = 0.0134-0.0756 0.0000 ( 42854 PWs)   bands (ev):

   -83.0366 -83.0366 -82.8261 -82.8259 -82.8072 -82.8071 -42.3783 -42.3780
   -42.3578 -42.3577 -42.3385 -42.3384 -42.2110 -42.2106 -42.1949 -42.1947
   -42.1610 -42.1608 -42.1339 -42.1336 -42.1153 -42.1152 -42.0999 -42.0997
   -30.1247 -30.1227 -29.9243 -29.9217 -28.9431 -28.9423 -14.0260 -14.0077
   -13.9641 -13.9636 -13.9305 -13.8970 -13.8085 -13.8005 -13.7916 -13.7802
   -13.7268 -13.7038 -12.9483 -12.9394 -12.8318 -12.7966 -12.7676 -12.7631
    -1.0264  -0.8287  -0.5730  -0.4403  -0.3466  -0.2000  -0.0134   0.2594
     0.2842   0.3865   0.5202   0.5844   0.6771   0.6771   0.7867   0.8200
     0.9313   0.9599   1.0510   1.0777   1.1582   1.2043   1.3827   1.4507
     1.4644   1.4721   1.5505   1.5630   1.6621   1.8686   2.0058   2.1107
     2.1944   2.2378   2.2725   2.2937   3.2151   3.2619   3.3373   3.3574
     4.0671   4.1276   4.1704   4.2348   4.3487   4.3551   4.4404   4.5551
     4.6096

          k = 0.0134-0.0614 0.0000 ( 42841 PWs)   bands (ev):

   -83.0366 -83.0365 -82.8261 -82.8259 -82.8072 -82.8070 -42.3782 -42.3781
   -42.3579 -42.3575 -42.3414 -42.3354 -42.2109 -42.2106 -42.1979 -42.1916
   -42.1638 -42.1580 -42.1339 -42.1336 -42.1156 -42.1149 -42.1003 -42.0992
   -30.1385 -30.1097 -29.9385 -29.9086 -28.9561 -28.9302 -14.0834 -14.0148
   -14.0051 -13.9221 -13.9001 -13.9000 -13.8408 -13.7974 -13.7893 -13.7206
   -13.7153 -13.6517 -13.0710 -12.8576 -12.8134 -12.7760 -12.7686 -12.7405
    -1.3024  -0.8856  -0.7526  -0.6076  -0.4696  -0.1833  -0.1563   0.0354
     0.3100   0.4250   0.4589   0.6348   0.6651   0.7378   0.7526   0.7760
     0.8685   0.8905   1.0326   1.1045   1.1150   1.1734   1.2557   1.3445
     1.4860   1.5336   1.5423   1.5714   1.6703   1.8679   1.9737   2.1144
     2.1717   2.2348   2.3189   2.3598   3.4723   3.5124   3.5586   3.7208
     4.0140   4.2096   4.2100   4.3098   4.3532   4.4234   4.5583   4.5716
     4.6660

          k = 0.0134-0.0472 0.0000 ( 42810 PWs)   bands (ev):

   -83.0367 -83.0365 -82.8261 -82.8259 -82.8072 -82.8070 -42.3785 -42.3778
   -42.3582 -42.3572 -42.3442 -42.3326 -42.2111 -42.2104 -42.2009 -42.1887
   -42.1665 -42.1552 -42.1342 -42.1333 -42.1158 -42.1147 -42.1007 -42.0988
   -30.1515 -30.0979 -29.9518 -29.8967 -28.9692 -28.9184 -14.1934 -14.0266
   -14.0243 -13.9810 -13.8951 -13.8902 -13.8307 -13.7780 -13.7145 -13.6968
   -13.6925 -13.5246 -13.1906 -12.8819 -12.7934 -12.7582 -12.7153 -12.6537
    -1.6023  -1.0323  -0.9474  -0.8801  -0.6225  -0.3084  -0.2119  -0.1947
     0.2415   0.3498   0.3589   0.4571   0.6517   0.6557   0.7654   0.7667
     0.8230   0.8770   0.9558   0.9646   1.0390   1.1859   1.2749   1.5031
     1.5526   1.5955   1.6715   1.7121   1.7369   1.8043   2.0586   2.1383
     2.1459   2.3154   2.4126   2.4299   3.6124   3.7441   3.8658   3.9853
     4.0546   4.2153   4.2550   4.4030   4.4272   4.5417   4.5684   4.6323
     4.7143

          k = 0.0134-0.0331 0.0000 ( 42786 PWs)   bands (ev):

   -83.0367 -83.0364 -82.8262 -82.8258 -82.8073 -82.8070 -42.3787 -42.3776
   -42.3584 -42.3569 -42.3466 -42.3301 -42.2113 -42.2101 -42.2034 -42.1861
   -42.1689 -42.1528 -42.1344 -42.1331 -42.1161 -42.1145 -42.1011 -42.0985
   -30.1627 -30.0879 -29.9631 -29.8866 -28.9805 -28.9083 -14.2873 -14.1138
   -14.0373 -13.9677 -13.8879 -13.8650 -13.8512 -13.7676 -13.7120 -13.6695
   -13.5810 -13.4059 -13.2912 -12.9022 -12.7977 -12.7440 -12.6919 -12.5267
    -1.8648  -1.1877  -1.1234  -1.1115  -0.8115  -0.3989  -0.3930  -0.3227
     0.1573   0.1879   0.2502   0.2681   0.5897   0.5956   0.6965   0.7775
     0.8021   0.8220   0.8807   0.9561   0.9594   1.1318   1.3462   1.5402
     1.6114   1.7321   1.8235   1.8510   1.8974   2.0238   2.0381   2.1222
     2.3433   2.4706   2.4758   2.5209   3.6214   3.8292   4.0064   4.0660
     4.2306   4.2913   4.2995   4.4675   4.4733   4.6144   4.6236   4.6693
     4.7278

          k = 0.0134-0.0189 0.0000 ( 42766 PWs)   bands (ev):

   -83.0367 -83.0364 -82.8262 -82.8258 -82.8073 -82.8069 -42.3789 -42.3774
   -42.3586 -42.3567 -42.3485 -42.3282 -42.2115 -42.2099 -42.2053 -42.1841
   -42.1707 -42.1510 -42.1345 -42.1329 -42.1162 -42.1143 -42.1013 -42.0983
   -30.1711 -30.0802 -29.9717 -29.8790 -28.9891 -28.9005 -14.3591 -14.1849
   -14.0463 -13.9541 -13.8828 -13.8696 -13.8441 -13.7584 -13.7137 -13.6508
   -13.4883 -13.3678 -13.3112 -12.9160 -12.8021 -12.7344 -12.6740 -12.4252
    -2.0518  -1.3054  -1.2721  -1.2488  -0.9584  -0.5497  -0.4475  -0.4240
     0.0311   0.0947   0.1120   0.1736   0.5343   0.5840   0.6328   0.7589
     0.7786   0.8274   0.8408   0.8859   0.9777   1.1082   1.4187   1.5008
     1.6266   1.7053   1.9226   1.9483   2.0040   2.1270   2.3191   2.3634
     2.4482   2.4884   2.5959   2.7984   3.5737   3.8187   3.9260   4.1496
     4.1646   4.3327   4.3878   4.4413   4.4602   4.5417   4.6872   4.6904
     4.7154

          k = 0.0267-0.0094 0.0000 ( 42790 PWs)   bands (ev):

   -83.0367 -83.0364 -82.8262 -82.8258 -82.8073 -82.8069 -42.3789 -42.3774
   -42.3586 -42.3567 -42.3485 -42.3282 -42.2116 -42.2099 -42.2053 -42.1841
   -42.1707 -42.1510 -42.1346 -42.1328 -42.1162 -42.1143 -42.1013 -42.0983
   -30.1705 -30.0802 -29.9710 -29.8790 -28.9889 -28.9000 -14.3630 -14.1894
   -14.0494 -13.9523 -13.9135 -13.8498 -13.8466 -13.7533 -13.7271 -13.6526
   -13.4888 -13.3712 -13.3118 -12.9078 -12.8065 -12.7380 -12.6785 -12.4265
    -1.9804  -1.2625  -1.2168  -1.1875  -0.8948  -0.5213  -0.4156  -0.3728
     0.0559   0.1237   0.1460   0.2161   0.5726   0.6281   0.6441   0.7474
     0.8073   0.8501   0.8539   0.9034   0.9818   1.1464   1.4146   1.5356
     1.6053   1.7458   1.9113   1.9401   1.9903   2.1360   2.2953   2.3319
     2.4273   2.4300   2.5731   2.7860   3.5840   3.7792   3.8693   4.0280
     4.0724   4.2562   4.3152   4.3785   4.4157   4.5123   4.5801   4.6366
     4.7319

          k = 0.0267 0.0048 0.0000 ( 42792 PWs)   bands (ev):

   -83.0368 -83.0364 -82.8262 -82.8258 -82.8073 -82.8069 -42.3791 -42.3772
   -42.3588 -42.3565 -42.3497 -42.3270 -42.2118 -42.2097 -42.2066 -42.1829
   -42.1719 -42.1498 -42.1348 -42.1327 -42.1163 -42.1142 -42.1014 -42.0982
   -30.1750 -30.0752 -29.9753 -29.8741 -28.9939 -28.8944 -14.4131 -14.2401
   -14.0602 -13.9417 -13.9392 -13.8482 -13.8377 -13.7461 -13.7406 -13.6443
   -13.4309 -13.4236 -13.2529 -12.9054 -12.8157 -12.7366 -12.6743 -12.3642
    -1.9921  -1.2640  -1.2324  -1.1718  -0.8875  -0.5747  -0.4032  -0.3431
    -0.0033   0.1015   0.1334   0.2380   0.5881   0.6244   0.6830   0.7392
     0.7945   0.8657   0.8864   0.9025   0.9870   1.1878   1.4689   1.5304
     1.6394   1.7324   1.8891   1.9517   2.0499   2.1391   2.3004   2.3607
     2.5384   2.7071   2.8215   3.0633   3.5385   3.5467   3.6809   3.8126
     3.8796   4.0550   4.1205   4.3515   4.3621   4.5036   4.5413   4.5593
     4.7073

          k = 0.0267 0.0189 0.0000 ( 42783 PWs)   bands (ev):

   -83.0368 -83.0364 -82.8262 -82.8258 -82.8073 -82.8069 -42.3792 -42.3771
   -42.3589 -42.3565 -42.3501 -42.3266 -42.2119 -42.2096 -42.2070 -42.1825
   -42.1723 -42.1494 -42.1349 -42.1326 -42.1163 -42.1142 -42.1014 -42.0982
   -30.1758 -30.0734 -29.9759 -29.8723 -28.9953 -28.8919 -14.4349 -14.2627
   -14.0693 -13.9620 -13.9368 -13.8475 -13.8370 -13.7659 -13.7319 -13.6446
   -13.4455 -13.4125 -13.2343 -12.8960 -12.8241 -12.7402 -12.6791 -12.3453
    -1.8992  -1.1943  -1.1642  -1.0826  -0.7915  -0.5549  -0.3567  -0.2412
     0.0167   0.1381   0.1847   0.3065   0.6293   0.6439   0.7556   0.7567
     0.8003   0.8817   0.9255   0.9497   0.9764   1.2508   1.4895   1.5452
     1.6786   1.7155   1.8399   1.9484   2.0867   2.1194   2.2539   2.2750
     2.5000   3.0220   3.0422   3.1396   3.2737   3.4167   3.4376   3.6174
     3.6546   3.9251   4.0283   4.2924   4.3014   4.3295   4.5319   4.5593
     4.6375

          k = 0.0267 0.0331 0.0000 ( 42806 PWs)   bands (ev):

   -83.0368 -83.0364 -82.8262 -82.8258 -82.8073 -82.8069 -42.3793 -42.3770
   -42.3589 -42.3565 -42.3497 -42.3270 -42.2119 -42.2096 -42.2066 -42.1829
   -42.1719 -42.1498 -42.1350 -42.1326 -42.1163 -42.1142 -42.1013 -42.0983
   -30.1729 -30.0749 -29.9728 -29.8739 -28.9931 -28.8927 -14.4266 -14.2555
   -14.0758 -13.9802 -13.9376 -13.8470 -13.8420 -13.7827 -13.7289 -13.6517
   -13.4350 -13.4343 -13.2566 -12.8816 -12.8297 -12.7485 -12.6912 -12.3706
    -1.7125  -1.0688  -1.0242  -0.9382  -0.6257  -0.4645  -0.2781  -0.1042
     0.1089   0.2465   0.2663   0.4021   0.6345   0.7334   0.8008   0.8201
     0.8460   0.9432   0.9462   0.9701   1.0019   1.3254   1.4666   1.6033
     1.6206   1.7818   1.8407   1.9013   2.0216   2.1143   2.2053   2.2200
     2.4279   2.6021   2.7517   3.0175   3.2514   3.4036   3.4437   3.6229
     3.6372   3.7192   4.0200   4.1578   4.2223   4.2753   4.5052   4.5364
     4.5653

          k = 0.0267 0.0473 0.0000 ( 42836 PWs)   bands (ev):

   -83.0367 -83.0364 -82.8262 -82.8258 -82.8073 -82.8069 -42.3793 -42.3771
   -42.3589 -42.3566 -42.3486 -42.3282 -42.2119 -42.2097 -42.2054 -42.1841
   -42.1708 -42.1509 -42.1349 -42.1327 -42.1162 -42.1143 -42.1011 -42.0985
   -30.1668 -30.0798 -29.9664 -29.8789 -28.9875 -28.8971 -14.3877 -14.2177
   -14.0784 -13.9921 -13.9432 -13.8501 -13.8455 -13.7930 -13.7319 -13.6624
   -13.4930 -13.3922 -13.3163 -12.8639 -12.8306 -12.7614 -12.7080 -12.4360
    -1.4545  -0.9158  -0.8283  -0.7646  -0.4324  -0.3141  -0.1681   0.0104
     0.2516   0.3470   0.4025   0.4971   0.6111   0.8004   0.8204   0.8769
     0.9139   0.9456   1.0093   1.0670   1.0907   1.3798   1.4647   1.5349
     1.6990   1.8128   1.8267   1.8836   1.9262   2.0461   2.1301   2.1716
     2.2535   2.2616   2.3896   2.6822   3.0353   3.2121   3.4534   3.6255
     3.7137   3.7411   4.0350   4.1125   4.1767   4.2459   4.4643   4.4644
     4.5684

          k = 0.0267 0.0615 0.0000 ( 42851 PWs)   bands (ev):

   -83.0367 -83.0364 -82.8262 -82.8258 -82.8073 -82.8070 -42.3792 -42.3772
   -42.3587 -42.3568 -42.3468 -42.3301 -42.2118 -42.2098 -42.2035 -42.1861
   -42.1690 -42.1528 -42.1348 -42.1328 -42.1160 -42.1145 -42.1008 -42.0988
   -30.1580 -30.0880 -29.9572 -29.8872 -28.9790 -28.9048 -14.3194 -14.1502
   -14.0759 -13.9960 -13.9526 -13.8586 -13.8417 -13.7949 -13.7407 -13.6735
   -13.5819 -13.4064 -13.3183 -12.8444 -12.8252 -12.7785 -12.7265 -12.5339
    -1.1605  -0.7805  -0.5962  -0.5892  -0.2996  -0.1235  -0.0068   0.0604
     0.3441   0.4091   0.5614   0.5657   0.6069   0.7181   0.8704   0.8717
     0.9413   1.0203   1.0811   1.1270   1.2569   1.3501   1.4408   1.5840
     1.6803   1.7451   1.7688   1.7943   1.8386   1.9115   1.9275   2.0224
     2.1757   2.2893   2.3032   2.3422   2.8721   3.0147   3.1986   3.4155
     3.8031   3.8848   4.0679   4.1383   4.1865   4.3028   4.3880   4.4374
     4.6016

          k = 0.0267-0.0945 0.0000 ( 42871 PWs)   bands (ev):

   -83.0367 -83.0365 -82.8261 -82.8259 -82.8072 -82.8070 -42.3790 -42.3774
   -42.3585 -42.3570 -42.3444 -42.3325 -42.2116 -42.2100 -42.2010 -42.1886
   -42.1667 -42.1551 -42.1346 -42.1330 -42.1158 -42.1147 -42.1004 -42.0991
   -30.1470 -30.0988 -29.9461 -29.8982 -28.9683 -28.9153 -14.2246 -14.0675
   -14.0558 -13.9906 -13.9642 -13.8656 -13.8352 -13.7881 -13.7547 -13.6924
   -13.6826 -13.5183 -13.2162 -12.8243 -12.8135 -12.7992 -12.7442 -12.6541
    -0.8855  -0.7329  -0.4378  -0.3604  -0.3008   0.0308   0.0883   0.1960
     0.2250   0.5238   0.5626   0.6446   0.6449   0.7257   0.7649   0.8359
     1.0052   1.0489   1.0950   1.0996   1.2699   1.3193   1.3706   1.4940
     1.5809   1.6132   1.6831   1.7519   1.7528   1.8244   1.9254   2.0835
     2.0972   2.2013   2.2152   2.3170   2.9146   2.9472   3.0131   3.1976
     3.9097   4.0017   4.1100   4.1309   4.2237   4.3249   4.3929   4.4936
     4.5892

          k = 0.0267-0.0803 0.0000 ( 42884 PWs)   bands (ev):

   -83.0366 -83.0365 -82.8261 -82.8259 -82.8072 -82.8070 -42.3787 -42.3776
   -42.3582 -42.3573 -42.3415 -42.3353 -42.2114 -42.2103 -42.1980 -42.1916
   -42.1639 -42.1579 -42.1344 -42.1333 -42.1155 -42.1150 -42.1000 -42.0995
   -30.1348 -30.1116 -29.9336 -29.9112 -28.9562 -28.9280 -14.1087 -14.0535
   -13.9778 -13.9757 -13.9385 -13.8693 -13.8357 -13.8076 -13.7728 -13.7715
   -13.6885 -13.6422 -13.0907 -12.8224 -12.8128 -12.8043 -12.7702 -12.7593
    -0.8412  -0.7210  -0.4159  -0.3410  -0.1719  -0.1042   0.0588   0.3089
     0.3680   0.4425   0.5582   0.6061   0.6844   0.6908   0.7452   0.9187
     0.9360   1.0276   1.0613   1.0988   1.1303   1.2603   1.3281   1.4028
     1.4270   1.5204   1.5571   1.5892   1.6103   1.8568   1.9557   2.0949
     2.1247   2.2076   2.2184   2.2839   2.9825   3.0633   3.2145   3.2457
     4.0266   4.0412   4.1906   4.2041   4.2483   4.3705   4.4150   4.5138
     4.5848

          k = 0.0267-0.0661 0.0000 ( 42864 PWs)   bands (ev):

   -83.0366 -83.0366 -82.8261 -82.8259 -82.8072 -82.8071 -42.3785 -42.3779
   -42.3579 -42.3576 -42.3385 -42.3383 -42.2111 -42.2105 -42.1949 -42.1947
   -42.1610 -42.1608 -42.1340 -42.1335 -42.1153 -42.1152 -42.1000 -42.0996
   -30.1254 -30.1220 -29.9253 -29.9207 -28.9434 -28.9420 -14.0360 -14.0049
   -13.9640 -13.9595 -13.9409 -13.8714 -13.8147 -13.8099 -13.7849 -13.7801
   -13.7402 -13.6918 -12.9491 -12.9335 -12.8466 -12.7855 -12.7713 -12.7636
    -1.0877  -0.7415  -0.5964  -0.3662  -0.3308  -0.1171  -0.0795   0.2328
     0.4020   0.4974   0.5537   0.6448   0.7161   0.7323   0.7715   0.7796
     0.8882   0.9211   1.0108   1.0904   1.1304   1.1427   1.2137   1.3439
     1.3652   1.4608   1.4937   1.5296   1.5418   1.8339   1.9033   2.1164
     2.1509   2.1701   2.2943   2.3343   3.2425   3.3130   3.4847   3.5892
     4.0143   4.1183   4.2573   4.2638   4.3249   4.4226   4.4761   4.5819
     4.5831

          k = 0.0267-0.0519 0.0000 ( 42832 PWs)   bands (ev):

   -83.0366 -83.0365 -82.8261 -82.8259 -82.8072 -82.8070 -42.3782 -42.3781
   -42.3579 -42.3576 -42.3414 -42.3354 -42.2109 -42.2107 -42.1979 -42.1916
   -42.1638 -42.1580 -42.1339 -42.1337 -42.1156 -42.1149 -42.1004 -42.0992
   -30.1392 -30.1094 -29.9394 -29.9081 -28.9561 -28.9307 -14.0777 -14.0117
   -14.0108 -13.9222 -13.8982 -13.8699 -13.8420 -13.8136 -13.7960 -13.7197
   -13.6985 -13.6596 -13.0662 -12.8698 -12.8021 -12.7789 -12.7685 -12.7380
    -1.3841  -0.8843  -0.7996  -0.6575  -0.4621  -0.2527  -0.1074   0.0028
     0.3232   0.4546   0.5247   0.6162   0.6777   0.7010   0.7500   0.8167
     0.8554   0.8801   0.9298   0.9471   1.1128   1.1756   1.2184   1.2330
     1.4600   1.4974   1.5812   1.5842   1.6034   1.7572   1.9433   2.0579
     2.1482   2.2865   2.3434   2.4279   3.4216   3.7422   3.8012   3.9134
     3.9766   4.1484   4.1842   4.3517   4.4392   4.5161   4.5490   4.5998
     4.6082

          k = 0.0267-0.0378 0.0000 ( 42812 PWs)   bands (ev):

   -83.0367 -83.0365 -82.8261 -82.8259 -82.8072 -82.8070 -42.3784 -42.3779
   -42.3582 -42.3572 -42.3442 -42.3326 -42.2111 -42.2104 -42.2008 -42.1887
   -42.1665 -42.1552 -42.1341 -42.1334 -42.1158 -42.1147 -42.1008 -42.0988
   -30.1520 -30.0978 -29.9523 -29.8966 -28.9693 -28.9187 -14.1901 -14.0242
   -14.0219 -13.9818 -13.8915 -13.8711 -13.8449 -13.7820 -13.7022 -13.6987
   -13.6931 -13.5261 -13.1878 -12.8890 -12.7898 -12.7544 -12.7127 -12.6549
    -1.6576  -1.0519  -0.9866  -0.9199  -0.6530  -0.3383  -0.2173  -0.2150
     0.2287   0.3392   0.3708   0.4512   0.5847   0.6350   0.7667   0.7760
     0.8153   0.8635   0.9150   0.9305   1.0308   1.1437   1.2764   1.5148
     1.5318   1.6442   1.6525   1.7002   1.7264   1.7365   2.0346   2.1351
     2.1580   2.3505   2.4299   2.4737   3.5816   3.8346   4.0275   4.1014
     4.1491   4.1660   4.2189   4.4165   4.5017   4.5408   4.6095   4.6605
     4.6827

          k = 0.0267-0.0236 0.0000 ( 42786 PWs)   bands (ev):

   -83.0367 -83.0364 -82.8262 -82.8258 -82.8073 -82.8070 -42.3787 -42.3776
   -42.3584 -42.3569 -42.3466 -42.3301 -42.2113 -42.2101 -42.2034 -42.1861
   -42.1689 -42.1528 -42.1344 -42.1331 -42.1161 -42.1145 -42.1011 -42.0985
   -30.1627 -30.0879 -29.9631 -29.8866 -28.9805 -28.9083 -14.2873 -14.1138
   -14.0373 -13.9677 -13.8879 -13.8650 -13.8512 -13.7676 -13.7120 -13.6695
   -13.5810 -13.4059 -13.2912 -12.9022 -12.7977 -12.7440 -12.6919 -12.5267
    -1.8648  -1.1877  -1.1234  -1.1115  -0.8115  -0.3989  -0.3930  -0.3227
     0.1573   0.1879   0.2502   0.2681   0.5897   0.5956   0.6965   0.7775
     0.8021   0.8220   0.8807   0.9561   0.9594   1.1318   1.3462   1.5402
     1.6114   1.7321   1.8235   1.8510   1.8974   2.0238   2.0381   2.1222
     2.3433   2.4706   2.4758   2.5209   3.6214   3.8292   4.0065   4.0662
     4.2306   4.2915   4.2995   4.4672   4.4733   4.6145   4.6247   4.6702
     4.7272

          k = 0.0401-0.0141 0.0000 ( 42822 PWs)   bands (ev):

   -83.0367 -83.0364 -82.8262 -82.8258 -82.8073 -82.8070 -42.3788 -42.3775
   -42.3585 -42.3569 -42.3466 -42.3301 -42.2114 -42.2101 -42.2034 -42.1861
   -42.1689 -42.1528 -42.1345 -42.1330 -42.1160 -42.1145 -42.1010 -42.0986
   -30.1617 -30.0879 -29.9619 -29.8868 -28.9802 -28.9076 -14.2942 -14.1217
   -14.0432 -13.9638 -13.9244 -13.8662 -13.8347 -13.7592 -13.7351 -13.6710
   -13.5808 -13.4055 -13.2971 -12.8878 -12.8049 -12.7511 -12.6989 -12.5277
    -1.7365  -1.1181  -1.0232  -1.0142  -0.7104  -0.3482  -0.3307  -0.2604
     0.2023   0.2179   0.3120   0.3190   0.6255   0.6785   0.7221   0.7938
     0.8122   0.8689   0.9239   0.9829   0.9868   1.2165   1.3382   1.5462
     1.6305   1.8060   1.8145   1.8360   1.8629   2.0194   2.0246   2.1484
     2.2839   2.3632   2.4459   2.4856   3.5743   3.7552   3.7939   3.9586
     4.0249   4.1630   4.2773   4.3363   4.4570   4.5305   4.5543   4.6261
     4.7367

          k = 0.0401 0.0001 0.0000 ( 42814 PWs)   bands (ev):

   -83.0367 -83.0364 -82.8262 -82.8258 -82.8073 -82.8069 -42.3791 -42.3772
   -42.3587 -42.3567 -42.3485 -42.3282 -42.2117 -42.2098 -42.2054 -42.1841
   -42.1708 -42.1509 -42.1347 -42.1328 -42.1162 -42.1143 -42.1012 -42.0984
   -30.1690 -30.0800 -29.9690 -29.8790 -28.9883 -28.8988 -14.3735 -14.2014
   -14.0599 -13.9535 -13.9478 -13.8504 -13.8403 -13.7591 -13.7419 -13.6574
   -13.4904 -13.3801 -13.3136 -12.8874 -12.8175 -12.7479 -12.6909 -12.4304
    -1.7739  -1.1295  -1.0594  -1.0183  -0.7110  -0.4391  -0.3217  -0.2234
     0.1305   0.2113   0.2459   0.3332   0.6205   0.7069   0.7347   0.7847
     0.8557   0.8783   0.9271   0.9553   0.9908   1.2619   1.4096   1.5773
     1.6204   1.8094   1.8771   1.9120   1.9566   2.1538   2.2306   2.2543
     2.2931   2.3667   2.4964   2.7493   3.4369   3.6352   3.6940   3.8034
     3.9147   4.0561   4.0921   4.2621   4.2721   4.4788   4.5364   4.5692
     4.6408

          k = 0.0401 0.0142 0.0000 ( 42806 PWs)   bands (ev):

   -83.0368 -83.0364 -82.8262 -82.8258 -82.8073 -82.8069 -42.3793 -42.3770
   -42.3589 -42.3565 -42.3497 -42.3270 -42.2119 -42.2096 -42.2066 -42.1829
   -42.1719 -42.1498 -42.1350 -42.1326 -42.1163 -42.1142 -42.1013 -42.0983
   -30.1729 -30.0749 -29.9728 -29.8739 -28.9931 -28.8927 -14.4266 -14.2555
   -14.0758 -13.9802 -13.9376 -13.8470 -13.8420 -13.7827 -13.7289 -13.6517
   -13.4350 -13.4343 -13.2566 -12.8816 -12.8297 -12.7485 -12.6912 -12.3706
    -1.7125  -1.0688  -1.0242  -0.9382  -0.6257  -0.4645  -0.2781  -0.1042
     0.1089   0.2465   0.2663   0.4021   0.6345   0.7334   0.8008   0.8201
     0.8460   0.9432   0.9462   0.9701   1.0019   1.3254   1.4666   1.6033
     1.6206   1.7818   1.8407   1.9013   2.0216   2.1143   2.2053   2.2200
     2.4279   2.6021   2.7517   3.0175   3.2514   3.4036   3.4437   3.6229
     3.6372   3.7193   4.0202   4.1580   4.2226   4.2758   4.5055   4.5371
     4.5665

          k = 0.0401 0.0284 0.0000 ( 42783 PWs)   bands (ev):

   -83.0368 -83.0364 -82.8262 -82.8258 -82.8073 -82.8069 -42.3794 -42.3769
   -42.3590 -42.3564 -42.3502 -42.3266 -42.2121 -42.2095 -42.2070 -42.1825
   -42.1724 -42.1494 -42.1351 -42.1325 -42.1163 -42.1142 -42.1013 -42.0983
   -30.1734 -30.0730 -29.9730 -29.8720 -28.9943 -28.8900 -14.4502 -14.2801
   -14.0890 -14.0028 -13.9334 -13.8531 -13.8392 -13.8022 -13.7223 -13.6525
   -13.4584 -13.4168 -13.2390 -12.8716 -12.8392 -12.7533 -12.6987 -12.3531
    -1.5600  -0.9505  -0.9222  -0.8006  -0.4736  -0.4189  -0.2033   0.0645
     0.1547   0.3176   0.3552   0.4976   0.6438   0.8042   0.8495   0.8638
     0.9145   0.9405   0.9827   1.0214   1.0687   1.4062   1.4748   1.6111
     1.6226   1.7467   1.8305   1.8774   1.9880   2.1258   2.1479   2.1522
     2.3866   2.8542   3.0120   3.0364   3.0511   3.0775   3.2218   3.2503
     3.4413   3.6317   3.9746   3.9887   4.0292   4.1752   4.4310   4.4863
     4.6152

          k = 0.0401 0.0426 0.0000 ( 42797 PWs)   bands (ev):

   -83.0368 -83.0364 -82.8262 -82.8258 -82.8073 -82.8069 -42.3795 -42.3768
   -42.3591 -42.3565 -42.3498 -42.3270 -42.2121 -42.2095 -42.2067 -42.1829
   -42.1720 -42.1498 -42.1351 -42.1325 -42.1163 -42.1142 -42.1012 -42.0984
   -30.1706 -30.0746 -29.9699 -29.8737 -28.9921 -28.8908 -14.4421 -14.2730
   -14.0977 -14.0191 -13.9348 -13.8565 -13.8402 -13.8150 -13.7230 -13.6573
   -13.4482 -13.4383 -13.2610 -12.8588 -12.8437 -12.7622 -12.7111 -12.3781
    -1.3341  -0.8000  -0.7684  -0.6306  -0.3272  -0.2703  -0.0988   0.2175
     0.2572   0.4426   0.4522   0.5880   0.6191   0.8703   0.8891   0.9170
     0.9385   0.9812   1.0660   1.1190   1.1539   1.4213   1.5262   1.5593
     1.6578   1.7352   1.8048   1.8692   1.9155   2.0385   2.1164   2.2003
     2.3476   2.4201   2.5781   2.8238   2.9496   2.9891   3.1954   3.2772
     3.3854   3.6285   3.8289   3.9465   3.9531   4.1502   4.3374   4.4675
     4.5029

          k = 0.0401 0.0568 0.0000 ( 42832 PWs)   bands (ev):

   -83.0367 -83.0364 -82.8262 -82.8258 -82.8073 -82.8069 -42.3795 -42.3769
   -42.3590 -42.3566 -42.3487 -42.3282 -42.2121 -42.2096 -42.2055 -42.1841
   -42.1709 -42.1509 -42.1351 -42.1326 -42.1161 -42.1143 -42.1010 -42.0985
   -30.1647 -30.0797 -29.9637 -29.8789 -28.9866 -28.8954 -14.4018 -14.2336
   -14.0998 -14.0269 -13.9407 -13.8558 -13.8431 -13.8194 -13.7305 -13.6634
   -13.4957 -13.4041 -13.3193 -12.8444 -12.8412 -12.7751 -12.7256 -12.4420
    -1.0621  -0.6553  -0.5779  -0.4552  -0.1712  -0.1287   0.0575   0.2990
     0.3934   0.4472   0.5865   0.6235   0.6563   0.7641   0.9594   0.9755
     0.9888   1.0166   1.1415   1.1913   1.3077   1.4045   1.4725   1.6330
     1.6842   1.7246   1.7335   1.8583   1.9040   1.9388   1.9870   2.0823
     2.1259   2.2250   2.3369   2.5596   2.6874   2.7790   2.9446   3.2529
     3.5722   3.6541   3.9263   3.9630   4.0430   4.1560   4.2906   4.4243
     4.5162

          k = 0.0401-0.0992 0.0000 ( 42829 PWs)   bands (ev):

   -83.0367 -83.0364 -82.8262 -82.8258 -82.8073 -82.8070 -42.3793 -42.3770
   -42.3588 -42.3568 -42.3468 -42.3300 -42.2119 -42.2097 -42.2035 -42.1861
   -42.1691 -42.1527 -42.1350 -42.1327 -42.1160 -42.1145 -42.1007 -42.0988
   -30.1562 -30.0880 -29.9551 -29.8874 -28.9784 -28.9035 -14.3307 -14.1628
   -14.0943 -14.0242 -13.9501 -13.8507 -13.8462 -13.8143 -13.7441 -13.6693
   -13.5833 -13.4076 -13.3276 -12.8317 -12.8283 -12.7918 -12.7399 -12.5379
    -0.7855  -0.5729  -0.3716  -0.3000  -0.1128   0.0127   0.2671   0.2962
     0.3238   0.5317   0.6481   0.6665   0.6862   0.7126   0.9274   0.9357
     1.0264   1.0543   1.1422   1.2057   1.3689   1.3698   1.3956   1.5345
     1.6366   1.6627   1.7448   1.7837   1.7945   1.8395   1.8466   1.9690
     2.1369   2.1446   2.1753   2.3314   2.6434   2.6999   2.8498   3.0604
     3.7193   3.7996   4.0189   4.0513   4.1806   4.2145   4.3433   4.3797
     4.5629

          k = 0.0401-0.0850 0.0000 ( 42870 PWs)   bands (ev):

   -83.0367 -83.0365 -82.8261 -82.8259 -82.8072 -82.8070 -42.3791 -42.3772
   -42.3586 -42.3570 -42.3444 -42.3325 -42.2117 -42.2100 -42.2010 -42.1886
   -42.1667 -42.1551 -42.1347 -42.1330 -42.1157 -42.1148 -42.1004 -42.0992
   -30.1458 -30.0990 -29.9445 -29.8986 -28.9681 -28.9145 -14.2322 -14.0814
   -14.0641 -14.0103 -13.9618 -13.8485 -13.8417 -13.8000 -13.7625 -13.6929
   -13.6744 -13.5182 -13.2222 -12.8146 -12.8121 -12.8113 -12.7527 -12.6573
    -0.6239  -0.5815  -0.2175  -0.1934  -0.1812   0.1422   0.2043   0.2175
     0.4531   0.5808   0.6228   0.6751   0.7164   0.7292   0.7706   0.9207
     0.9897   1.0560   1.0810   1.1296   1.2620   1.2623   1.3266   1.4127
     1.4955   1.5567   1.5761   1.6107   1.6791   1.8382   1.9066   2.0398
     2.0753   2.1210   2.1692   2.2837   2.6174   2.8083   3.0609   3.0942
     3.8330   3.9441   4.0768   4.1917   4.2354   4.3274   4.3697   4.4794
     4.5348

          k = 0.0401-0.0708 0.0000 ( 42891 PWs)   bands (ev):

   -83.0366 -83.0365 -82.8261 -82.8259 -82.8072 -82.8070 -42.3788 -42.3775
   -42.3583 -42.3573 -42.3416 -42.3353 -42.2114 -42.2102 -42.1980 -42.1916
   -42.1640 -42.1579 -42.1344 -42.1332 -42.1155 -42.1150 -42.1000 -42.0996
   -30.1341 -30.1119 -29.9327 -29.9117 -28.9562 -28.9276 -14.1126 -14.0623
   -13.9862 -13.9758 -13.9420 -13.8504 -13.8350 -13.8115 -13.7835 -13.7770
   -13.6796 -13.6425 -13.0934 -12.8321 -12.7991 -12.7964 -12.7834 -12.7635
    -0.8274  -0.5653  -0.3934  -0.1685  -0.0499  -0.0433  -0.0224   0.4351
     0.4481   0.5314   0.5907   0.6196   0.7114   0.7650   0.8402   0.8678
     0.8957   0.9469   1.0428   1.0750   1.0947   1.2025   1.2879   1.3375
     1.3411   1.3801   1.4297   1.5460   1.6297   1.7899   1.8712   2.0709
     2.1010   2.1502   2.2153   2.3030   2.9158   2.9811   3.3176   3.4070
     3.9694   3.9782   4.1331   4.3276   4.3481   4.3899   4.4383   4.4492
     4.5697

          k = 0.0401-0.0567 0.0000 ( 42884 PWs)   bands (ev):

   -83.0366 -83.0366 -82.8261 -82.8259 -82.8072 -82.8071 -42.3785 -42.3778
   -42.3579 -42.3576 -42.3385 -42.3383 -42.2111 -42.2105 -42.1949 -42.1947
   -42.1610 -42.1608 -42.1341 -42.1335 -42.1153 -42.1152 -42.1000 -42.0996
   -30.1257 -30.1217 -29.9257 -29.9204 -28.9435 -28.9419 -14.0398 -14.0042
   -13.9641 -13.9551 -13.9473 -13.8552 -13.8210 -13.8132 -13.7896 -13.7717
   -13.7492 -13.6865 -12.9491 -12.9309 -12.8523 -12.7816 -12.7729 -12.7642
    -1.1089  -0.7062  -0.6032  -0.3619  -0.2684  -0.1744  -0.0214   0.2256
     0.4328   0.6054   0.6143   0.7088   0.7239   0.7420   0.7458   0.7637
     0.8751   0.8958   0.8985   0.9463   1.1653   1.2099   1.2169   1.2375
     1.2767   1.4407   1.4633   1.4646   1.6700   1.7097   1.8559   2.0805
     2.1395   2.1816   2.2821   2.3928   3.1831   3.3523   3.6522   3.7008
     3.9408   4.0668   4.2362   4.2723   4.4059   4.4503   4.5617   4.5664
     4.5775

          k = 0.0401-0.0425 0.0000 ( 42832 PWs)   bands (ev):

   -83.0366 -83.0365 -82.8261 -82.8259 -82.8072 -82.8070 -42.3782 -42.3781
   -42.3579 -42.3576 -42.3414 -42.3354 -42.2109 -42.2107 -42.1979 -42.1916
   -42.1638 -42.1580 -42.1339 -42.1337 -42.1156 -42.1149 -42.1004 -42.0992
   -30.1392 -30.1094 -29.9394 -29.9081 -28.9561 -28.9307 -14.0777 -14.0117
   -14.0108 -13.9222 -13.8982 -13.8699 -13.8420 -13.8136 -13.7960 -13.7197
   -13.6985 -13.6596 -13.0662 -12.8698 -12.8021 -12.7789 -12.7685 -12.7380
    -1.3841  -0.8843  -0.7996  -0.6575  -0.4621  -0.2527  -0.1074   0.0028
     0.3232   0.4546   0.5247   0.6162   0.6777   0.7010   0.7500   0.8167
     0.8554   0.8801   0.9298   0.9471   1.1128   1.1756   1.2184   1.2330
     1.4600   1.4974   1.5812   1.5842   1.6034   1.7572   1.9433   2.0579
     2.1482   2.2865   2.3434   2.4279   3.4217   3.7422   3.8012   3.9134
     3.9766   4.1484   4.1846   4.3518   4.4391   4.5170   4.5491   4.6006
     4.6090

          k = 0.0401-0.0283 0.0000 ( 42810 PWs)   bands (ev):

   -83.0367 -83.0365 -82.8261 -82.8259 -82.8072 -82.8070 -42.3785 -42.3778
   -42.3582 -42.3572 -42.3442 -42.3326 -42.2111 -42.2104 -42.2009 -42.1887
   -42.1665 -42.1552 -42.1342 -42.1333 -42.1158 -42.1147 -42.1007 -42.0988
   -30.1515 -30.0979 -29.9518 -29.8967 -28.9692 -28.9184 -14.1934 -14.0266
   -14.0243 -13.9810 -13.8951 -13.8902 -13.8307 -13.7780 -13.7145 -13.6968
   -13.6925 -13.5246 -13.1906 -12.8819 -12.7934 -12.7582 -12.7153 -12.6537
    -1.6023  -1.0323  -0.9474  -0.8801  -0.6225  -0.3084  -0.2119  -0.1947
     0.2415   0.3498   0.3589   0.4571   0.6517   0.6557   0.7654   0.7667
     0.8230   0.8770   0.9558   0.9646   1.0390   1.1859   1.2749   1.5031
     1.5526   1.5955   1.6715   1.7121   1.7370   1.8043   2.0586   2.1383
     2.1459   2.3154   2.4126   2.4299   3.6125   3.7442   3.8657   3.9853
     4.0548   4.2155   4.2549   4.4030   4.4275   4.5416   4.5685   4.6305
     4.6768

          k = 0.0535-0.0188 0.0000 ( 42834 PWs)   bands (ev):

   -83.0367 -83.0365 -82.8261 -82.8259 -82.8072 -82.8070 -42.3786 -42.3777
   -42.3583 -42.3572 -42.3442 -42.3326 -42.2113 -42.2103 -42.2009 -42.1887
   -42.1666 -42.1552 -42.1343 -42.1333 -42.1158 -42.1147 -42.1007 -42.0989
   -30.1503 -30.0981 -29.9502 -29.8971 -28.9689 -28.9176 -14.2022 -14.0347
   -14.0322 -13.9767 -13.9305 -13.8866 -13.8219 -13.7677 -13.7414 -13.6943
   -13.6912 -13.5216 -13.1980 -12.8640 -12.8017 -12.7686 -12.7225 -12.6519
    -1.4417  -0.9675  -0.8370  -0.7628  -0.5374  -0.2153  -0.1873  -0.1290
     0.2680   0.3636   0.3997   0.5070   0.6228   0.7407   0.7691   0.7845
     0.8635   0.9300   1.0276   1.0320   1.0987   1.2521   1.3538   1.4736
     1.5158   1.6620   1.6857   1.6961   1.7835   1.8808   2.0727   2.1255
     2.1880   2.2527   2.2858   2.4009   3.3751   3.5698   3.6936   3.7870
     3.9066   4.1624   4.2486   4.2804   4.3361   4.5028   4.5168   4.5814
     4.6851

          k = 0.0535-0.0046 0.0000 ( 42839 PWs)   bands (ev):

   -83.0367 -83.0364 -82.8262 -82.8258 -82.8073 -82.8070 -42.3790 -42.3774
   -42.3586 -42.3569 -42.3467 -42.3301 -42.2116 -42.2100 -42.2034 -42.1861
   -42.1690 -42.1528 -42.1346 -42.1329 -42.1160 -42.1145 -42.1009 -42.0987
   -30.1600 -30.0879 -29.9597 -29.8870 -28.9796 -28.9063 -14.3061 -14.1352
   -14.0566 -13.9619 -13.9578 -13.8653 -13.8328 -13.7674 -13.7475 -13.6734
   -13.5810 -13.4056 -13.3071 -12.8659 -12.8155 -12.7637 -12.7115 -12.5301
    -1.4928  -0.9765  -0.8394  -0.8320  -0.5241  -0.2517  -0.2062  -0.1328
     0.2810   0.2901   0.4228   0.4265   0.6067   0.7508   0.7903   0.8330
     0.8667   0.9558   0.9843   1.0372   1.0876   1.3320   1.3861   1.4967
     1.7309   1.7723   1.7957   1.8198   1.8777   1.9782   1.9865   2.1422
     2.2167   2.2738   2.3741   2.4246   3.2220   3.4231   3.6769   3.7782
     3.7903   4.0644   4.1092   4.2041   4.3509   4.3918   4.4921   4.5466
     4.6176

          k = 0.0535 0.0095 0.0000 ( 42836 PWs)   bands (ev):

   -83.0367 -83.0364 -82.8262 -82.8258 -82.8073 -82.8069 -42.3793 -42.3771
   -42.3589 -42.3566 -42.3486 -42.3282 -42.2119 -42.2097 -42.2054 -42.1841
   -42.1708 -42.1509 -42.1349 -42.1327 -42.1162 -42.1143 -42.1011 -42.0985
   -30.1668 -30.0798 -29.9664 -29.8789 -28.9875 -28.8971 -14.3877 -14.2177
   -14.0784 -13.9921 -13.9432 -13.8501 -13.8455 -13.7930 -13.7319 -13.6624
   -13.4930 -13.3922 -13.3163 -12.8639 -12.8306 -12.7614 -12.7080 -12.4360
    -1.4545  -0.9158  -0.8283  -0.7646  -0.4324  -0.3141  -0.1681   0.0104
     0.2516   0.3470   0.4025   0.4971   0.6111   0.8004   0.8204   0.8769
     0.9139   0.9456   1.0093   1.0670   1.0907   1.3798   1.4647   1.5349
     1.6990   1.8128   1.8267   1.8836   1.9262   2.0461   2.1301   2.1716
     2.2535   2.2616   2.3896   2.6822   3.0353   3.2121   3.4534   3.6255
     3.7137   3.7411   4.0350   4.1127   4.1766   4.2462   4.4641   4.4643
     4.5724

          k = 0.0535 0.0237 0.0000 ( 42797 PWs)   bands (ev):

   -83.0368 -83.0364 -82.8262 -82.8258 -82.8073 -82.8069 -42.3795 -42.3768
   -42.3591 -42.3565 -42.3498 -42.3270 -42.2121 -42.2095 -42.2067 -42.1829
   -42.1720 -42.1498 -42.1351 -42.1325 -42.1163 -42.1142 -42.1012 -42.0984
   -30.1706 -30.0746 -29.9699 -29.8737 -28.9921 -28.8908 -14.4421 -14.2730
   -14.0977 -14.0191 -13.9348 -13.8565 -13.8402 -13.8150 -13.7230 -13.6573
   -13.4482 -13.4383 -13.2610 -12.8588 -12.8437 -12.7622 -12.7111 -12.3781
    -1.3341  -0.8000  -0.7684  -0.6306  -0.3272  -0.2703  -0.0988   0.2175
     0.2572   0.4426   0.4522   0.5880   0.6191   0.8703   0.8891   0.9170
     0.9385   0.9812   1.0660   1.1190   1.1539   1.4213   1.5262   1.5593
     1.6578   1.7352   1.8048   1.8692   1.9155   2.0385   2.1164   2.2003
     2.3476   2.4201   2.5781   2.8238   2.9495   2.9892   3.1954   3.2772
     3.3854   3.6285   3.8287   3.9466   3.9531   4.1500   4.3371   4.4673
     4.5023

          k = 0.0535 0.0379 0.0000 ( 42825 PWs)   bands (ev):

   -83.0368 -83.0364 -82.8262 -82.8258 -82.8073 -82.8069 -42.3796 -42.3767
   -42.3592 -42.3564 -42.3503 -42.3266 -42.2123 -42.2094 -42.2071 -42.1824
   -42.1724 -42.1494 -42.1353 -42.1324 -42.1163 -42.1142 -42.1012 -42.0983
   -30.1711 -30.0726 -29.9702 -29.8718 -28.9933 -28.8881 -14.4654 -14.2973
   -14.1117 -14.0403 -13.9320 -13.8635 -13.8348 -13.8311 -13.7212 -13.6563
   -13.4713 -13.4210 -13.2437 -12.8526 -12.8510 -12.7663 -12.7187 -12.3608
    -1.1463  -0.6676  -0.6537  -0.4626  -0.2722  -0.0908  -0.0018   0.3036
     0.4232   0.5320   0.5708   0.5932   0.6647   0.8976   0.9382   1.0073
     1.0176   1.0371   1.1427   1.1992   1.2911   1.4419   1.5138   1.5243
     1.6386   1.7333   1.7483   1.8099   1.8885   2.0745   2.1156   2.1327
     2.3375   2.5039   2.6108   2.6995   2.7495   2.9405   2.9984   3.0709
     3.2101   3.5518   3.5682   3.5974   3.8975   4.1245   4.2235   4.4211
     4.4765

          k = 0.0535 0.0521 0.0000 ( 42858 PWs)   bands (ev):

   -83.0368 -83.0364 -82.8262 -82.8258 -82.8073 -82.8069 -42.3797 -42.3767
   -42.3592 -42.3565 -42.3499 -42.3270 -42.2123 -42.2094 -42.2067 -42.1829
   -42.1721 -42.1497 -42.1353 -42.1324 -42.1162 -42.1143 -42.1011 -42.0984
   -30.1685 -30.0743 -29.9674 -29.8735 -28.9912 -28.8892 -14.4554 -14.2881
   -14.1181 -14.0524 -13.9341 -13.8655 -13.8389 -13.8328 -13.7262 -13.6578
   -13.4595 -13.4417 -13.2649 -12.8540 -12.8423 -12.7739 -12.7285 -12.3846
    -0.9134  -0.5380  -0.5106  -0.2869  -0.1685   0.0444   0.1418   0.3713
     0.4982   0.5417   0.6409   0.6719   0.7313   0.8666   0.9910   1.0737
     1.0831   1.1421   1.2254   1.3058   1.3739   1.4211   1.4960   1.5672
     1.6323   1.6971   1.7275   1.7997   1.8814   2.0410   2.0583   2.1484
     2.1528   2.2944   2.3347   2.4667   2.5579   2.7138   2.8452   3.0399
     3.2313   3.5113   3.5541   3.6832   3.8954   4.1253   4.1519   4.3342
     4.4509

          k = 0.0535-0.1039 0.0000 ( 42877 PWs)   bands (ev):

   -83.0367 -83.0364 -82.8262 -82.8258 -82.8073 -82.8069 -42.3796 -42.3768
   -42.3591 -42.3566 -42.3487 -42.3281 -42.2122 -42.2095 -42.2055 -42.1841
   -42.1709 -42.1509 -42.1352 -42.1325 -42.1161 -42.1144 -42.1009 -42.0986
   -30.1631 -30.0795 -29.9618 -29.8788 -28.9860 -28.8942 -14.4121 -14.2450
   -14.1159 -14.0530 -13.9401 -13.8623 -13.8371 -13.8328 -13.7368 -13.6607
   -13.4979 -13.4127 -13.3216 -12.8479 -12.8318 -12.7852 -12.7386 -12.4465
    -0.6658  -0.4160  -0.3953  -0.1298  -0.0314   0.0784   0.3091   0.3557
     0.4404   0.5795   0.7001   0.7197   0.7740   0.8463   1.0023   1.0629
     1.1194   1.1857   1.1952   1.3209   1.3998   1.4522   1.4852   1.5673
     1.6239   1.7277   1.7572   1.7930   1.8235   1.8326   1.8837   1.9328
     2.0615   2.0806   2.2740   2.3652   2.4336   2.5037   2.6816   2.8515
     3.5115   3.5366   3.8559   3.9223   3.9344   4.1419   4.1604   4.3252
     4.3896

          k = 0.0535-0.0897 0.0000 ( 42877 PWs)   bands (ev):

   -83.0367 -83.0364 -82.8262 -82.8258 -82.8073 -82.8070 -42.3794 -42.3769
   -42.3589 -42.3568 -42.3469 -42.3300 -42.2120 -42.2097 -42.2035 -42.1861
   -42.1691 -42.1527 -42.1350 -42.1327 -42.1160 -42.1145 -42.1007 -42.0989
   -30.1552 -30.0880 -29.9538 -29.8875 -28.9781 -28.9027 -14.3372 -14.1700
   -14.1050 -14.0410 -13.9494 -13.8548 -13.8346 -13.8251 -13.7518 -13.6648
   -13.5842 -13.4085 -13.3329 -12.8343 -12.8203 -12.7996 -12.7478 -12.5406
    -0.4565  -0.4273  -0.2684  -0.0209  -0.0083   0.1136   0.1879   0.4114
     0.5547   0.5622   0.6997   0.7468   0.7798   0.8081   0.9314   1.0187
     1.0485   1.0624   1.1797   1.1890   1.2917   1.3732   1.4165   1.5145
[...]
     3.8031   3.8848   4.0679   4.1384   4.1865   4.3028   4.3882   4.4371
     4.6004

          k = 0.0669 0.0190 0.0000 ( 42832 PWs)   bands (ev):

   -83.0367 -83.0364 -82.8262 -82.8258 -82.8073 -82.8069 -42.3795 -42.3769
   -42.3590 -42.3566 -42.3487 -42.3282 -42.2121 -42.2096 -42.2055 -42.1841
   -42.1709 -42.1509 -42.1351 -42.1326 -42.1161 -42.1143 -42.1010 -42.0985
   -30.1647 -30.0797 -29.9637 -29.8789 -28.9866 -28.8954 -14.4018 -14.2336
   -14.0998 -14.0269 -13.9407 -13.8558 -13.8431 -13.8194 -13.7305 -13.6634
   -13.4957 -13.4041 -13.3193 -12.8444 -12.8412 -12.7751 -12.7256 -12.4420
    -1.0621  -0.6553  -0.5779  -0.4552  -0.1712  -0.1287   0.0575   0.2990
     0.3934   0.4472   0.5865   0.6235   0.6563   0.7641   0.9594   0.9755
     0.9888   1.0166   1.1415   1.1913   1.3077   1.4045   1.4725   1.6330
     1.6842   1.7246   1.7335   1.8583   1.9040   1.9388   1.9870   2.0823
     2.1259   2.2250   2.3369   2.5596   2.6874   2.7790   2.9446   3.2530
     3.5722   3.6542   3.9268   3.9633   4.0431   4.1559   4.2906   4.4243
     4.5552

          k = 0.0669 0.0332 0.0000 ( 42858 PWs)   bands (ev):

   -83.0368 -83.0364 -82.8262 -82.8258 -82.8073 -82.8069 -42.3797 -42.3767
   -42.3592 -42.3565 -42.3499 -42.3270 -42.2123 -42.2094 -42.2067 -42.1829
   -42.1721 -42.1497 -42.1353 -42.1324 -42.1162 -42.1143 -42.1011 -42.0984
   -30.1685 -30.0743 -29.9674 -29.8735 -28.9912 -28.8892 -14.4554 -14.2881
   -14.1181 -14.0524 -13.9341 -13.8655 -13.8389 -13.8328 -13.7262 -13.6578
   -13.4595 -13.4417 -13.2649 -12.8540 -12.8423 -12.7739 -12.7285 -12.3846
    -0.9134  -0.5380  -0.5106  -0.2869  -0.1685   0.0444   0.1418   0.3713
     0.4982   0.5417   0.6409   0.6719   0.7313   0.8666   0.9910   1.0737
     1.0831   1.1421   1.2254   1.3058   1.3739   1.4211   1.4960   1.5672
     1.6323   1.6971   1.7275   1.7997   1.8814   2.0410   2.0583   2.1484
     2.1528   2.2944   2.3347   2.4667   2.5579   2.7138   2.8452   3.0399
     3.2313   3.5113   3.5541   3.6833   3.8954   4.1253   4.1519   4.3344
     4.4519

          k = 0.0669 0.0474 0.0000 ( 42900 PWs)   bands (ev):

   -83.0368 -83.0364 -82.8262 -82.8258 -82.8073 -82.8069 -42.3798 -42.3766
   -42.3593 -42.3564 -42.3503 -42.3266 -42.2124 -42.2094 -42.2071 -42.1824
   -42.1725 -42.1493 -42.1354 -42.1324 -42.1163 -42.1142 -42.1011 -42.0984
   -30.1694 -30.0724 -29.9681 -29.8716 -28.9926 -28.8867 -14.4764 -14.3097
   -14.1286 -14.0685 -13.9321 -13.8699 -13.8506 -13.8272 -13.7270 -13.6556
   -13.4807 -13.4241 -13.2472 -12.8603 -12.8389 -12.7757 -12.7334 -12.3664
    -0.7364  -0.4843  -0.3800  -0.1172  -0.1100   0.1538   0.2468   0.3504
     0.4479   0.6722   0.7149   0.7275   0.8040   0.9509   1.0432   1.1420
     1.1980   1.3129   1.3384   1.3482   1.4483   1.4486   1.5024   1.5636
     1.5672   1.6837   1.7252   1.8267   1.8863   1.9965   2.0537   2.1248
     2.1316   2.2437   2.2752   2.3437   2.4199   2.5437   2.7905   3.0588
     3.1611   3.2332   3.3479   3.4150   3.8638   4.0651   4.1245   4.1757
     4.3616

          k = 0.0669-0.1086 0.0000 ( 42869 PWs)   bands (ev):

   -83.0368 -83.0364 -82.8262 -82.8258 -82.8073 -82.8069 -42.3798 -42.3766
   -42.3592 -42.3564 -42.3499 -42.3269 -42.2124 -42.2094 -42.2067 -42.1829
   -42.1721 -42.1497 -42.1354 -42.1324 -42.1162 -42.1143 -42.1010 -42.0985
   -30.1674 -30.0741 -29.9659 -29.8734 -28.9907 -28.8883 -14.4631 -14.2966
   -14.1299 -14.0723 -13.9343 -13.8694 -13.8525 -13.8256 -13.7322 -13.6561
   -13.4660 -13.4438 -13.2671 -12.8591 -12.8340 -12.7807 -12.7387 -12.3884
    -0.5572  -0.4283  -0.3008  -0.0252   0.0481   0.1703   0.3085   0.3219
     0.3923   0.6971   0.7380   0.7698   0.8498   0.9871   1.0878   1.1618
     1.2206   1.2336   1.4197   1.4555   1.4647   1.5058   1.5409   1.5961
     1.6356   1.7286   1.7654   1.7870   1.8499   1.8564   1.9138   2.0095
     2.0155   2.0254   2.1647   2.2504   2.3971   2.5230   2.6129   2.7669
     3.2086   3.4011   3.4565   3.6125   3.8630   4.0365   4.1121   4.1652
     4.2914

          k = 0.0669-0.0944 0.0000 ( 42890 PWs)   bands (ev):

   -83.0367 -83.0364 -82.8262 -82.8258 -82.8073 -82.8070 -42.3796 -42.3767
   -42.3591 -42.3566 -42.3488 -42.3281 -42.2123 -42.2095 -42.2055 -42.1841
   -42.1710 -42.1509 -42.1353 -42.1325 -42.1161 -42.1144 -42.1009 -42.0987
   -30.1625 -30.0795 -29.9611 -29.8788 -28.9858 -28.8938 -14.4158 -14.2492
   -14.1218 -14.0628 -13.9402 -13.8642 -13.8436 -13.8276 -13.7410 -13.6590
   -13.4987 -13.4158 -13.3225 -12.8501 -12.8277 -12.7889 -12.7434 -12.4482
    -0.4080  -0.3920  -0.3104   0.0548   0.1350   0.1490   0.1641   0.3196
     0.4808   0.6927   0.7447   0.7789   0.8276   0.9317   1.0498   1.0960
     1.1379   1.1864   1.3300   1.3716   1.4498   1.4990   1.5199   1.5454
     1.6098   1.6561   1.6833   1.7008   1.7978   1.8677   1.8696   1.8956
     1.9191   2.0256   2.0977   2.2911   2.3783   2.5104   2.5805   2.6839
     3.4830   3.4984   3.8354   3.8965   3.9978   4.0684   4.1451   4.2257
     4.2767

          k = 0.0669-0.0802 0.0000 ( 42877 PWs)   bands (ev):

   -83.0367 -83.0364 -82.8262 -82.8258 -82.8073 -82.8070 -42.3794 -42.3769
   -42.3589 -42.3568 -42.3469 -42.3300 -42.2120 -42.2097 -42.2035 -42.1861
   -42.1691 -42.1527 -42.1350 -42.1327 -42.1160 -42.1145 -42.1007 -42.0989
   -30.1552 -30.0880 -29.9538 -29.8875 -28.9781 -28.9027 -14.3372 -14.1700
   -14.1050 -14.0410 -13.9494 -13.8548 -13.8346 -13.8251 -13.7518 -13.6648
   -13.5842 -13.4085 -13.3329 -12.8343 -12.8203 -12.7996 -12.7478 -12.5406
    -0.4565  -0.4273  -0.2684  -0.0209  -0.0083   0.1136   0.1879   0.4114
     0.5547   0.5622   0.6997   0.7468   0.7798   0.8081   0.9314   1.0187
     1.0485   1.0624   1.1797   1.1890   1.2917   1.3732   1.4165   1.5145
     1.5693   1.5832   1.5913   1.6855   1.7850   1.8307   1.8784   1.9435
     2.0539   2.0830   2.1415   2.2632   2.2733   2.6258   2.8106   2.8970
     3.6391   3.7701   3.9669   4.1366   4.1751   4.2234   4.2587   4.3553
     4.3955

          k = 0.0669-0.0661 0.0000 ( 42870 PWs)   bands (ev):

   -83.0367 -83.0365 -82.8261 -82.8259 -82.8072 -82.8070 -42.3791 -42.3772
   -42.3586 -42.3570 -42.3444 -42.3325 -42.2117 -42.2100 -42.2010 -42.1886
   -42.1667 -42.1551 -42.1347 -42.1330 -42.1157 -42.1148 -42.1004 -42.0992
   -30.1458 -30.0990 -29.9445 -29.8986 -28.9681 -28.9145 -14.2322 -14.0814
   -14.0641 -14.0103 -13.9618 -13.8485 -13.8417 -13.8000 -13.7625 -13.6929
   -13.6744 -13.5182 -13.2222 -12.8146 -12.8121 -12.8113 -12.7527 -12.6573
    -0.6239  -0.5815  -0.2176  -0.1934  -0.1812   0.1422   0.2043   0.2175
     0.4531   0.5808   0.6228   0.6751   0.7164   0.7292   0.7706   0.9207
     0.9897   1.0560   1.0810   1.1296   1.2620   1.2623   1.3266   1.4127
     1.4955   1.5567   1.5761   1.6107   1.6791   1.8382   1.9066   2.0398
     2.0753   2.1210   2.1692   2.2837   2.6174   2.8083   3.0609   3.0941
     3.8327   3.9441   4.0769   4.1917   4.2354   4.3272   4.3698   4.4795
     4.5347

          k = 0.0669-0.0519 0.0000 ( 42884 PWs)   bands (ev):

   -83.0366 -83.0365 -82.8261 -82.8259 -82.8072 -82.8070 -42.3787 -42.3776
   -42.3582 -42.3573 -42.3415 -42.3353 -42.2114 -42.2103 -42.1980 -42.1916
   -42.1639 -42.1579 -42.1344 -42.1333 -42.1155 -42.1150 -42.1000 -42.0995
   -30.1348 -30.1116 -29.9336 -29.9112 -28.9562 -28.9280 -14.1087 -14.0535
   -13.9778 -13.9757 -13.9385 -13.8693 -13.8357 -13.8076 -13.7728 -13.7715
   -13.6885 -13.6422 -13.0907 -12.8224 -12.8128 -12.8043 -12.7702 -12.7593
    -0.8412  -0.7210  -0.4159  -0.3410  -0.1719  -0.1042   0.0588   0.3089
     0.3680   0.4425   0.5582   0.6061   0.6844   0.6908   0.7452   0.9187
     0.9360   1.0276   1.0613   1.0988   1.1303   1.2603   1.3281   1.4028
     1.4270   1.5204   1.5571   1.5892   1.6103   1.8568   1.9557   2.0949
     2.1247   2.2076   2.2184   2.2839   2.9825   3.0633   3.2145   3.2457
     4.0265   4.0412   4.1907   4.2041   4.2483   4.3705   4.4147   4.5140
     4.5844

          k = 0.0669-0.0377 0.0000 ( 42854 PWs)   bands (ev):

   -83.0366 -83.0366 -82.8261 -82.8259 -82.8072 -82.8071 -42.3783 -42.3780
   -42.3578 -42.3577 -42.3385 -42.3384 -42.2110 -42.2106 -42.1949 -42.1947
   -42.1610 -42.1608 -42.1339 -42.1336 -42.1153 -42.1152 -42.0999 -42.0997
   -30.1247 -30.1227 -29.9243 -29.9217 -28.9431 -28.9423 -14.0260 -14.0077
   -13.9641 -13.9636 -13.9305 -13.8970 -13.8085 -13.8004 -13.7916 -13.7802
   -13.7268 -13.7038 -12.9483 -12.9394 -12.8318 -12.7966 -12.7676 -12.7631
    -1.0264  -0.8287  -0.5730  -0.4403  -0.3466  -0.2000  -0.0134   0.2594
     0.2842   0.3865   0.5202   0.5844   0.6771   0.6771   0.7867   0.8200
     0.9313   0.9599   1.0510   1.0777   1.1582   1.2043   1.3827   1.4507
     1.4644   1.4721   1.5505   1.5630   1.6621   1.8686   2.0058   2.1107
     2.1944   2.2378   2.2725   2.2937   3.2151   3.2619   3.3373   3.3574
     4.0669   4.1275   4.1702   4.2352   4.3482   4.3551   4.4401   4.5553
     4.6097

          k =-0.0802 0.0282 0.0000 ( 42888 PWs)   bands (ev):

   -83.0366 -83.0366 -82.8261 -82.8259 -82.8072 -82.8071 -42.3782 -42.3782
   -42.3578 -42.3577 -42.3384 -42.3384 -42.2109 -42.2107 -42.1949 -42.1947
   -42.1610 -42.1608 -42.1339 -42.1337 -42.1153 -42.1152 -42.0999 -42.0997
   -30.1237 -30.1237 -29.9230 -29.9230 -28.9427 -28.9427 -14.0148 -14.0148
   -13.9647 -13.9647 -13.9172 -13.9171 -13.8021 -13.8021 -13.7865 -13.7865
   -13.7154 -13.7154 -12.9451 -12.9451 -12.8133 -12.8133 -12.7643 -12.7643
    -0.9338  -0.9337  -0.5225  -0.5225  -0.2991  -0.2991   0.1255   0.1255
     0.3104   0.3104   0.5373   0.5373   0.6623   0.6623   0.8168   0.8169
     0.9816   0.9816   1.0154   1.0154   1.2110   1.2111   1.4221   1.4221
     1.5340   1.5341   1.6541   1.6542   1.7750   1.7751   2.0650   2.0650
     2.2433   2.2433   2.2951   2.2951   3.1542   3.1542   3.3115   3.3115
     4.0441   4.0442   4.2137   4.2138   4.3498   4.3499   4.4717   4.4721
     4.6130

          k =-0.0802 0.0424 0.0000 ( 42811 PWs)   bands (ev):

   -83.0366 -83.0365 -82.8261 -82.8259 -82.8072 -82.8070 -42.3786 -42.3777
   -42.3581 -42.3574 -42.3415 -42.3353 -42.2112 -42.2104 -42.1980 -42.1916
   -42.1639 -42.1579 -42.1342 -42.1334 -42.1155 -42.1150 -42.1001 -42.0994
   -30.1360 -30.1110 -29.9352 -29.9104 -28.9562 -28.9287 -14.1015 -14.0389
   -13.9837 -13.9569 -13.9321 -13.8883 -13.8376 -13.7976 -13.7694 -13.7626
   -13.7002 -13.6427 -13.0855 -12.8210 -12.8190 -12.8066 -12.7625 -12.7525
    -0.9404  -0.8613  -0.5178  -0.4471  -0.3480  -0.1772   0.1401   0.1540
     0.1937   0.4378   0.4932   0.6147   0.6596   0.7012   0.7303   0.8628
     0.9305   0.9962   1.0550   1.1058   1.1643   1.2740   1.3736   1.4937
     1.5033   1.5804   1.6368   1.6977   1.7583   1.7991   2.0120   2.0784
     2.1910   2.2449   2.2728   2.3014   3.0636   3.1535   3.2210   3.2490
     4.0319   4.0873   4.1428   4.1763   4.3024   4.3537   4.4237   4.5385
     4.5969

          k =-0.0802 0.0566 0.0000 ( 42871 PWs)   bands (ev):

   -83.0367 -83.0365 -82.8261 -82.8259 -82.8072 -82.8070 -42.3790 -42.3774
   -42.3585 -42.3570 -42.3444 -42.3325 -42.2116 -42.2100 -42.2010 -42.1886
   -42.1667 -42.1551 -42.1346 -42.1330 -42.1158 -42.1147 -42.1004 -42.0991
   -30.1470 -30.0988 -29.9461 -29.8982 -28.9683 -28.9153 -14.2246 -14.0675
   -14.0558 -13.9906 -13.9642 -13.8656 -13.8352 -13.7881 -13.7547 -13.6924
   -13.6826 -13.5183 -13.2162 -12.8243 -12.8135 -12.7992 -12.7442 -12.6541
    -0.8855  -0.7329  -0.4378  -0.3604  -0.3008   0.0307   0.0883   0.1960
     0.2250   0.5238   0.5626   0.6446   0.6449   0.7257   0.7649   0.8359
     1.0052   1.0489   1.0950   1.0996   1.2699   1.3193   1.3706   1.4940
     1.5809   1.6132   1.6831   1.7519   1.7528   1.8244   1.9254   2.0835
     2.0972   2.2013   2.2152   2.3170   2.9146   2.9472   3.0131   3.1976
     3.9097   4.0017   4.1100   4.1310   4.2237   4.3250   4.3930   4.4935
     4.5894

          k =-0.0802 0.0708 0.0000 ( 42829 PWs)   bands (ev):

   -83.0367 -83.0364 -82.8262 -82.8258 -82.8073 -82.8070 -42.3793 -42.3770
   -42.3588 -42.3568 -42.3468 -42.3300 -42.2119 -42.2097 -42.2035 -42.1861
   -42.1691 -42.1527 -42.1350 -42.1327 -42.1160 -42.1145 -42.1007 -42.0988
   -30.1562 -30.0880 -29.9551 -29.8874 -28.9784 -28.9035 -14.3307 -14.1628
   -14.0943 -14.0242 -13.9501 -13.8507 -13.8462 -13.8143 -13.7441 -13.6693
   -13.5833 -13.4076 -13.3276 -12.8317 -12.8283 -12.7918 -12.7399 -12.5379
    -0.7855  -0.5729  -0.3716  -0.3000  -0.1128   0.0127   0.2671   0.2962
     0.3238   0.5317   0.6481   0.6665   0.6862   0.7126   0.9274   0.9357
     1.0264   1.0543   1.1422   1.2057   1.3689   1.3698   1.3956   1.5345
     1.6366   1.6627   1.7448   1.7837   1.7945   1.8395   1.8466   1.9690
     2.1369   2.1446   2.1753   2.3314   2.6434   2.6999   2.8498   3.0604
     3.7193   3.7996   4.0190   4.0513   4.1806   4.2145   4.3434   4.3797
     4.5628

          k =-0.0802 0.0849 0.0000 ( 42877 PWs)   bands (ev):

   -83.0367 -83.0364 -82.8262 -82.8258 -82.8073 -82.8069 -42.3796 -42.3768
   -42.3591 -42.3566 -42.3487 -42.3281 -42.2122 -42.2095 -42.2055 -42.1841
   -42.1709 -42.1509 -42.1352 -42.1325 -42.1161 -42.1144 -42.1009 -42.0986
   -30.1631 -30.0795 -29.9618 -29.8788 -28.9860 -28.8942 -14.4121 -14.2450
   -14.1159 -14.0530 -13.9401 -13.8623 -13.8371 -13.8328 -13.7368 -13.6607
   -13.4979 -13.4127 -13.3216 -12.8479 -12.8318 -12.7852 -12.7386 -12.4465
    -0.6658  -0.4160  -0.3953  -0.1298  -0.0314   0.0784   0.3091   0.3557
     0.4404   0.5795   0.7001   0.7197   0.7740   0.8463   1.0023   1.0629
     1.1194   1.1857   1.1952   1.3209   1.3998   1.4522   1.4852   1.5673
     1.6239   1.7277   1.7572   1.7930   1.8235   1.8326   1.8837   1.9328
     2.0615   2.0806   2.2740   2.3652   2.4336   2.5037   2.6816   2.8515
     3.5116   3.5367   3.8561   3.9222   3.9344   4.1424   4.1604   4.3251
     4.3897

          k =-0.0802 0.0991 0.0000 ( 42869 PWs)   bands (ev):

   -83.0368 -83.0364 -82.8262 -82.8258 -82.8073 -82.8069 -42.3798 -42.3766
   -42.3592 -42.3564 -42.3499 -42.3269 -42.2124 -42.2094 -42.2067 -42.1829
   -42.1721 -42.1497 -42.1354 -42.1324 -42.1162 -42.1143 -42.1010 -42.0985
   -30.1674 -30.0741 -29.9659 -29.8734 -28.9907 -28.8883 -14.4631 -14.2966
   -14.1299 -14.0723 -13.9343 -13.8694 -13.8525 -13.8256 -13.7322 -13.6561
   -13.4660 -13.4438 -13.2671 -12.8591 -12.8340 -12.7807 -12.7387 -12.3884
    -0.5572  -0.4283  -0.3008  -0.0252   0.0481   0.1703   0.3085   0.3219
     0.3923   0.6971   0.7380   0.7698   0.8498   0.9871   1.0878   1.1618
     1.2206   1.2336   1.4197   1.4555   1.4647   1.5058   1.5409   1.5961
     1.6356   1.7286   1.7654   1.7870   1.8499   1.8564   1.9138   2.0095
     2.0155   2.0254   2.1647   2.2504   2.3971   2.5230   2.6129   2.7669
     3.2086   3.4011   3.4565   3.6124   3.8630   4.0364   4.1121   4.1653
     4.2915

          k =-0.0802-0.0568 0.0000 ( 42922 PWs)   bands (ev):

   -83.0368 -83.0364 -82.8262 -82.8258 -82.8073 -82.8069 -42.3798 -42.3766
   -42.3593 -42.3564 -42.3503 -42.3266 -42.2124 -42.2094 -42.2071 -42.1824
   -42.1725 -42.1493 -42.1355 -42.1324 -42.1163 -42.1143 -42.1011 -42.0985
   -30.1688 -30.0723 -29.9673 -29.8715 -28.9923 -28.8862 -14.4805 -14.3142
   -14.1347 -14.0792 -13.9323 -13.8717 -13.8579 -13.8233 -13.7306 -13.6547
   -13.4841 -13.4252 -13.2484 -12.8630 -12.8348 -12.7791 -12.7389 -12.3685
    -0.4933  -0.4632  -0.2583   0.0020   0.1343   0.1954   0.2241   0.3297
     0.4012   0.7109   0.7403   0.7863   0.8727   1.0523   1.1635   1.2020
     1.2732   1.2760   1.4003   1.4298   1.4812   1.5965   1.5996   1.7014
     1.7339   1.7567   1.7664   1.7803   1.7966   1.8543   1.8867   1.9848
     2.0019   2.1215   2.1273   2.2524   2.2817   2.4480   2.5386   3.0590
     3.1088   3.1662   3.3345   3.3495   3.8421   4.0050   4.0470   4.1990
     4.2121

     the Fermi energy is     2.2668 ev

!    total energy              =   -1967.54062372 Ry
     estimated scf accuracy    <       0.00000756 Ry
     smearing contrib. (-TS)   =      -0.08413441 Ry
     internal energy E=F+TS    =   -1967.45648932 Ry

     The total energy is F=E-TS. E is the sum of the following terms:
     one-electron contribution =  -10511.78825095 Ry
     hartree contribution      =    5261.17046523 Ry
     xc contribution           =    -684.35575735 Ry
     ewald contribution        =    3967.51697721 Ry
     electric field correction =       0.00007655 Ry

     convergence has been achieved in  18 iterations

     negative rho (up, down):  2.014E-04 0.000E+00

     Forces acting on atoms (cartesian axes, Ry/au):

     atom    1 type  1   force =     0.00072536    0.00051046   -0.01645521
     atom    2 type  1   force =     0.00072757    0.00051499   -0.01645287
     atom    3 type  2   force =    -0.00101866   -0.00071956    0.03162009
     atom    4 type  2   force =    -0.00101648   -0.00071988    0.03158883
     atom    5 type  1   force =    -0.00032267   -0.00022507   -0.02113621
     atom    6 type  1   force =    -0.00032102   -0.00023241   -0.02114308
     atom    7 type  2   force =    -0.00044067   -0.00031281    0.00949792
     atom    8 type  2   force =    -0.00044443   -0.00031408    0.00949941
     atom    9 type  1   force =     0.00010444    0.00007040   -0.00150387
     atom   10 type  1   force =     0.00009717    0.00006800   -0.00150528
     atom   11 type  2   force =     0.00095542    0.00068100   -0.00200946
     atom   12 type  2   force =     0.00095398    0.00067893   -0.00200028

     Total force =     0.060285     Total SCF correction =     0.010783
     SCF correction compared to forces is large: reduce conv_thr to get better values

     Writing output data file ./La2Os2/La2Os2_beef.save/

     init_run     :    346.25s CPU    348.40s WALL (       1 calls)
     electrons    :   8690.74s CPU   9045.75s WALL (       1 calls)
     forces       :    145.04s CPU    145.72s WALL (       1 calls)

     Called by init_run:
     wfcinit      :    327.78s CPU    329.45s WALL (       1 calls)
     potinit      :      9.85s CPU      9.97s WALL (       1 calls)
     hinit0       :      2.90s CPU      2.92s WALL (       1 calls)

     Called by electrons:
     c_bands      :   7721.89s CPU   8058.32s WALL (      18 calls)
     sum_band     :    871.14s CPU    881.23s WALL (      18 calls)
     v_of_rho     :     43.02s CPU     44.77s WALL (      19 calls)
     newd         :     65.01s CPU     71.87s WALL (      19 calls)
     mix_rho      :      1.17s CPU      1.24s WALL (      18 calls)
     vdW_kernel   :      5.93s CPU      5.94s WALL (       1 calls)

     Called by c_bands:
     init_us_2    :     22.67s CPU     22.81s WALL (    2812 calls)
     cegterg      :   7615.74s CPU   7945.06s WALL (    1333 calls)

     Called by *egterg:
     cdiaghg      :    284.21s CPU    292.83s WALL (   10103 calls)
     h_psi        :   3952.22s CPU   4203.26s WALL (   10177 calls)
     s_psi        :   1056.50s CPU   1072.99s WALL (   10177 calls)
     g_psi        :      2.18s CPU      2.28s WALL (    8770 calls)

     Called by h_psi:
     h_psi:calbec :   1394.92s CPU   1427.99s WALL (   10177 calls)
     vloc_psi     :   1454.95s CPU   1653.88s WALL (   10177 calls)
     add_vuspsi   :   1094.12s CPU   1113.08s WALL (   10177 calls)

     General routines
     calbec       :   2066.92s CPU   2101.45s WALL (   11805 calls)
     fft          :     38.25s CPU     39.30s WALL (    1256 calls)
     ffts         :      0.29s CPU      0.30s WALL (      37 calls)
     fftw         :   1602.42s CPU   1802.09s WALL (  778052 calls)
     interpolate  :      0.70s CPU      0.72s WALL (      19 calls)

     Parallel routines
     fft_scatt_xy :     78.35s CPU     79.04s WALL (  779345 calls)
     fft_scatt_yz :    927.38s CPU   1119.72s WALL (  779345 calls)

     PWSCF        :      2h33m CPU      2h39m WALL


   This run was terminated on:  10:56:56  25Jun2022            

=------------------------------------------------------------------------------=
   JOB DONE.
=------------------------------------------------------------------------------=
