
     Program PWSCF v.6.6 starts on 25Jun2022 at 13:22:35 

     This program is part of the open-source Quantum ESPRESSO suite
     for quantum simulation of materials; please cite
         "P. Giannozzi et al., J. Phys.:Condens. Matter 21 395502 (2009);
         "P. Giannozzi et al., J. Phys.:Condens. Matter 29 465901 (2017);
          URL http://www.quantum-espresso.org", 
     in publications or presentations arising from this work. More details at
     http://www.quantum-espresso.org/quote

     Parallel version (MPI), running on    37 processors

     MPI processes distributed on     1 nodes
     R & G space division:  proc/nbgrp/npool/nimage =      37
     Fft bands division:     nmany     =       1
     Reading input from La2Pt2.in
Warning: card &CELL ignored
Warning: card / ignored

     Current dimensions of program PWSCF are:
     Max number of different atomic species (ntypx) = 10
     Max number of k-points (npk) =  40000
     Max angular momentum in pseudopotentials (lmaxx) =  3
     Presently stress not available with electric field and gates

     Message from routine cell_base_init:
     DEPRECATED: use true lattice parameter, not A to a.u. conversion factor
     file La.pbe-spfn-rrkjus_psl.1.0.0.UPF: wavefunction(s)  4F renormalized
     file Pt.pbe-n-rrkjus_psl.1.0.0.UPF: wavefunction(s)  6S renormalized

     **************************************************************************
     Initializing libbeef V0.1.2 with the BEEF-vdW functional.
     Citation: Wellendorff et al., PRB 85, 235149 (2012).
     **************************************************************************


     IMPORTANT: XC functional enforced from input :
     Exchange-correlation= BEEF-VDW
                           (   1   4  43  14   2   0   0)
     Any further DFT definition will be discarded
     Please, verify this is what you really want


     Subspace diagonalization in iterative solution of the eigenvalue problem:
     a serial algorithm will be used


     Parallelization info
     --------------------
     sticks:   dense  smooth     PW     G-vecs:    dense   smooth      PW
     Min         163      65     18                38689     9789    1430
     Max         164      66     19                38699     9810    1442
     Sum        6037    2407    673              1431649   362347   53171



     bravais-lattice index     =            0
     lattice parameter (alat)  =       1.8897  a.u.
     unit-cell volume          =    6551.0181 (a.u.)^3
     number of atoms/cell      =           12
     number of atomic types    =            2
     number of electrons       =       126.00
     number of Kohn-Sham states=           76
     kinetic-energy cutoff     =      55.1240  Ry
     charge density cutoff     =     551.2396  Ry
     convergence threshold     =      1.0E-05
     mixing beta               =       0.1000
     number of iterations used =           10  plain     mixing
     Exchange-correlation= BEEF-VDW
                           (   1   4  43  14   2   0   0)

     celldm(1)=   1.889726  celldm(2)=   0.000000  celldm(3)=   0.000000
     celldm(4)=   0.000000  celldm(5)=   0.000000  celldm(6)=   0.000000

     crystal axes: (cart. coord. in units of alat)
               a(1) = (   6.391808   0.000000   0.000000 )  
               a(2) = (   2.144574   6.021297   0.000000 )  
               a(3) = (   0.000000   0.000000  25.223103 )  

     reciprocal axes: (cart. coord. in units 2 pi/alat)
               b(1) = (  0.156450 -0.055722  0.000000 )  
               b(2) = (  0.000000  0.166077  0.000000 )  
               b(3) = (  0.000000  0.000000  0.039646 )  


     PseudoPot. # 1 for La read from file:
     ../pseudo/La.pbe-spfn-rrkjus_psl.1.0.0.UPF
     MD5 check sum: e3bc141c2ecb461b8d0a035ce9ac970e
     Pseudo is Ultrasoft + core correction, Zval = 11.0
     Generated using "atomic" code by A. Dal Corso v.6.2.2
     Using radial grid of 1253 points,  8 beta functions with: 
                l(1) =   0
                l(2) =   0
                l(3) =   1
                l(4) =   1
                l(5) =   2
                l(6) =   2
                l(7) =   3
                l(8) =   3
     Q(r) pseudized with 0 coefficients 


     PseudoPot. # 2 for Pt read from file:
     ../pseudo/Pt.pbe-n-rrkjus_psl.1.0.0.UPF
     MD5 check sum: 6bc887cfe28d63a5fc1f72d35a7d3ef7
     Pseudo is Ultrasoft + core correction, Zval = 10.0
     Generated using "atomic" code by A. Dal Corso v.6.3
     Using radial grid of 1277 points,  6 beta functions with: 
                l(1) =   0
                l(2) =   0
                l(3) =   1
                l(4) =   1
                l(5) =   2
                l(6) =   2
     Q(r) pseudized with 0 coefficients 


     atomic species   valence    mass     pseudopotential
        La            11.00   138.90547     La( 1.00)
        Pt            10.00   195.08400     Pt( 1.00)

     No symmetry found



   Cartesian axes

     site n.     atom                  positions (alat units)
         1           La  tau(   1) = (   0.0000000   0.0000000  10.0000000  )
         2           La  tau(   2) = (   4.2681909   3.0106485  10.0000000  )
         3           Pt  tau(   3) = (   3.1959042   0.0000000  10.0000000  )
         4           Pt  tau(   4) = (   1.0722868   3.0106485  10.0000000  )
         5           La  tau(   5) = (   6.3918083   4.5085818  12.6115513  )
         6           La  tau(   6) = (   2.1236174   1.4979333  12.6115513  )
         7           Pt  tau(   7) = (   3.1959042   4.5085818  12.6115513  )
         8           Pt  tau(   8) = (   5.3195215   1.4979333  12.6115513  )
         9           La  tau(   9) = (   4.2542336   3.0007928  15.2227496  )
        10           La  tau(  10) = (   8.5221397   6.0112508  15.2227393  )
        11           Pt  tau(  11) = (   7.4471707   2.9984173  14.9944902  )
        12           Pt  tau(  12) = (   5.3232799   6.0094582  14.9944918  )

     number of k points=    74  Fermi-Dirac smearing, width (Ry)=  0.0100
                       cart. coord. in units 2pi/alat
        k(    1) = (   0.0000000   0.0000000   0.0000000), wk =   0.0138889
        k(    2) = (   0.0000000   0.0138398   0.0000000), wk =   0.0277778
        k(    3) = (   0.0000000   0.0276795   0.0000000), wk =   0.0277778
        k(    4) = (   0.0000000   0.0415193   0.0000000), wk =   0.0277778
        k(    5) = (   0.0000000   0.0553591   0.0000000), wk =   0.0277778
        k(    6) = (   0.0000000   0.0691988   0.0000000), wk =   0.0277778
        k(    7) = (   0.0000000  -0.0830386   0.0000000), wk =   0.0138889
        k(    8) = (   0.0130375  -0.0046435   0.0000000), wk =   0.0277778
        k(    9) = (   0.0130375   0.0091963   0.0000000), wk =   0.0277778
        k(   10) = (   0.0130375   0.0230360   0.0000000), wk =   0.0277778
        k(   11) = (   0.0130375   0.0368758   0.0000000), wk =   0.0277778
        k(   12) = (   0.0130375   0.0507156   0.0000000), wk =   0.0277778
        k(   13) = (   0.0130375   0.0645553   0.0000000), wk =   0.0277778
        k(   14) = (   0.0130375  -0.0876821   0.0000000), wk =   0.0277778
        k(   15) = (   0.0130375  -0.0738423   0.0000000), wk =   0.0277778
        k(   16) = (   0.0130375  -0.0600026   0.0000000), wk =   0.0277778
        k(   17) = (   0.0130375  -0.0461628   0.0000000), wk =   0.0277778
        k(   18) = (   0.0130375  -0.0323230   0.0000000), wk =   0.0277778
        k(   19) = (   0.0130375  -0.0184833   0.0000000), wk =   0.0277778
        k(   20) = (   0.0260750  -0.0092870   0.0000000), wk =   0.0277778
        k(   21) = (   0.0260750   0.0045528   0.0000000), wk =   0.0277778
        k(   22) = (   0.0260750   0.0183925   0.0000000), wk =   0.0277778
        k(   23) = (   0.0260750   0.0322323   0.0000000), wk =   0.0277778
        k(   24) = (   0.0260750   0.0460720   0.0000000), wk =   0.0277778
        k(   25) = (   0.0260750   0.0599118   0.0000000), wk =   0.0277778
        k(   26) = (   0.0260750  -0.0923256   0.0000000), wk =   0.0277778
        k(   27) = (   0.0260750  -0.0784858   0.0000000), wk =   0.0277778
        k(   28) = (   0.0260750  -0.0646461   0.0000000), wk =   0.0277778
        k(   29) = (   0.0260750  -0.0508063   0.0000000), wk =   0.0277778
        k(   30) = (   0.0260750  -0.0369665   0.0000000), wk =   0.0277778
        k(   31) = (   0.0260750  -0.0231268   0.0000000), wk =   0.0277778
        k(   32) = (   0.0391126  -0.0139305   0.0000000), wk =   0.0277778
        k(   33) = (   0.0391126  -0.0000908   0.0000000), wk =   0.0277778
        k(   34) = (   0.0391126   0.0137490   0.0000000), wk =   0.0277778
        k(   35) = (   0.0391126   0.0275888   0.0000000), wk =   0.0277778
        k(   36) = (   0.0391126   0.0414285   0.0000000), wk =   0.0277778
        k(   37) = (   0.0391126   0.0552683   0.0000000), wk =   0.0277778
        k(   38) = (   0.0391126  -0.0969691   0.0000000), wk =   0.0277778
        k(   39) = (   0.0391126  -0.0831293   0.0000000), wk =   0.0277778
        k(   40) = (   0.0391126  -0.0692896   0.0000000), wk =   0.0277778
        k(   41) = (   0.0391126  -0.0554498   0.0000000), wk =   0.0277778
        k(   42) = (   0.0391126  -0.0416100   0.0000000), wk =   0.0277778
        k(   43) = (   0.0391126  -0.0277703   0.0000000), wk =   0.0277778
        k(   44) = (   0.0521501  -0.0185740   0.0000000), wk =   0.0277778
        k(   45) = (   0.0521501  -0.0047343   0.0000000), wk =   0.0277778
        k(   46) = (   0.0521501   0.0091055   0.0000000), wk =   0.0277778
        k(   47) = (   0.0521501   0.0229453   0.0000000), wk =   0.0277778
        k(   48) = (   0.0521501   0.0367850   0.0000000), wk =   0.0277778
        k(   49) = (   0.0521501   0.0506248   0.0000000), wk =   0.0277778
        k(   50) = (   0.0521501  -0.1016126   0.0000000), wk =   0.0277778
        k(   51) = (   0.0521501  -0.0877728   0.0000000), wk =   0.0277778
        k(   52) = (   0.0521501  -0.0739331   0.0000000), wk =   0.0277778
        k(   53) = (   0.0521501  -0.0600933   0.0000000), wk =   0.0277778
        k(   54) = (   0.0521501  -0.0462536   0.0000000), wk =   0.0277778
        k(   55) = (   0.0521501  -0.0324138   0.0000000), wk =   0.0277778
        k(   56) = (   0.0651876  -0.0232175   0.0000000), wk =   0.0277778
        k(   57) = (   0.0651876  -0.0093778   0.0000000), wk =   0.0277778
        k(   58) = (   0.0651876   0.0044620   0.0000000), wk =   0.0277778
        k(   59) = (   0.0651876   0.0183018   0.0000000), wk =   0.0277778
        k(   60) = (   0.0651876   0.0321415   0.0000000), wk =   0.0277778
        k(   61) = (   0.0651876   0.0459813   0.0000000), wk =   0.0277778
        k(   62) = (   0.0651876  -0.1062561   0.0000000), wk =   0.0277778
        k(   63) = (   0.0651876  -0.0924164   0.0000000), wk =   0.0277778
        k(   64) = (   0.0651876  -0.0785766   0.0000000), wk =   0.0277778
        k(   65) = (   0.0651876  -0.0647368   0.0000000), wk =   0.0277778
        k(   66) = (   0.0651876  -0.0508971   0.0000000), wk =   0.0277778
        k(   67) = (   0.0651876  -0.0370573   0.0000000), wk =   0.0277778
        k(   68) = (  -0.0782251   0.0278610   0.0000000), wk =   0.0138889
        k(   69) = (  -0.0782251   0.0417008   0.0000000), wk =   0.0277778
        k(   70) = (  -0.0782251   0.0555406   0.0000000), wk =   0.0277778
        k(   71) = (  -0.0782251   0.0693803   0.0000000), wk =   0.0277778
        k(   72) = (  -0.0782251   0.0832201   0.0000000), wk =   0.0277778
        k(   73) = (  -0.0782251   0.0970599   0.0000000), wk =   0.0277778
        k(   74) = (  -0.0782251  -0.0551776   0.0000000), wk =   0.0138889

     Dense  grid:  1431649 G-vectors     FFT dimensions: (  96,  96, 360)

     Smooth grid:   362347 G-vectors     FFT dimensions: (  60,  60, 225)

     Estimated max dynamical RAM per process >     484.24 MB

     Estimated total dynamical RAM >      17.50 GB

     Initial potential from superposition of free atoms

     starting charge  125.82025, renormalised to  126.00000

     negative rho (up, down):  8.955E-04 0.000E+00


     %%%%%%%%%%%%%%%%%%%%%%%%%%%%%%%%%%%%%%%%%%%%%%%%%%%%%%%%%%%%%%%%%%%%%%%%
     %                                                                      %
     % You are using vdW-DF, which was implemented by the Thonhauser group. %
     % Please cite the following two papers that made this development      %
     % possible and the two reviews that describe the various versions:     %
     %                                                                      %
     %   T. Thonhauser et al., PRL 115, 136402 (2015).                      %
     %   T. Thonhauser et al., PRB 76, 125112 (2007).                       %
     %   K. Berland et al., Rep. Prog. Phys. 78, 066501 (2015).             %
     %   D.C. Langreth et al., J. Phys.: Condens. Matter 21, 084203 (2009). %
     %                                                                      %
     %                                                                      %
     % If you are calculating the stress with vdW-DF, please also cite:     %
     %                                                                      %
     %   R. Sabatini et al., J. Phys.: Condens. Matter 24, 424209 (2012).   %
     %                                                                      %
     %%%%%%%%%%%%%%%%%%%%%%%%%%%%%%%%%%%%%%%%%%%%%%%%%%%%%%%%%%%%%%%%%%%%%%%%



     Adding external electric field

     Computed dipole along edir(3) : 
        Dipole                0.0122 Ry au,          0.0310 Debye
        Dipole field          0.0000 Ry au, 

        Potential amp.       -0.0022 Ry
        Total length         46.4731 bohr

     Starting wfcs are  174 randomized atomic wfcs

     total cpu time spent up to now is      373.5 secs

     Self-consistent Calculation

     iteration #  1     ecut=    55.12 Ry     beta= 0.10
     Davidson diagonalization with overlap
     ethr =  1.00E-02,  avg # of iterations =  2.0

     negative rho (up, down):  7.566E-04 0.000E+00

     Adding external electric field

     Computed dipole along edir(3) : 
        Dipole               -0.0003 Ry au,         -0.0008 Debye
        Dipole field         -0.0000 Ry au, 

        Potential amp.        0.0001 Ry
        Total length         46.4731 bohr


     total cpu time spent up to now is      718.6 secs

     total energy              =   -1161.66174386 Ry
     estimated scf accuracy    <       3.10739817 Ry

     iteration #  2     ecut=    55.12 Ry     beta= 0.10
     Davidson diagonalization with overlap
     ethr =  2.47E-03,  avg # of iterations =  3.5

     negative rho (up, down):  6.966E-04 0.000E+00

     Adding external electric field

     Computed dipole along edir(3) : 
        Dipole                0.1606 Ry au,          0.4082 Debye
        Dipole field          0.0003 Ry au, 

        Potential amp.       -0.0286 Ry
        Total length         46.4731 bohr


     total cpu time spent up to now is     1065.3 secs

     total energy              =   -1161.70578667 Ry
     estimated scf accuracy    <       0.78546345 Ry

     iteration #  3     ecut=    55.12 Ry     beta= 0.10
     Davidson diagonalization with overlap
     c_bands:  1 eigenvalues not converged
     ethr =  6.23E-04,  avg # of iterations = 13.6

     negative rho (up, down):  6.589E-04 0.000E+00

     Adding external electric field

     Computed dipole along edir(3) : 
        Dipole               -0.1428 Ry au,         -0.3630 Debye
        Dipole field         -0.0003 Ry au, 

        Potential amp.        0.0255 Ry
        Total length         46.4731 bohr


     total cpu time spent up to now is     1657.5 secs

     total energy              =   -1161.84172035 Ry
     estimated scf accuracy    <       0.50819356 Ry

     iteration #  4     ecut=    55.12 Ry     beta= 0.10
     Davidson diagonalization with overlap
     ethr =  4.03E-04,  avg # of iterations =  2.6

     negative rho (up, down):  6.434E-04 0.000E+00

     Adding external electric field

     Computed dipole along edir(3) : 
        Dipole                0.0799 Ry au,          0.2032 Debye
        Dipole field          0.0002 Ry au, 

        Potential amp.       -0.0143 Ry
        Total length         46.4731 bohr


     total cpu time spent up to now is     1995.2 secs

     total energy              =   -1161.83941291 Ry
     estimated scf accuracy    <       0.51108528 Ry

     iteration #  5     ecut=    55.12 Ry     beta= 0.10
     Davidson diagonalization with overlap
     ethr =  4.03E-04,  avg # of iterations =  4.8

     negative rho (up, down):  6.280E-04 0.000E+00

     Adding external electric field

     Computed dipole along edir(3) : 
        Dipole                0.0829 Ry au,          0.2107 Debye
        Dipole field          0.0002 Ry au, 

        Potential amp.       -0.0148 Ry
        Total length         46.4731 bohr


     total cpu time spent up to now is     2349.0 secs

     total energy              =   -1161.87544688 Ry
     estimated scf accuracy    <       0.37697954 Ry

     iteration #  6     ecut=    55.12 Ry     beta= 0.10
     Davidson diagonalization with overlap
     ethr =  2.99E-04,  avg # of iterations =  1.3

     negative rho (up, down):  8.272E-04 0.000E+00

     Adding external electric field

     Computed dipole along edir(3) : 
        Dipole                0.1799 Ry au,          0.4572 Debye
        Dipole field          0.0003 Ry au, 

        Potential amp.       -0.0321 Ry
        Total length         46.4731 bohr


     total cpu time spent up to now is     2754.3 secs

     total energy              =   -1161.74517828 Ry
     estimated scf accuracy    <       0.30007176 Ry

     iteration #  7     ecut=    55.12 Ry     beta= 0.10
     Davidson diagonalization with overlap
     c_bands:  1 eigenvalues not converged
     c_bands:  1 eigenvalues not converged
     c_bands:  1 eigenvalues not converged
     c_bands:  1 eigenvalues not converged
     c_bands:  1 eigenvalues not converged
     c_bands:  1 eigenvalues not converged
     ethr =  2.38E-04,  avg # of iterations = 15.1

     negative rho (up, down):  6.334E-04 0.000E+00

     Adding external electric field

     Computed dipole along edir(3) : 
        Dipole                0.0997 Ry au,          0.2535 Debye
        Dipole field          0.0002 Ry au, 

        Potential amp.       -0.0178 Ry
        Total length         46.4731 bohr


     total cpu time spent up to now is     3430.4 secs

     total energy              =   -1161.86915482 Ry
     estimated scf accuracy    <       0.76169895 Ry

     iteration #  8     ecut=    55.12 Ry     beta= 0.10
     Davidson diagonalization with overlap
     ethr =  2.38E-04,  avg # of iterations =  2.3

     negative rho (up, down):  5.616E-04 0.000E+00

     Adding external electric field

     Computed dipole along edir(3) : 
        Dipole                0.1087 Ry au,          0.2762 Debye
        Dipole field          0.0002 Ry au, 

        Potential amp.       -0.0194 Ry
        Total length         46.4731 bohr


     total cpu time spent up to now is     3723.0 secs

     total energy              =   -1161.81732589 Ry
     estimated scf accuracy    <       0.37626216 Ry

     iteration #  9     ecut=    55.12 Ry     beta= 0.10
     Davidson diagonalization with overlap
     ethr =  2.38E-04,  avg # of iterations =  5.1

     negative rho (up, down):  6.035E-04 0.000E+00

     Adding external electric field

     Computed dipole along edir(3) : 
        Dipole                0.0789 Ry au,          0.2004 Debye
        Dipole field          0.0002 Ry au, 

        Potential amp.       -0.0141 Ry
        Total length         46.4731 bohr


     total cpu time spent up to now is     4417.3 secs

     total energy              =   -1161.83145632 Ry
     estimated scf accuracy    <       0.03063126 Ry

     iteration # 10     ecut=    55.12 Ry     beta= 0.10
     Davidson diagonalization with overlap
     c_bands:  5 eigenvalues not converged
     c_bands:  3 eigenvalues not converged
     c_bands:  4 eigenvalues not converged
     c_bands:  3 eigenvalues not converged
     c_bands:  4 eigenvalues not converged
     c_bands:  2 eigenvalues not converged
     c_bands:  2 eigenvalues not converged
     c_bands:  1 eigenvalues not converged
     c_bands:  2 eigenvalues not converged
     c_bands:  1 eigenvalues not converged
     c_bands:  4 eigenvalues not converged
     c_bands:  4 eigenvalues not converged
     c_bands:  4 eigenvalues not converged
     c_bands:  3 eigenvalues not converged
     c_bands:  5 eigenvalues not converged
     c_bands:  2 eigenvalues not converged
     c_bands:  2 eigenvalues not converged
     c_bands:  1 eigenvalues not converged
     c_bands:  4 eigenvalues not converged
     c_bands:  2 eigenvalues not converged
     c_bands:  4 eigenvalues not converged
     c_bands:  5 eigenvalues not converged
     c_bands:  2 eigenvalues not converged
     c_bands:  4 eigenvalues not converged
     c_bands:  5 eigenvalues not converged
     c_bands:  1 eigenvalues not converged
     c_bands:  2 eigenvalues not converged
     c_bands:  5 eigenvalues not converged
     c_bands:  4 eigenvalues not converged
     c_bands:  3 eigenvalues not converged
     c_bands:  4 eigenvalues not converged
     c_bands:  5 eigenvalues not converged
     c_bands:  3 eigenvalues not converged
     c_bands:  3 eigenvalues not converged
     c_bands:  3 eigenvalues not converged
     c_bands:  5 eigenvalues not converged
     c_bands:  4 eigenvalues not converged
     c_bands:  3 eigenvalues not converged
     c_bands:  2 eigenvalues not converged
     c_bands:  1 eigenvalues not converged
     c_bands:  2 eigenvalues not converged
     c_bands:  2 eigenvalues not converged
     c_bands:  4 eigenvalues not converged
     c_bands:  3 eigenvalues not converged
     c_bands:  3 eigenvalues not converged
     c_bands:  4 eigenvalues not converged
     c_bands:  4 eigenvalues not converged
     c_bands:  4 eigenvalues not converged
     c_bands:  4 eigenvalues not converged
     c_bands:  5 eigenvalues not converged
     c_bands:  2 eigenvalues not converged
     c_bands:  2 eigenvalues not converged
     c_bands:  1 eigenvalues not converged
     c_bands:  5 eigenvalues not converged
     c_bands:  5 eigenvalues not converged
     c_bands:  3 eigenvalues not converged
     c_bands:  3 eigenvalues not converged
     c_bands:  2 eigenvalues not converged
     c_bands:  1 eigenvalues not converged
     c_bands:  2 eigenvalues not converged
     c_bands:  5 eigenvalues not converged
     c_bands:  2 eigenvalues not converged
     ethr =  2.43E-05,  avg # of iterations = 19.8

     negative rho (up, down):  6.190E-04 0.000E+00

     Adding external electric field

     Computed dipole along edir(3) : 
        Dipole                0.1005 Ry au,          0.2555 Debye
        Dipole field          0.0002 Ry au, 

        Potential amp.       -0.0179 Ry
        Total length         46.4731 bohr


     total cpu time spent up to now is     5408.3 secs

     total energy              =   -1161.83917601 Ry
     estimated scf accuracy    <       0.10213163 Ry

     iteration # 11     ecut=    55.12 Ry     beta= 0.10
     Davidson diagonalization with overlap
     c_bands:  1 eigenvalues not converged
     c_bands:  1 eigenvalues not converged
     c_bands:  1 eigenvalues not converged
     c_bands:  2 eigenvalues not converged
     c_bands:  1 eigenvalues not converged
     c_bands:  1 eigenvalues not converged
     ethr =  2.43E-05,  avg # of iterations = 10.2

     negative rho (up, down):  5.758E-04 0.000E+00

     Adding external electric field

     Computed dipole along edir(3) : 
        Dipole                0.1003 Ry au,          0.2550 Debye
        Dipole field          0.0002 Ry au, 

        Potential amp.       -0.0179 Ry
        Total length         46.4731 bohr


     total cpu time spent up to now is     5921.8 secs

     total energy              =   -1161.84571881 Ry
     estimated scf accuracy    <       0.00666982 Ry

     iteration # 12     ecut=    55.12 Ry     beta= 0.10
     Davidson diagonalization with overlap
     c_bands:  3 eigenvalues not converged
     c_bands:  5 eigenvalues not converged
     c_bands:  4 eigenvalues not converged
     c_bands:  3 eigenvalues not converged
     c_bands:  3 eigenvalues not converged
     c_bands:  2 eigenvalues not converged
     c_bands:  3 eigenvalues not converged
     c_bands:  3 eigenvalues not converged
     c_bands:  5 eigenvalues not converged
     c_bands:  1 eigenvalues not converged
     c_bands:  2 eigenvalues not converged
     c_bands:  1 eigenvalues not converged
     c_bands:  4 eigenvalues not converged
     c_bands:  3 eigenvalues not converged
     c_bands:  5 eigenvalues not converged
     c_bands:  2 eigenvalues not converged
     c_bands:  5 eigenvalues not converged
     c_bands:  1 eigenvalues not converged
     c_bands:  3 eigenvalues not converged
     c_bands:  5 eigenvalues not converged
     c_bands:  1 eigenvalues not converged
     c_bands:  1 eigenvalues not converged
     c_bands:  1 eigenvalues not converged
     c_bands:  1 eigenvalues not converged
     c_bands:  3 eigenvalues not converged
     c_bands:  4 eigenvalues not converged
     c_bands:  5 eigenvalues not converged
     c_bands:  1 eigenvalues not converged
     c_bands:  1 eigenvalues not converged
     c_bands:  4 eigenvalues not converged
     c_bands:  3 eigenvalues not converged
     c_bands:  2 eigenvalues not converged
     c_bands:  1 eigenvalues not converged
     c_bands:  2 eigenvalues not converged
     c_bands:  3 eigenvalues not converged
     c_bands:  1 eigenvalues not converged
     c_bands:  5 eigenvalues not converged
     c_bands:  2 eigenvalues not converged
     c_bands:  1 eigenvalues not converged
     c_bands:  3 eigenvalues not converged
     c_bands:  1 eigenvalues not converged
     c_bands:  2 eigenvalues not converged
     c_bands:  1 eigenvalues not converged
     c_bands:  3 eigenvalues not converged
     c_bands:  3 eigenvalues not converged
     c_bands:  3 eigenvalues not converged
     c_bands:  2 eigenvalues not converged
     c_bands:  4 eigenvalues not converged
     c_bands:  1 eigenvalues not converged
     c_bands:  5 eigenvalues not converged
     c_bands:  3 eigenvalues not converged
     c_bands:  1 eigenvalues not converged
     c_bands:  3 eigenvalues not converged
     c_bands:  3 eigenvalues not converged
     c_bands:  1 eigenvalues not converged
     c_bands:  1 eigenvalues not converged
     c_bands:  1 eigenvalues not converged
     c_bands:  2 eigenvalues not converged
     c_bands:  2 eigenvalues not converged
     c_bands:  1 eigenvalues not converged
     c_bands:  3 eigenvalues not converged
     c_bands:  2 eigenvalues not converged
     ethr =  5.29E-06,  avg # of iterations = 22.3

     negative rho (up, down):  5.554E-04 0.000E+00

     Adding external electric field

     Computed dipole along edir(3) : 
        Dipole                0.0945 Ry au,          0.2403 Debye
        Dipole field          0.0002 Ry au, 

        Potential amp.       -0.0169 Ry
        Total length         46.4731 bohr


     total cpu time spent up to now is     6595.7 secs

     total energy              =   -1161.84698417 Ry
     estimated scf accuracy    <       0.00088103 Ry

     iteration # 13     ecut=    55.12 Ry     beta= 0.10
     Davidson diagonalization with overlap
     c_bands:  2 eigenvalues not converged
     c_bands:  5 eigenvalues not converged
     c_bands:  3 eigenvalues not converged
     c_bands:  2 eigenvalues not converged
     c_bands:  1 eigenvalues not converged
     c_bands:  4 eigenvalues not converged
     c_bands:  2 eigenvalues not converged
     c_bands:  1 eigenvalues not converged
     c_bands:  3 eigenvalues not converged
     c_bands:  1 eigenvalues not converged
     c_bands:  1 eigenvalues not converged
     c_bands:  1 eigenvalues not converged
     c_bands:  2 eigenvalues not converged
     c_bands:  3 eigenvalues not converged
     c_bands:  2 eigenvalues not converged
     c_bands:  4 eigenvalues not converged
     c_bands:  2 eigenvalues not converged
     c_bands:  1 eigenvalues not converged
     c_bands:  4 eigenvalues not converged
     c_bands:  2 eigenvalues not converged
     c_bands:  1 eigenvalues not converged
     c_bands:  1 eigenvalues not converged
     c_bands:  5 eigenvalues not converged
     c_bands:  1 eigenvalues not converged
     c_bands:  2 eigenvalues not converged
     c_bands:  2 eigenvalues not converged
     c_bands:  3 eigenvalues not converged
     c_bands:  3 eigenvalues not converged
     c_bands:  3 eigenvalues not converged
     c_bands:  3 eigenvalues not converged
     c_bands:  4 eigenvalues not converged
     c_bands:  1 eigenvalues not converged
     c_bands:  1 eigenvalues not converged
     c_bands:  2 eigenvalues not converged
     c_bands:  5 eigenvalues not converged
     c_bands:  1 eigenvalues not converged
     c_bands:  1 eigenvalues not converged
     c_bands:  2 eigenvalues not converged
     c_bands:  2 eigenvalues not converged
     c_bands:  3 eigenvalues not converged
     c_bands:  3 eigenvalues not converged
     c_bands:  1 eigenvalues not converged
     c_bands:  2 eigenvalues not converged
     c_bands:  2 eigenvalues not converged
     c_bands:  2 eigenvalues not converged
     c_bands:  3 eigenvalues not converged
     c_bands:  1 eigenvalues not converged
     c_bands:  1 eigenvalues not converged
     c_bands:  2 eigenvalues not converged
     c_bands:  2 eigenvalues not converged
     c_bands:  2 eigenvalues not converged
     c_bands:  3 eigenvalues not converged
     c_bands:  1 eigenvalues not converged
     c_bands:  1 eigenvalues not converged
     c_bands:  1 eigenvalues not converged
     c_bands:  2 eigenvalues not converged
     c_bands:  3 eigenvalues not converged
     c_bands:  3 eigenvalues not converged
     ethr =  6.99E-07,  avg # of iterations = 18.9

     negative rho (up, down):  5.571E-04 0.000E+00

     Adding external electric field

     Computed dipole along edir(3) : 
        Dipole                0.1031 Ry au,          0.2622 Debye
        Dipole field          0.0002 Ry au, 

        Potential amp.       -0.0184 Ry
        Total length         46.4731 bohr


     total cpu time spent up to now is     7638.5 secs

     total energy              =   -1161.84681134 Ry
     estimated scf accuracy    <       0.00181738 Ry

     iteration # 14     ecut=    55.12 Ry     beta= 0.10
     Davidson diagonalization with overlap
     c_bands:  3 eigenvalues not converged
     c_bands:  2 eigenvalues not converged
     c_bands:  1 eigenvalues not converged
     c_bands:  2 eigenvalues not converged
     c_bands:  2 eigenvalues not converged
     c_bands:  1 eigenvalues not converged
     c_bands:  1 eigenvalues not converged
     c_bands:  1 eigenvalues not converged
     c_bands:  1 eigenvalues not converged
     c_bands:  1 eigenvalues not converged
     c_bands:  2 eigenvalues not converged
     c_bands:  2 eigenvalues not converged
     c_bands:  1 eigenvalues not converged
     c_bands:  3 eigenvalues not converged
     c_bands:  1 eigenvalues not converged
     c_bands:  4 eigenvalues not converged
     c_bands:  2 eigenvalues not converged
     c_bands:  2 eigenvalues not converged
     c_bands:  2 eigenvalues not converged
     c_bands:  1 eigenvalues not converged
     c_bands:  2 eigenvalues not converged
     c_bands:  2 eigenvalues not converged
     c_bands:  1 eigenvalues not converged
     c_bands:  5 eigenvalues not converged
     c_bands:  4 eigenvalues not converged
     c_bands:  2 eigenvalues not converged
     c_bands:  2 eigenvalues not converged
     c_bands:  1 eigenvalues not converged
     c_bands:  3 eigenvalues not converged
     c_bands:  2 eigenvalues not converged
     c_bands:  1 eigenvalues not converged
     c_bands:  1 eigenvalues not converged
     c_bands:  1 eigenvalues not converged
     c_bands:  1 eigenvalues not converged
     c_bands:  3 eigenvalues not converged
     c_bands:  2 eigenvalues not converged
     c_bands:  3 eigenvalues not converged
     c_bands:  2 eigenvalues not converged
     c_bands:  1 eigenvalues not converged
     ethr =  6.99E-07,  avg # of iterations = 16.5

     negative rho (up, down):  5.657E-04 0.000E+00

     Adding external electric field

     Computed dipole along edir(3) : 
        Dipole                0.1047 Ry au,          0.2662 Debye
        Dipole field          0.0002 Ry au, 

        Potential amp.       -0.0187 Ry
        Total length         46.4731 bohr


     total cpu time spent up to now is     8328.4 secs

     total energy              =   -1161.84733855 Ry
     estimated scf accuracy    <       0.00150695 Ry

     iteration # 15     ecut=    55.12 Ry     beta= 0.10
     Davidson diagonalization with overlap
     c_bands:  2 eigenvalues not converged
     c_bands:  3 eigenvalues not converged
     c_bands:  1 eigenvalues not converged
     c_bands:  2 eigenvalues not converged
     c_bands:  1 eigenvalues not converged
     c_bands:  2 eigenvalues not converged
     c_bands:  3 eigenvalues not converged
     c_bands:  2 eigenvalues not converged
     c_bands:  2 eigenvalues not converged
     c_bands:  2 eigenvalues not converged
     c_bands:  2 eigenvalues not converged
     c_bands:  2 eigenvalues not converged
     c_bands:  1 eigenvalues not converged
     c_bands:  2 eigenvalues not converged
     c_bands:  1 eigenvalues not converged
     c_bands:  2 eigenvalues not converged
     c_bands:  1 eigenvalues not converged
     c_bands:  2 eigenvalues not converged
     c_bands:  2 eigenvalues not converged
     c_bands:  3 eigenvalues not converged
     c_bands:  2 eigenvalues not converged
     c_bands:  1 eigenvalues not converged
     c_bands:  1 eigenvalues not converged
     c_bands:  2 eigenvalues not converged
     c_bands:  1 eigenvalues not converged
     ethr =  6.99E-07,  avg # of iterations =  8.2

     negative rho (up, down):  5.567E-04 0.000E+00

     Adding external electric field

     Computed dipole along edir(3) : 
        Dipole                0.1040 Ry au,          0.2642 Debye
        Dipole field          0.0002 Ry au, 

        Potential amp.       -0.0185 Ry
        Total length         46.4731 bohr


     total cpu time spent up to now is     8649.2 secs

     total energy              =   -1161.84719762 Ry
     estimated scf accuracy    <       0.00086880 Ry

     iteration # 16     ecut=    55.12 Ry     beta= 0.10
     Davidson diagonalization with overlap
     c_bands:  1 eigenvalues not converged
     c_bands:  1 eigenvalues not converged
     c_bands:  1 eigenvalues not converged
     c_bands:  1 eigenvalues not converged
     c_bands:  2 eigenvalues not converged
     c_bands:  1 eigenvalues not converged
     c_bands:  2 eigenvalues not converged
     c_bands:  1 eigenvalues not converged
     c_bands:  1 eigenvalues not converged
     ethr =  6.90E-07,  avg # of iterations =  9.0

     negative rho (up, down):  5.537E-04 0.000E+00

     Adding external electric field

     Computed dipole along edir(3) : 
        Dipole                0.1067 Ry au,          0.2711 Debye
        Dipole field          0.0002 Ry au, 

        Potential amp.       -0.0190 Ry
        Total length         46.4731 bohr


     total cpu time spent up to now is     8994.8 secs

     total energy              =   -1161.84729999 Ry
     estimated scf accuracy    <       0.00003866 Ry

     iteration # 17     ecut=    55.12 Ry     beta= 0.10
     Davidson diagonalization with overlap
     c_bands:  1 eigenvalues not converged
     c_bands:  2 eigenvalues not converged
     c_bands:  2 eigenvalues not converged
     c_bands:  1 eigenvalues not converged
     c_bands:  1 eigenvalues not converged
     c_bands:  2 eigenvalues not converged
     c_bands:  1 eigenvalues not converged
     c_bands:  1 eigenvalues not converged
     c_bands:  1 eigenvalues not converged
     ethr =  3.07E-08,  avg # of iterations = 16.0

     negative rho (up, down):  5.430E-04 0.000E+00

     Adding external electric field

     Computed dipole along edir(3) : 
        Dipole                0.1065 Ry au,          0.2708 Debye
        Dipole field          0.0002 Ry au, 

        Potential amp.       -0.0190 Ry
        Total length         46.4731 bohr


     total cpu time spent up to now is     9770.0 secs

     total energy              =   -1161.84733741 Ry
     estimated scf accuracy    <       0.00002963 Ry

     iteration # 18     ecut=    55.12 Ry     beta= 0.10
     Davidson diagonalization with overlap
     c_bands:  2 eigenvalues not converged
     c_bands:  2 eigenvalues not converged
     c_bands:  3 eigenvalues not converged
     c_bands:  1 eigenvalues not converged
     c_bands:  1 eigenvalues not converged
     ethr =  2.35E-08,  avg # of iterations =  9.0

     negative rho (up, down):  5.370E-04 0.000E+00

     Adding external electric field

     Computed dipole along edir(3) : 
        Dipole                0.1052 Ry au,          0.2674 Debye
        Dipole field          0.0002 Ry au, 

        Potential amp.       -0.0188 Ry
        Total length         46.4731 bohr


     total cpu time spent up to now is    10202.4 secs

     total energy              =   -1161.84734638 Ry
     estimated scf accuracy    <       0.00001732 Ry

     iteration # 19     ecut=    55.12 Ry     beta= 0.10
     Davidson diagonalization with overlap
     c_bands:  1 eigenvalues not converged
     c_bands:  1 eigenvalues not converged
     c_bands:  2 eigenvalues not converged
     c_bands:  1 eigenvalues not converged
     ethr =  1.37E-08,  avg # of iterations = 11.0

     negative rho (up, down):  5.353E-04 0.000E+00

     Adding external electric field

     Computed dipole along edir(3) : 
        Dipole                0.1064 Ry au,          0.2704 Debye
        Dipole field          0.0002 Ry au, 

        Potential amp.       -0.0190 Ry
        Total length         46.4731 bohr


     total cpu time spent up to now is    10773.9 secs

     total energy              =   -1161.84732222 Ry
     estimated scf accuracy    <       0.00014965 Ry

     iteration # 20     ecut=    55.12 Ry     beta= 0.10
     Davidson diagonalization with overlap
     c_bands:  1 eigenvalues not converged
     c_bands:  1 eigenvalues not converged
     ethr =  1.37E-08,  avg # of iterations = 11.5

     negative rho (up, down):  5.133E-04 0.000E+00

     Adding external electric field

     Computed dipole along edir(3) : 
        Dipole                0.1071 Ry au,          0.2723 Debye
        Dipole field          0.0002 Ry au, 

        Potential amp.       -0.0191 Ry
        Total length         46.4731 bohr


     total cpu time spent up to now is    11406.8 secs

     End of self-consistent calculation

          k = 0.0000 0.0000 0.0000 ( 45339 PWs)   bands (ev):

   -31.5577 -31.5296 -31.4795 -31.4517 -30.8555 -30.7804 -15.5850 -15.5550
   -15.3793 -15.3177 -15.3162 -15.2568 -15.2205 -15.2006 -15.1597 -15.0804
   -15.0195 -14.7735 -14.7487 -14.5894 -14.5208 -14.4185 -14.4095 -14.1565
    -3.2998  -2.5406  -2.5119  -2.4768  -2.2608  -2.0369  -1.9303  -1.7752
    -1.7191  -1.6797  -1.6526  -1.4868  -1.3269  -1.3088  -1.2938  -1.1974
    -1.1160  -1.1080  -1.0988  -0.9323  -0.9035  -0.8477  -0.6682  -0.6013
    -0.5951  -0.5015  -0.3869  -0.2286  -0.1644  -0.0364   0.0259   0.0778
     0.2321   0.4748   0.5023   0.7590   2.1018   2.2971   2.4832   2.4868
     2.4880   2.7150   2.8643   2.9999   3.0253   3.0575   3.1091   3.1420
     3.1424   3.1454   3.1692   3.1922

          k = 0.0000 0.0138 0.0000 ( 45292 PWs)   bands (ev):

   -31.5563 -31.5282 -31.4808 -31.4530 -30.8542 -30.7816 -15.5731 -15.5432
   -15.3779 -15.3198 -15.3193 -15.2517 -15.2282 -15.1966 -15.1618 -15.0841
   -15.0064 -14.7896 -14.7648 -14.5855 -14.5202 -14.4211 -14.4126 -14.1735
    -3.2524  -2.5033  -2.4840  -2.4470  -2.2196  -2.0100  -1.9177  -1.7479
    -1.6925  -1.6604  -1.6350  -1.4596  -1.3121  -1.2992  -1.2799  -1.1889
    -1.1190  -1.1136  -1.0737  -0.9265  -0.9031  -0.8425  -0.6648  -0.5958
    -0.5941  -0.5397  -0.3635  -0.2430  -0.1710  -0.0397  -0.0019   0.0743
     0.2291   0.4187   0.4417   0.6841   2.1423   2.2842   2.4566   2.4923
     2.5426   2.6949   2.8396   2.9640   3.0350   3.0594   3.0888   3.1318
     3.1529   3.1762   3.1789   3.1823

          k = 0.0000 0.0277 0.0000 ( 45311 PWs)   bands (ev):

   -31.5523 -31.5243 -31.4846 -31.4568 -30.8503 -30.7853 -15.5381 -15.5082
   -15.3741 -15.3272 -15.3238 -15.2438 -15.2395 -15.1918 -15.1672 -15.0943
   -14.9682 -14.8360 -14.8113 -14.5747 -14.5183 -14.4285 -14.4215 -14.2229
    -3.1157  -2.4070  -2.3948  -2.3639  -2.1049  -1.9328  -1.8798  -1.6820
    -1.6206  -1.6088  -1.5819  -1.3846  -1.2674  -1.2596  -1.2409  -1.1659
    -1.1272  -1.1019  -1.0238  -0.9154  -0.8984  -0.8262  -0.6705  -0.6250
    -0.5704  -0.5684  -0.3428  -0.2882  -0.1835  -0.0978  -0.0481   0.0507
     0.2234   0.2694   0.3041   0.5091   2.2320   2.2359   2.3752   2.5156
     2.6339   2.6594   2.7919   2.9061   2.9437   3.0268   3.0877   3.1278
     3.1516   3.1903   3.2110   3.2121

          k = 0.0000 0.0415 0.0000 ( 45273 PWs)   bands (ev):

   -31.5460 -31.5180 -31.4907 -31.4629 -30.8443 -30.7911 -15.4816 -15.4518
   -15.3688 -15.3332 -15.3303 -15.2621 -15.2244 -15.1894 -15.1743 -15.1092
   -14.9081 -14.9070 -14.8834 -14.5585 -14.5145 -14.4404 -14.4348 -14.2995
    -2.9060  -2.3015  -2.2446  -2.2264  -1.9523  -1.8250  -1.8022  -1.6178
    -1.5324  -1.5282  -1.5062  -1.2884  -1.1993  -1.1927  -1.1659  -1.1357
    -1.1206  -1.0662  -0.9514  -0.9034  -0.8832  -0.7942  -0.7113  -0.6857
    -0.5405  -0.5220  -0.3808  -0.3615  -0.2721  -0.1893  -0.0583  -0.0553
     0.0905   0.1906   0.2225   0.3297   2.1378   2.2493   2.3405   2.5205
     2.5398   2.6735   2.7578   2.8232   2.8464   2.8827   3.0702   3.1340
     3.1439   3.1920   3.2248   3.2293

          k = 0.0000 0.0554 0.0000 ( 45285 PWs)   bands (ev):

   -31.5377 -31.5098 -31.4986 -31.4708 -30.8364 -30.7988 -15.4070 -15.3773
   -15.3634 -15.3366 -15.3340 -15.2806 -15.2087 -15.1889 -15.1806 -15.1269
   -14.9990 -14.9740 -14.8255 -14.5388 -14.5085 -14.4562 -14.4507 -14.3956
    -2.6526  -2.2024  -2.1114  -2.0183  -1.8528  -1.6881  -1.6647  -1.5852
    -1.4519  -1.4465  -1.4279  -1.2227  -1.1706  -1.1271  -1.1148  -1.0752
    -1.0295  -0.9930  -0.8949  -0.8670  -0.8309  -0.7843  -0.7495  -0.6907
    -0.5808  -0.5067  -0.4963  -0.4124  -0.3982  -0.2613  -0.2010  -0.0854
    -0.0460   0.1350   0.2272   0.2296   1.9986   2.1447   2.3722   2.4009
     2.4065   2.5099   2.6523   2.7039   2.8293   2.8556   3.0063   3.0770
     3.1481   3.1954   3.2006   3.2706

          k = 0.0000 0.0692 0.0000 ( 45248 PWs)   bands (ev):

   -31.5282 -31.5080 -31.5003 -31.4801 -30.8272 -30.8078 -15.3592 -15.3517
   -15.3277 -15.3116 -15.3023 -15.2809 -15.1969 -15.1887 -15.1822 -15.1451
   -15.0999 -15.0746 -14.7281 -14.5197 -14.5141 -14.4866 -14.4748 -14.4672
    -2.4019  -2.1577  -1.9861  -1.8512  -1.7902  -1.5900  -1.5340  -1.5181
    -1.4131  -1.3760  -1.3621  -1.2209  -1.1962  -1.1262  -1.0520  -1.0016
    -0.9405  -0.9393  -0.8917  -0.8376  -0.8178  -0.7855  -0.7431  -0.6919
    -0.6255  -0.5904  -0.4823  -0.4576  -0.4494  -0.3321  -0.2787  -0.2327
    -0.0034   0.1350   0.1661   0.2275   1.8834   2.0570   2.1141   2.2047
     2.4419   2.4537   2.4800   2.6141   2.8525   2.8652   2.9555   2.9977
     3.1596   3.1925   3.1986   3.2841

          k = 0.0000-0.0830 0.0000 ( 45266 PWs)   bands (ev):

   -31.5180 -31.5180 -31.4902 -31.4902 -30.8176 -30.8173 -15.3550 -15.3549
   -15.3160 -15.3160 -15.2173 -15.2172 -15.1965 -15.1965 -15.1778 -15.1777
   -15.1561 -15.1561 -14.6205 -14.6203 -14.4956 -14.4955 -14.4822 -14.4820
    -2.2197  -2.2197  -1.8903  -1.8903  -1.6477  -1.6476  -1.4395  -1.4394
    -1.3786  -1.3785  -1.2740  -1.2740  -1.2238  -1.2237  -0.9956  -0.9954
    -0.9426  -0.9426  -0.8306  -0.8306  -0.8113  -0.8112  -0.7123  -0.7122
    -0.6025  -0.6025  -0.4993  -0.4992  -0.4141  -0.4141  -0.2761  -0.2761
     0.0768   0.0768   0.1889   0.1890   1.9018   1.9021   2.0847   2.0848
     2.4062   2.4063   2.5292   2.5293   2.8722   2.8725   2.9427   2.9430
     3.1779   3.1792   3.2272   3.2277

          k = 0.0130-0.0046 0.0000 ( 45292 PWs)   bands (ev):

   -31.5563 -31.5282 -31.4808 -31.4530 -30.8542 -30.7816 -15.5731 -15.5432
   -15.3779 -15.3198 -15.3193 -15.2517 -15.2282 -15.1966 -15.1618 -15.0841
   -15.0064 -14.7896 -14.7648 -14.5855 -14.5202 -14.4211 -14.4126 -14.1735
    -3.2524  -2.5033  -2.4840  -2.4470  -2.2196  -2.0100  -1.9177  -1.7479
    -1.6925  -1.6604  -1.6350  -1.4596  -1.3121  -1.2992  -1.2799  -1.1889
    -1.1190  -1.1136  -1.0737  -0.9265  -0.9031  -0.8425  -0.6648  -0.5958
    -0.5941  -0.5397  -0.3635  -0.2430  -0.1710  -0.0397  -0.0019   0.0743
     0.2291   0.4187   0.4417   0.6841   2.1423   2.2842   2.4566   2.4923
     2.5426   2.6954   2.8386   2.9645   3.0352   3.0606   3.0888   3.1324
     3.1536   3.1728   3.1795   3.1830

          k = 0.0130 0.0092 0.0000 ( 45341 PWs)   bands (ev):

   -31.5574 -31.5293 -31.4796 -31.4518 -30.8556 -30.7801 -15.5879 -15.5574
   -15.3802 -15.3346 -15.3138 -15.2446 -15.2343 -15.1839 -15.1722 -15.0838
   -15.0208 -14.7741 -14.7493 -14.5820 -14.5231 -14.4223 -14.4124 -14.1577
    -3.2343  -2.4955  -2.4681  -2.4257  -2.2006  -2.0157  -1.9059  -1.7235
    -1.6948  -1.6470  -1.6189  -1.4616  -1.2989  -1.2787  -1.2761  -1.1860
    -1.1083  -1.0945  -1.0868  -0.9283  -0.8787  -0.8515  -0.6515  -0.5955
    -0.5932  -0.5091  -0.3944  -0.2432  -0.1650  -0.0519   0.0209   0.0812
     0.2320   0.4697   0.5005   0.7592   2.0125   2.2123   2.3415   2.3951
     2.4568   2.6067   2.7762   2.9549   3.0125   3.0472   3.1157   3.1369
     3.1488   3.1992   3.2144   3.2159

          k = 0.0130 0.0230 0.0000 ( 45317 PWs)   bands (ev):

   -31.5557 -31.5277 -31.4810 -31.4532 -30.8544 -30.7810 -15.5787 -15.5478
   -15.3814 -15.3474 -15.3116 -15.2452 -15.2350 -15.1848 -15.1738 -15.0907
   -15.0089 -14.7905 -14.7658 -14.5719 -14.5245 -14.4285 -14.4181 -14.1758
    -3.1251  -2.4172  -2.4004  -2.3505  -2.1062  -1.9687  -1.8690  -1.6566
    -1.6471  -1.5987  -1.5687  -1.4119  -1.2529  -1.2452  -1.2393  -1.1663
    -1.1038  -1.0890  -1.0437  -0.9240  -0.8683  -0.8348  -0.6467  -0.5882
    -0.5747  -0.5519  -0.3774  -0.2723  -0.1735  -0.0679  -0.0031   0.0742
     0.2304   0.4020   0.4361   0.6813   1.9799   2.1060   2.2068   2.3640
     2.4002   2.5506   2.7219   2.9212   2.9320   2.9792   3.0957   3.1548
     3.1578   3.1841   3.2345   3.2443

          k = 0.0130 0.0369 0.0000 ( 45282 PWs)   bands (ev):

   -31.5515 -31.5235 -31.4849 -31.4571 -30.8507 -30.7845 -15.5457 -15.5144
   -15.3832 -15.3534 -15.3124 -15.2586 -15.2246 -15.1968 -15.1674 -15.1031
   -14.9716 -14.8367 -14.8121 -14.5570 -14.5233 -14.4391 -14.4286 -14.2256
    -2.9379  -2.2990  -2.2784  -2.2374  -1.9646  -1.8779  -1.8024  -1.5925
    -1.5657  -1.5192  -1.4953  -1.3256  -1.2041  -1.1780  -1.1674  -1.1194
    -1.1058  -1.0651  -0.9657  -0.9222  -0.8716  -0.7868  -0.6737  -0.6363
    -0.5424  -0.5312  -0.3601  -0.3326  -0.1947  -0.0890  -0.0787   0.0368
     0.2305   0.2463   0.2719   0.5013   1.9705   2.0263   2.0834   2.2961
     2.3730   2.5508   2.6998   2.7924   2.8537   2.8620   3.0627   3.1284
     3.1516   3.1801   3.2237   3.2382

          k = 0.0130 0.0507 0.0000 ( 45283 PWs)   bands (ev):

   -31.5450 -31.5171 -31.4911 -31.4633 -30.8447 -30.7902 -15.4900 -15.4587
   -15.3861 -15.3512 -15.3154 -15.2731 -15.2167 -15.2029 -15.1641 -15.1192
   -14.9106 -14.9079 -14.8833 -14.5389 -14.5189 -14.4538 -14.4422 -14.3017
    -2.6972  -2.1942  -2.1074  -2.0937  -1.8453  -1.7621  -1.6791  -1.5562
    -1.4786  -1.4410  -1.4097  -1.2370  -1.1833  -1.1156  -1.1106  -1.0911
    -1.0262  -0.9871  -0.9175  -0.8749  -0.8439  -0.7347  -0.7271  -0.6712
    -0.5039  -0.4768  -0.4278  -0.3810  -0.2816  -0.2218  -0.0963  -0.0665
     0.0602   0.1694   0.2337   0.3109   1.8308   1.9660   2.1222   2.1574
     2.2542   2.5686   2.6256   2.7063   2.7791   2.7796   2.9942   3.0699
     3.1103   3.1865   3.2055   3.2317

          k = 0.0130 0.0646 0.0000 ( 45264 PWs)   bands (ev):

   -31.5368 -31.5089 -31.4992 -31.4714 -30.8369 -30.7979 -15.4146 -15.3870
   -15.3835 -15.3429 -15.3197 -15.2869 -15.2181 -15.1946 -15.1631 -15.1370
   -14.9973 -14.9726 -14.8287 -14.5193 -14.5111 -14.4718 -14.4572 -14.3968
    -2.4415  -2.1277  -1.9809  -1.8867  -1.8060  -1.6187  -1.5468  -1.5267
    -1.4079  -1.3990  -1.3335  -1.2081  -1.1962  -1.0742  -1.0711  -1.0093
    -0.9958  -0.9043  -0.8869  -0.8485  -0.7901  -0.7361  -0.7289  -0.6194
    -0.5891  -0.5015  -0.4692  -0.4342  -0.4180  -0.2824  -0.2562  -0.1199
    -0.0134   0.1525   0.1748   0.2203   1.7487   1.9152   2.0066   2.0199
     2.2334   2.4488   2.5653   2.7185   2.7567   2.8315   2.8617   3.0017
     3.1120   3.1967   3.2066   3.2477

          k = 0.0130-0.0877 0.0000 ( 45252 PWs)   bands (ev):

   -31.5273 -31.5086 -31.4995 -31.4808 -30.8279 -30.8069 -15.3839 -15.3367
   -15.3302 -15.3126 -15.3045 -15.2857 -15.2200 -15.1812 -15.1663 -15.1515
   -15.0970 -15.0723 -14.7303 -14.5171 -14.4985 -14.4921 -14.4865 -14.4718
    -2.2294  -2.1494  -1.8781  -1.8478  -1.6791  -1.5712  -1.4754  -1.4126
    -1.4117  -1.3417  -1.3077  -1.2411  -1.1967  -1.1521  -1.0349  -0.9717
    -0.9271  -0.9083  -0.8989  -0.8202  -0.8093  -0.7555  -0.7229  -0.6844
    -0.6187  -0.5710  -0.4947  -0.4813  -0.4483  -0.3459  -0.2954  -0.2573
     0.0619   0.0796   0.1658   0.1965   1.8085   1.8590   1.9199   1.9808
     2.3236   2.3908   2.5444   2.7153   2.7485   2.8279   2.9182   2.9723
     3.1385   3.1833   3.2275   3.2402

          k = 0.0130-0.0738 0.0000 ( 45267 PWs)   bands (ev):

   -31.5188 -31.5173 -31.4909 -31.4895 -30.8182 -30.8167 -15.3770 -15.3377
   -15.3139 -15.3069 -15.2223 -15.2209 -15.2037 -15.1931 -15.1801 -15.1758
   -15.1531 -15.1511 -14.6210 -14.6190 -14.5137 -14.4845 -14.4803 -14.4787
    -2.2930  -2.1275  -1.9335  -1.8203  -1.6674  -1.5682  -1.4925  -1.3917
    -1.3906  -1.3696  -1.3015  -1.2430  -1.2276  -1.1613  -1.0195  -1.0151
    -0.9745  -0.9011  -0.8637  -0.8271  -0.8208  -0.8113  -0.7467  -0.7086
    -0.6659  -0.6333  -0.5098  -0.4761  -0.4580  -0.4248  -0.3409  -0.2174
    -0.0097   0.1042   0.1673   0.2208   1.9088   1.9663   2.0522   2.0827
     2.4252   2.4792   2.5623   2.6491   2.8178   2.9050   2.9286   3.0459
     3.1500   3.1656   3.1887   3.2505

          k = 0.0130-0.0600 0.0000 ( 45264 PWs)   bands (ev):

   -31.5290 -31.5074 -31.5010 -31.4796 -30.8266 -30.8085 -15.3684 -15.3474
   -15.3084 -15.3063 -15.2949 -15.2760 -15.2139 -15.2069 -15.1571 -15.1399
   -15.1036 -15.0776 -14.7259 -14.5358 -14.5121 -14.4898 -14.4634 -14.4608
    -2.5290  -2.1488  -2.0562  -1.8758  -1.8101  -1.6237  -1.5524  -1.5427
    -1.4273  -1.4062  -1.3799  -1.2276  -1.1418  -1.1246  -1.1066  -1.0225
    -1.0040  -0.9877  -0.8679  -0.8587  -0.8401  -0.8182  -0.7813  -0.7487
    -0.6988  -0.5990  -0.5241  -0.4603  -0.4351  -0.3713  -0.2679  -0.1803
    -0.0385   0.0990   0.2067   0.2144   2.0878   2.1670   2.2328   2.3645
     2.5381   2.6117   2.6369   2.6575   2.9175   2.9191   3.0082   3.0875
     3.1258   3.1676   3.1816   3.2021

          k = 0.0130-0.0462 0.0000 ( 45263 PWs)   bands (ev):

   -31.5385 -31.5104 -31.4982 -31.4705 -30.8360 -30.7995 -15.4018 -15.3733
   -15.3576 -15.3470 -15.3068 -15.2710 -15.2256 -15.2115 -15.1537 -15.1214
   -15.0006 -14.9754 -14.8230 -14.5552 -14.5054 -14.4462 -14.4451 -14.3952
    -2.7884  -2.2434  -2.1924  -2.1010  -1.8718  -1.7862  -1.7080  -1.5747
    -1.5068  -1.4749  -1.4508  -1.2466  -1.2011  -1.1766  -1.1426  -1.1217
    -1.0952  -1.0522  -0.9306  -0.9062  -0.8713  -0.7904  -0.7631  -0.6925
    -0.5599  -0.5509  -0.5348  -0.4103  -0.4047  -0.2397  -0.1677  -0.0656
    -0.0411   0.1416   0.2056   0.2364   2.2511   2.3655   2.4016   2.5546
     2.6800   2.6841   2.7162   2.8263   2.9087   2.9988   3.0727   3.0826
     3.1631   3.1740   3.1761   3.1900

          k = 0.0130-0.0323 0.0000 ( 45282 PWs)   bands (ev):

   -31.5465 -31.5185 -31.4905 -31.4627 -30.8440 -30.7917 -15.4767 -15.4478
   -15.3665 -15.3385 -15.3051 -15.2496 -15.2425 -15.2094 -15.1528 -15.1044
   -14.9083 -14.9048 -14.8836 -14.5713 -14.5114 -14.4330 -14.4304 -14.2983
    -3.0158  -2.3549  -2.3180  -2.2980  -2.0219  -1.8673  -1.8465  -1.6456
    -1.5766  -1.5580  -1.5468  -1.3117  -1.2779  -1.2567  -1.2074  -1.1472
    -1.1405  -1.0963  -0.9912  -0.9270  -0.8925  -0.8121  -0.6957  -0.6668
    -0.5796  -0.5626  -0.3588  -0.3373  -0.2899  -0.1744  -0.0400  -0.0358
     0.0994   0.2090   0.2170   0.3303   2.3229   2.4388   2.5185   2.5196
     2.7243   2.8317   2.8674   2.9049   2.9566   2.9855   3.0402   3.0639
     3.1415   3.1867   3.2107   3.2421

          k = 0.0130-0.0185 0.0000 ( 45269 PWs)   bands (ev):

   -31.5526 -31.5245 -31.4845 -31.4567 -30.8502 -30.7856 -15.5354 -15.5059
   -15.3734 -15.3279 -15.3084 -15.2523 -15.2326 -15.2063 -15.1552 -15.0914
   -14.9670 -14.8358 -14.8111 -14.5818 -14.5163 -14.4247 -14.4189 -14.2219
    -3.1769  -2.4432  -2.4363  -2.4089  -2.1563  -1.9518  -1.9043  -1.7158
    -1.6384  -1.6329  -1.6170  -1.4046  -1.3015  -1.3009  -1.2554  -1.1729
    -1.1337  -1.1157  -1.0405  -0.9214  -0.9123  -0.8294  -0.6653  -0.6225
    -0.5843  -0.5829  -0.3389  -0.2712  -0.1796  -0.1029  -0.0342   0.0559
     0.2198   0.2702   0.3218   0.5112   2.3094   2.3241   2.5265   2.5269
     2.7470   2.7505   2.8622   2.9638   3.0003   3.0041   3.0733   3.0961
     3.1393   3.1701   3.1917   3.2754

          k = 0.0261-0.0093 0.0000 ( 45311 PWs)   bands (ev):

   -31.5523 -31.5243 -31.4846 -31.4568 -30.8503 -30.7853 -15.5381 -15.5082
   -15.3741 -15.3272 -15.3238 -15.2438 -15.2395 -15.1918 -15.1672 -15.0943
   -14.9682 -14.8360 -14.8113 -14.5747 -14.5183 -14.4285 -14.4215 -14.2229
    -3.1157  -2.4070  -2.3948  -2.3639  -2.1049  -1.9328  -1.8798  -1.6820
    -1.6206  -1.6088  -1.5819  -1.3846  -1.2674  -1.2596  -1.2409  -1.1659
    -1.1272  -1.1019  -1.0238  -0.9154  -0.8984  -0.8262  -0.6705  -0.6250
    -0.5704  -0.5684  -0.3428  -0.2882  -0.1835  -0.0978  -0.0481   0.0507
     0.2234   0.2694   0.3041   0.5091   2.2320   2.2359   2.3752   2.5156
     2.6339   2.6592   2.7917   2.9062   2.9426   3.0273   3.0867   3.1243
     3.1491   3.1843   3.2092   3.2099

          k = 0.0261 0.0046 0.0000 ( 45317 PWs)   bands (ev):

   -31.5557 -31.5277 -31.4810 -31.4532 -30.8544 -30.7810 -15.5787 -15.5478
   -15.3814 -15.3474 -15.3116 -15.2452 -15.2350 -15.1848 -15.1738 -15.0907
   -15.0089 -14.7905 -14.7658 -14.5719 -14.5245 -14.4285 -14.4181 -14.1758
    -3.1251  -2.4172  -2.4004  -2.3505  -2.1062  -1.9687  -1.8690  -1.6566
    -1.6471  -1.5987  -1.5687  -1.4119  -1.2529  -1.2452  -1.2393  -1.1663
    -1.1038  -1.0890  -1.0437  -0.9240  -0.8683  -0.8348  -0.6467  -0.5882
    -0.5747  -0.5519  -0.3774  -0.2723  -0.1735  -0.0679  -0.0031   0.0742
     0.2304   0.4020   0.4361   0.6813   1.9799   2.1060   2.2068   2.3640
     2.4002   2.5506   2.7221   2.9214   2.9322   2.9796   3.0965   3.1540
     3.1599   3.1876   3.2348   3.2427

          k = 0.0261 0.0184 0.0000 ( 45335 PWs)   bands (ev):

   -31.5565 -31.5285 -31.4799 -31.4521 -30.8559 -30.7792 -15.5960 -15.5639
   -15.3906 -15.3604 -15.3028 -15.2506 -15.2305 -15.2028 -15.1591 -15.0940
   -15.0242 -14.7757 -14.7509 -14.5637 -14.5290 -14.4329 -14.4204 -14.1612
    -3.0443  -2.3705  -2.3394  -2.2823  -2.0346  -1.9500  -1.8327  -1.6233
    -1.5773  -1.5557  -1.5214  -1.3870  -1.2272  -1.2206  -1.1943  -1.1454
    -1.0834  -1.0522  -1.0470  -0.9239  -0.8621  -0.8105  -0.6067  -0.6022
    -0.5709  -0.5307  -0.4178  -0.2854  -0.1662  -0.0911   0.0146   0.0832
     0.2301   0.4489   0.5064   0.7610   1.7703   1.9458   2.0404   2.1408
     2.2360   2.5129   2.6534   2.8649   2.8711   2.9138   3.0350   3.1489
     3.1590   3.1952   3.1971   3.2288

          k = 0.0261 0.0322 0.0000 ( 45300 PWs)   bands (ev):

   -31.5547 -31.5268 -31.4813 -31.4535 -30.8547 -30.7800 -15.5885 -15.5555
   -15.4019 -15.3646 -15.2979 -15.2585 -15.2290 -15.2154 -15.1489 -15.1035
   -15.0131 -14.7922 -14.7675 -14.5513 -14.5307 -14.4416 -14.4276 -14.1799
    -2.8835  -2.2650  -2.2404  -2.1745  -1.9276  -1.8700  -1.7662  -1.5582
    -1.5098  -1.4689  -1.4472  -1.3183  -1.1912  -1.1516  -1.1367  -1.1030
    -1.0680  -1.0378  -0.9702  -0.9278  -0.8711  -0.7598  -0.6387  -0.5800
    -0.5545  -0.5436  -0.4101  -0.3273  -0.1775  -0.1077  -0.0006   0.0683
     0.2275   0.3566   0.4412   0.6755   1.7056   1.7747   1.8875   2.0435
     2.0623   2.5024   2.6080   2.7031   2.7520   2.8689   2.9852   3.0693
     3.1463   3.1946   3.2086   3.2177

          k = 0.0261 0.0461 0.0000 ( 45290 PWs)   bands (ev):

   -31.5504 -31.5225 -31.4853 -31.4575 -30.8511 -30.7834 -15.5560 -15.5226
   -15.4108 -15.3629 -15.2974 -15.2669 -15.2364 -15.2137 -15.1431 -15.1171
   -14.9760 -14.8378 -14.8132 -14.5364 -14.5286 -14.4542 -14.4383 -14.2294
    -2.6624  -2.1305  -2.1124  -2.0477  -1.8153  -1.7788  -1.6408  -1.4722
    -1.4679  -1.3974  -1.3497  -1.2335  -1.1721  -1.0933  -1.0895  -1.0456
    -1.0193  -0.9701  -0.9316  -0.8780  -0.8456  -0.7049  -0.6905  -0.6324
    -0.5082  -0.4937  -0.4041  -0.3942  -0.2105  -0.0980  -0.0885   0.0145
     0.1565   0.2225   0.2723   0.4773   1.6254   1.7507   1.8003   1.8839
     1.9712   2.5089   2.5191   2.5898   2.6456   2.8093   2.9486   2.9817
     3.1276   3.1377   3.1540   3.1903

          k = 0.0261 0.0599 0.0000 ( 45287 PWs)   bands (ev):

   -31.5440 -31.5161 -31.4916 -31.4637 -30.8452 -30.7892 -15.4996 -15.4663
   -15.4145 -15.3568 -15.3017 -15.2734 -15.2426 -15.2053 -15.1446 -15.1298
   -14.9146 -14.9079 -14.8834 -14.5230 -14.5190 -14.4701 -14.4509 -14.3047
    -2.4125  -2.0454  -1.9244  -1.9220  -1.7393  -1.6874  -1.4777  -1.4446
    -1.3918  -1.3521  -1.2762  -1.1942  -1.1769  -1.0627  -1.0395  -1.0188
    -0.9762  -0.9098  -0.8760  -0.8371  -0.7567  -0.7179  -0.7050  -0.6099
    -0.4736  -0.4711  -0.4471  -0.4251  -0.3461  -0.2581  -0.1512  -0.0406
     0.0035   0.1852   0.1936   0.2380   1.5544   1.7024   1.7169   1.8085
     1.9550   2.3684   2.5286   2.5938   2.6991   2.7582   2.9155   2.9191
     3.0828   3.1493   3.1595   3.1834

          k = 0.0261-0.0923 0.0000 ( 45256 PWs)   bands (ev):

   -31.5358 -31.5080 -31.4997 -31.4719 -30.8375 -30.7969 -15.4223 -15.4123
   -15.3894 -15.3463 -15.3102 -15.2766 -15.2441 -15.1934 -15.1600 -15.1327
   -14.9962 -14.9716 -14.8317 -14.5124 -14.5018 -14.4885 -14.4637 -14.3989
    -2.1822  -2.0296  -1.8171  -1.7619  -1.7076  -1.5578  -1.4428  -1.3482
    -1.3414  -1.3336  -1.2735  -1.2101  -1.1689  -1.0315  -1.0295  -0.9826
    -0.9552  -0.8950  -0.8670  -0.7977  -0.7871  -0.7252  -0.6832  -0.6356
    -0.6200  -0.5167  -0.4772  -0.4763  -0.4444  -0.3069  -0.2884  -0.1700
     0.0453   0.0657   0.1224   0.1999   1.5756   1.6808   1.6811   1.7743
     2.1031   2.3478   2.5591   2.6214   2.7340   2.8634   2.8731   2.8959
     3.0886   3.1694   3.1826   3.1978

          k = 0.0261-0.0785 0.0000 ( 45242 PWs)   bands (ev):

   -31.5265 -31.5092 -31.4987 -31.4813 -30.8285 -30.8062 -15.4044 -15.3345
   -15.3309 -15.3166 -15.2968 -15.2750 -15.2416 -15.1806 -15.1783 -15.1328
   -15.0955 -15.0708 -14.7318 -14.5134 -14.5085 -14.4899 -14.4842 -14.4758
    -2.1275  -2.0434  -1.8331  -1.7554  -1.5242  -1.4856  -1.4210  -1.4051
    -1.3140  -1.2886  -1.2639  -1.2558  -1.1752  -1.1451  -1.0473  -0.9652
    -0.9401  -0.9048  -0.9029  -0.8271  -0.8147  -0.7437  -0.7108  -0.7058
    -0.6949  -0.6426  -0.5135  -0.4943  -0.4734  -0.4479  -0.3566  -0.2191
    -0.0263   0.0521   0.1668   0.2104   1.6660   1.7865   1.8465   1.8989
     2.2459   2.4872   2.6039   2.6775   2.7675   2.8715   2.9094   3.0528
     3.1378   3.1472   3.1705   3.2412

          k = 0.0261-0.0646 0.0000 ( 45238 PWs)   bands (ev):

   -31.5194 -31.5167 -31.4914 -31.4890 -30.8188 -30.8162 -15.3920 -15.3355
   -15.3111 -15.2802 -15.2369 -15.2236 -15.2008 -15.2002 -15.1878 -15.1767
   -15.1553 -15.1332 -14.6209 -14.6175 -14.5284 -14.4864 -14.4786 -14.4681
    -2.3377  -2.0418  -1.9517  -1.7513  -1.6512  -1.5072  -1.4557  -1.4035
    -1.3760  -1.3328  -1.2908  -1.2322  -1.1811  -1.1088  -1.0727  -1.0438
    -0.9858  -0.9553  -0.8929  -0.8616  -0.8458  -0.8415  -0.7863  -0.7273
    -0.6969  -0.6939  -0.5614  -0.4917  -0.4801  -0.4503  -0.4005  -0.1801
    -0.0411   0.0485   0.1973   0.2042   1.9264   1.9835   2.0423   2.2042
     2.3568   2.6654   2.7108   2.7427   2.8693   2.9486   2.9517   3.0687
     3.1171   3.1518   3.1817   3.1962

          k = 0.0261-0.0508 0.0000 ( 45252 PWs)   bands (ev):

   -31.5294 -31.5071 -31.5014 -31.4793 -30.8263 -30.8090 -15.3778 -15.3468
   -15.3013 -15.2883 -15.2798 -15.2748 -15.2297 -15.2267 -15.1384 -15.1374
   -15.1065 -15.0803 -14.7244 -14.5471 -14.5066 -14.4947 -14.4610 -14.4534
    -2.5956  -2.1345  -2.0896  -1.9012  -1.7862  -1.6719  -1.5692  -1.4955
    -1.4467  -1.3800  -1.3450  -1.2329  -1.2108  -1.1712  -1.0937  -1.0433
    -1.0293  -1.0141  -0.9349  -0.9300  -0.8352  -0.8213  -0.7955  -0.7685
    -0.6706  -0.6172  -0.5735  -0.4724  -0.4685  -0.3802  -0.2592  -0.1585
    -0.0365   0.0908   0.1878   0.2127   2.1680   2.2474   2.3133   2.4627
     2.4980   2.6775   2.8414   2.8675   2.9820   2.9825   3.0517   3.0574
     3.1084   3.1200   3.1566   3.1995

          k = 0.0261-0.0370 0.0000 ( 45243 PWs)   bands (ev):

   -31.5387 -31.5107 -31.4981 -31.4703 -30.8358 -30.7997 -15.4001 -15.3721
   -15.3574 -15.3498 -15.2872 -15.2655 -15.2399 -15.2218 -15.1427 -15.1198
   -15.0013 -14.9760 -14.8221 -14.5617 -14.5040 -14.4443 -14.4414 -14.3952
    -2.8351  -2.2548  -2.2204  -2.1288  -1.8672  -1.8314  -1.7215  -1.5734
    -1.5171  -1.4778  -1.4411  -1.2748  -1.2343  -1.2257  -1.1550  -1.1319
    -1.0910  -1.0738  -0.9531  -0.9457  -0.8628  -0.7958  -0.7616  -0.6560
    -0.5890  -0.5639  -0.5475  -0.4127  -0.4087  -0.2334  -0.1593  -0.0585
    -0.0323   0.1498   0.1937   0.2339   2.3335   2.4102   2.4706   2.6180
     2.6818   2.7266   2.8078   2.9585   2.9625   2.9926   3.0815   3.0949
     3.1452   3.1586   3.1762   3.1822

          k = 0.0261-0.0231 0.0000 ( 45282 PWs)   bands (ev):

   -31.5465 -31.5185 -31.4905 -31.4627 -30.8440 -30.7917 -15.4767 -15.4478
   -15.3665 -15.3385 -15.3051 -15.2496 -15.2425 -15.2094 -15.1528 -15.1044
   -14.9083 -14.9048 -14.8836 -14.5713 -14.5114 -14.4330 -14.4304 -14.2983
    -3.0158  -2.3549  -2.3180  -2.2980  -2.0219  -1.8673  -1.8465  -1.6456
    -1.5766  -1.5580  -1.5468  -1.3117  -1.2779  -1.2567  -1.2074  -1.1472
    -1.1405  -1.0963  -0.9912  -0.9270  -0.8925  -0.8121  -0.6957  -0.6668
    -0.5796  -0.5626  -0.3588  -0.3373  -0.2899  -0.1744  -0.0400  -0.0358
     0.0994   0.2090   0.2170   0.3303   2.3229   2.4388   2.5185   2.5196
     2.7247   2.8318   2.8674   2.9042   2.9564   2.9864   3.0409   3.0638
     3.1424   3.1811   3.2170   3.2416

          k = 0.0391-0.0139 0.0000 ( 45273 PWs)   bands (ev):

   -31.5460 -31.5180 -31.4907 -31.4629 -30.8443 -30.7911 -15.4816 -15.4518
   -15.3688 -15.3332 -15.3303 -15.2621 -15.2244 -15.1894 -15.1743 -15.1092
   -14.9081 -14.9070 -14.8834 -14.5585 -14.5145 -14.4404 -14.4348 -14.2995
    -2.9060  -2.3015  -2.2446  -2.2264  -1.9523  -1.8250  -1.8022  -1.6178
    -1.5324  -1.5282  -1.5062  -1.2884  -1.1993  -1.1927  -1.1659  -1.1357
    -1.1206  -1.0662  -0.9514  -0.9034  -0.8832  -0.7942  -0.7113  -0.6857
    -0.5405  -0.5220  -0.3808  -0.3615  -0.2721  -0.1893  -0.0583  -0.0553
     0.0905   0.1906   0.2225   0.3297   2.1378   2.2493   2.3405   2.5205
     2.5398   2.6734   2.7571   2.8232   2.8470   2.8830   3.0705   3.1325
     3.1440   3.1924   3.2196   3.2268

          k = 0.0391-0.0001 0.0000 ( 45282 PWs)   bands (ev):

   -31.5515 -31.5235 -31.4849 -31.4571 -30.8507 -30.7845 -15.5457 -15.5144
   -15.3832 -15.3534 -15.3124 -15.2586 -15.2246 -15.1968 -15.1674 -15.1031
   -14.9716 -14.8367 -14.8121 -14.5570 -14.5233 -14.4391 -14.4286 -14.2256
    -2.9379  -2.2990  -2.2784  -2.2374  -1.9646  -1.8779  -1.8024  -1.5925
    -1.5657  -1.5192  -1.4953  -1.3256  -1.2041  -1.1780  -1.1674  -1.1194
    -1.1058  -1.0651  -0.9657  -0.9222  -0.8716  -0.7868  -0.6737  -0.6363
    -0.5424  -0.5312  -0.3601  -0.3326  -0.1947  -0.0890  -0.0787   0.0368
     0.2305   0.2463   0.2719   0.5013   1.9705   2.0263   2.0834   2.2961
     2.3730   2.5508   2.6998   2.7925   2.8536   2.8621   3.0630   3.1308
     3.1498   3.1817   3.2211   3.2891

          k = 0.0391 0.0137 0.0000 ( 45300 PWs)   bands (ev):

   -31.5547 -31.5268 -31.4813 -31.4535 -30.8547 -30.7800 -15.5885 -15.5555
   -15.4019 -15.3646 -15.2979 -15.2585 -15.2290 -15.2154 -15.1489 -15.1035
   -15.0131 -14.7922 -14.7675 -14.5513 -14.5307 -14.4416 -14.4276 -14.1799
    -2.8835  -2.2650  -2.2404  -2.1745  -1.9276  -1.8700  -1.7662  -1.5582
    -1.5098  -1.4689  -1.4472  -1.3183  -1.1912  -1.1516  -1.1367  -1.1030
    -1.0680  -1.0378  -0.9702  -0.9278  -0.8711  -0.7598  -0.6387  -0.5800
    -0.5544  -0.5436  -0.4101  -0.3273  -0.1775  -0.1077  -0.0006   0.0683
     0.2275   0.3566   0.4412   0.6755   1.7056   1.7747   1.8875   2.0435
     2.0623   2.5024   2.6080   2.7026   2.7511   2.8691   2.9859   3.0678
     3.1391   3.1590   3.1955   3.2099

          k = 0.0391 0.0276 0.0000 ( 45265 PWs)   bands (ev):

   -31.5554 -31.5275 -31.4802 -31.4524 -30.8562 -30.7781 -15.6070 -15.5727
   -15.4195 -15.3702 -15.2890 -15.2593 -15.2430 -15.2207 -15.1356 -15.1095
   -15.0290 -14.7778 -14.7530 -14.5426 -14.5353 -14.4477 -14.4313 -14.1660
    -2.7507  -2.1978  -2.1420  -2.0709  -1.8872  -1.7808  -1.6922  -1.5092
    -1.4315  -1.3737  -1.3727  -1.2620  -1.1402  -1.1156  -1.0884  -1.0766
    -1.0236  -0.9803  -0.9517  -0.9288  -0.8781  -0.7188  -0.6242  -0.5695
    -0.5411  -0.5390  -0.4609  -0.3524  -0.1672  -0.1321   0.0180   0.0703
     0.2166   0.4218   0.5247   0.7658   1.4333   1.5781   1.7271   1.7887
     1.8326   2.4506   2.5262   2.5392   2.5657   2.8328   2.9397   2.9605
     3.0266   3.0866   3.1824   3.2143

          k = 0.0391 0.0414 0.0000 ( 45278 PWs)   bands (ev):

   -31.5535 -31.5256 -31.4817 -31.4538 -30.8551 -30.7789 -15.5997 -15.5643
   -15.4322 -15.3724 -15.2876 -15.2583 -15.2556 -15.2202 -15.1313 -15.1166
   -15.0180 -14.7942 -14.7694 -14.5368 -14.5309 -14.4573 -14.4386 -14.1845
    -2.5562  -2.0870  -2.0286  -1.9474  -1.8182  -1.6987  -1.5639  -1.4293
    -1.3762  -1.3177  -1.2610  -1.1786  -1.1207  -1.0566  -1.0455  -1.0014
    -0.9757  -0.9571  -0.9158  -0.8820  -0.8329  -0.6795  -0.6584  -0.5948
    -0.5134  -0.5101  -0.4625  -0.4015  -0.1823  -0.1308   0.0086   0.0463
     0.1960   0.2907   0.4501   0.6588   1.3974   1.4178   1.5993   1.6120
     1.6713   2.3428   2.3964   2.4060   2.4699   2.7878   2.8652   2.9157
     2.9210   3.0649   3.1711   3.1963

          k = 0.0391 0.0553 0.0000 ( 45282 PWs)   bands (ev):

   -31.5493 -31.5215 -31.4857 -31.4578 -30.8515 -30.7823 -15.5662 -15.5305
   -15.4382 -15.3707 -15.2927 -15.2621 -15.2554 -15.2160 -15.1430 -15.1159
   -14.9804 -14.8390 -14.8144 -14.5329 -14.5184 -14.4699 -14.4480 -14.2333
    -2.3254  -1.9403  -1.9316  -1.8248  -1.7231  -1.6486  -1.4165  -1.3351
    -1.3315  -1.2870  -1.2019  -1.1292  -1.1262  -1.0372  -0.9890  -0.9720
    -0.9428  -0.9231  -0.8538  -0.8139  -0.7343  -0.7010  -0.6664  -0.5959
    -0.4885  -0.4728  -0.4522  -0.4442  -0.2244  -0.1247  -0.0773  -0.0221
     0.0499   0.1459   0.2777   0.4098   1.3249   1.4400   1.4809   1.5793
     1.6045   2.2290   2.3720   2.3964   2.4477   2.7762   2.8025   2.9034
     2.9095   3.0660   3.1346   3.1716

          k = 0.0391-0.0970 0.0000 ( 45277 PWs)   bands (ev):

   -31.5430 -31.5152 -31.4920 -31.4641 -30.8456 -30.7883 -15.5079 -15.4726
   -15.4371 -15.3640 -15.3014 -15.2628 -15.2520 -15.2076 -15.1617 -15.1145
   -14.9180 -14.9081 -14.8836 -14.5245 -14.5047 -14.4850 -14.4583 -14.3075
    -2.0953  -1.8867  -1.7635  -1.7244  -1.6497  -1.6161  -1.2970  -1.2939
    -1.2653  -1.2460  -1.2409  -1.1355  -1.1254  -1.0248  -0.9734  -0.9436
    -0.9128  -0.8662  -0.8570  -0.7873  -0.7446  -0.6997  -0.6462  -0.6149
    -0.4966  -0.4868  -0.4693  -0.4531  -0.4314  -0.2828  -0.2101  -0.0497
     0.0283   0.0716   0.0892   0.2195   1.2316   1.4475   1.4910   1.5726
     1.8085   2.2483   2.3584   2.4777   2.6056   2.7821   2.7848   2.9265
     2.9730   3.0783   3.0949   3.1667

          k = 0.0391-0.0831 0.0000 ( 45269 PWs)   bands (ev):

   -31.5351 -31.5073 -31.5002 -31.4722 -30.8379 -30.7963 -15.4291 -15.4280
   -15.3936 -15.3511 -15.3117 -15.2591 -15.2489 -15.1945 -15.1835 -15.1152
   -14.9956 -14.9711 -14.8338 -14.5119 -14.5017 -14.4907 -14.4685 -14.4009
    -1.9374  -1.9296  -1.7087  -1.6715  -1.5662  -1.5110  -1.3154  -1.2828
    -1.2429  -1.2350  -1.1963  -1.1609  -1.1495  -1.0005  -0.9856  -0.9416
    -0.9223  -0.8950  -0.8830  -0.8514  -0.7875  -0.7131  -0.7092  -0.6999
    -0.6534  -0.5979  -0.5544  -0.4671  -0.4571  -0.3528  -0.3472  -0.2110
    -0.0499  -0.0168   0.1645   0.2096   1.2854   1.5593   1.6253   1.7088
     2.0324   2.4029   2.4142   2.5655   2.7913   2.8092   2.8951   2.9716
     3.0646   3.0967   3.1458   3.1903

          k = 0.0391-0.0693 0.0000 ( 45257 PWs)   bands (ev):

   -31.5261 -31.5096 -31.4983 -31.4816 -30.8288 -30.8057 -15.4153 -15.3359
   -15.3323 -15.3194 -15.2977 -15.2523 -15.2461 -15.2061 -15.1774 -15.1186
   -15.0949 -15.0702 -14.7326 -14.5186 -14.5082 -14.4944 -14.4781 -14.4768
    -2.1080  -1.9081  -1.8198  -1.6793  -1.4244  -1.3796  -1.3671  -1.3381
    -1.2856  -1.2556  -1.2080  -1.1966  -1.1783  -1.1328  -1.0769  -1.0160
    -0.9742  -0.9348  -0.9292  -0.8312  -0.8186  -0.8099  -0.7272  -0.7189
    -0.7050  -0.6683  -0.5790  -0.5777  -0.4964  -0.4914  -0.4058  -0.2014
    -0.0522  -0.0136   0.1904   0.2055   1.5542   1.7511   1.8199   1.9876
     2.2087   2.5241   2.6456   2.6966   2.8208   2.8784   2.9889   3.0897
     3.1091   3.1307   3.1644   3.2094

          k = 0.0391-0.0554 0.0000 ( 45204 PWs)   bands (ev):

   -31.5196 -31.5166 -31.4916 -31.4888 -30.8190 -30.8160 -15.3973 -15.3359
   -15.3099 -15.2622 -15.2430 -15.2230 -15.2145 -15.1990 -15.1898 -15.1740
   -15.1579 -15.1256 -14.6208 -14.6169 -14.5341 -14.4871 -14.4781 -14.4642
    -2.3524  -2.0041  -1.9565  -1.7267  -1.6384  -1.4958  -1.4250  -1.4073
    -1.3680  -1.2269  -1.2261  -1.2183  -1.2123  -1.1778  -1.0930  -1.0492
    -1.0106  -0.9703  -0.9520  -0.9031  -0.8724  -0.8340  -0.7912  -0.7529
    -0.7113  -0.6473  -0.6037  -0.5130  -0.4951  -0.4654  -0.4174  -0.1709
    -0.0413   0.0336   0.1803   0.2103   1.9218   1.9444   2.1319   2.2628
     2.3165   2.6564   2.8475   2.8520   2.8658   2.9654   2.9949   3.0151
     3.0913   3.1404   3.2123   3.2614

          k = 0.0391-0.0416 0.0000 ( 45252 PWs)   bands (ev):

   -31.5294 -31.5071 -31.5014 -31.4793 -30.8263 -30.8090 -15.3778 -15.3468
   -15.3013 -15.2883 -15.2798 -15.2748 -15.2297 -15.2267 -15.1384 -15.1374
   -15.1065 -15.0803 -14.7244 -14.5471 -14.5066 -14.4947 -14.4610 -14.4534
    -2.5956  -2.1345  -2.0896  -1.9012  -1.7862  -1.6719  -1.5692  -1.4955
    -1.4467  -1.3800  -1.3450  -1.2329  -1.2108  -1.1712  -1.0937  -1.0433
    -1.0293  -1.0141  -0.9349  -0.9300  -0.8352  -0.8213  -0.7955  -0.7685
    -0.6706  -0.6172  -0.5735  -0.4724  -0.4685  -0.3802  -0.2592  -0.1585
    -0.0365   0.0908   0.1878   0.2127   2.1680   2.2474   2.3133   2.4627
     2.4980   2.6773   2.8418   2.8672   2.9823   2.9830   3.0506   3.0598
     3.1073   3.1175   3.1563   3.2049

          k = 0.0391-0.0278 0.0000 ( 45263 PWs)   bands (ev):

   -31.5385 -31.5104 -31.4982 -31.4705 -30.8360 -30.7995 -15.4018 -15.3733
   -15.3576 -15.3470 -15.3068 -15.2710 -15.2256 -15.2115 -15.1537 -15.1214
   -15.0006 -14.9754 -14.8230 -14.5552 -14.5054 -14.4462 -14.4451 -14.3952
    -2.7884  -2.2434  -2.1924  -2.1010  -1.8718  -1.7862  -1.7080  -1.5747
    -1.5068  -1.4749  -1.4508  -1.2466  -1.2011  -1.1766  -1.1426  -1.1217
    -1.0952  -1.0522  -0.9306  -0.9062  -0.8713  -0.7904  -0.7631  -0.6925
    -0.5599  -0.5509  -0.5348  -0.4103  -0.4047  -0.2397  -0.1677  -0.0656
    -0.0411   0.1416   0.2056   0.2364   2.2511   2.3655   2.4016   2.5546
     2.6801   2.6843   2.7169   2.8264   2.9080   2.9986   3.0709   3.0827
     3.1609   3.1714   3.1748   3.1887

          k = 0.0522-0.0186 0.0000 ( 45285 PWs)   bands (ev):

   -31.5377 -31.5098 -31.4986 -31.4708 -30.8364 -30.7988 -15.4070 -15.3773
   -15.3634 -15.3366 -15.3340 -15.2806 -15.2087 -15.1889 -15.1806 -15.1269
   -14.9990 -14.9740 -14.8255 -14.5388 -14.5085 -14.4562 -14.4507 -14.3956
    -2.6526  -2.2024  -2.1114  -2.0183  -1.8528  -1.6881  -1.6647  -1.5852
    -1.4519  -1.4465  -1.4279  -1.2227  -1.1706  -1.1271  -1.1148  -1.0752
    -1.0295  -0.9930  -0.8949  -0.8670  -0.8309  -0.7843  -0.7495  -0.6907
    -0.5808  -0.5067  -0.4963  -0.4124  -0.3982  -0.2613  -0.2010  -0.0854
    -0.0460   0.1350   0.2272   0.2296   1.9986   2.1447   2.3722   2.4009
     2.4065   2.5099   2.6521   2.7036   2.8291   2.8554   3.0063   3.0766
     3.1462   3.1926   3.1937   3.2391

          k = 0.0522-0.0047 0.0000 ( 45283 PWs)   bands (ev):

   -31.5450 -31.5171 -31.4911 -31.4633 -30.8447 -30.7902 -15.4900 -15.4587
   -15.3861 -15.3512 -15.3154 -15.2731 -15.2167 -15.2029 -15.1641 -15.1192
   -14.9106 -14.9079 -14.8833 -14.5389 -14.5189 -14.4538 -14.4422 -14.3017
    -2.6972  -2.1942  -2.1074  -2.0937  -1.8453  -1.7621  -1.6791  -1.5562
    -1.4786  -1.4410  -1.4097  -1.2370  -1.1833  -1.1156  -1.1106  -1.0911
    -1.0262  -0.9871  -0.9175  -0.8749  -0.8439  -0.7347  -0.7271  -0.6712
    -0.5039  -0.4768  -0.4278  -0.3810  -0.2816  -0.2218  -0.0963  -0.0665
     0.0602   0.1694   0.2337   0.3109   1.8308   1.9660   2.1222   2.1574
     2.2542   2.5686   2.6256   2.7067   2.7786   2.7793   2.9936   3.0686
     3.1105   3.1957   3.2047   3.2805

          k = 0.0522 0.0091 0.0000 ( 45290 PWs)   bands (ev):

   -31.5504 -31.5225 -31.4853 -31.4575 -30.8511 -30.7834 -15.5560 -15.5226
   -15.4108 -15.3629 -15.2974 -15.2669 -15.2364 -15.2137 -15.1431 -15.1171
   -14.9760 -14.8378 -14.8132 -14.5364 -14.5286 -14.4542 -14.4383 -14.2294
    -2.6624  -2.1305  -2.1124  -2.0477  -1.8153  -1.7788  -1.6408  -1.4722
    -1.4679  -1.3974  -1.3497  -1.2335  -1.1721  -1.0933  -1.0895  -1.0456
    -1.0193  -0.9701  -0.9316  -0.8780  -0.8456  -0.7049  -0.6905  -0.6324
    -0.5082  -0.4937  -0.4041  -0.3942  -0.2105  -0.0980  -0.0885   0.0145
     0.1565   0.2225   0.2723   0.4773   1.6254   1.7507   1.8003   1.8839
     1.9712   2.5089   2.5191   2.5898   2.6455   2.8091   2.9487   2.9813
     3.1285   3.1380   3.1541   3.1904

          k = 0.0522 0.0229 0.0000 ( 45278 PWs)   bands (ev):

   -31.5535 -31.5256 -31.4817 -31.4538 -30.8551 -30.7789 -15.5997 -15.5643
   -15.4322 -15.3724 -15.2876 -15.2583 -15.2556 -15.2202 -15.1313 -15.1166
   -15.0180 -14.7942 -14.7694 -14.5368 -14.5309 -14.4573 -14.4386 -14.1845
    -2.5562  -2.0870  -2.0286  -1.9474  -1.8182  -1.6987  -1.5639  -1.4293
    -1.3762  -1.3177  -1.2610  -1.1786  -1.1207  -1.0566  -1.0455  -1.0014
    -0.9757  -0.9571  -0.9158  -0.8820  -0.8329  -0.6795  -0.6584  -0.5948
    -0.5134  -0.5101  -0.4625  -0.4015  -0.1823  -0.1308   0.0086   0.0463
     0.1960   0.2907   0.4501   0.6588   1.3974   1.4178   1.5993   1.6120
     1.6713   2.3428   2.3964   2.4060   2.4699   2.7877   2.8634   2.9157
     2.9208   3.0642   3.1714   3.1961

          k = 0.0522 0.0368 0.0000 ( 45241 PWs)   bands (ev):

   -31.5542 -31.5264 -31.4805 -31.4527 -30.8566 -30.7770 -15.6181 -15.5812
   -15.4477 -15.3798 -15.2862 -15.2685 -15.2474 -15.2244 -15.1365 -15.1097
   -15.0339 -14.7800 -14.7551 -14.5407 -14.5244 -14.4630 -14.4422 -14.1707
    -2.3943  -2.0258  -1.9142  -1.8279  -1.7863  -1.6210  -1.4690  -1.3551
    -1.3263  -1.2056  -1.2046  -1.0795  -1.0279  -1.0270  -1.0012  -0.9992
    -0.9120  -0.8964  -0.8897  -0.8440  -0.7861  -0.6560  -0.6521  -0.5863
    -0.5158  -0.5152  -0.4811  -0.4314  -0.1676  -0.1458   0.0133   0.0493
     0.1516   0.4058   0.5432   0.7726   1.0704   1.2386   1.3684   1.4276
     1.5091   2.0503   2.1871   2.3033   2.3770   2.6832   2.7375   2.7601
     2.9148   3.0345   3.1608   3.1962

          k = 0.0522 0.0506 0.0000 ( 45282 PWs)   bands (ev):

   -31.5525 -31.5247 -31.4820 -31.4541 -30.8555 -30.7779 -15.6095 -15.5718
   -15.4560 -15.3833 -15.2895 -15.2747 -15.2371 -15.2249 -15.1501 -15.1037
   -15.0223 -14.7959 -14.7710 -14.5402 -14.5163 -14.4714 -14.4481 -14.1886
    -2.1995  -1.9329  -1.8150  -1.7243  -1.7111  -1.5637  -1.3752  -1.2922
    -1.2644  -1.1766  -1.1483  -1.0351  -1.0343  -1.0038  -0.9595  -0.9209
    -0.8986  -0.8445  -0.8135  -0.7683  -0.7078  -0.6765  -0.6393  -0.5792
    -0.5233  -0.4965  -0.4569  -0.4441  -0.1856  -0.1053  -0.0246   0.0399
     0.0785   0.2044   0.4535   0.6181   1.0491   1.1451   1.2604   1.2903
     1.4700   1.9394   2.0638   2.2165   2.3260   2.5619   2.6939   2.7256
     2.9130   3.0351   3.1573   3.1618

          k = 0.0522-0.1016 0.0000 ( 45292 PWs)   bands (ev):

   -31.5485 -31.5207 -31.4860 -31.4581 -30.8518 -30.7816 -15.5737 -15.5362
   -15.4564 -15.3806 -15.2957 -15.2751 -15.2287 -15.2203 -15.1680 -15.1013
   -14.9837 -14.8400 -14.8153 -14.5349 -14.5071 -14.4819 -14.4551 -14.2362
    -2.0006  -1.8103  -1.7579  -1.6508  -1.6220  -1.5464  -1.2852  -1.2717
    -1.1880  -1.1693  -1.1402  -1.0593  -1.0411  -1.0284  -0.9148  -0.8817
    -0.8611  -0.8116  -0.8024  -0.7618  -0.7018  -0.6508  -0.6185  -0.6026
    -0.5134  -0.4754  -0.4425  -0.4263  -0.2339  -0.2321  -0.0739  -0.0438
    -0.0304   0.0513   0.2739   0.3267   0.8788   1.2139   1.3369   1.4235
     1.4439   2.1184   2.1676   2.1693   2.3352   2.5852   2.6773   2.7584
     2.9187   3.0598   3.1120   3.1609

          k = 0.0522-0.0878 0.0000 ( 45296 PWs)   bands (ev):

   -31.5425 -31.5147 -31.4923 -31.4643 -30.8459 -30.7878 -15.5127 -15.4762
   -15.4491 -15.3705 -15.3037 -15.2711 -15.2227 -15.2103 -15.1887 -15.1028
   -14.9199 -14.9083 -14.8838 -14.5250 -14.4971 -14.4941 -14.4626 -14.3092
    -1.8386  -1.7750  -1.6636  -1.5983  -1.5878  -1.5818  -1.2896  -1.2089
    -1.1867  -1.1253  -1.1175  -1.0919  -1.0711  -1.0314  -0.9092  -0.8788
    -0.8667  -0.8623  -0.8185  -0.7693  -0.7009  -0.6838  -0.6589  -0.6483
    -0.6055  -0.5555  -0.5225  -0.4496  -0.4415  -0.2975  -0.2544  -0.0883
    -0.0874  -0.0399   0.1740   0.2351   0.8956   1.3108   1.4542   1.5234
     1.7409   2.2002   2.3115   2.4102   2.5218   2.7059   2.7399   2.8030
     2.9673   3.0790   3.1062   3.1948

          k = 0.0522-0.0739 0.0000 ( 45286 PWs)   bands (ev):

   -31.5349 -31.5071 -31.5003 -31.4723 -30.8381 -30.7960 -15.4350 -15.4300
   -15.3951 -15.3536 -15.3128 -15.2635 -15.2246 -15.2058 -15.1953 -15.1084
   -14.9955 -14.9709 -14.8345 -14.5114 -14.5067 -14.4869 -14.4702 -14.4017
    -1.8975  -1.8055  -1.6900  -1.6160  -1.5165  -1.4918  -1.3197  -1.1961
    -1.1820  -1.1736  -1.1419  -1.1257  -1.0873  -1.0293  -0.9824  -0.9441
    -0.9298  -0.9187  -0.8975  -0.8820  -0.7642  -0.7615  -0.7187  -0.6695
    -0.6619  -0.6501  -0.6291  -0.4922  -0.4732  -0.3990  -0.3656  -0.2182
    -0.0713  -0.0700   0.2028   0.2060   1.1692   1.5425   1.5655   1.7528
     2.0111   2.3338   2.4998   2.5390   2.7818   2.8243   2.8762   2.9670
     3.0384   3.0857   3.1255   3.1562

          k = 0.0522-0.0601 0.0000 ( 45257 PWs)   bands (ev):

   -31.5261 -31.5096 -31.4983 -31.4816 -30.8288 -30.8057 -15.4153 -15.3359
   -15.3323 -15.3194 -15.2977 -15.2523 -15.2461 -15.2061 -15.1774 -15.1186
   -15.0949 -15.0702 -14.7326 -14.5186 -14.5082 -14.4944 -14.4781 -14.4768
    -2.1080  -1.9081  -1.8198  -1.6793  -1.4244  -1.3796  -1.3671  -1.3381
    -1.2856  -1.2556  -1.2080  -1.1966  -1.1783  -1.1328  -1.0769  -1.0160
    -0.9742  -0.9348  -0.9292  -0.8312  -0.8186  -0.8099  -0.7272  -0.7189
[...]
     2.3568   2.6649   2.7112   2.7428   2.8699   2.9488   2.9516   3.0692
     3.1167   3.1539   3.1843   3.2047

          k = 0.0522-0.0324 0.0000 ( 45264 PWs)   bands (ev):

   -31.5290 -31.5074 -31.5010 -31.4796 -30.8266 -30.8085 -15.3684 -15.3474
   -15.3084 -15.3063 -15.2949 -15.2760 -15.2139 -15.2069 -15.1571 -15.1399
   -15.1036 -15.0776 -14.7259 -14.5358 -14.5121 -14.4898 -14.4634 -14.4608
    -2.5290  -2.1488  -2.0562  -1.8758  -1.8101  -1.6237  -1.5524  -1.5427
    -1.4273  -1.4062  -1.3799  -1.2276  -1.1418  -1.1246  -1.1066  -1.0225
    -1.0040  -0.9877  -0.8679  -0.8587  -0.8401  -0.8182  -0.7813  -0.7487
    -0.6988  -0.5990  -0.5241  -0.4603  -0.4351  -0.3713  -0.2679  -0.1803
    -0.0385   0.0990   0.2067   0.2144   2.0878   2.1670   2.2328   2.3646
     2.5381   2.6117   2.6369   2.6570   2.9176   2.9195   3.0079   3.0878
     3.1239   3.1653   3.1809   3.2036

          k = 0.0652-0.0232 0.0000 ( 45248 PWs)   bands (ev):

   -31.5282 -31.5080 -31.5003 -31.4801 -30.8272 -30.8078 -15.3592 -15.3517
   -15.3277 -15.3116 -15.3023 -15.2809 -15.1969 -15.1887 -15.1822 -15.1451
   -15.0999 -15.0746 -14.7281 -14.5197 -14.5141 -14.4866 -14.4748 -14.4672
    -2.4019  -2.1577  -1.9861  -1.8512  -1.7902  -1.5900  -1.5340  -1.5181
    -1.4131  -1.3760  -1.3621  -1.2209  -1.1962  -1.1262  -1.0520  -1.0016
    -0.9405  -0.9393  -0.8917  -0.8376  -0.8178  -0.7855  -0.7431  -0.6919
    -0.6255  -0.5904  -0.4823  -0.4576  -0.4494  -0.3321  -0.2787  -0.2327
    -0.0034   0.1350   0.1661   0.2275   1.8834   2.0570   2.1141   2.2047
     2.4419   2.4537   2.4800   2.6141   2.8525   2.8657   2.9542   2.9982
     3.1582   3.1927   3.1993   3.2788

          k = 0.0652-0.0094 0.0000 ( 45264 PWs)   bands (ev):

   -31.5368 -31.5089 -31.4992 -31.4714 -30.8369 -30.7979 -15.4146 -15.3870
   -15.3835 -15.3429 -15.3197 -15.2869 -15.2181 -15.1946 -15.1631 -15.1370
   -14.9973 -14.9726 -14.8287 -14.5193 -14.5111 -14.4718 -14.4572 -14.3968
    -2.4415  -2.1277  -1.9809  -1.8867  -1.8060  -1.6187  -1.5468  -1.5267
    -1.4079  -1.3990  -1.3335  -1.2081  -1.1962  -1.0742  -1.0711  -1.0093
    -0.9958  -0.9043  -0.8869  -0.8485  -0.7901  -0.7361  -0.7289  -0.6194
    -0.5891  -0.5015  -0.4692  -0.4342  -0.4180  -0.2824  -0.2562  -0.1199
    -0.0134   0.1525   0.1748   0.2203   1.7487   1.9152   2.0066   2.0199
     2.2334   2.4488   2.5653   2.7182   2.7567   2.8318   2.8621   3.0039
     3.1114   3.1996   3.2009   3.2365

          k = 0.0652 0.0045 0.0000 ( 45287 PWs)   bands (ev):

   -31.5440 -31.5161 -31.4916 -31.4637 -30.8452 -30.7892 -15.4996 -15.4663
   -15.4145 -15.3568 -15.3017 -15.2734 -15.2426 -15.2053 -15.1446 -15.1298
   -14.9146 -14.9079 -14.8834 -14.5230 -14.5190 -14.4701 -14.4509 -14.3047
    -2.4125  -2.0454  -1.9244  -1.9220  -1.7393  -1.6874  -1.4777  -1.4446
    -1.3918  -1.3521  -1.2762  -1.1942  -1.1769  -1.0627  -1.0395  -1.0188
    -0.9762  -0.9098  -0.8760  -0.8371  -0.7567  -0.7179  -0.7050  -0.6099
    -0.4736  -0.4711  -0.4471  -0.4251  -0.3461  -0.2581  -0.1512  -0.0406
     0.0035   0.1852   0.1936   0.2380   1.5544   1.7024   1.7169   1.8085
     1.9550   2.3684   2.5286   2.5938   2.6995   2.7580   2.9154   2.9207
     3.0828   3.1458   3.1660   3.1859

          k = 0.0652 0.0183 0.0000 ( 45282 PWs)   bands (ev):

   -31.5493 -31.5215 -31.4857 -31.4578 -30.8515 -30.7823 -15.5662 -15.5305
   -15.4382 -15.3707 -15.2927 -15.2621 -15.2554 -15.2160 -15.1430 -15.1159
   -14.9804 -14.8390 -14.8144 -14.5329 -14.5184 -14.4699 -14.4480 -14.2333
    -2.3254  -1.9403  -1.9316  -1.8248  -1.7231  -1.6486  -1.4165  -1.3351
    -1.3315  -1.2870  -1.2019  -1.1292  -1.1262  -1.0372  -0.9890  -0.9720
    -0.9428  -0.9231  -0.8538  -0.8139  -0.7343  -0.7010  -0.6664  -0.5959
    -0.4885  -0.4728  -0.4522  -0.4442  -0.2244  -0.1247  -0.0773  -0.0221
     0.0499   0.1459   0.2777   0.4098   1.3249   1.4400   1.4809   1.5793
     1.6045   2.2290   2.3720   2.3964   2.4477   2.7761   2.8026   2.9036
     2.9106   3.0659   3.1334   3.1694

          k = 0.0652 0.0321 0.0000 ( 45282 PWs)   bands (ev):

   -31.5525 -31.5247 -31.4820 -31.4541 -30.8555 -30.7779 -15.6095 -15.5718
   -15.4560 -15.3833 -15.2895 -15.2747 -15.2371 -15.2249 -15.1501 -15.1037
   -15.0223 -14.7959 -14.7710 -14.5402 -14.5163 -14.4714 -14.4481 -14.1886
    -2.1995  -1.9329  -1.8150  -1.7243  -1.7111  -1.5637  -1.3752  -1.2922
    -1.2644  -1.1766  -1.1483  -1.0351  -1.0343  -1.0038  -0.9595  -0.9209
    -0.8986  -0.8445  -0.8135  -0.7683  -0.7078  -0.6765  -0.6393  -0.5792
    -0.5232  -0.4965  -0.4569  -0.4441  -0.1856  -0.1053  -0.0246   0.0399
     0.0785   0.2044   0.4535   0.6181   1.0491   1.1451   1.2604   1.2903
     1.4700   1.9394   2.0638   2.2165   2.3260   2.5619   2.6939   2.7255
     2.9128   3.0344   3.1576   3.1621

          k = 0.0652 0.0460 0.0000 ( 45286 PWs)   bands (ev):

   -31.5534 -31.5255 -31.4808 -31.4529 -30.8569 -30.7762 -15.6262 -15.5874
   -15.4663 -15.3914 -15.2897 -15.2809 -15.2298 -15.2213 -15.1620 -15.0962
   -15.0374 -14.7817 -14.7566 -14.5434 -14.5131 -14.4747 -14.4502 -14.1742
    -2.0616  -1.8991  -1.7226  -1.6919  -1.6047  -1.5074  -1.3320  -1.2727
    -1.2115  -1.1509  -1.0863  -0.9959  -0.9873  -0.9842  -0.9500  -0.8465
    -0.8239  -0.7986  -0.7513  -0.6873  -0.6688  -0.6658  -0.6161  -0.5687
    -0.5061  -0.5021  -0.4479  -0.4306  -0.1679  -0.0950  -0.0703   0.0070
     0.0805   0.4056   0.5377   0.7636   0.7709   0.8148   1.1455   1.1968
     1.4511   1.5617   1.8755   2.0878   2.2492   2.3086   2.6223   2.6936
     2.9233   3.0361   3.1259   3.1531

          k = 0.0652-0.1063 0.0000 ( 45299 PWs)   bands (ev):

   -31.5519 -31.5241 -31.4822 -31.4543 -30.8557 -30.7773 -15.6151 -15.5761
   -15.4686 -15.3924 -15.2924 -15.2818 -15.2292 -15.2086 -15.1778 -15.0937
   -15.0248 -14.7970 -14.7720 -14.5418 -14.5087 -14.4798 -14.4536 -14.1909
    -1.9404  -1.8370  -1.6735  -1.6410  -1.5353  -1.4915  -1.2869  -1.2635
    -1.1703  -1.1622  -1.0620  -1.0220  -0.9932  -0.9755  -0.9049  -0.8286
    -0.8053  -0.7800  -0.7390  -0.7046  -0.6324  -0.6233  -0.5828  -0.5670
    -0.4987  -0.4730  -0.4221  -0.4209  -0.1862  -0.1190  -0.1161   0.0577
     0.0902   0.1230   0.4406   0.5513   0.6198   1.0145   1.0267   1.2442
     1.4258   1.6409   1.9666   2.0194   2.2217   2.2358   2.6008   2.7066
     2.9282   3.0544   3.0866   3.1546

          k = 0.0652-0.0924 0.0000 ( 45266 PWs)   bands (ev):

   -31.5482 -31.5204 -31.4861 -31.4582 -30.8520 -30.7813 -15.5765 -15.5383
   -15.4626 -15.3852 -15.2971 -15.2785 -15.2224 -15.2028 -15.1931 -15.0958
   -14.9848 -14.8404 -14.8156 -14.5355 -14.5033 -14.4865 -14.4577 -14.2373
    -1.8519  -1.7538  -1.6851  -1.6141  -1.5311  -1.5158  -1.2756  -1.2494
    -1.1756  -1.1040  -1.0557  -1.0487  -1.0345  -1.0096  -0.8922  -0.8615
    -0.8199  -0.8083  -0.7441  -0.7401  -0.6372  -0.6313  -0.6216  -0.5718
    -0.4932  -0.4932  -0.4481  -0.4228  -0.3109  -0.2343  -0.1344  -0.1178
    -0.0596   0.1975   0.2341   0.3307   0.5745   1.1020   1.3646   1.3672
     1.3949   2.0562   2.0636   2.2183   2.2928   2.3439   2.6315   2.7566
     2.9352   3.0774   3.1509   3.1971

          k = 0.0652-0.0786 0.0000 ( 45296 PWs)   bands (ev):

   -31.5425 -31.5147 -31.4923 -31.4643 -30.8459 -30.7878 -15.5127 -15.4762
   -15.4491 -15.3705 -15.3037 -15.2711 -15.2227 -15.2103 -15.1887 -15.1028
   -14.9199 -14.9083 -14.8838 -14.5250 -14.4971 -14.4941 -14.4626 -14.3092
    -1.8386  -1.7750  -1.6636  -1.5983  -1.5878  -1.5818  -1.2896  -1.2089
    -1.1867  -1.1253  -1.1175  -1.0919  -1.0711  -1.0314  -0.9092  -0.8788
    -0.8667  -0.8622  -0.8185  -0.7693  -0.7009  -0.6838  -0.6589  -0.6483
    -0.6055  -0.5555  -0.5225  -0.4496  -0.4415  -0.2975  -0.2544  -0.0883
    -0.0874  -0.0399   0.1740   0.2351   0.8956   1.3108   1.4542   1.5234
     1.7409   2.2002   2.3115   2.4102   2.5218   2.7059   2.7396   2.8032
     2.9671   3.0776   3.1045   3.1480

          k = 0.0652-0.0647 0.0000 ( 45269 PWs)   bands (ev):

   -31.5351 -31.5073 -31.5002 -31.4722 -30.8379 -30.7963 -15.4291 -15.4280
   -15.3936 -15.3511 -15.3117 -15.2591 -15.2489 -15.1945 -15.1835 -15.1152
   -14.9956 -14.9711 -14.8338 -14.5119 -14.5017 -14.4907 -14.4685 -14.4009
    -1.9374  -1.9296  -1.7087  -1.6715  -1.5662  -1.5110  -1.3154  -1.2828
    -1.2429  -1.2350  -1.1963  -1.1609  -1.1495  -1.0005  -0.9856  -0.9416
    -0.9223  -0.8950  -0.8830  -0.8514  -0.7875  -0.7131  -0.7092  -0.6999
    -0.6534  -0.5979  -0.5544  -0.4671  -0.4571  -0.3528  -0.3472  -0.2110
    -0.0499  -0.0168   0.1645   0.2096   1.2854   1.5593   1.6253   1.7088
     2.0324   2.4029   2.4142   2.5655   2.7913   2.8090   2.8953   2.9719
     3.0650   3.0983   3.1433   3.1816

          k = 0.0652-0.0509 0.0000 ( 45242 PWs)   bands (ev):

   -31.5265 -31.5092 -31.4987 -31.4813 -30.8285 -30.8062 -15.4044 -15.3345
   -15.3309 -15.3166 -15.2968 -15.2750 -15.2416 -15.1806 -15.1783 -15.1328
   -15.0955 -15.0708 -14.7318 -14.5134 -14.5085 -14.4899 -14.4842 -14.4758
    -2.1275  -2.0434  -1.8331  -1.7554  -1.5242  -1.4856  -1.4210  -1.4051
    -1.3140  -1.2886  -1.2639  -1.2558  -1.1752  -1.1451  -1.0473  -0.9652
    -0.9401  -0.9048  -0.9029  -0.8271  -0.8147  -0.7437  -0.7108  -0.7058
    -0.6949  -0.6426  -0.5135  -0.4943  -0.4734  -0.4479  -0.3566  -0.2191
    -0.0263   0.0521   0.1668   0.2104   1.6660   1.7865   1.8465   1.8989
     2.2459   2.4872   2.6039   2.6772   2.7675   2.8714   2.9093   3.0529
     3.1376   3.1473   3.1662   3.2411

          k = 0.0652-0.0371 0.0000 ( 45267 PWs)   bands (ev):

   -31.5188 -31.5173 -31.4909 -31.4895 -30.8182 -30.8167 -15.3770 -15.3377
   -15.3139 -15.3069 -15.2223 -15.2209 -15.2037 -15.1931 -15.1801 -15.1758
   -15.1531 -15.1511 -14.6210 -14.6190 -14.5137 -14.4845 -14.4803 -14.4787
    -2.2930  -2.1275  -1.9335  -1.8203  -1.6674  -1.5682  -1.4925  -1.3917
    -1.3906  -1.3696  -1.3015  -1.2430  -1.2276  -1.1613  -1.0195  -1.0151
    -0.9745  -0.9011  -0.8637  -0.8271  -0.8208  -0.8113  -0.7467  -0.7086
    -0.6659  -0.6333  -0.5098  -0.4761  -0.4580  -0.4248  -0.3409  -0.2174
    -0.0097   0.1042   0.1673   0.2208   1.9088   1.9663   2.0522   2.0827
     2.4252   2.4792   2.5623   2.6490   2.8174   2.9045   2.9286   3.0459
     3.1485   3.1652   3.1874   3.2477

          k =-0.0782 0.0279 0.0000 ( 45266 PWs)   bands (ev):

   -31.5180 -31.5180 -31.4902 -31.4902 -30.8176 -30.8173 -15.3550 -15.3549
   -15.3160 -15.3160 -15.2173 -15.2172 -15.1965 -15.1964 -15.1778 -15.1777
   -15.1561 -15.1561 -14.6205 -14.6203 -14.4956 -14.4955 -14.4822 -14.4820
    -2.2197  -2.2197  -1.8903  -1.8903  -1.6477  -1.6476  -1.4395  -1.4393
    -1.3787  -1.3785  -1.2740  -1.2740  -1.2237  -1.2237  -0.9956  -0.9954
    -0.9426  -0.9426  -0.8306  -0.8306  -0.8112  -0.8112  -0.7123  -0.7122
    -0.6025  -0.6025  -0.4993  -0.4992  -0.4141  -0.4141  -0.2761  -0.2761
     0.0768   0.0768   0.1889   0.1890   1.9018   1.9021   2.0847   2.0849
     2.4062   2.4063   2.5292   2.5293   2.8721   2.8722   2.9426   2.9432
     3.1769   3.1780   3.2216   3.2224

          k =-0.0782 0.0417 0.0000 ( 45252 PWs)   bands (ev):

   -31.5273 -31.5086 -31.4995 -31.4808 -30.8279 -30.8069 -15.3839 -15.3367
   -15.3302 -15.3126 -15.3045 -15.2857 -15.2200 -15.1812 -15.1663 -15.1515
   -15.0970 -15.0723 -14.7303 -14.5171 -14.4985 -14.4921 -14.4865 -14.4718
    -2.2294  -2.1494  -1.8781  -1.8478  -1.6791  -1.5712  -1.4754  -1.4126
    -1.4117  -1.3417  -1.3077  -1.2411  -1.1967  -1.1521  -1.0349  -0.9717
    -0.9271  -0.9083  -0.8989  -0.8202  -0.8093  -0.7555  -0.7229  -0.6844
    -0.6187  -0.5710  -0.4947  -0.4813  -0.4483  -0.3459  -0.2954  -0.2573
     0.0619   0.0796   0.1658   0.1965   1.8085   1.8590   1.9199   1.9808
     2.3236   2.3908   2.5444   2.7159   2.7486   2.8280   2.9181   2.9720
     3.1391   3.1851   3.2048   3.2368

          k =-0.0782 0.0555 0.0000 ( 45256 PWs)   bands (ev):

   -31.5358 -31.5080 -31.4997 -31.4719 -30.8375 -30.7969 -15.4223 -15.4123
   -15.3894 -15.3463 -15.3102 -15.2766 -15.2441 -15.1934 -15.1600 -15.1327
   -14.9962 -14.9716 -14.8317 -14.5124 -14.5018 -14.4885 -14.4637 -14.3989
    -2.1822  -2.0296  -1.8171  -1.7619  -1.7076  -1.5578  -1.4428  -1.3482
    -1.3414  -1.3336  -1.2735  -1.2101  -1.1689  -1.0315  -1.0295  -0.9826
    -0.9552  -0.8950  -0.8670  -0.7977  -0.7871  -0.7252  -0.6832  -0.6356
    -0.6200  -0.5167  -0.4772  -0.4763  -0.4444  -0.3069  -0.2884  -0.1700
     0.0453   0.0657   0.1224   0.1999   1.5756   1.6808   1.6811   1.7743
     2.1031   2.3478   2.5591   2.6214   2.7342   2.8629   2.8726   2.8962
     3.0888   3.1683   3.1896   3.2142

          k =-0.0782 0.0694 0.0000 ( 45277 PWs)   bands (ev):

   -31.5430 -31.5152 -31.4920 -31.4641 -30.8456 -30.7883 -15.5079 -15.4726
   -15.4371 -15.3640 -15.3014 -15.2628 -15.2520 -15.2076 -15.1617 -15.1145
   -14.9180 -14.9081 -14.8836 -14.5245 -14.5047 -14.4850 -14.4583 -14.3075
    -2.0953  -1.8867  -1.7635  -1.7244  -1.6497  -1.6161  -1.2970  -1.2939
    -1.2653  -1.2460  -1.2409  -1.1355  -1.1254  -1.0248  -0.9734  -0.9436
    -0.9128  -0.8662  -0.8570  -0.7873  -0.7446  -0.6997  -0.6462  -0.6149
    -0.4966  -0.4868  -0.4693  -0.4531  -0.4314  -0.2828  -0.2101  -0.0497
     0.0283   0.0716   0.0892   0.2195   1.2316   1.4475   1.4910   1.5726
     1.8085   2.2483   2.3584   2.4777   2.6056   2.7818   2.7847   2.9267
     2.9729   3.0784   3.0942   3.1671

          k =-0.0782 0.0832 0.0000 ( 45292 PWs)   bands (ev):

   -31.5485 -31.5207 -31.4860 -31.4581 -30.8518 -30.7816 -15.5737 -15.5362
   -15.4564 -15.3806 -15.2957 -15.2751 -15.2287 -15.2203 -15.1680 -15.1013
   -14.9837 -14.8400 -14.8153 -14.5349 -14.5071 -14.4819 -14.4551 -14.2362
    -2.0006  -1.8103  -1.7579  -1.6508  -1.6220  -1.5464  -1.2852  -1.2717
    -1.1880  -1.1693  -1.1402  -1.0593  -1.0411  -1.0284  -0.9148  -0.8817
    -0.8611  -0.8116  -0.8024  -0.7618  -0.7018  -0.6508  -0.6185  -0.6026
    -0.5134  -0.4754  -0.4425  -0.4263  -0.2339  -0.2321  -0.0739  -0.0438
    -0.0304   0.0513   0.2739   0.3267   0.8788   1.2139   1.3369   1.4235
     1.4439   2.1184   2.1676   2.1693   2.3352   2.5852   2.6771   2.7584
     2.9187   3.0594   3.1126   3.1557

          k =-0.0782 0.0971 0.0000 ( 45299 PWs)   bands (ev):

   -31.5519 -31.5241 -31.4822 -31.4543 -30.8557 -30.7773 -15.6151 -15.5761
   -15.4686 -15.3924 -15.2924 -15.2818 -15.2292 -15.2086 -15.1778 -15.0937
   -15.0248 -14.7970 -14.7720 -14.5418 -14.5087 -14.4798 -14.4536 -14.1909
    -1.9404  -1.8370  -1.6735  -1.6410  -1.5353  -1.4915  -1.2869  -1.2635
    -1.1703  -1.1622  -1.0620  -1.0220  -0.9932  -0.9755  -0.9049  -0.8286
    -0.8053  -0.7800  -0.7390  -0.7046  -0.6324  -0.6233  -0.5828  -0.5670
    -0.4987  -0.4730  -0.4221  -0.4209  -0.1862  -0.1190  -0.1161   0.0577
     0.0902   0.1230   0.4406   0.5513   0.6198   1.0145   1.0267   1.2442
     1.4258   1.6409   1.9666   2.0194   2.2217   2.2358   2.6008   2.7066
     2.9286   3.0875   3.1534   3.2153

          k =-0.0782-0.0552 0.0000 ( 45348 PWs)   bands (ev):

   -31.5531 -31.5253 -31.4809 -31.4530 -30.8570 -30.7759 -15.6292 -15.5897
   -15.4728 -15.3967 -15.2913 -15.2840 -15.2323 -15.1947 -15.1883 -15.0911
   -15.0388 -14.7823 -14.7572 -14.5442 -14.5093 -14.4790 -14.4531 -14.1754
    -1.9255  -1.8435  -1.6449  -1.6221  -1.4992  -1.4842  -1.2805  -1.2574
    -1.1736  -1.1675  -1.0537  -1.0238  -0.9704  -0.9169  -0.9035  -0.8482
    -0.7892  -0.7629  -0.6911  -0.6670  -0.6491  -0.5826  -0.5782  -0.5372
    -0.5108  -0.4377  -0.4088  -0.4055  -0.1681  -0.1545  -0.1446   0.1091
     0.1948   0.3343   0.4080   0.5287   0.6329   0.9333   1.0343   1.1866
     1.2163   1.5563   1.7538   1.9598   2.1140   2.2000   2.5742   2.6861
     2.9340   3.0663   3.1506   3.2062

     the Fermi energy is     2.0096 ev

!    total energy              =   -1161.84733333 Ry
     estimated scf accuracy    <       0.00000751 Ry
     smearing contrib. (-TS)   =      -0.04503768 Ry
     internal energy E=F+TS    =   -1161.80229566 Ry

     The total energy is F=E-TS. E is the sum of the following terms:
     one-electron contribution =   -5694.09340032 Ry
     hartree contribution      =    2895.49191877 Ry
     xc contribution           =    -596.31820854 Ry
     ewald contribution        =    2233.11737242 Ry
     electric field correction =       0.00002201 Ry

     convergence has been achieved in  20 iterations

     negative rho (up, down):  5.133E-04 0.000E+00

     Forces acting on atoms (cartesian axes, Ry/au):

     atom    1 type  1   force =    -0.00056751   -0.00038900   -0.00614412
     atom    2 type  1   force =    -0.00054920   -0.00039962   -0.00614738
     atom    3 type  2   force =    -0.00012302   -0.00008372    0.02185343
     atom    4 type  2   force =    -0.00010267   -0.00007610    0.02184587
     atom    5 type  1   force =     0.00029902    0.00020432   -0.01688195
     atom    6 type  1   force =     0.00029188    0.00021239   -0.01688796
     atom    7 type  2   force =     0.00010286    0.00007129    0.00213916
     atom    8 type  2   force =     0.00008533    0.00006638    0.00215759
     atom    9 type  1   force =     0.00004626    0.00004286   -0.00153100
     atom   10 type  1   force =     0.00005756    0.00002978   -0.00153083
     atom   11 type  2   force =     0.00021770    0.00016895    0.00057907
     atom   12 type  2   force =     0.00024178    0.00015246    0.00054813

     Total force =     0.040206     Total SCF correction =     0.012177
     SCF correction compared to forces is large: reduce conv_thr to get better values

     Writing output data file ./La2Pt2/La2Pt2_beef.save/

     init_run     :    368.80s CPU    370.09s WALL (       1 calls)
     electrons    :  10918.51s CPU  11034.78s WALL (       1 calls)
     forces       :    127.51s CPU    128.37s WALL (       1 calls)

     Called by init_run:
     wfcinit      :    344.88s CPU    345.69s WALL (       1 calls)
     potinit      :     10.38s CPU     10.52s WALL (       1 calls)
     hinit0       :      7.82s CPU      7.84s WALL (       1 calls)

     Called by electrons:
     c_bands      :   9937.98s CPU  10030.03s WALL (      20 calls)
     sum_band     :    847.63s CPU    861.65s WALL (      20 calls)
     v_of_rho     :     64.06s CPU     66.67s WALL (      21 calls)
     newd         :     74.91s CPU     82.68s WALL (      21 calls)
     mix_rho      :      3.51s CPU      3.58s WALL (      20 calls)
     vdW_kernel   :      6.47s CPU      6.49s WALL (       1 calls)

     Called by c_bands:
     init_us_2    :     29.89s CPU     30.01s WALL (    3108 calls)
     cegterg      :   9823.33s CPU   9911.84s WALL (    1494 calls)

     Called by *egterg:
     cdiaghg      :    260.20s CPU    261.17s WALL (   16474 calls)
     h_psi        :   5808.24s CPU   5874.48s WALL (   16548 calls)
     s_psi        :   1411.32s CPU   1413.52s WALL (   16548 calls)
     g_psi        :      3.15s CPU      3.20s WALL (   14980 calls)

     Called by h_psi:
     h_psi:calbec :   1759.56s CPU   1769.17s WALL (   16548 calls)
     vloc_psi     :   2591.77s CPU   2646.14s WALL (   16548 calls)
     add_vuspsi   :   1446.12s CPU   1448.32s WALL (   16548 calls)

     General routines
     calbec       :   2380.85s CPU   2392.51s WALL (   18324 calls)
     fft          :     51.59s CPU     53.07s WALL (    1382 calls)
     ffts         :      0.43s CPU      0.44s WALL (      41 calls)
     fftw         :   2695.61s CPU   2753.04s WALL (  842182 calls)
     interpolate  :      1.23s CPU      1.25s WALL (      21 calls)

     Parallel routines
     fft_scatt_xy :     92.46s CPU     92.93s WALL (  843605 calls)
     fft_scatt_yz :   1933.58s CPU   1983.94s WALL (  843605 calls)

     PWSCF        :      3h11m CPU      3h14m WALL


   This run was terminated on:  16:36:43  25Jun2022            

=------------------------------------------------------------------------------=
   JOB DONE.
=------------------------------------------------------------------------------=
