
     Program PWSCF v.6.6 starts on 25Jun2022 at 21:54:13 

     This program is part of the open-source Quantum ESPRESSO suite
     for quantum simulation of materials; please cite
         "P. Giannozzi et al., J. Phys.:Condens. Matter 21 395502 (2009);
         "P. Giannozzi et al., J. Phys.:Condens. Matter 29 465901 (2017);
          URL http://www.quantum-espresso.org", 
     in publications or presentations arising from this work. More details at
     http://www.quantum-espresso.org/quote

     Parallel version (MPI), running on    37 processors

     MPI processes distributed on     1 nodes
     R & G space division:  proc/nbgrp/npool/nimage =      37
     Fft bands division:     nmany     =       1
     Reading input from La2Rh2.in
Warning: card &CELL ignored
Warning: card / ignored

     Current dimensions of program PWSCF are:
     Max number of different atomic species (ntypx) = 10
     Max number of k-points (npk) =  40000
     Max angular momentum in pseudopotentials (lmaxx) =  3
     Presently stress not available with electric field and gates

     Message from routine cell_base_init:
     DEPRECATED: use true lattice parameter, not A to a.u. conversion factor
     file La.pbe-spfn-rrkjus_psl.1.0.0.UPF: wavefunction(s)  4F renormalized
     file Rh.pbe-spn-rrkjus_psl.1.0.0.UPF: wavefunction(s)  4S 5S renormalized

     **************************************************************************
     Initializing libbeef V0.1.2 with the BEEF-vdW functional.
     Citation: Wellendorff et al., PRB 85, 235149 (2012).
     **************************************************************************


     IMPORTANT: XC functional enforced from input :
     Exchange-correlation= BEEF-VDW
                           (   1   4  43  14   2   0   0)
     Any further DFT definition will be discarded
     Please, verify this is what you really want


     Subspace diagonalization in iterative solution of the eigenvalue problem:
     a serial algorithm will be used


     Parallelization info
     --------------------
     sticks:   dense  smooth     PW     G-vecs:    dense   smooth      PW
     Min         157      62     17                37155     9390    1381
     Max         158      63     18                37174     9409    1392
     Sum        5823    2329    649              1374973   347749   51283



     bravais-lattice index     =            0
     lattice parameter (alat)  =       1.8897  a.u.
     unit-cell volume          =    6289.8526 (a.u.)^3
     number of atoms/cell      =           12
     number of atomic types    =            2
     number of electrons       =       168.00
     number of Kohn-Sham states=          101
     kinetic-energy cutoff     =      55.1240  Ry
     charge density cutoff     =     551.2396  Ry
     convergence threshold     =      1.0E-05
     mixing beta               =       0.1000
     number of iterations used =           10  plain     mixing
     Exchange-correlation= BEEF-VDW
                           (   1   4  43  14   2   0   0)

     celldm(1)=   1.889726  celldm(2)=   0.000000  celldm(3)=   0.000000
     celldm(4)=   0.000000  celldm(5)=   0.000000  celldm(6)=   0.000000

     crystal axes: (cart. coord. in units of alat)
               a(1) = (   6.273500   0.000000   0.000000 )  
               a(2) = (   2.094008   5.913707   0.000000 )  
               a(3) = (   0.000000   0.000000  25.123159 )  

     reciprocal axes: (cart. coord. in units 2 pi/alat)
               b(1) = (  0.159401 -0.056443  0.000000 )  
               b(2) = (  0.000000  0.169099  0.000000 )  
               b(3) = (  0.000000  0.000000  0.039804 )  


     PseudoPot. # 1 for La read from file:
     ../pseudo/La.pbe-spfn-rrkjus_psl.1.0.0.UPF
     MD5 check sum: e3bc141c2ecb461b8d0a035ce9ac970e
     Pseudo is Ultrasoft + core correction, Zval = 11.0
     Generated using "atomic" code by A. Dal Corso v.6.2.2
     Using radial grid of 1253 points,  8 beta functions with: 
                l(1) =   0
                l(2) =   0
                l(3) =   1
                l(4) =   1
                l(5) =   2
                l(6) =   2
                l(7) =   3
                l(8) =   3
     Q(r) pseudized with 0 coefficients 


     PseudoPot. # 2 for Rh read from file:
     ../pseudo/Rh.pbe-spn-rrkjus_psl.1.0.0.UPF
     MD5 check sum: 912a852783f0c9b7bd5e9eb06cc0cc10
     Pseudo is Ultrasoft + core correction, Zval = 17.0
     Generated using "atomic" code by A. Dal Corso v.6.3
     Using radial grid of 1233 points,  6 beta functions with: 
                l(1) =   0
                l(2) =   0
                l(3) =   1
                l(4) =   1
                l(5) =   2
                l(6) =   2
     Q(r) pseudized with 0 coefficients 


     atomic species   valence    mass     pseudopotential
        La            11.00   138.90547     La( 1.00)
        Rh            17.00   102.90550     Rh( 1.00)

     No symmetry found



   Cartesian axes

     site n.     atom                  positions (alat units)
         1           La  tau(   1) = (   0.0000000   0.0000000  10.0000000  )
         2           La  tau(   2) = (   4.1837542   2.9568535  10.0000000  )
         3           Rh  tau(   3) = (   3.1367500   0.0000000  10.0000000  )
         4           Rh  tau(   4) = (   1.0470042   2.9568535  10.0000000  )
         5           La  tau(   5) = (   6.2734999   4.4337739  12.5615793  )
         6           La  tau(   6) = (   2.0897457   1.4769204  12.5615793  )
         7           Rh  tau(   7) = (   3.1367500   4.4337739  12.5615793  )
         8           Rh  tau(   8) = (   5.2264957   1.4769204  12.5615793  )
         9           La  tau(   9) = (   4.1819077   2.9555350  15.1573747  )
        10           La  tau(  10) = (   8.3655348   5.9123149  15.1575683  )
        11           Rh  tau(  11) = (   7.3158018   2.9535148  14.8438947  )
        12           Rh  tau(  12) = (   5.2260421   5.9103702  14.8438948  )

     number of k points=    74  Fermi-Dirac smearing, width (Ry)=  0.0100
                       cart. coord. in units 2pi/alat
        k(    1) = (   0.0000000   0.0000000   0.0000000), wk =   0.0138889
        k(    2) = (   0.0000000   0.0140916   0.0000000), wk =   0.0277778
        k(    3) = (   0.0000000   0.0281831   0.0000000), wk =   0.0277778
        k(    4) = (   0.0000000   0.0422747   0.0000000), wk =   0.0277778
        k(    5) = (   0.0000000   0.0563662   0.0000000), wk =   0.0277778
        k(    6) = (   0.0000000   0.0704578   0.0000000), wk =   0.0277778
        k(    7) = (   0.0000000  -0.0845493   0.0000000), wk =   0.0138889
        k(    8) = (   0.0132834  -0.0047036   0.0000000), wk =   0.0277778
        k(    9) = (   0.0132834   0.0093880   0.0000000), wk =   0.0277778
        k(   10) = (   0.0132834   0.0234795   0.0000000), wk =   0.0277778
        k(   11) = (   0.0132834   0.0375711   0.0000000), wk =   0.0277778
        k(   12) = (   0.0132834   0.0516627   0.0000000), wk =   0.0277778
        k(   13) = (   0.0132834   0.0657542   0.0000000), wk =   0.0277778
        k(   14) = (   0.0132834  -0.0892529   0.0000000), wk =   0.0277778
        k(   15) = (   0.0132834  -0.0751613   0.0000000), wk =   0.0277778
        k(   16) = (   0.0132834  -0.0610698   0.0000000), wk =   0.0277778
        k(   17) = (   0.0132834  -0.0469782   0.0000000), wk =   0.0277778
        k(   18) = (   0.0132834  -0.0328867   0.0000000), wk =   0.0277778
        k(   19) = (   0.0132834  -0.0187951   0.0000000), wk =   0.0277778
        k(   20) = (   0.0265668  -0.0094071   0.0000000), wk =   0.0277778
        k(   21) = (   0.0265668   0.0046844   0.0000000), wk =   0.0277778
        k(   22) = (   0.0265668   0.0187760   0.0000000), wk =   0.0277778
        k(   23) = (   0.0265668   0.0328675   0.0000000), wk =   0.0277778
        k(   24) = (   0.0265668   0.0469591   0.0000000), wk =   0.0277778
        k(   25) = (   0.0265668   0.0610506   0.0000000), wk =   0.0277778
        k(   26) = (   0.0265668  -0.0939565   0.0000000), wk =   0.0277778
        k(   27) = (   0.0265668  -0.0798649   0.0000000), wk =   0.0277778
        k(   28) = (   0.0265668  -0.0657734   0.0000000), wk =   0.0277778
        k(   29) = (   0.0265668  -0.0516818   0.0000000), wk =   0.0277778
        k(   30) = (   0.0265668  -0.0375902   0.0000000), wk =   0.0277778
        k(   31) = (   0.0265668  -0.0234987   0.0000000), wk =   0.0277778
        k(   32) = (   0.0398502  -0.0141107   0.0000000), wk =   0.0277778
        k(   33) = (   0.0398502  -0.0000191   0.0000000), wk =   0.0277778
        k(   34) = (   0.0398502   0.0140724   0.0000000), wk =   0.0277778
        k(   35) = (   0.0398502   0.0281640   0.0000000), wk =   0.0277778
        k(   36) = (   0.0398502   0.0422555   0.0000000), wk =   0.0277778
        k(   37) = (   0.0398502   0.0563471   0.0000000), wk =   0.0277778
        k(   38) = (   0.0398502  -0.0986600   0.0000000), wk =   0.0277778
        k(   39) = (   0.0398502  -0.0845685   0.0000000), wk =   0.0277778
        k(   40) = (   0.0398502  -0.0704769   0.0000000), wk =   0.0277778
        k(   41) = (   0.0398502  -0.0563854   0.0000000), wk =   0.0277778
        k(   42) = (   0.0398502  -0.0422938   0.0000000), wk =   0.0277778
        k(   43) = (   0.0398502  -0.0282023   0.0000000), wk =   0.0277778
        k(   44) = (   0.0531336  -0.0188143   0.0000000), wk =   0.0277778
        k(   45) = (   0.0531336  -0.0047227   0.0000000), wk =   0.0277778
        k(   46) = (   0.0531336   0.0093688   0.0000000), wk =   0.0277778
        k(   47) = (   0.0531336   0.0234604   0.0000000), wk =   0.0277778
        k(   48) = (   0.0531336   0.0375520   0.0000000), wk =   0.0277778
        k(   49) = (   0.0531336   0.0516435   0.0000000), wk =   0.0277778
        k(   50) = (   0.0531336  -0.1033636   0.0000000), wk =   0.0277778
        k(   51) = (   0.0531336  -0.0892721   0.0000000), wk =   0.0277778
        k(   52) = (   0.0531336  -0.0751805   0.0000000), wk =   0.0277778
        k(   53) = (   0.0531336  -0.0610889   0.0000000), wk =   0.0277778
        k(   54) = (   0.0531336  -0.0469974   0.0000000), wk =   0.0277778
        k(   55) = (   0.0531336  -0.0329058   0.0000000), wk =   0.0277778
        k(   56) = (   0.0664169  -0.0235178   0.0000000), wk =   0.0277778
        k(   57) = (   0.0664169  -0.0094263   0.0000000), wk =   0.0277778
        k(   58) = (   0.0664169   0.0046653   0.0000000), wk =   0.0277778
        k(   59) = (   0.0664169   0.0187568   0.0000000), wk =   0.0277778
        k(   60) = (   0.0664169   0.0328484   0.0000000), wk =   0.0277778
        k(   61) = (   0.0664169   0.0469399   0.0000000), wk =   0.0277778
        k(   62) = (   0.0664169  -0.1080672   0.0000000), wk =   0.0277778
        k(   63) = (   0.0664169  -0.0939756   0.0000000), wk =   0.0277778
        k(   64) = (   0.0664169  -0.0798841   0.0000000), wk =   0.0277778
        k(   65) = (   0.0664169  -0.0657925   0.0000000), wk =   0.0277778
        k(   66) = (   0.0664169  -0.0517009   0.0000000), wk =   0.0277778
        k(   67) = (   0.0664169  -0.0376094   0.0000000), wk =   0.0277778
        k(   68) = (  -0.0797003   0.0282214   0.0000000), wk =   0.0138889
        k(   69) = (  -0.0797003   0.0423130   0.0000000), wk =   0.0277778
        k(   70) = (  -0.0797003   0.0564045   0.0000000), wk =   0.0277778
        k(   71) = (  -0.0797003   0.0704961   0.0000000), wk =   0.0277778
        k(   72) = (  -0.0797003   0.0845876   0.0000000), wk =   0.0277778
        k(   73) = (  -0.0797003   0.0986792   0.0000000), wk =   0.0277778
        k(   74) = (  -0.0797003  -0.0563279   0.0000000), wk =   0.0138889

     Dense  grid:  1374973 G-vectors     FFT dimensions: (  90,  90, 360)

     Smooth grid:   347749 G-vectors     FFT dimensions: (  60,  60, 225)

     Estimated max dynamical RAM per process >     498.43 MB

     Estimated total dynamical RAM >      18.01 GB

     Check: negative core charge=   -0.000001

     Initial potential from superposition of free atoms

     starting charge  167.81833, renormalised to  168.00000

     negative rho (up, down):  1.325E-03 0.000E+00


     %%%%%%%%%%%%%%%%%%%%%%%%%%%%%%%%%%%%%%%%%%%%%%%%%%%%%%%%%%%%%%%%%%%%%%%%
     %                                                                      %
     % You are using vdW-DF, which was implemented by the Thonhauser group. %
     % Please cite the following two papers that made this development      %
     % possible and the two reviews that describe the various versions:     %
     %                                                                      %
     %   T. Thonhauser et al., PRL 115, 136402 (2015).                      %
     %   T. Thonhauser et al., PRB 76, 125112 (2007).                       %
     %   K. Berland et al., Rep. Prog. Phys. 78, 066501 (2015).             %
     %   D.C. Langreth et al., J. Phys.: Condens. Matter 21, 084203 (2009). %
     %                                                                      %
     %                                                                      %
     % If you are calculating the stress with vdW-DF, please also cite:     %
     %                                                                      %
     %   R. Sabatini et al., J. Phys.: Condens. Matter 24, 424209 (2012).   %
     %                                                                      %
     %%%%%%%%%%%%%%%%%%%%%%%%%%%%%%%%%%%%%%%%%%%%%%%%%%%%%%%%%%%%%%%%%%%%%%%%



     Adding external electric field

     Computed dipole along edir(3) : 
        Dipole                0.0212 Ry au,          0.0540 Debye
        Dipole field          0.0000 Ry au, 

        Potential amp.       -0.0039 Ry
        Total length         46.2890 bohr

     Starting wfcs are  180 randomized atomic wfcs

     total cpu time spent up to now is      409.9 secs

     Self-consistent Calculation

     iteration #  1     ecut=    55.12 Ry     beta= 0.10
     Davidson diagonalization with overlap
     ethr =  1.00E-02,  avg # of iterations =  2.1

     negative rho (up, down):  1.276E-03 0.000E+00

     Adding external electric field

     Computed dipole along edir(3) : 
        Dipole                0.2037 Ry au,          0.5177 Debye
        Dipole field          0.0004 Ry au, 

        Potential amp.       -0.0377 Ry
        Total length         46.2890 bohr


     total cpu time spent up to now is      941.4 secs

     total energy              =   -2129.41810368 Ry
     estimated scf accuracy    <       9.33800928 Ry

     iteration #  2     ecut=    55.12 Ry     beta= 0.10
     Davidson diagonalization with overlap
     ethr =  5.56E-03,  avg # of iterations =  1.0

     negative rho (up, down):  1.179E-03 0.000E+00

     Adding external electric field

     Computed dipole along edir(3) : 
        Dipole               -0.2106 Ry au,         -0.5352 Debye
        Dipole field         -0.0004 Ry au, 

        Potential amp.        0.0389 Ry
        Total length         46.2890 bohr


     total cpu time spent up to now is     1303.8 secs

     total energy              =   -2128.60292881 Ry
     estimated scf accuracy    <       3.35261394 Ry

     iteration #  3     ecut=    55.12 Ry     beta= 0.10
     Davidson diagonalization with overlap
     ethr =  2.00E-03,  avg # of iterations =  8.4

     negative rho (up, down):  1.193E-03 0.000E+00

     Adding external electric field

     Computed dipole along edir(3) : 
        Dipole                0.3709 Ry au,          0.9428 Debye
        Dipole field          0.0007 Ry au, 

        Potential amp.       -0.0686 Ry
        Total length         46.2890 bohr


     total cpu time spent up to now is     2696.1 secs

     total energy              =   -2129.17392773 Ry
     estimated scf accuracy    <       9.15574406 Ry

     iteration #  4     ecut=    55.12 Ry     beta= 0.10
     Davidson diagonalization with overlap
     ethr =  2.00E-03,  avg # of iterations =  2.7

     negative rho (up, down):  1.186E-03 0.000E+00

     Adding external electric field

     Computed dipole along edir(3) : 
        Dipole                0.0422 Ry au,          0.1071 Debye
        Dipole field          0.0001 Ry au, 

        Potential amp.       -0.0078 Ry
        Total length         46.2890 bohr


     total cpu time spent up to now is     3122.3 secs

     total energy              =   -2129.13393335 Ry
     estimated scf accuracy    <       2.01619338 Ry

     iteration #  5     ecut=    55.12 Ry     beta= 0.10
     Davidson diagonalization with overlap
     ethr =  1.20E-03,  avg # of iterations =  2.8

     negative rho (up, down):  1.141E-03 0.000E+00

     Adding external electric field

     Computed dipole along edir(3) : 
        Dipole                0.0859 Ry au,          0.2183 Debye
        Dipole field          0.0002 Ry au, 

        Potential amp.       -0.0159 Ry
        Total length         46.2890 bohr


     total cpu time spent up to now is     3707.6 secs

     total energy              =   -2129.38372264 Ry
     estimated scf accuracy    <       1.09449795 Ry

     iteration #  6     ecut=    55.12 Ry     beta= 0.10
     Davidson diagonalization with overlap
     ethr =  6.51E-04,  avg # of iterations =  1.1

     negative rho (up, down):  1.120E-03 0.000E+00

     Adding external electric field

     Computed dipole along edir(3) : 
        Dipole                0.1806 Ry au,          0.4590 Debye
        Dipole field          0.0004 Ry au, 

        Potential amp.       -0.0334 Ry
        Total length         46.2890 bohr


     total cpu time spent up to now is     4685.9 secs

     total energy              =   -2129.29477903 Ry
     estimated scf accuracy    <       0.39058102 Ry

     iteration #  7     ecut=    55.12 Ry     beta= 0.10
     Davidson diagonalization with overlap
     c_bands:  1 eigenvalues not converged
     c_bands:  1 eigenvalues not converged
     ethr =  2.32E-04,  avg # of iterations = 11.4

     negative rho (up, down):  1.105E-03 0.000E+00

     Adding external electric field

     Computed dipole along edir(3) : 
        Dipole                0.1344 Ry au,          0.3417 Debye
        Dipole field          0.0003 Ry au, 

        Potential amp.       -0.0249 Ry
        Total length         46.2890 bohr


     total cpu time spent up to now is     5807.8 secs

     total energy              =   -2129.30898097 Ry
     estimated scf accuracy    <       0.27935493 Ry

     iteration #  8     ecut=    55.12 Ry     beta= 0.10
     Davidson diagonalization with overlap
     ethr =  1.66E-04,  avg # of iterations =  5.1

     negative rho (up, down):  1.190E-03 0.000E+00

     Adding external electric field

     Computed dipole along edir(3) : 
        Dipole                0.1805 Ry au,          0.4589 Debye
        Dipole field          0.0004 Ry au, 

        Potential amp.       -0.0334 Ry
        Total length         46.2890 bohr


     total cpu time spent up to now is     6811.0 secs

     total energy              =   -2129.36475178 Ry
     estimated scf accuracy    <       0.19613022 Ry

     iteration #  9     ecut=    55.12 Ry     beta= 0.10
     Davidson diagonalization with overlap
     ethr =  1.17E-04,  avg # of iterations =  2.2

     negative rho (up, down):  1.257E-03 0.000E+00

     Adding external electric field

     Computed dipole along edir(3) : 
        Dipole                0.2150 Ry au,          0.5465 Debye
        Dipole field          0.0004 Ry au, 

        Potential amp.       -0.0398 Ry
        Total length         46.2890 bohr


     total cpu time spent up to now is     7226.8 secs

     total energy              =   -2129.34135841 Ry
     estimated scf accuracy    <       0.09352887 Ry

     iteration # 10     ecut=    55.12 Ry     beta= 0.10
     Davidson diagonalization with overlap
     c_bands:  1 eigenvalues not converged
     c_bands:  3 eigenvalues not converged
     c_bands:  3 eigenvalues not converged
     c_bands:  1 eigenvalues not converged
     c_bands:  1 eigenvalues not converged
     c_bands:  2 eigenvalues not converged
     c_bands:  2 eigenvalues not converged
     c_bands:  1 eigenvalues not converged
     c_bands:  1 eigenvalues not converged
     c_bands:  1 eigenvalues not converged
     c_bands:  1 eigenvalues not converged
     c_bands:  3 eigenvalues not converged
     c_bands:  2 eigenvalues not converged
     c_bands:  1 eigenvalues not converged
     c_bands:  1 eigenvalues not converged
     c_bands:  1 eigenvalues not converged
     c_bands:  2 eigenvalues not converged
     c_bands:  1 eigenvalues not converged
     c_bands:  2 eigenvalues not converged
     c_bands:  3 eigenvalues not converged
     c_bands:  1 eigenvalues not converged
     c_bands:  1 eigenvalues not converged
     c_bands:  1 eigenvalues not converged
     c_bands:  2 eigenvalues not converged
     c_bands:  1 eigenvalues not converged
     c_bands:  1 eigenvalues not converged
     c_bands:  1 eigenvalues not converged
     c_bands:  1 eigenvalues not converged
     c_bands:  1 eigenvalues not converged
     c_bands:  1 eigenvalues not converged
     c_bands:  2 eigenvalues not converged
     c_bands:  1 eigenvalues not converged
     c_bands:  2 eigenvalues not converged
     c_bands:  1 eigenvalues not converged
     c_bands:  2 eigenvalues not converged
     ethr =  5.57E-05,  avg # of iterations = 17.2

     negative rho (up, down):  1.181E-03 0.000E+00

     Adding external electric field

     Computed dipole along edir(3) : 
        Dipole                0.2035 Ry au,          0.5172 Debye
        Dipole field          0.0004 Ry au, 

        Potential amp.       -0.0376 Ry
        Total length         46.2890 bohr


     total cpu time spent up to now is     7943.9 secs

     total energy              =   -2129.36710009 Ry
     estimated scf accuracy    <       0.11764642 Ry

     iteration # 11     ecut=    55.12 Ry     beta= 0.10
     Davidson diagonalization with overlap
     ethr =  5.57E-05,  avg # of iterations =  1.5

     negative rho (up, down):  1.171E-03 0.000E+00

     Adding external electric field

     Computed dipole along edir(3) : 
        Dipole                0.1744 Ry au,          0.4432 Debye
        Dipole field          0.0003 Ry au, 

        Potential amp.       -0.0322 Ry
        Total length         46.2890 bohr


     total cpu time spent up to now is     8616.0 secs

     total energy              =   -2129.35625489 Ry
     estimated scf accuracy    <       0.07171100 Ry

     iteration # 12     ecut=    55.12 Ry     beta= 0.10
     Davidson diagonalization with overlap
     ethr =  4.27E-05,  avg # of iterations =  2.8

     negative rho (up, down):  1.140E-03 0.000E+00

     Adding external electric field

     Computed dipole along edir(3) : 
        Dipole                0.1719 Ry au,          0.4369 Debye
        Dipole field          0.0003 Ry au, 

        Potential amp.       -0.0318 Ry
        Total length         46.2890 bohr


     total cpu time spent up to now is     9056.2 secs

     total energy              =   -2129.36278876 Ry
     estimated scf accuracy    <       0.00043743 Ry

     iteration # 13     ecut=    55.12 Ry     beta= 0.10
     Davidson diagonalization with overlap
     c_bands:  3 eigenvalues not converged
     c_bands:  1 eigenvalues not converged
     c_bands:  5 eigenvalues not converged
     c_bands:  3 eigenvalues not converged
     c_bands:  5 eigenvalues not converged
     c_bands:  5 eigenvalues not converged
     c_bands:  1 eigenvalues not converged
     c_bands:  3 eigenvalues not converged
     c_bands:  1 eigenvalues not converged
     c_bands:  2 eigenvalues not converged
     c_bands:  2 eigenvalues not converged
     c_bands:  2 eigenvalues not converged
     c_bands:  1 eigenvalues not converged
     c_bands:  3 eigenvalues not converged
     c_bands:  2 eigenvalues not converged
     c_bands:  1 eigenvalues not converged
     c_bands:  4 eigenvalues not converged
     c_bands:  3 eigenvalues not converged
     c_bands:  5 eigenvalues not converged
     c_bands:  4 eigenvalues not converged
     c_bands:  5 eigenvalues not converged
     c_bands:  3 eigenvalues not converged
     c_bands:  3 eigenvalues not converged
     c_bands:  3 eigenvalues not converged
     c_bands:  5 eigenvalues not converged
     c_bands:  3 eigenvalues not converged
     c_bands:  2 eigenvalues not converged
     c_bands:  1 eigenvalues not converged
     c_bands:  5 eigenvalues not converged
     c_bands:  1 eigenvalues not converged
     c_bands:  4 eigenvalues not converged
     c_bands:  2 eigenvalues not converged
     c_bands:  2 eigenvalues not converged
     c_bands:  2 eigenvalues not converged
     c_bands:  3 eigenvalues not converged
     c_bands:  4 eigenvalues not converged
     c_bands:  4 eigenvalues not converged
     c_bands:  3 eigenvalues not converged
     c_bands:  2 eigenvalues not converged
     c_bands:  1 eigenvalues not converged
     c_bands:  3 eigenvalues not converged
     c_bands:  2 eigenvalues not converged
     c_bands:  3 eigenvalues not converged
     c_bands:  2 eigenvalues not converged
     c_bands:  1 eigenvalues not converged
     c_bands:  2 eigenvalues not converged
     c_bands:  1 eigenvalues not converged
     c_bands:  4 eigenvalues not converged
     c_bands:  5 eigenvalues not converged
     c_bands:  5 eigenvalues not converged
     c_bands:  4 eigenvalues not converged
     c_bands:  4 eigenvalues not converged
     c_bands:  3 eigenvalues not converged
     c_bands:  3 eigenvalues not converged
     c_bands:  2 eigenvalues not converged
     c_bands:  2 eigenvalues not converged
     c_bands:  1 eigenvalues not converged
     c_bands:  1 eigenvalues not converged
     c_bands:  1 eigenvalues not converged
     c_bands:  2 eigenvalues not converged
     c_bands:  4 eigenvalues not converged
     c_bands:  4 eigenvalues not converged
     c_bands:  5 eigenvalues not converged
     c_bands:  2 eigenvalues not converged
     c_bands:  3 eigenvalues not converged
     c_bands:  4 eigenvalues not converged
     c_bands:  3 eigenvalues not converged
     c_bands:  1 eigenvalues not converged
     ethr =  2.60E-07,  avg # of iterations = 24.8

     negative rho (up, down):  1.118E-03 0.000E+00

     Adding external electric field

     Computed dipole along edir(3) : 
        Dipole                0.1682 Ry au,          0.4275 Debye
        Dipole field          0.0003 Ry au, 

        Potential amp.       -0.0311 Ry
        Total length         46.2890 bohr


     total cpu time spent up to now is    11806.6 secs

     total energy              =   -2129.36425380 Ry
     estimated scf accuracy    <       0.00350908 Ry

     iteration # 14     ecut=    55.12 Ry     beta= 0.10
     Davidson diagonalization with overlap
     c_bands:  3 eigenvalues not converged
     c_bands:  1 eigenvalues not converged
     c_bands:  1 eigenvalues not converged
     c_bands:  1 eigenvalues not converged
     c_bands:  1 eigenvalues not converged
     c_bands:  1 eigenvalues not converged
     c_bands:  1 eigenvalues not converged
     c_bands:  1 eigenvalues not converged
     c_bands:  1 eigenvalues not converged
     c_bands:  1 eigenvalues not converged
     c_bands:  1 eigenvalues not converged
     c_bands:  2 eigenvalues not converged
     c_bands:  2 eigenvalues not converged
     c_bands:  2 eigenvalues not converged
     c_bands:  1 eigenvalues not converged
     c_bands:  3 eigenvalues not converged
     c_bands:  1 eigenvalues not converged
     c_bands:  1 eigenvalues not converged
     c_bands:  1 eigenvalues not converged
     c_bands:  3 eigenvalues not converged
     c_bands:  1 eigenvalues not converged
     c_bands:  2 eigenvalues not converged
     c_bands:  2 eigenvalues not converged
     c_bands:  2 eigenvalues not converged
     c_bands:  2 eigenvalues not converged
     c_bands:  1 eigenvalues not converged
     c_bands:  1 eigenvalues not converged
     c_bands:  1 eigenvalues not converged
     c_bands:  2 eigenvalues not converged
     c_bands:  3 eigenvalues not converged
     c_bands:  2 eigenvalues not converged
     c_bands:  1 eigenvalues not converged
     c_bands:  1 eigenvalues not converged
     c_bands:  3 eigenvalues not converged
     ethr =  2.60E-07,  avg # of iterations = 12.9

     negative rho (up, down):  1.110E-03 0.000E+00

     Adding external electric field

     Computed dipole along edir(3) : 
        Dipole                0.1723 Ry au,          0.4379 Debye
        Dipole field          0.0003 Ry au, 

        Potential amp.       -0.0319 Ry
        Total length         46.2890 bohr


     total cpu time spent up to now is    12605.1 secs

     total energy              =   -2129.36322991 Ry
     estimated scf accuracy    <       0.00435615 Ry

     iteration # 15     ecut=    55.12 Ry     beta= 0.10
     Davidson diagonalization with overlap
     c_bands:  1 eigenvalues not converged
     c_bands:  1 eigenvalues not converged
     c_bands:  1 eigenvalues not converged
     c_bands:  1 eigenvalues not converged
     c_bands:  1 eigenvalues not converged
     c_bands:  1 eigenvalues not converged
     c_bands:  1 eigenvalues not converged
     ethr =  2.60E-07,  avg # of iterations =  8.2

     negative rho (up, down):  1.101E-03 0.000E+00

     Adding external electric field

     Computed dipole along edir(3) : 
        Dipole                0.1754 Ry au,          0.4458 Debye
        Dipole field          0.0004 Ry au, 

        Potential amp.       -0.0324 Ry
        Total length         46.2890 bohr


     total cpu time spent up to now is    13652.0 secs

     total energy              =   -2129.36407855 Ry
     estimated scf accuracy    <       0.00141235 Ry

     iteration # 16     ecut=    55.12 Ry     beta= 0.10
     Davidson diagonalization with overlap
     ethr =  2.60E-07,  avg # of iterations =  3.9

     negative rho (up, down):  1.095E-03 0.000E+00

     Adding external electric field

     Computed dipole along edir(3) : 
        Dipole                0.1720 Ry au,          0.4372 Debye
        Dipole field          0.0003 Ry au, 

        Potential amp.       -0.0318 Ry
        Total length         46.2890 bohr


     total cpu time spent up to now is    14391.3 secs

     total energy              =   -2129.36370057 Ry
     estimated scf accuracy    <       0.00250233 Ry

     iteration # 17     ecut=    55.12 Ry     beta= 0.10
     Davidson diagonalization with overlap
     ethr =  2.60E-07,  avg # of iterations =  4.0

     negative rho (up, down):  1.088E-03 0.000E+00

     Adding external electric field

     Computed dipole along edir(3) : 
        Dipole                0.1735 Ry au,          0.4410 Debye
        Dipole field          0.0003 Ry au, 

        Potential amp.       -0.0321 Ry
        Total length         46.2890 bohr


     total cpu time spent up to now is    15236.6 secs

     total energy              =   -2129.36389495 Ry
     estimated scf accuracy    <       0.00007294 Ry

     iteration # 18     ecut=    55.12 Ry     beta= 0.10
     Davidson diagonalization with overlap
     ethr =  4.34E-08,  avg # of iterations =  4.3

     negative rho (up, down):  1.081E-03 0.000E+00

     Adding external electric field

     Computed dipole along edir(3) : 
        Dipole                0.1734 Ry au,          0.4407 Debye
        Dipole field          0.0003 Ry au, 

        Potential amp.       -0.0321 Ry
        Total length         46.2890 bohr


     total cpu time spent up to now is    15693.2 secs

     total energy              =   -2129.36387930 Ry
     estimated scf accuracy    <       0.00010559 Ry

     iteration # 19     ecut=    55.12 Ry     beta= 0.10
     Davidson diagonalization with overlap
     c_bands:  1 eigenvalues not converged
     ethr =  4.34E-08,  avg # of iterations =  5.6

     negative rho (up, down):  1.076E-03 0.000E+00

     Adding external electric field

     Computed dipole along edir(3) : 
        Dipole                0.1738 Ry au,          0.4418 Debye
        Dipole field          0.0003 Ry au, 

        Potential amp.       -0.0321 Ry
        Total length         46.2890 bohr


     total cpu time spent up to now is    16234.0 secs

     total energy              =   -2129.36389743 Ry
     estimated scf accuracy    <       0.00001736 Ry

     iteration # 20     ecut=    55.12 Ry     beta= 0.10
     Davidson diagonalization with overlap
     ethr =  1.03E-08,  avg # of iterations =  4.6

     negative rho (up, down):  1.061E-03 0.000E+00

     Adding external electric field

     Computed dipole along edir(3) : 
        Dipole                0.1725 Ry au,          0.4385 Debye
        Dipole field          0.0003 Ry au, 

        Potential amp.       -0.0319 Ry
        Total length         46.2890 bohr


     total cpu time spent up to now is    17122.2 secs

     End of self-consistent calculation

          k = 0.0000 0.0000 0.0000 ( 43363 PWs)   bands (ev):

   -75.6820 -75.6815 -75.4415 -75.4410 -75.3099 -75.3095 -43.6012 -43.5999
   -43.5959 -43.5823 -43.5283 -43.5270 -43.4059 -43.4049 -43.3521 -43.3380
   -43.3202 -43.3191 -43.2805 -43.2787 -43.2122 -43.1989 -43.0968 -43.0955
   -30.9361 -30.8414 -30.8402 -30.7445 -29.9111 -29.8193 -15.0625 -14.9919
   -14.7691 -14.6849 -14.6617 -14.5983 -14.5444 -14.5433 -14.4839 -14.3971
   -14.1825 -14.1265 -14.0538 -13.6905 -13.6429 -13.5165 -13.5152 -13.1908
    -1.5346  -1.0671  -1.0579  -1.0241  -0.8614  -0.7186  -0.6307  -0.4463
    -0.3494  -0.3432  -0.3227  -0.2838   0.0451   0.0579   0.0596   0.1728
     0.2553   0.2558   0.2884   0.3081   0.4793   0.4819   0.7783   0.8268
     0.8598   0.9597   1.0648   1.2868   1.3035   1.4083   1.4663   1.5717
     1.8148   2.1861   2.2535   2.4674   2.9672   3.0192   3.2000   3.2555
     3.3754   3.4531   3.6033   3.7344   3.7403   3.7549   3.7765   3.8536
     3.8728   3.8960   3.9020   3.9079   3.9396

          k = 0.0000 0.0141 0.0000 ( 43353 PWs)   bands (ev):

   -75.6820 -75.6815 -75.4415 -75.4410 -75.3099 -75.3095 -43.6011 -43.6000
   -43.5957 -43.5825 -43.5283 -43.5270 -43.4059 -43.4050 -43.3519 -43.3382
   -43.3202 -43.3192 -43.2805 -43.2787 -43.2119 -43.1991 -43.0967 -43.0956
   -30.9344 -30.8429 -30.8385 -30.7461 -29.9094 -29.8208 -15.0487 -14.9782
   -14.7677 -14.6867 -14.6640 -14.5941 -14.5581 -14.5339 -14.4855 -14.4008
   -14.1678 -14.1451 -14.0726 -13.6868 -13.6422 -13.5201 -13.5178 -13.2106
    -1.4834  -1.0314  -1.0274  -0.9931  -0.8299  -0.7037  -0.5859  -0.4117
    -0.3291  -0.3222  -0.2989  -0.2517   0.0580   0.0669   0.0790   0.1772
     0.2516   0.2518   0.3092   0.3277   0.4641   0.5033   0.7821   0.8358
     0.8611   0.9000   1.1117   1.2780   1.2798   1.4012   1.4300   1.5615
     1.8091   2.1264   2.1812   2.3703   3.0233   3.0253   3.2041   3.2369
     3.4384   3.4480   3.5641   3.6896   3.7434   3.7694   3.7792   3.8489
     3.8726   3.8998   3.9136   3.9227   3.9582

          k = 0.0000 0.0282 0.0000 ( 43378 PWs)   bands (ev):

   -75.6820 -75.6815 -75.4414 -75.4410 -75.3099 -75.3095 -43.6011 -43.6000
   -43.5950 -43.5832 -43.5283 -43.5271 -43.4059 -43.4050 -43.3512 -43.3390
   -43.3202 -43.3192 -43.2804 -43.2788 -43.2113 -43.1998 -43.0967 -43.0956
   -30.9295 -30.8475 -30.8335 -30.7506 -29.9047 -29.8252 -15.0079 -14.9376
   -14.7636 -14.6919 -14.6686 -14.5835 -14.5758 -14.5283 -14.4894 -14.4112
   -14.1986 -14.1267 -14.1246 -13.6761 -13.6398 -13.5302 -13.5255 -13.2679
    -1.3364  -0.9410  -0.9277  -0.9067  -0.7386  -0.6602  -0.4637  -0.3151
    -0.2886  -0.2544  -0.2351  -0.1600   0.0954   0.1068   0.1307   0.1902
     0.2415   0.2639   0.3585   0.3698   0.4543   0.5368   0.7771   0.8013
     0.8666   0.8810   1.1516   1.2012   1.2735   1.3263   1.3807   1.5215
     1.7988   1.9676   2.0098   2.1995   3.0264   3.0975   3.2031   3.2134
     3.4146   3.4804   3.5827   3.6315   3.6827   3.7502   3.8016   3.8155
     3.8918   3.9197   3.9316   3.9511   3.9875

          k = 0.0000 0.0423 0.0000 ( 43436 PWs)   bands (ev):

   -75.6819 -75.6816 -75.4414 -75.4411 -75.3099 -75.3096 -43.6010 -43.6001
   -43.5939 -43.5843 -43.5282 -43.5272 -43.4058 -43.4051 -43.3501 -43.3401
   -43.3201 -43.3193 -43.2803 -43.2789 -43.2102 -43.2009 -43.0966 -43.0957
   -30.9217 -30.8547 -30.8256 -30.7579 -29.8971 -29.8322 -14.9420 -14.8720
   -14.7573 -14.6998 -14.6717 -14.5957 -14.5701 -14.5266 -14.4940 -14.4266
   -14.2818 -14.2107 -14.0548 -13.6600 -13.6352 -13.5452 -13.5379 -13.3567
    -1.1135  -0.8141  -0.7833  -0.7667  -0.5969  -0.5931  -0.3045  -0.2342
    -0.1835  -0.1644  -0.1623  -0.0278   0.1522   0.1559   0.2134   0.2272
     0.2404   0.3016   0.4118   0.4411   0.4571   0.5961   0.7031   0.7514
     0.9202   0.9229   1.0483   1.1163   1.1806   1.3095   1.3583   1.4368
     1.7353   1.8015   1.8296   2.0848   2.9705   3.0481   3.2264   3.2281
     3.3908   3.4095   3.5453   3.5591   3.6676   3.6855   3.7895   3.8074
     3.9022   3.9055   3.9343   3.9454   3.9873

          k = 0.0000 0.0564 0.0000 ( 43435 PWs)   bands (ev):

   -75.6819 -75.6816 -75.4414 -75.4411 -75.3098 -75.3096 -43.6009 -43.6002
   -43.5925 -43.5857 -43.5281 -43.5274 -43.4057 -43.4052 -43.3486 -43.3416
   -43.3200 -43.3195 -43.2801 -43.2791 -43.2089 -43.2022 -43.0964 -43.0958
   -30.9116 -30.8643 -30.8154 -30.7675 -29.8873 -29.8414 -14.8541 -14.7847
   -14.7496 -14.7091 -14.6705 -14.6160 -14.5569 -14.5276 -14.4966 -14.4448
   -14.3867 -14.3162 -13.9617 -13.6401 -13.6279 -13.5632 -13.5543 -13.4681
    -0.8515  -0.6726  -0.6471  -0.5663  -0.5149  -0.4225  -0.1879  -0.1729
    -0.1113  -0.0717  -0.0681   0.1002   0.1593   0.2241   0.2520   0.2672
     0.3329   0.3665   0.4680   0.4791   0.5509   0.6148   0.7175   0.7224
     0.8440   0.9593   0.9616   1.0422   1.0666   1.2862   1.3079   1.4178
     1.4611   1.7513   1.8348   2.0085   2.8370   2.9544   3.1699   3.1824
     3.3487   3.3662   3.4072   3.5059   3.5122   3.7084   3.7398   3.7608
     3.8697   3.8978   3.9217   3.9226   3.9786

          k = 0.0000 0.0705 0.0000 ( 43460 PWs)   bands (ev):

   -75.6818 -75.6817 -75.4413 -75.4412 -75.3098 -75.3097 -43.6007 -43.6004
   -43.5909 -43.5873 -43.5279 -43.5276 -43.4056 -43.4054 -43.3469 -43.3433
   -43.3199 -43.3196 -43.2798 -43.2794 -43.2073 -43.2038 -43.0963 -43.0960
   -30.9000 -30.8755 -30.8036 -30.7789 -29.8761 -29.8523 -14.7506 -14.7409
   -14.7191 -14.6788 -14.6641 -14.6342 -14.5496 -14.5304 -14.5009 -14.4960
   -14.4631 -14.4320 -13.8501 -13.6238 -13.6179 -13.5867 -13.5817 -13.5738
    -0.6183  -0.5565  -0.5208  -0.4506  -0.3572  -0.2448  -0.1725  -0.1121
    -0.0857  -0.0149   0.0024   0.1382   0.1422   0.2502   0.2887   0.3514
     0.3772   0.4094   0.4805   0.5340   0.5864   0.5917   0.7193   0.7796
     0.8591   0.8682   0.9523   1.0235   1.0763   1.1916   1.2334   1.2382
     1.5403   1.7692   1.8836   1.9135   2.6938   2.8790   2.9309   3.0280
     3.3015   3.3205   3.3363   3.3993   3.5229   3.6598   3.6908   3.6995
     3.8784   3.8834   3.9051   3.9206   3.9653

          k = 0.0000-0.0845 0.0000 ( 43444 PWs)   bands (ev):

   -75.6818 -75.6818 -75.4412 -75.4412 -75.3097 -75.3097 -43.6006 -43.6005
   -43.5891 -43.5891 -43.5277 -43.5277 -43.4055 -43.4055 -43.3451 -43.3451
   -43.3197 -43.3197 -43.2796 -43.2796 -43.2056 -43.2056 -43.0961 -43.0961
   -30.8878 -30.8876 -30.7912 -30.7912 -29.8641 -29.8641 -14.7319 -14.7318
   -14.6527 -14.6527 -14.6307 -14.6306 -14.5621 -14.5621 -14.5338 -14.5337
   -14.4774 -14.4774 -13.7267 -13.7267 -13.5986 -13.5986 -13.5951 -13.5951
    -0.5161  -0.5161  -0.4430  -0.4429  -0.2125  -0.2125  -0.0924  -0.0924
    -0.0847  -0.0846   0.1152   0.1153   0.1335   0.1335   0.3353   0.3353
     0.4282   0.4282   0.5086   0.5087   0.5942   0.5942   0.7677   0.7677
     0.8714   0.8714   0.9766   0.9766   1.1060   1.1060   1.2005   1.2005
     1.7327   1.7327   1.8571   1.8572   2.7084   2.7085   2.9020   2.9021
     3.2585   3.2585   3.3618   3.3619   3.5811   3.5812   3.6843   3.6845
     3.8863   3.8871   3.9027   3.9036   3.9558

          k = 0.0133-0.0047 0.0000 ( 43353 PWs)   bands (ev):

   -75.6820 -75.6815 -75.4415 -75.4410 -75.3099 -75.3095 -43.6011 -43.6000
   -43.5957 -43.5825 -43.5283 -43.5270 -43.4059 -43.4050 -43.3519 -43.3382
   -43.3202 -43.3192 -43.2805 -43.2787 -43.2119 -43.1991 -43.0967 -43.0956
   -30.9344 -30.8429 -30.8385 -30.7461 -29.9094 -29.8208 -15.0487 -14.9782
   -14.7677 -14.6867 -14.6640 -14.5941 -14.5581 -14.5339 -14.4855 -14.4008
   -14.1678 -14.1451 -14.0726 -13.6868 -13.6422 -13.5201 -13.5178 -13.2106
    -1.4834  -1.0314  -1.0274  -0.9931  -0.8299  -0.7037  -0.5859  -0.4117
    -0.3291  -0.3222  -0.2989  -0.2517   0.0580   0.0669   0.0790   0.1772
     0.2516   0.2518   0.3092   0.3277   0.4641   0.5033   0.7821   0.8358
     0.8611   0.9000   1.1117   1.2780   1.2798   1.4012   1.4300   1.5615
     1.8091   2.1264   2.1812   2.3703   3.0233   3.0253   3.2041   3.2370
     3.4384   3.4482   3.5640   3.6897   3.7434   3.7694   3.7792   3.8486
     3.8727   3.8996   3.9123   3.9229   3.9574

          k = 0.0133 0.0094 0.0000 ( 43409 PWs)   bands (ev):

   -75.6820 -75.6815 -75.4415 -75.4410 -75.3100 -75.3095 -43.6012 -43.5999
   -43.5959 -43.5823 -43.5284 -43.5270 -43.4060 -43.4049 -43.3521 -43.3380
   -43.3203 -43.3191 -43.2805 -43.2787 -43.2122 -43.1989 -43.0968 -43.0955
   -30.9357 -30.8414 -30.8398 -30.7446 -29.9110 -29.8189 -15.0649 -14.9945
   -14.7710 -14.6817 -14.6766 -14.5893 -14.5661 -14.5184 -14.4952 -14.4001
   -14.1841 -14.1272 -14.0545 -13.6839 -13.6454 -13.5202 -13.5183 -13.1922
    -1.4673  -1.0228  -1.0146  -0.9734  -0.8336  -0.6910  -0.5719  -0.4197
    -0.3189  -0.3045  -0.2801  -0.2509   0.0753   0.0800   0.0906   0.1799
     0.2555   0.2648   0.3031   0.3397   0.4820   0.5100   0.7958   0.8385
     0.8579   0.9500   1.0600   1.2818   1.2864   1.3777   1.4612   1.5719
     1.8167   2.1556   2.2644   2.4642   2.8844   2.9971   3.1288   3.1716
     3.2898   3.3674   3.4652   3.6799   3.7160   3.7829   3.8227   3.8439
     3.8770   3.8774   3.9458   3.9494   3.9680

          k = 0.0133 0.0235 0.0000 ( 43406 PWs)   bands (ev):

   -75.6820 -75.6815 -75.4415 -75.4410 -75.3099 -75.3095 -43.6012 -43.5999
   -43.5957 -43.5825 -43.5284 -43.5271 -43.4060 -43.4049 -43.3519 -43.3382
   -43.3203 -43.3191 -43.2805 -43.2787 -43.2119 -43.1991 -43.0967 -43.0956
   -30.9337 -30.8430 -30.8376 -30.7462 -29.9094 -29.8201 -15.0533 -14.9831
   -14.7721 -14.6869 -14.6805 -14.5821 -14.5776 -14.5080 -14.5059 -14.4064
   -14.1709 -14.1461 -14.0737 -13.6746 -13.6468 -13.5267 -13.5241 -13.2130
    -1.3526  -0.9471  -0.9434  -0.8979  -0.7756  -0.6495  -0.4755  -0.3599
    -0.2804  -0.2400  -0.2234  -0.1884   0.1133   0.1271   0.1307   0.1903
     0.2681   0.2707   0.3380   0.3732   0.4792   0.5503   0.7997   0.8619
     0.8650   0.8880   1.1032   1.2367   1.2755   1.3430   1.4261   1.5567
     1.8173   2.0630   2.1922   2.3505   2.8864   2.9464   3.0064   3.1504
     3.2907   3.3001   3.3756   3.6545   3.6608   3.7693   3.8098   3.8270
     3.8855   3.8862   3.9446   3.9699   3.9841

          k = 0.0133 0.0376 0.0000 ( 43446 PWs)   bands (ev):

   -75.6820 -75.6816 -75.4415 -75.4410 -75.3099 -75.3095 -43.6011 -43.6000
   -43.5950 -43.5832 -43.5283 -43.5271 -43.4060 -43.4050 -43.3512 -43.3390
   -43.3203 -43.3192 -43.2804 -43.2788 -43.2113 -43.1998 -43.0967 -43.0956
   -30.9285 -30.8476 -30.8323 -30.7508 -29.9046 -29.8243 -15.0141 -14.9441
   -14.7715 -14.6923 -14.6831 -14.5913 -14.5749 -14.5148 -14.5026 -14.4182
   -14.1995 -14.1287 -14.1277 -13.6601 -13.6453 -13.5383 -13.5350 -13.2706
    -1.1538  -0.8268  -0.8138  -0.7834  -0.6618  -0.5832  -0.3292  -0.2444
    -0.2286  -0.1612  -0.1402  -0.0755   0.1495   0.1845   0.2063   0.2406
     0.2692   0.3049   0.4044   0.4195   0.4760   0.6128   0.7702   0.7796
     0.9143   0.9168   1.1377   1.1438   1.2590   1.3089   1.3319   1.5036
     1.8280   1.8875   1.9583   2.1954   2.8370   2.8593   2.9899   3.1376
     3.2405   3.3283   3.3562   3.5912   3.5962   3.6841   3.8066   3.8129
     3.8864   3.8870   3.9348   3.9396   3.9898

          k = 0.0133 0.0517 0.0000 ( 43470 PWs)   bands (ev):

   -75.6819 -75.6816 -75.4414 -75.4411 -75.3099 -75.3096 -43.6010 -43.6001
   -43.5939 -43.5843 -43.5282 -43.5272 -43.4059 -43.4050 -43.3501 -43.3401
   -43.3202 -43.3193 -43.2802 -43.2790 -43.2103 -43.2009 -43.0966 -43.0957
   -30.9205 -30.8550 -30.8243 -30.7583 -29.8972 -29.8312 -14.9489 -14.8792
   -14.7692 -14.6911 -14.6888 -14.6059 -14.5696 -14.5179 -14.5017 -14.4333
   -14.2820 -14.2108 -14.0593 -13.6423 -13.6398 -13.5536 -13.5500 -13.3589
    -0.9012  -0.6873  -0.6527  -0.6363  -0.5062  -0.5012  -0.1864  -0.1840
    -0.1153  -0.1020  -0.0413   0.0645   0.1476   0.2358   0.2612   0.2738
     0.3467   0.3802   0.4462   0.4828   0.5376   0.6626   0.7298   0.7423
     0.9612   0.9696   0.9954   1.1001   1.1818   1.2342   1.3493   1.4058
     1.6241   1.7847   1.8660   2.0778   2.6830   2.7526   3.0536   3.0605
     3.1759   3.2666   3.3830   3.5145   3.5255   3.6280   3.7553   3.7879
     3.8642   3.8707   3.9146   3.9270   3.9851

          k = 0.0133 0.0658 0.0000 ( 43468 PWs)   bands (ev):

   -75.6819 -75.6816 -75.4414 -75.4411 -75.3098 -75.3096 -43.6009 -43.6002
   -43.5925 -43.5857 -43.5281 -43.5274 -43.4059 -43.4051 -43.3486 -43.3415
   -43.3201 -43.3194 -43.2800 -43.2792 -43.2089 -43.2022 -43.0964 -43.0958
   -30.9105 -30.8647 -30.8141 -30.7681 -29.8876 -29.8405 -14.8608 -14.7914
   -14.7647 -14.6970 -14.6833 -14.6198 -14.5672 -14.5130 -14.5054 -14.4488
   -14.3856 -14.3150 -13.9658 -13.6313 -13.6215 -13.5709 -13.5681 -13.4692
    -0.6494  -0.5585  -0.5281  -0.4356  -0.4289  -0.3220  -0.1616  -0.0923
    -0.0636  -0.0324   0.0286   0.1245   0.1729   0.2711   0.2976   0.3191
     0.3698   0.4635   0.4934   0.5128   0.6138   0.6304   0.7036   0.8504
     0.8695   0.9446   0.9759   1.0415   1.0944   1.1886   1.2750   1.3428
     1.4756   1.7728   1.9086   1.9433   2.5530   2.6951   2.9105   2.9239
     3.1300   3.3217   3.3494   3.4303   3.4492   3.6562   3.6987   3.7145
     3.8595   3.8671   3.9158   3.9259   3.9590

          k = 0.0133-0.0893 0.0000 ( 43483 PWs)   bands (ev):

   -75.6818 -75.6817 -75.4413 -75.4412 -75.3098 -75.3097 -43.6008 -43.6003
   -43.5909 -43.5873 -43.5279 -43.5275 -43.4057 -43.4053 -43.3469 -43.3432
   -43.3200 -43.3195 -43.2798 -43.2794 -43.2073 -43.2038 -43.0963 -43.0960
   -30.8990 -30.8761 -30.8025 -30.7796 -29.8765 -29.8515 -14.7576 -14.7553
   -14.7068 -14.6847 -14.6696 -14.6308 -14.5671 -14.5141 -14.5072 -14.4958
   -14.4610 -14.4301 -13.8531 -13.6240 -13.6005 -13.5905 -13.5866 -13.5859
    -0.4959  -0.4873  -0.4384  -0.4077  -0.2307  -0.1712  -0.1472  -0.0612
    -0.0581   0.0135   0.0436   0.1056   0.1791   0.2132   0.3057   0.3864
     0.4306   0.4436   0.4526   0.5634   0.6082   0.6115   0.7231   0.7991
     0.8673   0.8997   0.9749   0.9905   1.0755   1.1433   1.1549   1.2471
     1.6828   1.7510   1.8337   1.8497   2.6058   2.6999   2.7571   2.8092
     3.1877   3.2850   3.3379   3.4496   3.4950   3.5682   3.6588   3.7515
     3.8600   3.8609   3.9107   3.9316   3.9471

          k = 0.0133-0.0752 0.0000 ( 43487 PWs)   bands (ev):

   -75.6818 -75.6818 -75.4413 -75.4412 -75.3097 -75.3097 -43.6006 -43.6005
   -43.5891 -43.5891 -43.5278 -43.5277 -43.4056 -43.4054 -43.3451 -43.3451
   -43.3198 -43.3197 -43.2796 -43.2796 -43.2056 -43.2055 -43.0961 -43.0961
   -30.8885 -30.8869 -30.7921 -30.7902 -29.8647 -29.8635 -14.7478 -14.7206
   -14.6516 -14.6409 -14.6340 -14.6266 -14.5654 -14.5619 -14.5537 -14.5275
   -14.4789 -14.4673 -13.7277 -13.7247 -13.6126 -13.6004 -13.5964 -13.5799
    -0.5290  -0.4988  -0.4648  -0.4359  -0.2504  -0.1287  -0.1261  -0.0664
    -0.0626  -0.0227   0.0824   0.1086   0.1751   0.1913   0.3178   0.3274
     0.3960   0.4723   0.4880   0.5262   0.5704   0.5802   0.7444   0.7552
     0.7803   0.8564   0.9318   1.0210   1.0379   1.1202   1.1476   1.2778
     1.5700   1.7327   1.8408   1.8830   2.7493   2.8391   2.8491   2.8554
     3.2589   3.3473   3.3683   3.4638   3.5539   3.6118   3.6169   3.7723
     3.8411   3.8648   3.8941   3.9337   3.9796

          k = 0.0133-0.0611 0.0000 ( 43459 PWs)   bands (ev):

   -75.6818 -75.6817 -75.4413 -75.4412 -75.3098 -75.3097 -43.6007 -43.6004
   -43.5909 -43.5874 -43.5279 -43.5276 -43.4055 -43.4054 -43.3469 -43.3433
   -43.3198 -43.3197 -43.2799 -43.2793 -43.2073 -43.2039 -43.0963 -43.0960
   -30.9009 -30.8749 -30.8047 -30.7782 -29.8757 -29.8530 -14.7483 -14.7320
   -14.7303 -14.6725 -14.6450 -14.6272 -14.5569 -14.5517 -14.5054 -14.4756
   -14.4608 -14.4350 -13.8472 -13.6347 -13.6197 -13.5899 -13.5776 -13.5608
    -0.7258  -0.5993  -0.5849  -0.4983  -0.4392  -0.2974  -0.1429  -0.1008
    -0.0675  -0.0423   0.0108   0.1144   0.2016   0.2298   0.2848   0.3166
     0.3228   0.3574   0.4860   0.5048   0.5599   0.5731   0.6843   0.7087
     0.7329   0.8547   0.9519   0.9756   1.0315   1.1889   1.3037   1.3278
     1.4633   1.7027   1.7894   1.9667   2.9258   3.0072   3.0381   3.1579
     3.3427   3.4215   3.4713   3.4928   3.5577   3.6655   3.7330   3.7742
     3.8502   3.8561   3.8926   3.9288   3.9680

          k = 0.0133-0.0470 0.0000 ( 43440 PWs)   bands (ev):

   -75.6819 -75.6816 -75.4414 -75.4411 -75.3098 -75.3096 -43.6008 -43.6003
   -43.5925 -43.5857 -43.5280 -43.5274 -43.4056 -43.4053 -43.3486 -43.3416
   -43.3199 -43.3195 -43.2801 -43.2791 -43.2088 -43.2023 -43.0965 -43.0958
   -30.9125 -30.8640 -30.8164 -30.7672 -29.8872 -29.8422 -14.8492 -14.7797
   -14.7435 -14.7189 -14.6468 -14.6032 -14.5676 -14.5538 -14.4740 -14.4408
   -14.3879 -14.3176 -13.9585 -13.6550 -13.6247 -13.5580 -13.5441 -13.4678
    -0.9874  -0.7402  -0.7243  -0.6542  -0.5748  -0.4788  -0.2081  -0.2005
    -0.1411  -0.0963  -0.0714   0.0553   0.1452   0.1824   0.2069   0.2489
     0.2560   0.3067   0.4363   0.4449   0.4752   0.5883   0.6306   0.7567
     0.8763   0.9109   0.9192   1.0288   1.0469   1.3346   1.3655   1.3980
     1.5214   1.7609   1.7683   2.0073   3.0531   3.1683   3.1959   3.3602
     3.4195   3.5049   3.5278   3.5782   3.5973   3.7613   3.7757   3.8431
     3.8688   3.8897   3.8951   3.9344   3.9544

          k = 0.0133-0.0329 0.0000 ( 43441 PWs)   bands (ev):

   -75.6819 -75.6816 -75.4414 -75.4411 -75.3099 -75.3096 -43.6010 -43.6001
   -43.5939 -43.5843 -43.5282 -43.5273 -43.4058 -43.4052 -43.3500 -43.3401
   -43.3201 -43.3194 -43.2803 -43.2789 -43.2102 -43.2009 -43.0966 -43.0957
   -30.9224 -30.8546 -30.8264 -30.7578 -29.8971 -29.8328 -14.9380 -14.8677
   -14.7537 -14.7066 -14.6483 -14.5836 -14.5783 -14.5519 -14.4750 -14.4226
   -14.2819 -14.2107 -14.0521 -13.6714 -13.6319 -13.5405 -13.5310 -13.3555
    -1.2264  -0.8770  -0.8550  -0.8392  -0.6430  -0.6417  -0.3701  -0.2624
    -0.2294  -0.2090  -0.1759  -0.0720   0.0768   0.1133   0.1702   0.2128
     0.2142   0.2681   0.3948   0.3995   0.4233   0.5388   0.7175   0.7800
     0.8748   0.8754   1.1077   1.1167   1.1553   1.3236   1.4039   1.4554
     1.7650   1.7671   1.8858   2.0759   3.0813   3.2361   3.2446   3.3874
     3.4594   3.5882   3.6144   3.6252   3.7047   3.7478   3.7943   3.8382
     3.8606   3.8647   3.9346   3.9577   4.0045

          k = 0.0133-0.0188 0.0000 ( 43405 PWs)   bands (ev):

   -75.6820 -75.6815 -75.4415 -75.4410 -75.3099 -75.3095 -43.6011 -43.6000
   -43.5950 -43.5832 -43.5283 -43.5271 -43.4059 -43.4050 -43.3512 -43.3390
   -43.3202 -43.3192 -43.2804 -43.2788 -43.2113 -43.1998 -43.0967 -43.0956
   -30.9299 -30.8474 -30.8340 -30.7506 -29.9047 -29.8255 -15.0056 -14.9352
   -14.7619 -14.6953 -14.6534 -14.5931 -14.5568 -14.5509 -14.4786 -14.4087
   -14.1983 -14.1264 -14.1230 -13.6825 -13.6376 -13.5272 -13.5220 -13.2669
    -1.3996  -0.9789  -0.9690  -0.9511  -0.7644  -0.6868  -0.5124  -0.3366
    -0.3086  -0.2925  -0.2620  -0.1889   0.0607   0.0677   0.1116   0.1881
     0.2336   0.2506   0.3453   0.3502   0.4388   0.5158   0.7824   0.8101
     0.8473   0.8631   1.1520   1.2313   1.2777   1.3164   1.4106   1.5282
     1.7895   1.9924   2.0273   2.2012   3.0568   3.1708   3.2359   3.3329
     3.4806   3.6066   3.6234   3.6999   3.7278   3.7442   3.7606   3.8392
     3.8483   3.8524   3.9214   3.9684   3.9722

          k = 0.0266-0.0094 0.0000 ( 43378 PWs)   bands (ev):

   -75.6820 -75.6815 -75.4414 -75.4410 -75.3099 -75.3095 -43.6011 -43.6000
   -43.5950 -43.5832 -43.5283 -43.5271 -43.4059 -43.4050 -43.3512 -43.3390
   -43.3202 -43.3192 -43.2804 -43.2788 -43.2113 -43.1998 -43.0967 -43.0956
   -30.9295 -30.8475 -30.8335 -30.7506 -29.9047 -29.8252 -15.0079 -14.9376
   -14.7636 -14.6919 -14.6686 -14.5835 -14.5758 -14.5283 -14.4894 -14.4112
   -14.1986 -14.1267 -14.1246 -13.6761 -13.6398 -13.5302 -13.5255 -13.2679
    -1.3364  -0.9410  -0.9277  -0.9067  -0.7386  -0.6602  -0.4637  -0.3151
    -0.2886  -0.2544  -0.2351  -0.1600   0.0954   0.1068   0.1307   0.1902
     0.2415   0.2639   0.3585   0.3698   0.4543   0.5368   0.7771   0.8013
     0.8666   0.8810   1.1516   1.2012   1.2735   1.3263   1.3807   1.5215
     1.7988   1.9676   2.0098   2.1995   3.0264   3.0975   3.2032   3.2133
     3.4147   3.4804   3.5828   3.6314   3.6826   3.7501   3.8018   3.8153
     3.8923   3.9177   3.9301   3.9539   3.9869

          k = 0.0266 0.0047 0.0000 ( 43406 PWs)   bands (ev):

   -75.6820 -75.6815 -75.4415 -75.4410 -75.3099 -75.3095 -43.6012 -43.5999
   -43.5957 -43.5825 -43.5284 -43.5271 -43.4060 -43.4049 -43.3519 -43.3382
   -43.3203 -43.3191 -43.2805 -43.2787 -43.2119 -43.1991 -43.0967 -43.0956
   -30.9337 -30.8430 -30.8376 -30.7462 -29.9094 -29.8201 -15.0533 -14.9831
   -14.7721 -14.6869 -14.6805 -14.5821 -14.5776 -14.5080 -14.5059 -14.4064
   -14.1709 -14.1461 -14.0737 -13.6746 -13.6468 -13.5267 -13.5241 -13.2130
    -1.3526  -0.9471  -0.9434  -0.8979  -0.7756  -0.6495  -0.4755  -0.3599
    -0.2804  -0.2400  -0.2234  -0.1884   0.1133   0.1271   0.1307   0.1903
     0.2681   0.2707   0.3380   0.3732   0.4792   0.5503   0.7997   0.8619
     0.8650   0.8880   1.1032   1.2367   1.2755   1.3430   1.4261   1.5567
     1.8173   2.0630   2.1922   2.3505   2.8864   2.9464   3.0064   3.1504
     3.2908   3.3001   3.3756   3.6544   3.6609   3.7692   3.8098   3.8270
     3.8849   3.8852   3.9438   3.9700   3.9823

          k = 0.0266 0.0188 0.0000 ( 43429 PWs)   bands (ev):

   -75.6820 -75.6815 -75.4415 -75.4410 -75.3100 -75.3095 -43.6012 -43.5999
   -43.5959 -43.5823 -43.5284 -43.5270 -43.4061 -43.4049 -43.3521 -43.3380
   -43.3204 -43.3191 -43.2805 -43.2787 -43.2122 -43.1989 -43.0967 -43.0955
   -30.9346 -30.8415 -30.8385 -30.7446 -29.9109 -29.8179 -15.0715 -15.0014
   -14.7795 -14.7001 -14.6734 -14.5822 -14.5816 -14.5215 -14.4931 -14.4083
   -14.1886 -14.1289 -14.0563 -13.6674 -13.6518 -13.5299 -13.5271 -13.1957
    -1.2728  -0.9023  -0.8856  -0.8330  -0.7511  -0.6101  -0.4090  -0.3342
    -0.2383  -0.1804  -0.1674  -0.1554   0.1422   0.1601   0.1809   0.2063
     0.2858   0.2970   0.3470   0.4003   0.4902   0.5879   0.8425   0.8468
     0.8696   0.9226   1.0459   1.2248   1.2858   1.2952   1.4461   1.5680
     1.8250   2.0912   2.2815   2.4499   2.6568   2.8241   2.8449   3.0419
     3.0805   3.1904   3.3100   3.6127   3.6540   3.7145   3.8030   3.8080
     3.8893   3.8957   3.8969   3.9496   4.0294

          k = 0.0266 0.0329 0.0000 ( 43454 PWs)   bands (ev):

   -75.6820 -75.6815 -75.4415 -75.4410 -75.3099 -75.3095 -43.6012 -43.5999
   -43.5957 -43.5825 -43.5284 -43.5270 -43.4061 -43.4048 -43.3519 -43.3382
   -43.3204 -43.3191 -43.2804 -43.2788 -43.2120 -43.1991 -43.0967 -43.0956
   -30.9323 -30.8431 -30.8361 -30.7463 -29.9093 -29.8189 -15.0613 -14.9914
   -14.7856 -14.7066 -14.6710 -14.5889 -14.5834 -14.5321 -14.4846 -14.4157
   -14.1763 -14.1479 -14.0757 -13.6560 -13.6535 -13.5382 -13.5351 -13.2171
    -1.1060  -0.8029  -0.7796  -0.7276  -0.6681  -0.5453  -0.3007  -0.2263
    -0.1806  -0.1058  -0.0787  -0.0684   0.1720   0.2352   0.2359   0.2469
     0.3196   0.3230   0.4083   0.4312   0.4926   0.6454   0.8049   0.8493
     0.9034   0.9034   1.0784   1.1653   1.2505   1.2715   1.4161   1.5427
     1.8390   1.9683   2.1655   2.3124   2.6622   2.6633   2.6923   2.9664
     2.9889   3.1642   3.2811   3.5360   3.6152   3.6185   3.7704   3.8110
     3.8239   3.8697   3.8961   3.9234   3.9928

          k = 0.0266 0.0470 0.0000 ( 43503 PWs)   bands (ev):

   -75.6820 -75.6816 -75.4415 -75.4410 -75.3099 -75.3095 -43.6012 -43.5999
   -43.5950 -43.5832 -43.5284 -43.5271 -43.4061 -43.4049 -43.3512 -43.3389
   -43.3204 -43.3191 -43.2803 -43.2789 -43.2113 -43.1998 -43.0967 -43.0956
   -30.9270 -30.8477 -30.8307 -30.7510 -29.9046 -29.8230 -15.0225 -14.9529
   -14.7892 -14.7059 -14.6732 -14.5963 -14.5878 -14.5346 -14.4829 -14.4260
   -14.2009 -14.1344 -14.1291 -13.6518 -13.6405 -13.5505 -13.5472 -13.2744
    -0.8746  -0.6599  -0.6450  -0.6040  -0.5353  -0.4631  -0.1791  -0.1280
    -0.0770  -0.0495   0.0287   0.0577   0.1667   0.2701   0.2876   0.3393
     0.3658   0.3850   0.4566   0.4977   0.5392   0.6965   0.7546   0.7887
     0.9529   0.9611   1.0596   1.0885   1.2222   1.2708   1.3243   1.4753
     1.7336   1.8774   1.8835   2.1774   2.4879   2.5417   2.7863   2.8348
     2.9395   3.1879   3.2786   3.4488   3.5264   3.5648   3.7248   3.7381
     3.8255   3.8451   3.8962   3.9026   3.9768

          k = 0.0266 0.0611 0.0000 ( 43467 PWs)   bands (ev):

   -75.6819 -75.6816 -75.4414 -75.4411 -75.3099 -75.3096 -43.6011 -43.6000
   -43.5940 -43.5843 -43.5283 -43.5272 -43.4061 -43.4049 -43.3501 -43.3401
   -43.3203 -43.3192 -43.2802 -43.2790 -43.2103 -43.2008 -43.0966 -43.0957
   -30.9192 -30.8553 -30.8227 -30.7586 -29.8973 -29.8300 -14.9568 -14.8874
   -14.7890 -14.6987 -14.6797 -14.6033 -14.5919 -14.5293 -14.4890 -14.4358
   -14.2824 -14.2111 -14.0644 -13.6448 -13.6233 -13.5663 -13.5617 -13.3617
    -0.6225  -0.5097  -0.4854  -0.4844  -0.3901  -0.3565  -0.0931  -0.0585
    -0.0053   0.0191   0.1008   0.1475   0.1984   0.2787   0.3395   0.3426
     0.4026   0.4916   0.5120   0.5182   0.6501   0.6673   0.7072   0.8704
     0.9357   0.9805   0.9908   1.0487   1.1522   1.1640   1.3662   1.3811
     1.4415   1.7692   1.9039   1.9941   2.3685   2.4736   2.6937   2.7527
     2.9127   3.2226   3.2970   3.3059   3.5266   3.6126   3.6596   3.6806
     3.8298   3.8369   3.8972   3.9123   3.9857

          k = 0.0266-0.0940 0.0000 ( 43471 PWs)   bands (ev):

   -75.6819 -75.6816 -75.4414 -75.4411 -75.3098 -75.3096 -43.6010 -43.6001
   -43.5926 -43.5857 -43.5281 -43.5274 -43.4060 -43.4050 -43.3487 -43.3415
   -43.3202 -43.3193 -43.2800 -43.2792 -43.2089 -43.2022 -43.0964 -43.0958
   -30.9093 -30.8651 -30.8127 -30.7686 -29.8878 -29.8395 -14.8673 -14.7980
   -14.7839 -14.6894 -14.6855 -14.6090 -14.5933 -14.5180 -14.5028 -14.4427
   -14.3849 -14.3142 -13.9697 -13.6330 -13.6051 -13.5849 -13.5765 -13.4709
    -0.4376  -0.4236  -0.3873  -0.3447  -0.2789  -0.1609  -0.0797   0.0180
     0.0277   0.0456   0.0830   0.1499   0.2392   0.3154   0.3263   0.3740
     0.4211   0.4899   0.5220   0.5567   0.6275   0.6825   0.6878   0.8397
     0.8730   0.9359   0.9881   1.0102   1.0452   1.1241   1.1847   1.3008
     1.5915   1.7528   1.7958   1.8031   2.4586   2.4841   2.5660   2.6240
     3.0143   3.2595   3.2663   3.3665   3.5060   3.6064   3.6305   3.7378
     3.8260   3.8383   3.9154   3.9429   3.9542

          k = 0.0266-0.0799 0.0000 ( 43496 PWs)   bands (ev):

   -75.6818 -75.6817 -75.4413 -75.4412 -75.3098 -75.3097 -43.6008 -43.6003
   -43.5909 -43.5873 -43.5280 -43.5275 -43.4058 -43.4052 -43.3470 -43.3432
   -43.3201 -43.3195 -43.2798 -43.2794 -43.2073 -43.2038 -43.0963 -43.0960
   -30.8981 -30.8767 -30.8014 -30.7803 -29.8769 -29.8508 -14.7740 -14.7596
   -14.7012 -14.6892 -14.6668 -14.6126 -14.5915 -14.5220 -14.5068 -14.4959
   -14.4474 -14.4295 -13.8553 -13.6204 -13.6054 -13.5903 -13.5898 -13.5868
    -0.4184  -0.3999  -0.3753  -0.3693  -0.1049  -0.0754  -0.0224   0.0173
     0.0423   0.0462   0.0959   0.1047   0.1870   0.2416   0.2938   0.3917
     0.4358   0.4767   0.5018   0.5622   0.5855   0.6213   0.7057   0.7646
     0.7778   0.8450   0.9351   0.9781   1.0265   1.0638   1.1074   1.3028
     1.5698   1.6484   1.7969   1.8361   2.5571   2.5884   2.6755   2.7236
     3.1066   3.3403   3.3775   3.4267   3.5013   3.5977   3.6414   3.7655
     3.8222   3.8440   3.9293   3.9330   3.9468

          k = 0.0266-0.0658 0.0000 ( 43467 PWs)   bands (ev):

   -75.6818 -75.6818 -75.4413 -75.4412 -75.3097 -75.3097 -43.6006 -43.6005
   -43.5891 -43.5891 -43.5278 -43.5277 -43.4057 -43.4053 -43.3451 -43.3451
   -43.3199 -43.3196 -43.2797 -43.2795 -43.2056 -43.2055 -43.0961 -43.0961
   -30.8891 -30.8863 -30.7928 -30.7896 -29.8652 -29.8631 -14.7603 -14.7168
   -14.6436 -14.6373 -14.6233 -14.6159 -14.5840 -14.5671 -14.5520 -14.5425
   -14.4801 -14.4513 -13.7279 -13.7225 -13.6260 -13.6026 -13.5954 -13.5693
    -0.5369  -0.4831  -0.4763  -0.4523  -0.2543  -0.1387  -0.0678  -0.0038
     0.0145   0.0694   0.0939   0.1375   0.2425   0.2617   0.2718   0.2978
     0.3808   0.4619   0.4950   0.5067   0.5158   0.5790   0.6177   0.7017
     0.7566   0.7623   0.9092   0.9436   1.0091   1.0602   1.1766   1.3502
     1.4824   1.6154   1.7455   1.9383   2.7457   2.8194   2.9163   3.0231
     3.1833   3.4052   3.4844   3.5488   3.5601   3.6391   3.6777   3.7537
     3.8054   3.8332   3.9089   3.9473   3.9642

          k = 0.0266-0.0517 0.0000 ( 43458 PWs)   bands (ev):

   -75.6818 -75.6817 -75.4413 -75.4412 -75.3098 -75.3097 -43.6006 -43.6005
   -43.5908 -43.5874 -43.5279 -43.5276 -43.4055 -43.4055 -43.3469 -43.3433
   -43.3198 -43.3197 -43.2799 -43.2793 -43.2072 -43.2039 -43.0963 -43.0960
   -30.9014 -30.8746 -30.8052 -30.7778 -29.8755 -29.8534 -14.7503 -14.7334
   -14.7297 -14.6682 -14.6211 -14.6164 -14.5790 -14.5656 -14.5087 -14.4597
   -14.4576 -14.4389 -13.8453 -13.6451 -13.6147 -13.5942 -13.5753 -13.5536
    -0.7868  -0.6171  -0.6166  -0.5294  -0.4773  -0.3202  -0.1389  -0.0781
    -0.0600   0.0415   0.0673   0.1192   0.1478   0.2103   0.2844   0.2854
     0.3135   0.3204   0.4069   0.4884   0.5063   0.5656   0.5937   0.6814
     0.7829   0.8328   0.8925   0.9613   0.9704   1.1986   1.3311   1.3908
     1.4320   1.6838   1.7206   1.9641   2.9385   3.1218   3.1698   3.2939
     3.3073   3.4169   3.5560   3.5635   3.6713   3.7017   3.7547   3.7913
     3.7990   3.8285   3.8661   3.9547   3.9727

          k = 0.0266-0.0376 0.0000 ( 43472 PWs)   bands (ev):

   -75.6819 -75.6816 -75.4414 -75.4411 -75.3098 -75.3096 -43.6008 -43.6003
   -43.5925 -43.5857 -43.5280 -43.5274 -43.4056 -43.4053 -43.3486 -43.3416
   -43.3199 -43.3195 -43.2801 -43.2791 -43.2088 -43.2023 -43.0965 -43.0958
   -30.9128 -30.8638 -30.8167 -30.7670 -29.8871 -29.8424 -14.8473 -14.7780
   -14.7423 -14.7224 -14.6308 -14.5912 -14.5788 -14.5705 -14.4641 -14.4395
   -14.3885 -14.3182 -13.9573 -13.6608 -13.6232 -13.5562 -13.5405 -13.4678
    -1.0348  -0.7614  -0.7513  -0.6843  -0.5963  -0.4974  -0.2158  -0.2094
    -0.1674  -0.0585  -0.0575   0.0582   0.0753   0.1408   0.2017   0.2296
     0.2594   0.2871   0.3964   0.4418   0.4473   0.5519   0.6380   0.7937
     0.8693   0.8837   0.9040   1.0123   1.0459   1.3451   1.3815   1.4091
     1.5347   1.7341   1.7853   1.9996   3.0902   3.1814   3.3088   3.4550
     3.4847   3.4935   3.5077   3.6296   3.6894   3.7382   3.7880   3.8107
     3.8272   3.8865   3.9390   3.9430   3.9560

          k = 0.0266-0.0235 0.0000 ( 43441 PWs)   bands (ev):

   -75.6819 -75.6816 -75.4414 -75.4411 -75.3099 -75.3096 -43.6010 -43.6001
   -43.5939 -43.5843 -43.5282 -43.5273 -43.4058 -43.4052 -43.3500 -43.3401
   -43.3201 -43.3194 -43.2803 -43.2789 -43.2102 -43.2009 -43.0966 -43.0957
   -30.9224 -30.8546 -30.8264 -30.7578 -29.8971 -29.8328 -14.9380 -14.8677
   -14.7537 -14.7066 -14.6483 -14.5836 -14.5783 -14.5519 -14.4750 -14.4226
   -14.2819 -14.2107 -14.0521 -13.6714 -13.6319 -13.5405 -13.5310 -13.3555
    -1.2264  -0.8770  -0.8550  -0.8392  -0.6430  -0.6417  -0.3701  -0.2624
    -0.2294  -0.2090  -0.1759  -0.0720   0.0768   0.1133   0.1702   0.2128
     0.2142   0.2681   0.3948   0.3995   0.4233   0.5388   0.7175   0.7800
     0.8748   0.8754   1.1077   1.1167   1.1553   1.3236   1.4039   1.4554
     1.7650   1.7671   1.8858   2.0759   3.0813   3.2362   3.2446   3.3874
     3.4594   3.5884   3.6144   3.6251   3.7046   3.7479   3.7942   3.8382
     3.8608   3.8647   3.9338   3.9550   4.0052

          k = 0.0399-0.0141 0.0000 ( 43436 PWs)   bands (ev):

   -75.6819 -75.6816 -75.4414 -75.4411 -75.3099 -75.3096 -43.6010 -43.6001
   -43.5939 -43.5843 -43.5282 -43.5272 -43.4058 -43.4051 -43.3501 -43.3401
   -43.3201 -43.3193 -43.2803 -43.2789 -43.2102 -43.2009 -43.0966 -43.0957
   -30.9217 -30.8547 -30.8256 -30.7579 -29.8971 -29.8322 -14.9420 -14.8720
   -14.7573 -14.6998 -14.6717 -14.5957 -14.5701 -14.5266 -14.4940 -14.4266
   -14.2818 -14.2107 -14.0548 -13.6600 -13.6352 -13.5452 -13.5379 -13.3567
    -1.1135  -0.8141  -0.7833  -0.7667  -0.5969  -0.5931  -0.3045  -0.2342
    -0.1835  -0.1644  -0.1623  -0.0278   0.1522   0.1559   0.2134   0.2272
     0.2404   0.3016   0.4118   0.4411   0.4571   0.5961   0.7031   0.7514
     0.9202   0.9229   1.0483   1.1163   1.1806   1.3095   1.3583   1.4368
     1.7353   1.8015   1.8296   2.0848   2.9705   3.0481   3.2264   3.2282
     3.3908   3.4095   3.5457   3.5591   3.6679   3.6856   3.7895   3.8068
     3.9023   3.9052   3.9340   3.9449   3.9818

          k = 0.0399-0.0000 0.0000 ( 43446 PWs)   bands (ev):

   -75.6820 -75.6816 -75.4415 -75.4410 -75.3099 -75.3095 -43.6011 -43.6000
   -43.5950 -43.5832 -43.5283 -43.5271 -43.4060 -43.4050 -43.3512 -43.3390
   -43.3203 -43.3192 -43.2804 -43.2788 -43.2113 -43.1998 -43.0967 -43.0956
   -30.9285 -30.8476 -30.8323 -30.7508 -29.9046 -29.8243 -15.0141 -14.9441
   -14.7715 -14.6923 -14.6831 -14.5913 -14.5749 -14.5148 -14.5026 -14.4182
   -14.1995 -14.1287 -14.1277 -13.6601 -13.6453 -13.5383 -13.5350 -13.2706
    -1.1538  -0.8268  -0.8138  -0.7834  -0.6618  -0.5832  -0.3292  -0.2444
    -0.2286  -0.1612  -0.1402  -0.0755   0.1495   0.1845   0.2063   0.2406
     0.2692   0.3049   0.4044   0.4195   0.4760   0.6128   0.7702   0.7796
     0.9143   0.9168   1.1377   1.1438   1.2590   1.3089   1.3319   1.5036
     1.8280   1.8875   1.9583   2.1954   2.8370   2.8593   2.9899   3.1376
     3.2404   3.3283   3.3561   3.5909   3.5961   3.6840   3.8064   3.8137
     3.8864   3.8873   3.9340   3.9392   3.9900

          k = 0.0399 0.0141 0.0000 ( 43454 PWs)   bands (ev):

   -75.6820 -75.6815 -75.4415 -75.4410 -75.3099 -75.3095 -43.6012 -43.5999
   -43.5957 -43.5825 -43.5284 -43.5270 -43.4061 -43.4048 -43.3519 -43.3382
   -43.3204 -43.3191 -43.2804 -43.2788 -43.2120 -43.1991 -43.0967 -43.0956
   -30.9323 -30.8431 -30.8361 -30.7463 -29.9093 -29.8189 -15.0613 -14.9914
   -14.7856 -14.7066 -14.6710 -14.5889 -14.5834 -14.5321 -14.4846 -14.4157
   -14.1763 -14.1479 -14.0757 -13.6560 -13.6535 -13.5382 -13.5351 -13.2171
    -1.1060  -0.8029  -0.7796  -0.7276  -0.6681  -0.5453  -0.3007  -0.2263
    -0.1806  -0.1058  -0.0787  -0.0684   0.1720   0.2352   0.2359   0.2469
     0.3196   0.3230   0.4083   0.4312   0.4926   0.6454   0.8049   0.8493
     0.9034   0.9034   1.0784   1.1653   1.2505   1.2715   1.4161   1.5427
     1.8390   1.9683   2.1655   2.3124   2.6622   2.6633   2.6923   2.9664
     2.9889   3.1642   3.2811   3.5359   3.6147   3.6186   3.7700   3.8108
     3.8240   3.8687   3.8959   3.9226   3.9792

          k = 0.0399 0.0282 0.0000 ( 43463 PWs)   bands (ev):

   -75.6820 -75.6815 -75.4415 -75.4410 -75.3100 -75.3095 -43.6013 -43.5998
   -43.5960 -43.5822 -43.5285 -43.5270 -43.4062 -43.4048 -43.3522 -43.3380
   -43.3205 -43.3190 -43.2804 -43.2787 -43.2122 -43.1989 -43.0967 -43.0955
   -30.9331 -30.8415 -30.8368 -30.7448 -29.9108 -29.8166 -15.0806 -15.0108
   -14.7983 -14.7141 -14.6644 -14.5954 -14.5876 -14.5426 -14.4745 -14.4175
   -14.1947 -14.1312 -14.0588 -13.6595 -13.6474 -13.5432 -13.5393 -13.2006
    -0.9756  -0.7438  -0.6839  -0.6309  -0.6168  -0.4818  -0.2481  -0.1125
    -0.1119  -0.0146  -0.0073  -0.0031   0.2422   0.2470   0.2854   0.2903
     0.3805   0.3813   0.4334   0.4623   0.5028   0.6948   0.8164   0.8822
     0.9038   0.9082   1.0092   1.1417   1.1968   1.2856   1.4355   1.5440
     1.8489   2.0186   2.2986   2.3337   2.3917   2.4670   2.5434   2.6852
     2.7879   3.1288   3.2168   3.4532   3.4889   3.5876   3.7000   3.7473
     3.7993   3.8526   3.8605   3.8972   4.0368

          k = 0.0399 0.0423 0.0000 ( 43495 PWs)   bands (ev):

   -75.6820 -75.6815 -75.4415 -75.4410 -75.3099 -75.3095 -43.6013 -43.5998
   -43.5957 -43.5825 -43.5285 -43.5270 -43.4063 -43.4048 -43.3519 -43.3382
   -43.3205 -43.3190 -43.2804 -43.2788 -43.2120 -43.1991 -43.0967 -43.0956
   -30.9308 -30.8431 -30.8344 -30.7464 -29.9092 -29.8175 -15.0705 -15.0009
   -14.8072 -14.7156 -14.6638 -14.6071 -14.5868 -14.5459 -14.4741 -14.4208
   -14.1825 -14.1501 -14.0779 -13.6607 -13.6364 -13.5521 -13.5475 -13.2219
    -0.7791  -0.6435  -0.5582  -0.5163  -0.5156  -0.3987  -0.1597  -0.0468
     0.0361   0.0371   0.1011   0.1082   0.2334   0.3169   0.3391   0.3736
     0.4294   0.4313   0.4921   0.5173   0.5572   0.7304   0.7811   0.8417
     0.9391   0.9438   0.9996   1.0738   1.1875   1.2671   1.4150   1.5038
     1.8281   1.8764   2.0379   2.2290   2.2742   2.4111   2.4685   2.6225
     2.6340   3.1060   3.1809   3.3124   3.3936   3.5474   3.5938   3.7372
     3.7669   3.8306   3.8363   3.8745   3.9192

          k = 0.0399 0.0563 0.0000 ( 43516 PWs)   bands (ev):

   -75.6820 -75.6816 -75.4415 -75.4410 -75.3099 -75.3095 -43.6012 -43.5999
   -43.5951 -43.5832 -43.5284 -43.5271 -43.4062 -43.4048 -43.3513 -43.3389
   -43.3205 -43.3191 -43.2803 -43.2789 -43.2114 -43.1998 -43.0967 -43.0956
   -30.9256 -30.8479 -30.8291 -30.7512 -29.9046 -29.8217 -15.0309 -14.9615
   -14.8106 -14.7112 -14.6682 -14.6150 -14.5861 -14.5431 -14.4833 -14.4237
   -14.2023 -14.1400 -14.1306 -13.6569 -13.6235 -13.5645 -13.5582 -13.2784
    -0.5549  -0.5026  -0.4280  -0.4043  -0.3808  -0.3064  -0.0435   0.0077
     0.0673   0.1414   0.1602   0.2295   0.2464   0.3329   0.4018   0.4202
     0.4493   0.4977   0.5477   0.5609   0.6753   0.7060   0.7422   0.8787
     0.9622   0.9727   0.9855   1.0006   1.2041   1.2738   1.2900   1.4288
     1.5165   1.7989   1.8578   2.0436   2.1833   2.3184   2.4642   2.5085
     2.6630   3.0834   3.1764   3.1889   3.4548   3.5377   3.5387   3.7189
     3.7768   3.8220   3.8315   3.8571   3.9250

          k = 0.0399-0.0987 0.0000 ( 43499 PWs)   bands (ev):

   -75.6819 -75.6816 -75.4414 -75.4411 -75.3099 -75.3096 -43.6011 -43.6000
   -43.5940 -43.5842 -43.5283 -43.5272 -43.4062 -43.4049 -43.3501 -43.3401
   -43.3204 -43.3192 -43.2801 -43.2790 -43.2103 -43.2008 -43.0966 -43.0957
   -30.9180 -30.8555 -30.8214 -30.7589 -29.8973 -29.8290 -14.9636 -14.8943
   -14.8076 -14.7008 -14.6767 -14.6174 -14.5855 -14.5345 -14.4999 -14.4263
   -14.2829 -14.2116 -14.0688 -13.6476 -13.6091 -13.5797 -13.5700 -13.3645
    -0.3923  -0.3464  -0.3036  -0.3014  -0.2715  -0.1755   0.0494   0.0710
     0.0875   0.1390   0.1559   0.2785   0.3044   0.3590   0.4062   0.4306
     0.4651   0.5255   0.5520   0.6260   0.6406   0.6985   0.7541   0.8675
     0.9066   0.9629   0.9940   1.0077   1.0420   1.1455   1.2459   1.3441
     1.4580   1.6920   1.7416   1.8078   2.2735   2.2799   2.3499   2.4246
     2.8157   3.0953   3.1736   3.2241   3.5120   3.5529   3.6393   3.6811
     3.8030   3.8225   3.8413   3.8680   3.9365

          k = 0.0399-0.0846 0.0000 ( 43507 PWs)   bands (ev):

   -75.6819 -75.6816 -75.4414 -75.4411 -75.3098 -75.3096 -43.6010 -43.6001
   -43.5926 -43.5857 -43.5282 -43.5274 -43.4061 -43.4050 -43.3487 -43.3415
   -43.3203 -43.3193 -43.2799 -43.2792 -43.2090 -43.2022 -43.0964 -43.0958
   -30.9085 -30.8654 -30.8118 -30.7690 -29.8880 -29.8388 -14.8720 -14.8027
   -14.7984 -14.6879 -14.6843 -14.6149 -14.5853 -14.5209 -14.5205 -14.4299
   -14.3847 -14.3139 -13.9725 -13.6334 -13.5969 -13.5942 -13.5816 -13.4726
    -0.3406  -0.3107  -0.2774  -0.2475  -0.0935   0.0028   0.0637   0.0799
     0.1038   0.1488   0.1740   0.2256   0.2597   0.3145   0.3913   0.4574
     0.4603   0.5060   0.5076   0.5893   0.5908   0.6904   0.7267   0.7884
     0.7928   0.8526   0.9297   0.9654   1.0343   1.0492   1.1081   1.3107
     1.5196   1.5602   1.7604   1.7708   2.2216   2.3485   2.4706   2.5689
     2.9613   3.1642   3.2793   3.3077   3.5514   3.5727   3.6497   3.7604
     3.7983   3.8419   3.8673   3.8976   3.9478

          k = 0.0399-0.0705 0.0000 ( 43498 PWs)   bands (ev):

   -75.6818 -75.6817 -75.4413 -75.4412 -75.3098 -75.3097 -43.6008 -43.6003
   -43.5909 -43.5873 -43.5280 -43.5275 -43.4059 -43.4051 -43.3470 -43.3432
   -43.3201 -43.3194 -43.2797 -43.2794 -43.2073 -43.2038 -43.0963 -43.0960
   -30.8976 -30.8770 -30.8008 -30.7806 -29.8771 -29.8504 -14.7836 -14.7620
   -14.7005 -14.6915 -14.6623 -14.6082 -14.5870 -14.5429 -14.5034 -14.4987
   -14.4355 -14.4295 -13.8564 -13.6158 -13.6145 -13.5940 -13.5928 -13.5794
    -0.3917  -0.3576  -0.3488  -0.3209  -0.0252   0.0263   0.0551   0.0747
     0.0759   0.1483   0.1503   0.2037   0.2090   0.2574   0.3205   0.3686
     0.4080   0.4360   0.5252   0.5740   0.5939   0.6317   0.6459   0.6964
     0.7068   0.7938   0.8752   0.9218   0.9391   1.0129   1.1038   1.3482
     1.4815   1.4951   1.7236   1.9190   2.4213   2.4942   2.7182   2.8404
     3.0678   3.2745   3.3655   3.5020   3.5956   3.6266   3.6476   3.7381
     3.7850   3.8454   3.8888   3.9358   3.9526

          k = 0.0399-0.0564 0.0000 ( 43504 PWs)   bands (ev):

   -75.6818 -75.6818 -75.4413 -75.4412 -75.3097 -75.3097 -43.6007 -43.6004
   -43.5892 -43.5891 -43.5278 -43.5277 -43.4057 -43.4053 -43.3451 -43.3451
   -43.3199 -43.3196 -43.2797 -43.2795 -43.2056 -43.2055 -43.0962 -43.0961
   -30.8893 -30.8861 -30.7930 -30.7893 -29.8653 -29.8629 -14.7649 -14.7163
   -14.6381 -14.6377 -14.6221 -14.5985 -14.5957 -14.5654 -14.5591 -14.5503
   -14.4809 -14.4442 -13.7278 -13.7216 -13.6311 -13.6034 -13.5951 -13.5656
    -0.5392  -0.4836  -0.4717  -0.4633  -0.2538  -0.1349  -0.0582   0.0158
     0.0566   0.1163   0.1759   0.1943   0.2214   0.2711   0.3037   0.3281
     0.3480   0.3714   0.4492   0.5028   0.5283   0.5506   0.5936   0.6040
     0.7346   0.8047   0.8750   0.9154   0.9665   1.0485   1.1825   1.3841
     1.4567   1.5786   1.7022   1.9426   2.7015   2.8269   3.0273   3.0965
     3.1257   3.3695   3.4854   3.6488   3.6504   3.6544   3.6770   3.7169
     3.7657   3.8212   3.8754   3.9683   3.9704

          k = 0.0399-0.0423 0.0000 ( 43458 PWs)   bands (ev):

   -75.6818 -75.6817 -75.4413 -75.4412 -75.3098 -75.3097 -43.6006 -43.6005
   -43.5908 -43.5874 -43.5279 -43.5276 -43.4055 -43.4055 -43.3469 -43.3433
   -43.3198 -43.3197 -43.2799 -43.2793 -43.2072 -43.2039 -43.0963 -43.0960
   -30.9014 -30.8746 -30.8052 -30.7778 -29.8755 -29.8534 -14.7503 -14.7334
   -14.7297 -14.6682 -14.6211 -14.6164 -14.5790 -14.5656 -14.5087 -14.4597
   -14.4576 -14.4389 -13.8453 -13.6451 -13.6147 -13.5942 -13.5753 -13.5536
    -0.7868  -0.6171  -0.6166  -0.5294  -0.4773  -0.3202  -0.1389  -0.0781
    -0.0600   0.0415   0.0673   0.1192   0.1478   0.2103   0.2844   0.2854
     0.3135   0.3204   0.4069   0.4884   0.5063   0.5656   0.5937   0.6814
     0.7829   0.8328   0.8925   0.9613   0.9704   1.1986   1.3311   1.3908
     1.4320   1.6838   1.7206   1.9641   2.9385   3.1218   3.1698   3.2939
     3.3072   3.4169   3.5561   3.5636   3.6713   3.7016   3.7547   3.7910
     3.7994   3.8286   3.8665   3.9565   3.9759

          k = 0.0399-0.0282 0.0000 ( 43440 PWs)   bands (ev):

   -75.6819 -75.6816 -75.4414 -75.4411 -75.3098 -75.3096 -43.6008 -43.6003
   -43.5925 -43.5857 -43.5280 -43.5274 -43.4056 -43.4053 -43.3486 -43.3416
   -43.3199 -43.3195 -43.2801 -43.2791 -43.2088 -43.2023 -43.0965 -43.0958
   -30.9125 -30.8640 -30.8164 -30.7672 -29.8872 -29.8422 -14.8492 -14.7797
   -14.7435 -14.7189 -14.6468 -14.6032 -14.5676 -14.5538 -14.4740 -14.4408
   -14.3879 -14.3176 -13.9585 -13.6550 -13.6247 -13.5580 -13.5441 -13.4678
    -0.9874  -0.7402  -0.7243  -0.6542  -0.5748  -0.4788  -0.2081  -0.2005
    -0.1411  -0.0963  -0.0714   0.0553   0.1452   0.1824   0.2069   0.2489
     0.2560   0.3067   0.4363   0.4449   0.4752   0.5883   0.6306   0.7567
     0.8763   0.9109   0.9192   1.0288   1.0469   1.3346   1.3655   1.3980
     1.5214   1.7609   1.7683   2.0073   3.0531   3.1683   3.1959   3.3601
     3.4194   3.5048   3.5279   3.5779   3.5971   3.7611   3.7757   3.8434
     3.8690   3.8893   3.8947   3.9341   3.9562

          k = 0.0531-0.0188 0.0000 ( 43435 PWs)   bands (ev):

   -75.6819 -75.6816 -75.4414 -75.4411 -75.3098 -75.3096 -43.6009 -43.6002
   -43.5925 -43.5857 -43.5281 -43.5274 -43.4057 -43.4052 -43.3486 -43.3416
   -43.3200 -43.3195 -43.2801 -43.2791 -43.2089 -43.2022 -43.0964 -43.0958
   -30.9116 -30.8643 -30.8154 -30.7675 -29.8873 -29.8414 -14.8541 -14.7847
   -14.7496 -14.7091 -14.6705 -14.6160 -14.5569 -14.5276 -14.4966 -14.4448
   -14.3867 -14.3162 -13.9617 -13.6401 -13.6279 -13.5632 -13.5543 -13.4681
    -0.8515  -0.6726  -0.6471  -0.5663  -0.5149  -0.4225  -0.1879  -0.1729
    -0.1113  -0.0717  -0.0681   0.1002   0.1593   0.2241   0.2520   0.2672
     0.3329   0.3665   0.4680   0.4791   0.5509   0.6148   0.7175   0.7224
     0.8440   0.9593   0.9617   1.0422   1.0666   1.2862   1.3079   1.4178
     1.4611   1.7513   1.8348   2.0085   2.8370   2.9544   3.1699   3.1824
     3.3488   3.3661   3.4073   3.5058   3.5121   3.7084   3.7397   3.7608
     3.8693   3.8981   3.9221   3.9233   3.9833

          k = 0.0531-0.0047 0.0000 ( 43470 PWs)   bands (ev):

   -75.6819 -75.6816 -75.4414 -75.4411 -75.3099 -75.3096 -43.6010 -43.6001
   -43.5939 -43.5843 -43.5282 -43.5272 -43.4059 -43.4050 -43.3501 -43.3401
   -43.3202 -43.3193 -43.2802 -43.2790 -43.2103 -43.2009 -43.0966 -43.0957
   -30.9205 -30.8550 -30.8243 -30.7583 -29.8972 -29.8312 -14.9489 -14.8792
   -14.7692 -14.6911 -14.6888 -14.6059 -14.5696 -14.5179 -14.5017 -14.4333
   -14.2820 -14.2108 -14.0593 -13.6423 -13.6398 -13.5536 -13.5500 -13.3589
    -0.9012  -0.6873  -0.6527  -0.6363  -0.5062  -0.5012  -0.1864  -0.1840
    -0.1153  -0.1020  -0.0413   0.0645   0.1476   0.2358   0.2612   0.2738
     0.3467   0.3802   0.4462   0.4828   0.5376   0.6626   0.7298   0.7423
     0.9612   0.9696   0.9954   1.1001   1.1818   1.2342   1.3493   1.4058
     1.6241   1.7847   1.8660   2.0778   2.6830   2.7526   3.0536   3.0605
     3.1758   3.2665   3.3830   3.5145   3.5256   3.6283   3.7552   3.7882
     3.8640   3.8705   3.9149   3.9271   3.9854

          k = 0.0531 0.0094 0.0000 ( 43503 PWs)   bands (ev):

   -75.6820 -75.6816 -75.4415 -75.4410 -75.3099 -75.3095 -43.6012 -43.5999
   -43.5950 -43.5832 -43.5284 -43.5271 -43.4061 -43.4049 -43.3512 -43.3389
   -43.3204 -43.3191 -43.2803 -43.2789 -43.2113 -43.1998 -43.0967 -43.0956
   -30.9270 -30.8477 -30.8307 -30.7510 -29.9046 -29.8230 -15.0225 -14.9529
   -14.7892 -14.7059 -14.6732 -14.5963 -14.5878 -14.5346 -14.4829 -14.4260
   -14.2009 -14.1344 -14.1291 -13.6518 -13.6405 -13.5505 -13.5472 -13.2744
    -0.8746  -0.6599  -0.6450  -0.6040  -0.5353  -0.4631  -0.1791  -0.1280
    -0.0770  -0.0495   0.0287   0.0577   0.1667   0.2701   0.2876   0.3393
     0.3658   0.3850   0.4566   0.4977   0.5392   0.6965   0.7546   0.7887
     0.9529   0.9611   1.0596   1.0885   1.2222   1.2708   1.3243   1.4753
     1.7336   1.8774   1.8835   2.1774   2.4879   2.5417   2.7863   2.8348
     2.9395   3.1879   3.2786   3.4488   3.5265   3.5647   3.7250   3.7383
     3.8255   3.8450   3.8962   3.9026   3.9750

          k = 0.0531 0.0235 0.0000 ( 43495 PWs)   bands (ev):

   -75.6820 -75.6815 -75.4415 -75.4410 -75.3099 -75.3095 -43.6013 -43.5998
   -43.5957 -43.5825 -43.5285 -43.5270 -43.4063 -43.4048 -43.3519 -43.3382
   -43.3205 -43.3190 -43.2804 -43.2788 -43.2120 -43.1991 -43.0967 -43.0956
   -30.9308 -30.8431 -30.8344 -30.7464 -29.9092 -29.8175 -15.0705 -15.0009
   -14.8072 -14.7156 -14.6638 -14.6071 -14.5868 -14.5459 -14.4741 -14.4208
[...]
    -0.5549  -0.5026  -0.4280  -0.4043  -0.3808  -0.3064  -0.0435   0.0077
     0.0673   0.1414   0.1602   0.2295   0.2464   0.3329   0.4018   0.4202
     0.4493   0.4977   0.5477   0.5609   0.6753   0.7060   0.7422   0.8787
     0.9622   0.9727   0.9855   1.0006   1.2041   1.2738   1.2900   1.4288
     1.5165   1.7989   1.8578   2.0436   2.1833   2.3184   2.4642   2.5085
     2.6630   3.0834   3.1764   3.1889   3.4548   3.5377   3.5387   3.7191
     3.7770   3.8221   3.8312   3.8570   3.9239

          k = 0.0664 0.0328 0.0000 ( 43525 PWs)   bands (ev):

   -75.6820 -75.6815 -75.4415 -75.4410 -75.3099 -75.3095 -43.6013 -43.5998
   -43.5958 -43.5825 -43.5285 -43.5270 -43.4064 -43.4047 -43.3520 -43.3382
   -43.3206 -43.3190 -43.2804 -43.2788 -43.2121 -43.1991 -43.0967 -43.0956
   -30.9294 -30.8432 -30.8328 -30.7465 -29.9091 -29.8163 -15.0784 -15.0090
   -14.8271 -14.7207 -14.6623 -14.6322 -14.5695 -14.5535 -14.4867 -14.4139
   -14.1879 -14.1520 -14.0799 -13.6656 -13.6219 -13.5649 -13.5580 -13.2261
    -0.5145  -0.4385  -0.3587  -0.3363  -0.3043  -0.2241  -0.0221   0.0667
     0.1693   0.2219   0.2335   0.3263   0.3487   0.4097   0.4456   0.4782
     0.4941   0.6141   0.6153   0.6216   0.7063   0.7443   0.7946   0.8777
     0.9045   0.9417   0.9825   0.9949   1.1684   1.2628   1.4068   1.4261
     1.6066   1.7405   1.8608   1.9818   2.0657   2.2031   2.2715   2.3641
     2.4406   2.9485   3.0118   3.1071   3.2595   3.4166   3.5088   3.5103
     3.7573   3.7990   3.8215   3.8222   3.9193

          k = 0.0664 0.0469 0.0000 ( 43539 PWs)   bands (ev):

   -75.6820 -75.6815 -75.4415 -75.4410 -75.3100 -75.3095 -43.6014 -43.5997
   -43.5960 -43.5822 -43.5286 -43.5270 -43.4064 -43.4046 -43.3522 -43.3380
   -43.3207 -43.3189 -43.2804 -43.2788 -43.2123 -43.1989 -43.0967 -43.0956
   -30.9304 -30.8416 -30.8338 -30.7449 -29.9106 -29.8142 -15.0962 -15.0269
   -14.8366 -14.7259 -14.6608 -14.6420 -14.5590 -14.5550 -14.4968 -14.4080
   -14.2054 -14.1352 -14.0631 -13.6696 -13.6189 -13.5675 -13.5602 -13.2090
    -0.4785  -0.3581  -0.2880  -0.2526  -0.2149  -0.1421   0.0209   0.0965
     0.2322   0.2707   0.3123   0.3947   0.4011   0.4517   0.4650   0.5277
     0.5756   0.6853   0.7041   0.7475   0.7526   0.8031   0.8054   0.8715
     0.9090   0.9193   0.9840   1.0012   1.1160   1.2847   1.3191   1.4925
     1.5602   1.6322   1.8317   1.9249   1.9937   2.0228   2.1561   2.1722
     2.6039   2.8179   2.8493   3.0608   3.1323   3.2665   3.3422   3.5031
     3.7761   3.7877   3.7916   3.8183   3.9304

          k = 0.0664-0.1081 0.0000 ( 43528 PWs)   bands (ev):

   -75.6820 -75.6815 -75.4415 -75.4410 -75.3099 -75.3095 -43.6014 -43.5998
   -43.5958 -43.5825 -43.5285 -43.5270 -43.4064 -43.4047 -43.3520 -43.3382
   -43.3207 -43.3189 -43.2803 -43.2789 -43.2121 -43.1991 -43.0967 -43.0956
   -30.9286 -30.8433 -30.8319 -30.7466 -29.9090 -29.8156 -15.0830 -15.0137
   -14.8383 -14.7249 -14.6631 -14.6448 -14.5583 -14.5437 -14.5115 -14.4064
   -14.1910 -14.1531 -14.0811 -13.6680 -13.6143 -13.5725 -13.5640 -13.2285
    -0.4242  -0.2959  -0.1942  -0.1924  -0.1660  -0.0793   0.0933   0.1095
     0.2737   0.3086   0.3296   0.3856   0.3886   0.4406   0.4799   0.5753
     0.6658   0.6662   0.6980   0.7505   0.8423   0.8464   0.8660   0.9061
     0.9095   0.9242   1.0288   1.0340   1.1407   1.2163   1.2612   1.3338
     1.3953   1.4900   1.7661   1.8292   1.9183   1.9541   2.1850   2.2771
     2.4257   2.8169   2.9598   3.0469   3.1564   3.2508   3.3230   3.5344
     3.7357   3.7947   3.7971   3.8193   3.9125

          k = 0.0664-0.0940 0.0000 ( 43474 PWs)   bands (ev):

   -75.6820 -75.6816 -75.4415 -75.4410 -75.3099 -75.3095 -43.6013 -43.5998
   -43.5951 -43.5831 -43.5285 -43.5271 -43.4064 -43.4047 -43.3513 -43.3389
   -43.3206 -43.3190 -43.2802 -43.2789 -43.2114 -43.1998 -43.0967 -43.0956
   -30.9242 -30.8481 -30.8275 -30.7515 -29.9045 -29.8205 -15.0393 -14.9700
   -14.8320 -14.7166 -14.6686 -14.6413 -14.5510 -14.5411 -14.5247 -14.4094
   -14.2039 -14.1455 -14.1322 -13.6608 -13.6084 -13.5795 -13.5688 -13.2824
    -0.3600  -0.2372  -0.2016  -0.1458  -0.1212  -0.0554   0.1025   0.1779
     0.2796   0.2935   0.3183   0.3210   0.3988   0.4509   0.4530   0.5548
     0.5638   0.6519   0.7138   0.7264   0.8311   0.8337   0.8587   0.8925
     0.9195   0.9335   0.9568   1.0084   1.0538   1.2045   1.2296   1.2536
     1.2945   1.3952   1.7117   1.8100   1.9159   1.9577   2.2120   2.2837
     2.5284   2.8708   3.0733   3.1123   3.3467   3.3600   3.4730   3.5882
     3.6947   3.7991   3.8091   3.8174   3.9399

          k = 0.0664-0.0799 0.0000 ( 43494 PWs)   bands (ev):

   -75.6819 -75.6816 -75.4414 -75.4411 -75.3099 -75.3096 -43.6012 -43.5999
   -43.5940 -43.5842 -43.5283 -43.5272 -43.4062 -43.4048 -43.3501 -43.3401
   -43.3204 -43.3191 -43.2801 -43.2791 -43.2103 -43.2008 -43.0966 -43.0957
   -30.9173 -30.8556 -30.8206 -30.7591 -29.8974 -29.8284 -14.9675 -14.8983
   -14.8183 -14.7020 -14.6769 -14.6315 -14.5596 -14.5378 -14.5234 -14.4171
   -14.2832 -14.2119 -14.0712 -13.6488 -13.6016 -13.5879 -13.5746 -13.3661
    -0.3052  -0.2633  -0.2146  -0.1657  -0.0989  -0.0461   0.0890   0.2000
     0.2073   0.2170   0.2724   0.2947   0.3605   0.4480   0.4622   0.4908
     0.4955   0.5396   0.6035   0.6763   0.6953   0.7621   0.7928   0.7948
     0.8224   0.8857   0.9199   1.0064   1.0179   1.1271   1.1578   1.2791
     1.3726   1.5994   1.6115   1.7773   1.9809   2.1679   2.2338   2.4156
     2.7710   2.9968   3.1511   3.2070   3.4427   3.6054   3.6198   3.6876
     3.7129   3.7911   3.8283   3.8331   3.9262

          k = 0.0664-0.0658 0.0000 ( 43507 PWs)   bands (ev):

   -75.6819 -75.6816 -75.4414 -75.4411 -75.3098 -75.3096 -43.6010 -43.6001
   -43.5926 -43.5857 -43.5282 -43.5274 -43.4061 -43.4050 -43.3487 -43.3415
   -43.3203 -43.3193 -43.2799 -43.2792 -43.2090 -43.2022 -43.0964 -43.0958
   -30.9085 -30.8654 -30.8118 -30.7690 -29.8880 -29.8388 -14.8720 -14.8027
   -14.7984 -14.6879 -14.6843 -14.6149 -14.5853 -14.5209 -14.5205 -14.4299
   -14.3847 -14.3139 -13.9725 -13.6334 -13.5969 -13.5942 -13.5816 -13.4726
    -0.3406  -0.3107  -0.2774  -0.2475  -0.0935   0.0028   0.0637   0.0799
     0.1038   0.1488   0.1740   0.2256   0.2597   0.3145   0.3913   0.4574
     0.4603   0.5060   0.5076   0.5893   0.5908   0.6904   0.7267   0.7884
     0.7928   0.8526   0.9297   0.9654   1.0343   1.0492   1.1081   1.3107
     1.5196   1.5602   1.7604   1.7708   2.2216   2.3485   2.4706   2.5689
     2.9613   3.1642   3.2793   3.3078   3.5514   3.5727   3.6497   3.7607
     3.7987   3.8426   3.8685   3.8973   3.9475

          k = 0.0664-0.0517 0.0000 ( 43496 PWs)   bands (ev):

   -75.6818 -75.6817 -75.4413 -75.4412 -75.3098 -75.3097 -43.6008 -43.6003
   -43.5909 -43.5873 -43.5280 -43.5275 -43.4058 -43.4052 -43.3470 -43.3432
   -43.3201 -43.3195 -43.2798 -43.2794 -43.2073 -43.2038 -43.0963 -43.0960
   -30.8981 -30.8767 -30.8014 -30.7803 -29.8769 -29.8508 -14.7740 -14.7596
   -14.7012 -14.6892 -14.6668 -14.6126 -14.5915 -14.5220 -14.5068 -14.4959
   -14.4474 -14.4295 -13.8553 -13.6204 -13.6054 -13.5903 -13.5898 -13.5868
    -0.4184  -0.3999  -0.3753  -0.3693  -0.1049  -0.0754  -0.0224   0.0173
     0.0423   0.0462   0.0959   0.1047   0.1870   0.2416   0.2938   0.3917
     0.4358   0.4767   0.5018   0.5622   0.5855   0.6213   0.7057   0.7646
     0.7778   0.8450   0.9351   0.9781   1.0265   1.0638   1.1074   1.3028
     1.5698   1.6484   1.7969   1.8361   2.5571   2.5884   2.6755   2.7236
     3.1067   3.3403   3.3776   3.4267   3.5013   3.5977   3.6417   3.7655
     3.8227   3.8423   3.9310   3.9334   3.9471

          k = 0.0664-0.0376 0.0000 ( 43487 PWs)   bands (ev):

   -75.6818 -75.6818 -75.4413 -75.4412 -75.3097 -75.3097 -43.6006 -43.6005
   -43.5891 -43.5891 -43.5278 -43.5277 -43.4056 -43.4054 -43.3451 -43.3451
   -43.3198 -43.3197 -43.2796 -43.2796 -43.2056 -43.2055 -43.0961 -43.0961
   -30.8885 -30.8869 -30.7921 -30.7902 -29.8647 -29.8635 -14.7478 -14.7206
   -14.6516 -14.6409 -14.6340 -14.6266 -14.5654 -14.5619 -14.5537 -14.5275
   -14.4789 -14.4673 -13.7277 -13.7247 -13.6126 -13.6004 -13.5964 -13.5799
    -0.5290  -0.4988  -0.4648  -0.4359  -0.2504  -0.1287  -0.1261  -0.0664
    -0.0626  -0.0227   0.0824   0.1086   0.1751   0.1913   0.3178   0.3274
     0.3960   0.4723   0.4880   0.5262   0.5704   0.5802   0.7444   0.7552
     0.7803   0.8564   0.9318   1.0210   1.0379   1.1202   1.1476   1.2778
     1.5700   1.7327   1.8408   1.8830   2.7493   2.8391   2.8491   2.8554
     3.2589   3.3473   3.3683   3.4639   3.5538   3.6118   3.6169   3.7734
     3.8409   3.8638   3.8943   3.9336   3.9803

          k =-0.0797 0.0282 0.0000 ( 43444 PWs)   bands (ev):

   -75.6818 -75.6818 -75.4412 -75.4412 -75.3097 -75.3097 -43.6006 -43.6005
   -43.5891 -43.5891 -43.5277 -43.5277 -43.4055 -43.4055 -43.3451 -43.3451
   -43.3197 -43.3197 -43.2796 -43.2796 -43.2056 -43.2056 -43.0961 -43.0961
   -30.8878 -30.8876 -30.7912 -30.7912 -29.8641 -29.8641 -14.7319 -14.7318
   -14.6527 -14.6527 -14.6307 -14.6306 -14.5621 -14.5621 -14.5338 -14.5337
   -14.4774 -14.4774 -13.7267 -13.7267 -13.5986 -13.5986 -13.5951 -13.5951
    -0.5161  -0.5161  -0.4430  -0.4429  -0.2125  -0.2125  -0.0924  -0.0924
    -0.0847  -0.0846   0.1152   0.1153   0.1335   0.1335   0.3353   0.3353
     0.4282   0.4282   0.5086   0.5087   0.5942   0.5942   0.7677   0.7677
     0.8714   0.8714   0.9766   0.9766   1.1060   1.1060   1.2005   1.2005
     1.7327   1.7327   1.8571   1.8572   2.7084   2.7085   2.9020   2.9021
     3.2585   3.2586   3.3618   3.3619   3.5811   3.5812   3.6845   3.6847
     3.8860   3.8864   3.9032   3.9040   3.9550

          k =-0.0797 0.0423 0.0000 ( 43483 PWs)   bands (ev):

   -75.6818 -75.6817 -75.4413 -75.4412 -75.3098 -75.3097 -43.6008 -43.6003
   -43.5909 -43.5873 -43.5279 -43.5275 -43.4057 -43.4053 -43.3469 -43.3432
   -43.3200 -43.3195 -43.2798 -43.2794 -43.2073 -43.2038 -43.0963 -43.0960
   -30.8990 -30.8761 -30.8025 -30.7796 -29.8765 -29.8515 -14.7576 -14.7553
   -14.7068 -14.6847 -14.6696 -14.6308 -14.5671 -14.5141 -14.5072 -14.4958
   -14.4610 -14.4301 -13.8531 -13.6240 -13.6005 -13.5905 -13.5866 -13.5859
    -0.4959  -0.4873  -0.4384  -0.4077  -0.2307  -0.1712  -0.1472  -0.0612
    -0.0581   0.0135   0.0436   0.1056   0.1791   0.2132   0.3057   0.3864
     0.4306   0.4436   0.4526   0.5634   0.6082   0.6115   0.7231   0.7991
     0.8673   0.8997   0.9749   0.9905   1.0755   1.1433   1.1549   1.2471
     1.6828   1.7510   1.8337   1.8497   2.6058   2.6999   2.7571   2.8092
     3.1877   3.2850   3.3379   3.4496   3.4951   3.5682   3.6589   3.7512
     3.8595   3.8609   3.9115   3.9282   3.9755

          k =-0.0797 0.0564 0.0000 ( 43471 PWs)   bands (ev):

   -75.6819 -75.6816 -75.4414 -75.4411 -75.3098 -75.3096 -43.6010 -43.6001
   -43.5926 -43.5857 -43.5281 -43.5274 -43.4060 -43.4050 -43.3487 -43.3415
   -43.3202 -43.3193 -43.2800 -43.2792 -43.2089 -43.2022 -43.0964 -43.0958
   -30.9093 -30.8651 -30.8127 -30.7686 -29.8878 -29.8395 -14.8673 -14.7980
   -14.7839 -14.6894 -14.6855 -14.6090 -14.5933 -14.5180 -14.5028 -14.4427
   -14.3849 -14.3142 -13.9697 -13.6330 -13.6051 -13.5849 -13.5765 -13.4709
    -0.4376  -0.4236  -0.3873  -0.3447  -0.2789  -0.1609  -0.0797   0.0180
     0.0277   0.0456   0.0830   0.1499   0.2392   0.3154   0.3263   0.3740
     0.4211   0.4899   0.5220   0.5567   0.6275   0.6825   0.6878   0.8397
     0.8730   0.9359   0.9881   1.0102   1.0452   1.1241   1.1847   1.3008
     1.5915   1.7528   1.7958   1.8031   2.4586   2.4841   2.5660   2.6240
     3.0143   3.2595   3.2663   3.3665   3.5060   3.6063   3.6305   3.7363
     3.8259   3.8371   3.9152   3.9354   3.9548

          k =-0.0797 0.0705 0.0000 ( 43499 PWs)   bands (ev):

   -75.6819 -75.6816 -75.4414 -75.4411 -75.3099 -75.3096 -43.6011 -43.6000
   -43.5940 -43.5842 -43.5283 -43.5272 -43.4062 -43.4049 -43.3501 -43.3401
   -43.3204 -43.3192 -43.2801 -43.2790 -43.2103 -43.2008 -43.0966 -43.0957
   -30.9180 -30.8555 -30.8214 -30.7589 -29.8973 -29.8290 -14.9636 -14.8943
   -14.8076 -14.7008 -14.6767 -14.6174 -14.5855 -14.5345 -14.4999 -14.4263
   -14.2829 -14.2116 -14.0688 -13.6476 -13.6091 -13.5797 -13.5700 -13.3645
    -0.3923  -0.3464  -0.3036  -0.3014  -0.2715  -0.1755   0.0494   0.0710
     0.0875   0.1390   0.1559   0.2785   0.3044   0.3590   0.4062   0.4306
     0.4651   0.5255   0.5520   0.6260   0.6406   0.6985   0.7541   0.8675
     0.9066   0.9629   0.9940   1.0078   1.0420   1.1455   1.2459   1.3441
     1.4580   1.6920   1.7416   1.8078   2.2735   2.2799   2.3499   2.4246
     2.8157   3.0953   3.1736   3.2241   3.5118   3.5529   3.6392   3.6810
     3.8030   3.8224   3.8415   3.8681   3.9368

          k =-0.0797 0.0846 0.0000 ( 43465 PWs)   bands (ev):

   -75.6820 -75.6816 -75.4415 -75.4410 -75.3099 -75.3095 -43.6013 -43.5998
   -43.5951 -43.5831 -43.5285 -43.5271 -43.4063 -43.4047 -43.3513 -43.3389
   -43.3206 -43.3190 -43.2803 -43.2789 -43.2114 -43.1998 -43.0967 -43.0956
   -30.9245 -30.8480 -30.8279 -30.7514 -29.9045 -29.8208 -15.0371 -14.9678
   -14.8264 -14.7147 -14.6681 -14.6349 -14.5632 -14.5487 -14.5034 -14.4139
   -14.2034 -14.1440 -14.1317 -13.6599 -13.6123 -13.5754 -13.5660 -13.2813
    -0.4066  -0.2897  -0.2640  -0.2232  -0.2184  -0.1370   0.0912   0.0927
     0.1944   0.2382   0.2716   0.3206   0.3653   0.4242   0.4736   0.5057
     0.5606   0.5761   0.6494   0.6834   0.7074   0.7843   0.8051   0.8526
     0.9317   0.9486   0.9959   1.0168   1.1448   1.2040   1.2958   1.3206
     1.3548   1.5508   1.7391   1.8388   2.0859   2.1117   2.2350   2.2838
     2.5606   2.9357   3.0664   3.1136   3.3840   3.4428   3.5474   3.5632
     3.7445   3.7829   3.8126   3.8292   3.9467

          k =-0.0797 0.0987 0.0000 ( 43528 PWs)   bands (ev):

   -75.6820 -75.6815 -75.4415 -75.4410 -75.3099 -75.3095 -43.6014 -43.5998
   -43.5958 -43.5825 -43.5285 -43.5270 -43.4064 -43.4047 -43.3520 -43.3382
   -43.3207 -43.3189 -43.2803 -43.2789 -43.2121 -43.1991 -43.0967 -43.0956
   -30.9286 -30.8433 -30.8319 -30.7466 -29.9090 -29.8156 -15.0830 -15.0137
   -14.8383 -14.7249 -14.6631 -14.6448 -14.5583 -14.5437 -14.5115 -14.4064
   -14.1910 -14.1531 -14.0811 -13.6680 -13.6143 -13.5725 -13.5640 -13.2285
    -0.4242  -0.2959  -0.1942  -0.1924  -0.1660  -0.0793   0.0933   0.1095
     0.2737   0.3086   0.3296   0.3856   0.3886   0.4406   0.4799   0.5753
     0.6658   0.6662   0.6980   0.7505   0.8423   0.8465   0.8660   0.9061
     0.9095   0.9242   1.0288   1.0340   1.1407   1.2163   1.2612   1.3338
     1.3953   1.4900   1.7661   1.8292   1.9183   1.9541   2.1850   2.2771
     2.4257   2.8169   2.9598   3.0469   3.1564   3.2508   3.3230   3.5344
     3.7358   3.7937   3.7974   3.8194   3.9124

          k =-0.0797-0.0563 0.0000 ( 43590 PWs)   bands (ev):

   -75.6820 -75.6815 -75.4415 -75.4410 -75.3100 -75.3095 -43.6014 -43.5997
   -43.5960 -43.5822 -43.5286 -43.5270 -43.4065 -43.4046 -43.3522 -43.3380
   -43.3207 -43.3189 -43.2804 -43.2788 -43.2123 -43.1989 -43.0967 -43.0956
   -30.9300 -30.8416 -30.8333 -30.7450 -29.9105 -29.8139 -15.0987 -15.0293
   -14.8424 -14.7286 -14.6615 -14.6480 -14.5617 -14.5321 -14.5194 -14.4040
   -14.2070 -14.1358 -14.0637 -13.6709 -13.6150 -13.5714 -13.5634 -13.2103
    -0.4303  -0.2998  -0.1826  -0.1588  -0.1564  -0.0566   0.0934   0.1179
     0.3189   0.3194   0.3581   0.3584   0.4222   0.4301   0.5075   0.5944
     0.7045   0.7057   0.7285   0.8019   0.8255   0.8858   0.8874   0.9159
     0.9215   1.0057   1.0435   1.0589   1.0707   1.1328   1.2840   1.3008
     1.4611   1.5701   1.7601   1.8019   1.8580   1.9068   2.1158   2.1757
     2.6905   2.7534   2.7712   3.0194   3.0242   3.1226   3.2925   3.5322
     3.7137   3.7882   3.8148   3.8167   3.8911

     the Fermi energy is     2.1871 ev

!    total energy              =   -2129.36389525 Ry
     estimated scf accuracy    <       0.00000274 Ry
     smearing contrib. (-TS)   =      -0.04087824 Ry
     internal energy E=F+TS    =   -2129.32301701 Ry

     The total energy is F=E-TS. E is the sum of the following terms:
     one-electron contribution =  -11407.95811453 Ry
     hartree contribution      =    5718.79154039 Ry
     xc contribution           =    -632.82933536 Ry
     ewald contribution        =    4192.67283302 Ry
     electric field correction =       0.00005946 Ry

     convergence has been achieved in  20 iterations

     negative rho (up, down):  1.061E-03 0.000E+00

     Forces acting on atoms (cartesian axes, Ry/au):

     atom    1 type  1   force =    -0.00013640   -0.00009720   -0.01167412
     atom    2 type  1   force =    -0.00013712   -0.00009650   -0.01167422
     atom    3 type  2   force =     0.00001367    0.00001026    0.02276770
     atom    4 type  2   force =     0.00001368    0.00000973    0.02276804
     atom    5 type  1   force =     0.00012455    0.00008773   -0.01444437
     atom    6 type  1   force =     0.00011813    0.00008386   -0.01443818
     atom    7 type  2   force =     0.00001980    0.00001230    0.00385011
     atom    8 type  2   force =     0.00001926    0.00001453    0.00384855
     atom    9 type  1   force =     0.00003120    0.00002432   -0.00042096
     atom   10 type  1   force =     0.00003904    0.00002461   -0.00043820
     atom   11 type  2   force =    -0.00005171   -0.00003570   -0.00007227
     atom   12 type  2   force =    -0.00005411   -0.00003792   -0.00007207

     Total force =     0.041911     Total SCF correction =     0.005559
     SCF correction compared to forces is large: reduce conv_thr to get better values

     Writing output data file ./La2Rh2/La2Rh2_beef.save/

     init_run     :    369.45s CPU    370.57s WALL (       1 calls)
     electrons    :  16632.70s CPU  16712.70s WALL (       1 calls)
     forces       :    145.59s CPU    146.21s WALL (       1 calls)

     Called by init_run:
     wfcinit      :    320.38s CPU    321.10s WALL (       1 calls)
     potinit      :     34.41s CPU     34.46s WALL (       1 calls)
     hinit0       :      8.67s CPU      8.67s WALL (       1 calls)

     Called by electrons:
     c_bands      :  15040.23s CPU  15100.16s WALL (      20 calls)
     sum_band     :   1436.36s CPU   1447.09s WALL (      20 calls)
     v_of_rho     :    108.00s CPU    109.90s WALL (      21 calls)
     newd         :     72.20s CPU     79.78s WALL (      21 calls)
     mix_rho      :      7.35s CPU      7.39s WALL (      20 calls)
     vdW_kernel   :     13.91s CPU     13.91s WALL (       1 calls)

     Called by c_bands:
     init_us_2    :     28.12s CPU     28.23s WALL (    3108 calls)
     cegterg      :  14923.18s CPU  14980.39s WALL (    1500 calls)

     Called by *egterg:
     cdiaghg      :    341.75s CPU    343.50s WALL (   10887 calls)
     h_psi        :   8770.95s CPU   8814.14s WALL (   10961 calls)
     s_psi        :   1547.65s CPU   1548.56s WALL (   10961 calls)
     g_psi        :      2.83s CPU      2.85s WALL (    9387 calls)

     Called by h_psi:
     h_psi:calbec :   2157.80s CPU   2163.21s WALL (   10961 calls)
     vloc_psi     :   5058.07s CPU   5094.74s WALL (   10961 calls)
     add_vuspsi   :   1543.41s CPU   1544.42s WALL (   10961 calls)

     General routines
     calbec       :   2967.46s CPU   2973.99s WALL (   12737 calls)
     fft          :     90.19s CPU     91.33s WALL (    1382 calls)
     ffts         :      1.99s CPU      2.00s WALL (      41 calls)
     fftw         :   5564.52s CPU   5602.53s WALL (  971440 calls)
     interpolate  :      2.36s CPU      2.39s WALL (      21 calls)

     Parallel routines
     fft_scatt_xy :    106.98s CPU    107.44s WALL (  972863 calls)
     fft_scatt_yz :   4757.72s CPU   4789.10s WALL (  972863 calls)

     PWSCF        :      5h22m CPU      5h49m WALL


   This run was terminated on:   3:43:40  26Jun2022            

=------------------------------------------------------------------------------=
   JOB DONE.
=------------------------------------------------------------------------------=
