
     Program PWSCF v.6.6 starts on 25Jun2022 at 16:36:45 

     This program is part of the open-source Quantum ESPRESSO suite
     for quantum simulation of materials; please cite
         "P. Giannozzi et al., J. Phys.:Condens. Matter 21 395502 (2009);
         "P. Giannozzi et al., J. Phys.:Condens. Matter 29 465901 (2017);
          URL http://www.quantum-espresso.org", 
     in publications or presentations arising from this work. More details at
     http://www.quantum-espresso.org/quote

     Parallel version (MPI), running on    37 processors

     MPI processes distributed on     1 nodes
     R & G space division:  proc/nbgrp/npool/nimage =      37
     Fft bands division:     nmany     =       1
     Reading input from La2Re2.in
Warning: card &CELL ignored
Warning: card / ignored

     Current dimensions of program PWSCF are:
     Max number of different atomic species (ntypx) = 10
     Max number of k-points (npk) =  40000
     Max angular momentum in pseudopotentials (lmaxx) =  3
     Presently stress not available with electric field and gates

     Message from routine cell_base_init:
     DEPRECATED: use true lattice parameter, not A to a.u. conversion factor
     file La.pbe-spfn-rrkjus_psl.1.0.0.UPF: wavefunction(s)  4F renormalized

     **************************************************************************
     Initializing libbeef V0.1.2 with the BEEF-vdW functional.
     Citation: Wellendorff et al., PRB 85, 235149 (2012).
     **************************************************************************


     IMPORTANT: XC functional enforced from input :
     Exchange-correlation= BEEF-VDW
                           (   1   4  43  14   2   0   0)
     Any further DFT definition will be discarded
     Please, verify this is what you really want


     Subspace diagonalization in iterative solution of the eigenvalue problem:
     a serial algorithm will be used


     Parallelization info
     --------------------
     sticks:   dense  smooth     PW     G-vecs:    dense   smooth      PW
     Min         155      62     17                36791     9306    1371
     Max         156      63     18                36810     9319    1378
     Sum        5759    2301    641              1361641   344457   50847



     bravais-lattice index     =            0
     lattice parameter (alat)  =       1.8897  a.u.
     unit-cell volume          =    6231.6239 (a.u.)^3
     number of atoms/cell      =           12
     number of atomic types    =            2
     number of electrons       =       156.00
     number of Kohn-Sham states=           94
     kinetic-energy cutoff     =      55.1240  Ry
     charge density cutoff     =     551.2396  Ry
     convergence threshold     =      1.0E-05
     mixing beta               =       0.1000
     number of iterations used =           10  plain     mixing
     Exchange-correlation= BEEF-VDW
                           (   1   4  43  14   2   0   0)

     celldm(1)=   1.889726  celldm(2)=   0.000000  celldm(3)=   0.000000
     celldm(4)=   0.000000  celldm(5)=   0.000000  celldm(6)=   0.000000

     crystal axes: (cart. coord. in units of alat)
               a(1) = (   6.247943   0.000000   0.000000 )  
               a(2) = (   2.091811   5.887369   0.000000 )  
               a(3) = (   0.000000   0.000000  25.104201 )  

     reciprocal axes: (cart. coord. in units 2 pi/alat)
               b(1) = (  0.160053 -0.056867  0.000000 )  
               b(2) = (  0.000000  0.169855  0.000000 )  
               b(3) = (  0.000000  0.000000  0.039834 )  


     PseudoPot. # 1 for La read from file:
     ../pseudo/La.pbe-spfn-rrkjus_psl.1.0.0.UPF
     MD5 check sum: e3bc141c2ecb461b8d0a035ce9ac970e
     Pseudo is Ultrasoft + core correction, Zval = 11.0
     Generated using "atomic" code by A. Dal Corso v.6.2.2
     Using radial grid of 1253 points,  8 beta functions with: 
                l(1) =   0
                l(2) =   0
                l(3) =   1
                l(4) =   1
                l(5) =   2
                l(6) =   2
                l(7) =   3
                l(8) =   3
     Q(r) pseudized with 0 coefficients 


     PseudoPot. # 2 for Re read from file:
     ../pseudo/Re.pbe-spn-rrkjus_psl.1.0.0.UPF
     MD5 check sum: 1282f1ec51ad523723a04c61ae80a9e6
     Pseudo is Ultrasoft + core correction, Zval = 15.0
     Generated using "atomic" code by A. Dal Corso v.6.2.2
     Using radial grid of 1275 points,  6 beta functions with: 
                l(1) =   0
                l(2) =   0
                l(3) =   1
                l(4) =   1
                l(5) =   2
                l(6) =   2
     Q(r) pseudized with 0 coefficients 


     atomic species   valence    mass     pseudopotential
        La            11.00   138.90547     La( 1.00)
        Re            15.00   186.20700     Re( 1.00)

     No symmetry found



   Cartesian axes

     site n.     atom                  positions (alat units)
         1           La  tau(   1) = (   0.0000000   0.0000000  10.0000000  )
         2           La  tau(   2) = (   4.1698769   2.9436844  10.0000000  )
         3           Re  tau(   3) = (   3.1239713   0.0000000  10.0000000  )
         4           Re  tau(   4) = (   1.0459056   2.9436844  10.0000000  )
         5           La  tau(   5) = (   6.2479426   4.4106749  12.5521005  )
         6           La  tau(   6) = (   2.0780657   1.4669905  12.5521005  )
         7           Re  tau(   7) = (   3.1239713   4.4106749  12.5521005  )
         8           Re  tau(   8) = (   5.2020370   1.4669905  12.5521005  )
         9           La  tau(   9) = (   4.1600286   2.9367388  15.1809653  )
        10           La  tau(  10) = (   8.3296303   5.8802189  15.1807365  )
        11           Re  tau(  11) = (   7.2684278   2.9255602  14.6079433  )
        12           Re  tau(  12) = (   5.1908100   5.8699265  14.6080709  )

     number of k points=    74  Fermi-Dirac smearing, width (Ry)=  0.0100
                       cart. coord. in units 2pi/alat
        k(    1) = (   0.0000000   0.0000000   0.0000000), wk =   0.0138889
        k(    2) = (   0.0000000   0.0141546   0.0000000), wk =   0.0277778
        k(    3) = (   0.0000000   0.0283092   0.0000000), wk =   0.0277778
        k(    4) = (   0.0000000   0.0424638   0.0000000), wk =   0.0277778
        k(    5) = (   0.0000000   0.0566184   0.0000000), wk =   0.0277778
        k(    6) = (   0.0000000   0.0707730   0.0000000), wk =   0.0277778
        k(    7) = (   0.0000000  -0.0849276   0.0000000), wk =   0.0138889
        k(    8) = (   0.0133377  -0.0047390   0.0000000), wk =   0.0277778
        k(    9) = (   0.0133377   0.0094156   0.0000000), wk =   0.0277778
        k(   10) = (   0.0133377   0.0235702   0.0000000), wk =   0.0277778
        k(   11) = (   0.0133377   0.0377248   0.0000000), wk =   0.0277778
        k(   12) = (   0.0133377   0.0518794   0.0000000), wk =   0.0277778
        k(   13) = (   0.0133377   0.0660340   0.0000000), wk =   0.0277778
        k(   14) = (   0.0133377  -0.0896665   0.0000000), wk =   0.0277778
        k(   15) = (   0.0133377  -0.0755119   0.0000000), wk =   0.0277778
        k(   16) = (   0.0133377  -0.0613573   0.0000000), wk =   0.0277778
        k(   17) = (   0.0133377  -0.0472027   0.0000000), wk =   0.0277778
        k(   18) = (   0.0133377  -0.0330482   0.0000000), wk =   0.0277778
        k(   19) = (   0.0133377  -0.0188936   0.0000000), wk =   0.0277778
        k(   20) = (   0.0266754  -0.0094779   0.0000000), wk =   0.0277778
        k(   21) = (   0.0266754   0.0046767   0.0000000), wk =   0.0277778
        k(   22) = (   0.0266754   0.0188313   0.0000000), wk =   0.0277778
        k(   23) = (   0.0266754   0.0329859   0.0000000), wk =   0.0277778
        k(   24) = (   0.0266754   0.0471405   0.0000000), wk =   0.0277778
        k(   25) = (   0.0266754   0.0612951   0.0000000), wk =   0.0277778
        k(   26) = (   0.0266754  -0.0944055   0.0000000), wk =   0.0277778
        k(   27) = (   0.0266754  -0.0802509   0.0000000), wk =   0.0277778
        k(   28) = (   0.0266754  -0.0660963   0.0000000), wk =   0.0277778
        k(   29) = (   0.0266754  -0.0519417   0.0000000), wk =   0.0277778
        k(   30) = (   0.0266754  -0.0377871   0.0000000), wk =   0.0277778
        k(   31) = (   0.0266754  -0.0236325   0.0000000), wk =   0.0277778
        k(   32) = (   0.0400132  -0.0142169   0.0000000), wk =   0.0277778
        k(   33) = (   0.0400132  -0.0000623   0.0000000), wk =   0.0277778
        k(   34) = (   0.0400132   0.0140923   0.0000000), wk =   0.0277778
        k(   35) = (   0.0400132   0.0282469   0.0000000), wk =   0.0277778
        k(   36) = (   0.0400132   0.0424015   0.0000000), wk =   0.0277778
        k(   37) = (   0.0400132   0.0565561   0.0000000), wk =   0.0277778
        k(   38) = (   0.0400132  -0.0991445   0.0000000), wk =   0.0277778
        k(   39) = (   0.0400132  -0.0849899   0.0000000), wk =   0.0277778
        k(   40) = (   0.0400132  -0.0708353   0.0000000), wk =   0.0277778
        k(   41) = (   0.0400132  -0.0566807   0.0000000), wk =   0.0277778
        k(   42) = (   0.0400132  -0.0425261   0.0000000), wk =   0.0277778
        k(   43) = (   0.0400132  -0.0283715   0.0000000), wk =   0.0277778
        k(   44) = (   0.0533509  -0.0189558   0.0000000), wk =   0.0277778
        k(   45) = (   0.0533509  -0.0048012   0.0000000), wk =   0.0277778
        k(   46) = (   0.0533509   0.0093534   0.0000000), wk =   0.0277778
        k(   47) = (   0.0533509   0.0235080   0.0000000), wk =   0.0277778
        k(   48) = (   0.0533509   0.0376626   0.0000000), wk =   0.0277778
        k(   49) = (   0.0533509   0.0518172   0.0000000), wk =   0.0277778
        k(   50) = (   0.0533509  -0.1038834   0.0000000), wk =   0.0277778
        k(   51) = (   0.0533509  -0.0897288   0.0000000), wk =   0.0277778
        k(   52) = (   0.0533509  -0.0755742   0.0000000), wk =   0.0277778
        k(   53) = (   0.0533509  -0.0614196   0.0000000), wk =   0.0277778
        k(   54) = (   0.0533509  -0.0472650   0.0000000), wk =   0.0277778
        k(   55) = (   0.0533509  -0.0331104   0.0000000), wk =   0.0277778
        k(   56) = (   0.0666886  -0.0236948   0.0000000), wk =   0.0277778
        k(   57) = (   0.0666886  -0.0095402   0.0000000), wk =   0.0277778
        k(   58) = (   0.0666886   0.0046144   0.0000000), wk =   0.0277778
        k(   59) = (   0.0666886   0.0187690   0.0000000), wk =   0.0277778
        k(   60) = (   0.0666886   0.0329236   0.0000000), wk =   0.0277778
        k(   61) = (   0.0666886   0.0470782   0.0000000), wk =   0.0277778
        k(   62) = (   0.0666886  -0.1086224   0.0000000), wk =   0.0277778
        k(   63) = (   0.0666886  -0.0944678   0.0000000), wk =   0.0277778
        k(   64) = (   0.0666886  -0.0803132   0.0000000), wk =   0.0277778
        k(   65) = (   0.0666886  -0.0661586   0.0000000), wk =   0.0277778
        k(   66) = (   0.0666886  -0.0520040   0.0000000), wk =   0.0277778
        k(   67) = (   0.0666886  -0.0378494   0.0000000), wk =   0.0277778
        k(   68) = (  -0.0800263   0.0284337   0.0000000), wk =   0.0138889
        k(   69) = (  -0.0800263   0.0425883   0.0000000), wk =   0.0277778
        k(   70) = (  -0.0800263   0.0567429   0.0000000), wk =   0.0277778
        k(   71) = (  -0.0800263   0.0708975   0.0000000), wk =   0.0277778
        k(   72) = (  -0.0800263   0.0850521   0.0000000), wk =   0.0277778
        k(   73) = (  -0.0800263   0.0992067   0.0000000), wk =   0.0277778
        k(   74) = (  -0.0800263  -0.0564938   0.0000000), wk =   0.0138889

     Dense  grid:  1361641 G-vectors     FFT dimensions: (  90,  90, 360)

     Smooth grid:   344457 G-vectors     FFT dimensions: (  60,  60, 225)

     Estimated max dynamical RAM per process >     484.68 MB

     Estimated total dynamical RAM >      17.51 GB

     Initial potential from superposition of free atoms

     starting charge  155.81947, renormalised to  156.00000

     negative rho (up, down):  5.309E-04 0.000E+00


     %%%%%%%%%%%%%%%%%%%%%%%%%%%%%%%%%%%%%%%%%%%%%%%%%%%%%%%%%%%%%%%%%%%%%%%%
     %                                                                      %
     % You are using vdW-DF, which was implemented by the Thonhauser group. %
     % Please cite the following two papers that made this development      %
     % possible and the two reviews that describe the various versions:     %
     %                                                                      %
     %   T. Thonhauser et al., PRL 115, 136402 (2015).                      %
     %   T. Thonhauser et al., PRB 76, 125112 (2007).                       %
     %   K. Berland et al., Rep. Prog. Phys. 78, 066501 (2015).             %
     %   D.C. Langreth et al., J. Phys.: Condens. Matter 21, 084203 (2009). %
     %                                                                      %
     %                                                                      %
     % If you are calculating the stress with vdW-DF, please also cite:     %
     %                                                                      %
     %   R. Sabatini et al., J. Phys.: Condens. Matter 24, 424209 (2012).   %
     %                                                                      %
     %%%%%%%%%%%%%%%%%%%%%%%%%%%%%%%%%%%%%%%%%%%%%%%%%%%%%%%%%%%%%%%%%%%%%%%%



     Adding external electric field

     Computed dipole along edir(3) : 
        Dipole                0.0370 Ry au,          0.0940 Debye
        Dipole field          0.0001 Ry au, 

        Potential amp.       -0.0069 Ry
        Total length         46.2541 bohr

     Starting wfcs are  180 randomized atomic wfcs

     total cpu time spent up to now is      363.4 secs

     Self-consistent Calculation

     iteration #  1     ecut=    55.12 Ry     beta= 0.10
     Davidson diagonalization with overlap
     ethr =  1.00E-02,  avg # of iterations =  2.0

     negative rho (up, down):  3.961E-04 0.000E+00

     Adding external electric field

     Computed dipole along edir(3) : 
        Dipole               -1.2438 Ry au,         -3.1614 Debye
        Dipole field         -0.0025 Ry au, 

        Potential amp.        0.2320 Ry
        Total length         46.2541 bohr


     total cpu time spent up to now is      843.8 secs

     total energy              =   -1838.23911975 Ry
     estimated scf accuracy    <      10.72539046 Ry

     iteration #  2     ecut=    55.12 Ry     beta= 0.10
     Davidson diagonalization with overlap
     ethr =  6.88E-03,  avg # of iterations =  3.0

     negative rho (up, down):  3.822E-04 0.000E+00

     Adding external electric field

     Computed dipole along edir(3) : 
        Dipole                0.7346 Ry au,          1.8672 Debye
        Dipole field          0.0015 Ry au, 

        Potential amp.       -0.1370 Ry
        Total length         46.2541 bohr


     total cpu time spent up to now is     1295.0 secs

     total energy              =   -1838.04565574 Ry
     estimated scf accuracy    <      43.01652478 Ry

     iteration #  3     ecut=    55.12 Ry     beta= 0.10
     Davidson diagonalization with overlap
     ethr =  6.88E-03,  avg # of iterations =  1.7

     negative rho (up, down):  2.739E-04 0.000E+00

     Adding external electric field

     Computed dipole along edir(3) : 
        Dipole                0.2479 Ry au,          0.6300 Debye
        Dipole field          0.0005 Ry au, 

        Potential amp.       -0.0462 Ry
        Total length         46.2541 bohr


     total cpu time spent up to now is     2501.3 secs

     total energy              =   -1839.03738016 Ry
     estimated scf accuracy    <       7.06099749 Ry

     iteration #  4     ecut=    55.12 Ry     beta= 0.10
     Davidson diagonalization with overlap
     ethr =  4.53E-03,  avg # of iterations =  1.0

     negative rho (up, down):  1.783E-04 0.000E+00

     Adding external electric field

     Computed dipole along edir(3) : 
        Dipole                0.2469 Ry au,          0.6274 Debye
        Dipole field          0.0005 Ry au, 

        Potential amp.       -0.0460 Ry
        Total length         46.2541 bohr


     total cpu time spent up to now is     3562.8 secs

     total energy              =   -1839.11407992 Ry
     estimated scf accuracy    <       0.56274234 Ry

     iteration #  5     ecut=    55.12 Ry     beta= 0.10
     Davidson diagonalization with overlap
     c_bands:  1 eigenvalues not converged
     ethr =  3.61E-04,  avg # of iterations = 14.1

     negative rho (up, down):  1.742E-04 0.000E+00

     Adding external electric field

     Computed dipole along edir(3) : 
        Dipole                0.0200 Ry au,          0.0508 Debye
        Dipole field          0.0000 Ry au, 

        Potential amp.       -0.0037 Ry
        Total length         46.2541 bohr


     total cpu time spent up to now is     5117.9 secs

     total energy              =   -1839.15998639 Ry
     estimated scf accuracy    <       0.56735408 Ry

     iteration #  6     ecut=    55.12 Ry     beta= 0.10
     Davidson diagonalization with overlap
     ethr =  3.61E-04,  avg # of iterations =  2.0

     negative rho (up, down):  1.396E-04 0.000E+00

     Adding external electric field

     Computed dipole along edir(3) : 
        Dipole                0.0648 Ry au,          0.1647 Debye
        Dipole field          0.0001 Ry au, 

        Potential amp.       -0.0121 Ry
        Total length         46.2541 bohr


     total cpu time spent up to now is     5663.3 secs

     total energy              =   -1839.15889959 Ry
     estimated scf accuracy    <       0.84524203 Ry

     iteration #  7     ecut=    55.12 Ry     beta= 0.10
     Davidson diagonalization with overlap
     ethr =  3.61E-04,  avg # of iterations =  1.2

     negative rho (up, down):  1.330E-04 0.000E+00

     Adding external electric field

     Computed dipole along edir(3) : 
        Dipole                0.1305 Ry au,          0.3317 Debye
        Dipole field          0.0003 Ry au, 

        Potential amp.       -0.0243 Ry
        Total length         46.2541 bohr


     total cpu time spent up to now is     7006.3 secs

     total energy              =   -1839.15741022 Ry
     estimated scf accuracy    <       0.18200620 Ry

     iteration #  8     ecut=    55.12 Ry     beta= 0.10
     Davidson diagonalization with overlap
     c_bands:  1 eigenvalues not converged
     ethr =  1.17E-04,  avg # of iterations =  9.8

     negative rho (up, down):  1.275E-04 0.000E+00

     Adding external electric field

     Computed dipole along edir(3) : 
        Dipole                0.2955 Ry au,          0.7511 Debye
        Dipole field          0.0006 Ry au, 

        Potential amp.       -0.0551 Ry
        Total length         46.2541 bohr


     total cpu time spent up to now is     7722.4 secs

     total energy              =   -1839.16933635 Ry
     estimated scf accuracy    <       0.09171097 Ry

     iteration #  9     ecut=    55.12 Ry     beta= 0.10
     Davidson diagonalization with overlap
     c_bands:  1 eigenvalues not converged
     c_bands:  1 eigenvalues not converged
     c_bands:  1 eigenvalues not converged
     c_bands:  1 eigenvalues not converged
     ethr =  5.88E-05,  avg # of iterations =  7.7

     negative rho (up, down):  1.983E-04 0.000E+00

     Adding external electric field

     Computed dipole along edir(3) : 
        Dipole                0.2084 Ry au,          0.5296 Debye
        Dipole field          0.0004 Ry au, 

        Potential amp.       -0.0389 Ry
        Total length         46.2541 bohr


     total cpu time spent up to now is     9137.2 secs

     total energy              =   -1839.16026479 Ry
     estimated scf accuracy    <       0.13018769 Ry

     iteration # 10     ecut=    55.12 Ry     beta= 0.10
     Davidson diagonalization with overlap
     c_bands:  1 eigenvalues not converged
     c_bands:  1 eigenvalues not converged
     ethr =  5.88E-05,  avg # of iterations =  5.1

     negative rho (up, down):  2.913E-04 0.000E+00

     Adding external electric field

     Computed dipole along edir(3) : 
        Dipole                0.1830 Ry au,          0.4652 Debye
        Dipole field          0.0004 Ry au, 

        Potential amp.       -0.0341 Ry
        Total length         46.2541 bohr


     total cpu time spent up to now is    10303.6 secs

     total energy              =   -1839.17376154 Ry
     estimated scf accuracy    <       0.42152396 Ry

     iteration # 11     ecut=    55.12 Ry     beta= 0.10
     Davidson diagonalization with overlap
     ethr =  5.88E-05,  avg # of iterations =  2.0

     negative rho (up, down):  2.654E-04 0.000E+00

     Adding external electric field

     Computed dipole along edir(3) : 
        Dipole                0.2321 Ry au,          0.5899 Debye
        Dipole field          0.0005 Ry au, 

        Potential amp.       -0.0433 Ry
        Total length         46.2541 bohr


     total cpu time spent up to now is    10708.6 secs

     total energy              =   -1839.17409806 Ry
     estimated scf accuracy    <       0.12721151 Ry

     iteration # 12     ecut=    55.12 Ry     beta= 0.10
     Davidson diagonalization with overlap
     ethr =  5.88E-05,  avg # of iterations =  1.0

     negative rho (up, down):  2.525E-04 0.000E+00

     Adding external electric field

     Computed dipole along edir(3) : 
        Dipole                0.2427 Ry au,          0.6168 Debye
        Dipole field          0.0005 Ry au, 

        Potential amp.       -0.0453 Ry
        Total length         46.2541 bohr


     total cpu time spent up to now is    11062.0 secs

     total energy              =   -1839.17542513 Ry
     estimated scf accuracy    <       0.00768855 Ry

     iteration # 13     ecut=    55.12 Ry     beta= 0.10
     Davidson diagonalization with overlap
     c_bands:  2 eigenvalues not converged
     c_bands:  1 eigenvalues not converged
     c_bands:  2 eigenvalues not converged
     c_bands:  2 eigenvalues not converged
     c_bands:  2 eigenvalues not converged
     c_bands:  1 eigenvalues not converged
     c_bands:  1 eigenvalues not converged
     c_bands:  1 eigenvalues not converged
     c_bands:  1 eigenvalues not converged
     c_bands:  1 eigenvalues not converged
     c_bands:  1 eigenvalues not converged
     c_bands:  1 eigenvalues not converged
     c_bands:  2 eigenvalues not converged
     c_bands:  2 eigenvalues not converged
     c_bands:  1 eigenvalues not converged
     c_bands:  1 eigenvalues not converged
     c_bands:  1 eigenvalues not converged
     c_bands:  2 eigenvalues not converged
     c_bands:  1 eigenvalues not converged
     c_bands:  1 eigenvalues not converged
     c_bands:  2 eigenvalues not converged
     c_bands:  1 eigenvalues not converged
     c_bands:  1 eigenvalues not converged
     c_bands:  3 eigenvalues not converged
     c_bands:  1 eigenvalues not converged
     c_bands:  1 eigenvalues not converged
     c_bands:  1 eigenvalues not converged
     c_bands:  1 eigenvalues not converged
     c_bands:  1 eigenvalues not converged
     c_bands:  1 eigenvalues not converged
     c_bands:  1 eigenvalues not converged
     ethr =  4.93E-06,  avg # of iterations = 15.6

     negative rho (up, down):  2.285E-04 0.000E+00

     Adding external electric field

     Computed dipole along edir(3) : 
        Dipole                0.2515 Ry au,          0.6392 Debye
        Dipole field          0.0005 Ry au, 

        Potential amp.       -0.0469 Ry
        Total length         46.2541 bohr


     total cpu time spent up to now is    11660.9 secs

     total energy              =   -1839.17607941 Ry
     estimated scf accuracy    <       0.00612190 Ry

     iteration # 14     ecut=    55.12 Ry     beta= 0.10
     Davidson diagonalization with overlap
     c_bands:  1 eigenvalues not converged
     c_bands:  2 eigenvalues not converged
     c_bands:  1 eigenvalues not converged
     c_bands:  1 eigenvalues not converged
     c_bands:  1 eigenvalues not converged
     c_bands:  1 eigenvalues not converged
     c_bands:  1 eigenvalues not converged
     c_bands:  1 eigenvalues not converged
     c_bands:  2 eigenvalues not converged
     c_bands:  1 eigenvalues not converged
     c_bands:  1 eigenvalues not converged
     c_bands:  2 eigenvalues not converged
     ethr =  3.92E-06,  avg # of iterations =  5.1

     negative rho (up, down):  2.132E-04 0.000E+00

     Adding external electric field

     Computed dipole along edir(3) : 
        Dipole                0.2520 Ry au,          0.6404 Debye
        Dipole field          0.0005 Ry au, 

        Potential amp.       -0.0470 Ry
        Total length         46.2541 bohr


     total cpu time spent up to now is    12023.8 secs

     total energy              =   -1839.17608893 Ry
     estimated scf accuracy    <       0.00090042 Ry

     iteration # 15     ecut=    55.12 Ry     beta= 0.10
     Davidson diagonalization with overlap
     c_bands:  1 eigenvalues not converged
     c_bands:  1 eigenvalues not converged
     c_bands:  1 eigenvalues not converged
     c_bands:  2 eigenvalues not converged
     c_bands:  1 eigenvalues not converged
     c_bands:  1 eigenvalues not converged
     ethr =  5.77E-07,  avg # of iterations =  9.4

     negative rho (up, down):  2.053E-04 0.000E+00

     Adding external electric field

     Computed dipole along edir(3) : 
        Dipole                0.2444 Ry au,          0.6211 Debye
        Dipole field          0.0005 Ry au, 

        Potential amp.       -0.0456 Ry
        Total length         46.2541 bohr


     total cpu time spent up to now is    12577.6 secs

     total energy              =   -1839.17632680 Ry
     estimated scf accuracy    <       0.00030816 Ry

     iteration # 16     ecut=    55.12 Ry     beta= 0.10
     Davidson diagonalization with overlap
     c_bands:  1 eigenvalues not converged
     ethr =  1.98E-07,  avg # of iterations =  4.4

     negative rho (up, down):  2.006E-04 0.000E+00

     Adding external electric field

     Computed dipole along edir(3) : 
        Dipole                0.2557 Ry au,          0.6499 Debye
        Dipole field          0.0005 Ry au, 

        Potential amp.       -0.0477 Ry
        Total length         46.2541 bohr


     total cpu time spent up to now is    13377.2 secs

     total energy              =   -1839.17632661 Ry
     estimated scf accuracy    <       0.00045268 Ry

     iteration # 17     ecut=    55.12 Ry     beta= 0.10
     Davidson diagonalization with overlap
     ethr =  1.98E-07,  avg # of iterations =  5.2

     negative rho (up, down):  1.849E-04 0.000E+00

     Adding external electric field

     Computed dipole along edir(3) : 
        Dipole                0.2538 Ry au,          0.6452 Debye
        Dipole field          0.0005 Ry au, 

        Potential amp.       -0.0474 Ry
        Total length         46.2541 bohr


     total cpu time spent up to now is    14001.9 secs

     total energy              =   -1839.17636411 Ry
     estimated scf accuracy    <       0.00003650 Ry

     iteration # 18     ecut=    55.12 Ry     beta= 0.10
     Davidson diagonalization with overlap
     c_bands:  1 eigenvalues not converged
     c_bands:  2 eigenvalues not converged
     c_bands:  2 eigenvalues not converged
     ethr =  2.34E-08,  avg # of iterations =  7.9

     negative rho (up, down):  1.716E-04 0.000E+00

     Adding external electric field

     Computed dipole along edir(3) : 
        Dipole                0.2532 Ry au,          0.6435 Debye
        Dipole field          0.0005 Ry au, 

        Potential amp.       -0.0472 Ry
        Total length         46.2541 bohr


     total cpu time spent up to now is    14844.4 secs

     total energy              =   -1839.17637053 Ry
     estimated scf accuracy    <       0.00002823 Ry

     iteration # 19     ecut=    55.12 Ry     beta= 0.10
     Davidson diagonalization with overlap
     c_bands:  2 eigenvalues not converged
     ethr =  1.81E-08,  avg # of iterations =  1.5

     negative rho (up, down):  1.656E-04 0.000E+00

     Adding external electric field

     Computed dipole along edir(3) : 
        Dipole                0.2528 Ry au,          0.6426 Debye
        Dipole field          0.0005 Ry au, 

        Potential amp.       -0.0472 Ry
        Total length         46.2541 bohr


     total cpu time spent up to now is    15181.9 secs

     total energy              =   -1839.17636453 Ry
     estimated scf accuracy    <       0.00002075 Ry

     iteration # 20     ecut=    55.12 Ry     beta= 0.10
     Davidson diagonalization with overlap
     ethr =  1.33E-08,  avg # of iterations =  6.5

     negative rho (up, down):  1.597E-04 0.000E+00

     Adding external electric field

     Computed dipole along edir(3) : 
        Dipole                0.2532 Ry au,          0.6435 Debye
        Dipole field          0.0005 Ry au, 

        Potential amp.       -0.0472 Ry
        Total length         46.2541 bohr


     total cpu time spent up to now is    15862.7 secs

     total energy              =   -1839.17636960 Ry
     estimated scf accuracy    <       0.00002730 Ry

     iteration # 21     ecut=    55.12 Ry     beta= 0.10
     Davidson diagonalization with overlap
     ethr =  1.33E-08,  avg # of iterations =  2.0

     negative rho (up, down):  1.353E-04 0.000E+00

     Adding external electric field

     Computed dipole along edir(3) : 
        Dipole                0.2572 Ry au,          0.6537 Debye
        Dipole field          0.0005 Ry au, 

        Potential amp.       -0.0480 Ry
        Total length         46.2541 bohr


     total cpu time spent up to now is    16291.2 secs

     End of self-consistent calculation

          k = 0.0000 0.0000 0.0000 ( 42975 PWs)   bands (ev):

   -77.3245 -77.3237 -77.2035 -77.2029 -77.1964 -77.1957 -39.1415 -39.1382
   -39.0625 -39.0619 -39.0392 -39.0155 -39.0131 -39.0100 -38.9988 -38.9854
   -38.9795 -38.9746 -38.9682 -38.9620 -38.9518 -38.9517 -38.8746 -38.8713
   -30.1171 -30.0134 -29.7406 -29.6340 -28.8035 -28.7019 -14.3727 -14.0350
   -13.9892 -13.8630 -13.8325 -13.7611 -13.6703 -13.5349 -13.5228 -13.4620
   -13.3720 -13.3584 -13.0115 -12.8766 -12.6847 -12.6387 -12.4843 -12.2728
    -2.1755  -1.4297  -1.3460  -1.2488  -0.9201  -0.6142  -0.3697  -0.3346
     0.0260   0.1321   0.2080   0.3849   0.7451   0.7810   0.7870   1.0540
     1.0870   1.0971   1.1719   1.2779   1.2890   1.4789   1.6648   1.8921
     2.0441   2.2105   2.2892   2.3086   2.4760   2.5757   2.7452   2.9815
     3.1159   3.2671   3.4840   3.4931   3.5997   3.7208   3.9085   3.9149
     4.0396   4.2518   4.4777   4.6025   4.6316   4.6515

          k = 0.0000 0.0142 0.0000 ( 42980 PWs)   bands (ev):

   -77.3245 -77.3237 -77.2035 -77.2029 -77.1964 -77.1957 -39.1415 -39.1383
   -39.0625 -39.0619 -39.0386 -39.0149 -39.0130 -39.0101 -38.9996 -38.9849
   -38.9801 -38.9745 -38.9683 -38.9618 -38.9524 -38.9518 -38.8746 -38.8714
   -30.1151 -30.0150 -29.7386 -29.6356 -28.8015 -28.7034 -14.3582 -14.0211
   -13.9876 -13.8655 -13.8352 -13.7657 -13.6673 -13.5373 -13.5258 -13.4666
   -13.3791 -13.3562 -13.0331 -12.8714 -12.6872 -12.6389 -12.4896 -12.2961
    -2.1191  -1.3929  -1.2997  -1.2095  -0.8791  -0.5730  -0.3526  -0.3000
     0.0705   0.1515   0.2528   0.4115   0.7496   0.7934   0.8147   1.0637
     1.0838   1.0887   1.1878   1.2695   1.3033   1.4870   1.6625   1.9081
     2.0384   2.2120   2.2780   2.2921   2.4469   2.5674   2.7192   2.9518
     2.9822   3.0920   3.1536   3.5179   3.5185   3.9359   3.9417   4.0862
     4.1041   4.2057   4.4690   4.5889   4.5990   4.6399

          k = 0.0000 0.0283 0.0000 ( 43015 PWs)   bands (ev):

   -77.3244 -77.3238 -77.2035 -77.2029 -77.1964 -77.1958 -39.1414 -39.1386
   -39.0625 -39.0620 -39.0366 -39.0131 -39.0129 -39.0103 -39.0017 -38.9832
   -38.9819 -38.9742 -38.9686 -38.9612 -38.9541 -38.9523 -38.8745 -38.8716
   -30.1095 -30.0197 -29.7326 -29.6402 -28.7959 -28.7079 -14.3153 -13.9829
   -13.9799 -13.8727 -13.8419 -13.7785 -13.6590 -13.5441 -13.5334 -13.4787
   -13.4385 -13.3103 -13.0952 -12.8571 -12.6945 -12.6390 -12.5045 -12.3628
    -1.9568  -1.2893  -1.1658  -1.0985  -0.7655  -0.4521  -0.3010  -0.2097
     0.1958   0.2066   0.3793   0.4852   0.7776   0.8096   0.8931   1.0660
     1.0680   1.1250   1.2030   1.2481   1.3476   1.5144   1.6507   1.9505
     2.0120   2.1863   2.2219   2.2975   2.3707   2.5522   2.5578   2.6524
     2.7010   2.8730   3.0265   3.2420   3.5888   3.9630   3.9882   4.0860
     4.3170   4.3572   4.4286   4.5199   4.5622   4.5952

          k = 0.0000 0.0425 0.0000 ( 43038 PWs)   bands (ev):

   -77.3244 -77.3238 -77.2035 -77.2030 -77.1963 -77.1958 -39.1413 -39.1389
   -39.0625 -39.0620 -39.0336 -39.0127 -39.0105 -39.0102 -39.0051 -38.9848
   -38.9806 -38.9736 -38.9691 -38.9603 -38.9568 -38.9531 -38.8743 -38.8720
   -30.1006 -30.0273 -29.7232 -29.6478 -28.7870 -28.7151 -14.2459 -13.9751
   -13.9151 -13.8816 -13.8496 -13.7965 -13.6476 -13.5548 -13.5434 -13.5295
   -13.4953 -13.2365 -13.1903 -12.8365 -12.7062 -12.6385 -12.5263 -12.4642
    -1.7092  -1.1395  -0.9588  -0.9359  -0.6089  -0.2624  -0.2128  -0.1043
     0.2855   0.3752   0.5583   0.5849   0.8203   0.8305   0.9692   1.0365
     1.1073   1.1888   1.2230   1.2281   1.4044   1.5768   1.6227   1.9209
     1.9509   2.0642   2.1692   2.2078   2.3118   2.3221   2.3388   2.5669
     2.5690   2.7584   2.9051   2.9478   3.6812   3.8704   3.8731   4.0368
     4.2809   4.3695   4.4245   4.4446   4.5430   4.6462

          k = 0.0000 0.0566 0.0000 ( 43063 PWs)   bands (ev):

   -77.3244 -77.3239 -77.2034 -77.2031 -77.1962 -77.1959 -39.1411 -39.1394
   -39.0625 -39.0621 -39.0296 -39.0125 -39.0108 -39.0093 -39.0065 -38.9885
   -38.9771 -38.9729 -38.9697 -38.9604 -38.9591 -38.9541 -38.8741 -38.8724
   -30.0893 -30.0374 -29.7112 -29.6579 -28.7757 -28.7248 -14.1529 -13.9644
   -13.9012 -13.8554 -13.8240 -13.8111 -13.6537 -13.6253 -13.5682 -13.5509
   -13.5128 -13.3078 -13.1378 -12.8126 -12.7218 -12.6447 -12.5800 -12.5515
    -1.4109  -0.9811  -0.7509  -0.7042  -0.4644  -0.0987  -0.0430  -0.0082
     0.3537   0.5556   0.6750   0.7097   0.8412   0.8835   0.9870   1.0127
     1.1321   1.1643   1.2442   1.3676   1.4368   1.5795   1.7029   1.7403
     1.8592   1.9243   1.9925   2.0299   2.1889   2.3532   2.4125   2.4915
     2.6060   2.6280   2.7255   2.8051   3.5287   3.6649   3.8508   3.9423
     3.9757   4.3560   4.3733   4.4244   4.5353   4.6008

          k = 0.0000 0.0708 0.0000 ( 43062 PWs)   bands (ev):

   -77.3243 -77.3239 -77.2033 -77.2031 -77.1962 -77.1960 -39.1408 -39.1399
   -39.0624 -39.0621 -39.0248 -39.0145 -39.0119 -39.0112 -39.0021 -38.9928
   -38.9731 -38.9721 -38.9705 -38.9644 -38.9579 -38.9553 -38.8737 -38.8728
   -30.0763 -30.0495 -29.6977 -29.6701 -28.7628 -28.7365 -14.0418 -13.9516
   -13.9156 -13.8584 -13.8336 -13.7733 -13.7107 -13.6168 -13.5826 -13.5573
   -13.5267 -13.4342 -13.0184 -12.7889 -12.7430 -12.7408 -12.6103 -12.5762
    -1.1171  -0.8776  -0.5771  -0.4480  -0.3946  -0.0769   0.0618   0.2637
     0.3424   0.6483   0.6995   0.8013   0.8025   0.9476   0.9542   0.9943
     1.0688   1.1735   1.2746   1.4132   1.4554   1.5532   1.7495   1.7716
     1.8653   1.8654   1.9162   1.9268   2.1329   2.3139   2.4784   2.4979
     2.5376   2.6873   2.6939   2.7002   3.2549   3.4408   3.5970   3.6622
     4.0532   4.2802   4.3748   4.4652   4.4690   4.5268

          k = 0.0000-0.0849 0.0000 ( 43070 PWs)   bands (ev):

   -77.3243 -77.3239 -77.2033 -77.2032 -77.1961 -77.1960 -39.1405 -39.1402
   -39.0624 -39.0622 -39.0197 -39.0197 -39.0117 -39.0115 -38.9977 -38.9973
   -38.9713 -38.9713 -38.9688 -38.9687 -38.9566 -38.9565 -38.8733 -38.8732
   -30.0629 -30.0626 -29.6837 -29.6836 -28.7495 -28.7493 -13.9440 -13.9439
   -13.9075 -13.9073 -13.8424 -13.8422 -13.6117 -13.6116 -13.5858 -13.5858
   -13.5239 -13.5239 -12.8846 -12.8845 -12.7625 -12.7624 -12.5971 -12.5970
    -0.9139  -0.9135  -0.4502  -0.4501  -0.2161  -0.2157   0.2275   0.2276
     0.5320   0.5321   0.6998   0.7001   0.8952   0.8952   0.9459   0.9459
     1.2280   1.2282   1.2514   1.2515   1.5254   1.5255   1.7466   1.7468
     1.8237   1.8239   2.0431   2.0436   2.1766   2.1767   2.5057   2.5060
     2.5799   2.5802   2.7139   2.7141   3.2648   3.2650   3.4558   3.4560
     4.1840   4.1840   4.4128   4.4138   4.4501   4.4502

          k = 0.0133-0.0047 0.0000 ( 42980 PWs)   bands (ev):

   -77.3245 -77.3237 -77.2035 -77.2029 -77.1964 -77.1957 -39.1415 -39.1383
   -39.0625 -39.0619 -39.0386 -39.0149 -39.0130 -39.0101 -38.9996 -38.9849
   -38.9801 -38.9745 -38.9683 -38.9618 -38.9524 -38.9518 -38.8746 -38.8714
   -30.1151 -30.0150 -29.7386 -29.6356 -28.8015 -28.7034 -14.3582 -14.0211
   -13.9876 -13.8655 -13.8352 -13.7657 -13.6673 -13.5373 -13.5258 -13.4666
   -13.3791 -13.3562 -13.0331 -12.8714 -12.6872 -12.6389 -12.4896 -12.2961
    -2.1191  -1.3929  -1.2997  -1.2095  -0.8791  -0.5730  -0.3526  -0.3000
     0.0705   0.1515   0.2528   0.4115   0.7496   0.7934   0.8147   1.0637
     1.0838   1.0887   1.1878   1.2695   1.3033   1.4870   1.6625   1.9081
     2.0384   2.2120   2.2780   2.2921   2.4469   2.5674   2.7192   2.9518
     2.9822   3.0920   3.1536   3.5179   3.5185   3.9359   3.9417   4.0862
     4.1041   4.2057   4.4690   4.5889   4.5987   4.6404

          k = 0.0133 0.0094 0.0000 ( 42993 PWs)   bands (ev):

   -77.3245 -77.3237 -77.2035 -77.2029 -77.1964 -77.1957 -39.1417 -39.1382
   -39.0623 -39.0621 -39.0394 -39.0154 -39.0131 -39.0100 -38.9987 -38.9855
   -38.9796 -38.9744 -38.9683 -38.9618 -38.9518 -38.9518 -38.8748 -38.8713
   -30.1164 -30.0133 -29.7397 -29.6339 -28.8030 -28.7014 -14.3764 -14.0404
   -13.9919 -13.8624 -13.8474 -13.7617 -13.6677 -13.5379 -13.5337 -13.4627
   -13.3757 -13.3594 -13.0128 -12.8669 -12.6880 -12.6440 -12.4899 -12.2749
    -2.0988  -1.3771  -1.2860  -1.1822  -0.8542  -0.5826  -0.3391  -0.2692
     0.0579   0.1607   0.2509   0.4349   0.7547   0.8189   0.8282   1.0680
     1.0685   1.1195   1.2200   1.2668   1.2825   1.5201   1.6642   1.9183
     2.0141   2.2107   2.2947   2.2993   2.4785   2.5783   2.6708   2.8751
     3.0600   3.2982   3.4218   3.5082   3.5370   3.7236   3.9098   3.9471
     4.0015   4.1084   4.4644   4.5373   4.5829   4.6166

          k = 0.0133 0.0236 0.0000 ( 43003 PWs)   bands (ev):

   -77.3245 -77.3237 -77.2035 -77.2029 -77.1964 -77.1957 -39.1418 -39.1382
   -39.0626 -39.0618 -39.0390 -39.0147 -39.0131 -39.0101 -38.9994 -38.9849
   -38.9803 -38.9741 -38.9685 -38.9615 -38.9524 -38.9521 -38.8748 -38.8713
   -30.1139 -30.0147 -29.7368 -29.6353 -28.8007 -28.7024 -14.3652 -14.0312
   -13.9928 -13.8645 -13.8623 -13.7663 -13.6636 -13.5534 -13.5351 -13.4673
   -13.3807 -13.3635 -13.0354 -12.8538 -12.6935 -12.6487 -12.5001 -12.2998
    -1.9699  -1.2919  -1.1846  -1.0823  -0.7530  -0.5108  -0.2909  -0.1781
     0.1311   0.2074   0.3347   0.5058   0.7708   0.8691   0.8826   1.0635
     1.1066   1.1277   1.2335   1.2518   1.3078   1.5650   1.6660   1.9598
     1.9763   2.2110   2.2633   2.3039   2.4436   2.5824   2.5901   2.7691
     2.9006   3.0407   3.1151   3.4764   3.5480   3.8786   3.8969   3.9944
     4.0524   4.0724   4.3691   4.4607   4.5395   4.5879

          k = 0.0133 0.0377 0.0000 ( 43051 PWs)   bands (ev):

   -77.3244 -77.3238 -77.2035 -77.2029 -77.1964 -77.1958 -39.1419 -39.1385
   -39.0629 -39.0615 -39.0372 -39.0130 -39.0128 -39.0102 -39.0014 -38.9833
   -38.9821 -38.9737 -38.9690 -38.9608 -38.9541 -38.9527 -38.8748 -38.8716
   -30.1079 -30.0195 -29.7302 -29.6400 -28.7948 -28.7066 -14.3248 -13.9934
   -13.9902 -13.8764 -13.8710 -13.7774 -13.6565 -13.5687 -13.5412 -13.4778
   -13.4399 -13.3203 -13.0970 -12.8350 -12.7035 -12.6513 -12.5179 -12.3665
    -1.7480  -1.1547  -1.0087  -0.9289  -0.5994  -0.3627  -0.2063  -0.0633
     0.2754   0.2816   0.4865   0.6046   0.7984   0.8947   0.9664   1.0953
     1.0983   1.1808   1.2262   1.2429   1.3641   1.6186   1.6830   1.9153
     2.0175   2.1802   2.2260   2.2898   2.3693   2.4919   2.4967   2.5838
     2.6555   2.6754   2.9292   3.2033   3.6082   3.7069   3.7972   4.1123
     4.1807   4.2182   4.3052   4.3930   4.4314   4.5351

          k = 0.0133 0.0519 0.0000 ( 43066 PWs)   bands (ev):

   -77.3244 -77.3238 -77.2035 -77.2030 -77.1963 -77.1958 -39.1418 -39.1388
   -39.0632 -39.0613 -39.0342 -39.0128 -39.0105 -39.0098 -39.0047 -38.9851
   -38.9807 -38.9730 -38.9696 -38.9598 -38.9568 -38.9535 -38.8746 -38.8719
   -30.0989 -30.0272 -29.7206 -29.6478 -28.7860 -28.7138 -14.2565 -13.9837
   -13.9285 -13.8865 -13.8806 -13.7914 -13.6477 -13.5800 -13.5514 -13.5299
   -13.4909 -13.2477 -13.1902 -12.8132 -12.7177 -12.6507 -12.5399 -12.4658
    -1.4618  -0.9971  -0.7790  -0.7504  -0.4414  -0.1574  -0.0767   0.0196
     0.3522   0.4592   0.6603   0.6974   0.8236   0.8809   1.0087   1.0562
     1.1510   1.1858   1.2563   1.3434   1.4206   1.6496   1.7523   1.8313
     1.9242   2.0902   2.1445   2.2006   2.2937   2.3308   2.3694   2.4291
     2.5266   2.6637   2.8169   2.9060   3.3949   3.5887   3.7933   3.9276
     4.0274   4.2572   4.3527   4.3938   4.4941   4.5206

          k = 0.0133 0.0660 0.0000 ( 43061 PWs)   bands (ev):

   -77.3244 -77.3239 -77.2034 -77.2031 -77.1963 -77.1959 -39.1416 -39.1392
   -39.0634 -39.0611 -39.0302 -39.0125 -39.0108 -39.0089 -39.0061 -38.9888
   -38.9772 -38.9723 -38.9703 -38.9603 -38.9586 -38.9545 -38.8744 -38.8722
   -30.0876 -30.0376 -29.7087 -29.6583 -28.7749 -28.7237 -14.1633 -13.9731
   -13.8963 -13.8902 -13.8355 -13.8043 -13.6546 -13.6249 -13.5847 -13.5644
   -13.5032 -13.3052 -13.1484 -12.7905 -12.7358 -12.6539 -12.5786 -12.5628
    -1.1570  -0.8713  -0.5785  -0.5254  -0.3514   0.0225   0.0553   0.1317
     0.3478   0.6299   0.7334   0.7458   0.8424   0.9133   0.9989   1.0434
     1.0821   1.2004   1.2802   1.4004   1.4878   1.6301   1.7334   1.8245
     1.9216   1.9588   1.9904   2.0191   2.2336   2.2927   2.4060   2.4301
     2.4726   2.7061   2.7253   2.7612   3.1466   3.3608   3.6585   3.6813
     3.9519   4.2908   4.3445   4.4071   4.4907   4.4992

          k = 0.0133-0.0897 0.0000 ( 43087 PWs)   bands (ev):

   -77.3243 -77.3239 -77.2033 -77.2031 -77.1962 -77.1960 -39.1412 -39.1396
   -39.0636 -39.0611 -39.0255 -39.0139 -39.0120 -39.0111 -39.0017 -38.9932
   -38.9732 -38.9715 -38.9711 -38.9644 -38.9573 -38.9558 -38.8740 -38.8726
   -30.0750 -30.0501 -29.6956 -29.6710 -28.7625 -28.7358 -14.0506 -13.9591
   -13.9094 -13.8868 -13.8166 -13.7713 -13.7228 -13.6198 -13.5827 -13.5791
   -13.5116 -13.4304 -13.0266 -12.7708 -12.7572 -12.7393 -12.6125 -12.5835
    -0.9086  -0.8547  -0.4451  -0.3769  -0.2856  -0.0762   0.2418   0.2474
     0.3983   0.6622   0.6748   0.7716   0.8144   0.9413   0.9576   1.0033
     1.1378   1.2309   1.2478   1.3857   1.4533   1.5841   1.6881   1.7615
     1.8548   1.8812   2.0358   2.0804   2.1638   2.1938   2.4510   2.4750
     2.4979   2.6296   2.6578   2.7580   3.1801   3.2631   3.4152   3.4206
     4.1016   4.2651   4.3255   4.4266   4.4491   4.5093

          k = 0.0133-0.0755 0.0000 ( 43092 PWs)   bands (ev):

   -77.3243 -77.3239 -77.2033 -77.2032 -77.1961 -77.1960 -39.1408 -39.1400
   -39.0636 -39.0610 -39.0203 -39.0191 -39.0117 -39.0115 -38.9979 -38.9970
   -38.9720 -38.9707 -38.9689 -38.9687 -38.9571 -38.9560 -38.8735 -38.8730
   -30.0637 -30.0618 -29.6851 -29.6822 -28.7496 -28.7492 -13.9454 -13.9444
   -13.9085 -13.9038 -13.8627 -13.8216 -13.6134 -13.6097 -13.5890 -13.5816
   -13.5373 -13.5111 -12.8887 -12.8783 -12.7810 -12.7461 -12.6001 -12.5955
    -1.0040  -0.8142  -0.4941  -0.3863  -0.2701  -0.1102   0.0858   0.3864
     0.4462   0.6508   0.6849   0.7209   0.8721   0.8929   0.9694   0.9721
     1.1882   1.1949   1.2839   1.3089   1.4748   1.5308   1.6290   1.7399
     1.8231   1.8600   1.8916   1.9325   2.0435   2.3140   2.4813   2.5008
     2.5923   2.5932   2.6405   2.6934   3.3106   3.3610   3.4983   3.5186
     4.1641   4.2074   4.3863   4.4255   4.4690   4.4998

          k = 0.0133-0.0614 0.0000 ( 43051 PWs)   bands (ev):

   -77.3243 -77.3239 -77.2033 -77.2031 -77.1962 -77.1960 -39.1405 -39.1401
   -39.0635 -39.0611 -39.0242 -39.0150 -39.0118 -39.0112 -39.0025 -38.9925
   -38.9730 -38.9728 -38.9700 -38.9645 -38.9583 -38.9548 -38.8735 -38.8730
   -30.0775 -30.0490 -29.6995 -29.6692 -28.7631 -28.7371 -14.0332 -13.9459
   -13.9217 -13.8482 -13.8304 -13.7762 -13.6978 -13.6172 -13.5868 -13.5407
   -13.5285 -13.4408 -13.0102 -12.8076 -12.7421 -12.7279 -12.6114 -12.5707
    -1.2743  -0.8893  -0.6697  -0.5442  -0.4164  -0.0704  -0.0342   0.1759
     0.4072   0.6462   0.7022   0.7866   0.8582   0.9318   0.9519   1.0235
     1.0788   1.1634   1.2389   1.3884   1.4801   1.4945   1.5915   1.6870
     1.6880   1.8316   1.8734   1.9842   2.0233   2.3480   2.4672   2.5054
     2.5728   2.6333   2.6627   2.7279   3.6107   3.6109   3.6890   3.8719
     4.0362   4.2621   4.4041   4.4703   4.5264   4.5658

          k = 0.0133-0.0472 0.0000 ( 43037 PWs)   bands (ev):

   -77.3244 -77.3239 -77.2034 -77.2030 -77.1962 -77.1959 -39.1407 -39.1396
   -39.0633 -39.0612 -39.0290 -39.0125 -39.0108 -39.0096 -39.0068 -38.9882
   -38.9771 -38.9735 -38.9693 -38.9604 -38.9595 -38.9537 -38.8738 -38.8725
   -30.0905 -30.0373 -29.7131 -29.6576 -28.7762 -28.7256 -14.1449 -13.9589
   -13.9052 -13.8270 -13.8248 -13.8056 -13.6529 -13.6293 -13.5714 -13.5214
   -13.5202 -13.3112 -13.1295 -12.8314 -12.7121 -12.6308 -12.5875 -12.5437
    -1.5743  -1.0478  -0.8624  -0.8193  -0.5461  -0.1930  -0.0892  -0.0708
     0.3350   0.5268   0.6258   0.6855   0.8056   0.8567   0.9910   1.0110
     1.1241   1.1989   1.1997   1.2484   1.4636   1.5287   1.5723   1.6836
     1.8930   1.9346   1.9526   2.0723   2.0994   2.2989   2.3766   2.5396
     2.5896   2.7370   2.8044   2.8404   3.7484   3.8815   3.8872   4.0119
     4.2197   4.3459   4.3851   4.5209   4.5307   4.6907

          k = 0.0133-0.0330 0.0000 ( 43040 PWs)   bands (ev):

   -77.3244 -77.3238 -77.2035 -77.2030 -77.1963 -77.1958 -39.1410 -39.1391
   -39.0631 -39.0614 -39.0332 -39.0127 -39.0105 -39.0104 -39.0053 -38.9846
   -38.9805 -38.9740 -38.9688 -38.9606 -38.9568 -38.9528 -38.8741 -38.8720
   -30.1017 -30.0274 -29.7247 -29.6478 -28.7876 -28.7159 -14.2396 -13.9707
   -13.9087 -13.8805 -13.8259 -13.7994 -13.6502 -13.5569 -13.5305 -13.5182
   -13.4980 -13.2298 -13.1907 -12.8521 -12.6997 -12.6300 -12.5187 -12.4642
    -1.8392  -1.2115  -1.0556  -1.0355  -0.7014  -0.3179  -0.2777  -0.1685
     0.2474   0.3351   0.5052   0.5225   0.7678   0.7995   0.9567   1.0253
     1.0701   1.1497   1.2205   1.2235   1.4077   1.4846   1.6112   1.8817
     2.0341   2.0367   2.1896   2.2218   2.2820   2.2896   2.3255   2.5248
     2.6838   2.9190   2.9522   2.9647   3.6632   3.9508   3.9861   4.1863
     4.3817   4.3893   4.5047   4.5560   4.5584   4.7253

          k = 0.0133-0.0189 0.0000 ( 43000 PWs)   bands (ev):

   -77.3244 -77.3238 -77.2035 -77.2029 -77.1963 -77.1958 -39.1413 -39.1386
   -39.0628 -39.0616 -39.0364 -39.0132 -39.0129 -39.0102 -39.0018 -38.9832
   -38.9818 -38.9743 -38.9684 -38.9613 -38.9541 -38.9522 -38.8744 -38.8717
   -30.1101 -30.0198 -29.7335 -29.6403 -28.7962 -28.7084 -14.3119 -13.9805
   -13.9749 -13.8733 -13.8280 -13.7789 -13.6613 -13.5452 -13.5192 -13.4791
   -13.4381 -13.3066 -13.0946 -12.8662 -12.6912 -12.6342 -12.4996 -12.3616
    -2.0288  -1.3347  -1.2212  -1.1581  -0.8237  -0.4826  -0.3320  -0.2605
     0.1686   0.1818   0.3422   0.4424   0.7609   0.7727   0.8688   1.0533
     1.0681   1.1040   1.1954   1.2525   1.3464   1.4728   1.6467   1.9114
     2.0531   2.1899   2.2036   2.3054   2.3721   2.5399   2.5777   2.7051
     2.7309   2.9698   3.0493   3.2559   3.5730   3.9462   3.9949   4.2468
     4.3655   4.3714   4.4308   4.5994   4.6069   4.6220

          k = 0.0267-0.0095 0.0000 ( 43015 PWs)   bands (ev):

   -77.3244 -77.3238 -77.2035 -77.2029 -77.1964 -77.1958 -39.1414 -39.1386
   -39.0625 -39.0620 -39.0366 -39.0131 -39.0129 -39.0103 -39.0017 -38.9832
   -38.9819 -38.9742 -38.9686 -38.9612 -38.9541 -38.9523 -38.8745 -38.8716
   -30.1095 -30.0197 -29.7326 -29.6402 -28.7959 -28.7079 -14.3153 -13.9829
   -13.9799 -13.8727 -13.8419 -13.7785 -13.6590 -13.5441 -13.5334 -13.4787
   -13.4385 -13.3103 -13.0952 -12.8571 -12.6945 -12.6390 -12.5045 -12.3628
    -1.9568  -1.2893  -1.1658  -1.0985  -0.7655  -0.4521  -0.3010  -0.2097
     0.1958   0.2066   0.3793   0.4852   0.7776   0.8096   0.8931   1.0660
     1.0680   1.1250   1.2030   1.2481   1.3476   1.5144   1.6507   1.9505
     2.0120   2.1863   2.2219   2.2975   2.3707   2.5522   2.5578   2.6524
     2.7010   2.8730   3.0265   3.2420   3.5888   3.9630   3.9883   4.0860
     4.3170   4.3572   4.4286   4.5200   4.5624   4.5954

          k = 0.0267 0.0047 0.0000 ( 43003 PWs)   bands (ev):

   -77.3245 -77.3237 -77.2035 -77.2029 -77.1964 -77.1957 -39.1418 -39.1382
   -39.0626 -39.0618 -39.0390 -39.0147 -39.0131 -39.0101 -38.9994 -38.9849
   -38.9803 -38.9741 -38.9685 -38.9615 -38.9524 -38.9521 -38.8748 -38.8713
   -30.1139 -30.0147 -29.7368 -29.6353 -28.8007 -28.7024 -14.3652 -14.0312
   -13.9928 -13.8645 -13.8623 -13.7663 -13.6636 -13.5534 -13.5351 -13.4673
   -13.3807 -13.3635 -13.0354 -12.8538 -12.6935 -12.6487 -12.5001 -12.2998
    -1.9699  -1.2919  -1.1846  -1.0823  -0.7530  -0.5108  -0.2909  -0.1781
     0.1311   0.2074   0.3347   0.5058   0.7708   0.8691   0.8826   1.0635
     1.1066   1.1277   1.2335   1.2518   1.3078   1.5650   1.6660   1.9598
     1.9763   2.2110   2.2633   2.3039   2.4436   2.5824   2.5901   2.7691
     2.9006   3.0408   3.1151   3.4764   3.5480   3.8786   3.8969   3.9943
     4.0524   4.0724   4.3686   4.4607   4.5395   4.5875

          k = 0.0267 0.0188 0.0000 ( 43049 PWs)   bands (ev):

   -77.3245 -77.3238 -77.2035 -77.2029 -77.1964 -77.1957 -39.1422 -39.1381
   -39.0632 -39.0612 -39.0400 -39.0151 -39.0132 -39.0100 -38.9985 -38.9855
   -38.9798 -38.9739 -38.9687 -38.9614 -38.9522 -38.9518 -38.8751 -38.8712
   -30.1147 -30.0129 -29.7371 -29.6334 -28.8018 -28.6998 -14.3864 -14.0549
   -13.9998 -13.8843 -13.8611 -13.7630 -13.6647 -13.5754 -13.5308 -13.4644
   -13.3861 -13.3621 -13.0166 -12.8433 -12.6967 -12.6577 -12.5054 -12.2808
    -1.8766  -1.2226  -1.1174  -0.9919  -0.6650  -0.4894  -0.2465  -0.0795
     0.1488   0.2483   0.3743   0.5758   0.7747   0.9296   0.9379   1.0747
     1.1114   1.1961   1.2300   1.2750   1.2957   1.6326   1.6563   1.9334
     1.9701   2.1768   2.2723   2.3417   2.4784   2.5060   2.5874   2.6323
     2.9305   3.2445   3.3320   3.3654   3.5514   3.6904   3.7276   3.8225
     3.8984   4.1057   4.2101   4.3839   4.4763   4.4982

          k = 0.0267 0.0330 0.0000 ( 43027 PWs)   bands (ev):

   -77.3245 -77.3238 -77.2035 -77.2029 -77.1964 -77.1957 -39.1424 -39.1381
   -39.0638 -39.0607 -39.0397 -39.0143 -39.0132 -39.0101 -38.9990 -38.9850
   -38.9806 -38.9736 -38.9691 -38.9610 -38.9525 -38.9524 -38.8752 -38.8713
   -30.1118 -30.0143 -29.7337 -29.6348 -28.7992 -28.7006 -14.3773 -14.0486
   -14.0030 -13.9043 -13.8627 -13.7669 -13.6630 -13.5954 -13.5319 -13.4685
   -13.3836 -13.3760 -13.0394 -12.8280 -12.7041 -12.6641 -12.5185 -12.3063
    -1.6871  -1.0968  -0.9768  -0.8456  -0.5204  -0.3885  -0.1650   0.0517
     0.2431   0.3215   0.4877   0.6743   0.7878   0.9841   1.0084   1.1043
     1.1684   1.1708   1.2618   1.2713   1.3428   1.6455   1.7231   1.8766
     2.0035   2.1587   2.2390   2.3662   2.4008   2.4262   2.4899   2.6266
     2.7849   2.9056   3.0005   3.4142   3.4649   3.6118   3.6589   3.8759
     3.9875   4.0072   4.1584   4.2891   4.3548   4.4856

          k = 0.0267 0.0471 0.0000 ( 43074 PWs)   bands (ev):

   -77.3244 -77.3238 -77.2035 -77.2030 -77.1964 -77.1958 -39.1425 -39.1383
   -39.0642 -39.0603 -39.0380 -39.0131 -39.0123 -39.0102 -39.0010 -38.9834
   -38.9825 -38.9730 -38.9696 -38.9602 -38.9541 -38.9531 -38.8752 -38.8714
   -30.1057 -30.0191 -29.7269 -29.6396 -28.7934 -28.7047 -14.3376 -14.0116
   -14.0015 -13.9190 -13.8687 -13.7753 -13.6586 -13.6100 -13.5381 -13.4765
   -13.4420 -13.3336 -13.0999 -12.8099 -12.7157 -12.6656 -12.5365 -12.3720
    -1.4237  -0.9419  -0.7802  -0.6710  -0.3559  -0.2233  -0.0394   0.1580
     0.3950   0.4007   0.6485   0.7510   0.8249   0.9415   1.0530   1.1256
     1.1604   1.2188   1.2904   1.3526   1.4007   1.6722   1.7953   1.8362
     2.0015   2.1496   2.1630   2.2813   2.3158   2.3728   2.4319   2.4367
     2.5618   2.6629   2.8081   3.1409   3.2272   3.4358   3.6888   3.8046
     3.9748   4.2086   4.2100   4.2272   4.2329   4.4781

          k = 0.0267 0.0613 0.0000 ( 43098 PWs)   bands (ev):

   -77.3244 -77.3238 -77.2035 -77.2030 -77.1963 -77.1958 -39.1424 -39.1386
   -39.0646 -39.0600 -39.0350 -39.0128 -39.0104 -39.0094 -39.0043 -38.9854
   -38.9808 -38.9724 -38.9703 -38.9592 -38.9568 -38.9540 -38.8750 -38.8717
   -30.0968 -30.0271 -29.7175 -29.6477 -28.7848 -28.7122 -14.2686 -13.9947
   -13.9448 -13.9258 -13.8781 -13.7852 -13.6515 -13.6162 -13.5485 -13.5308
   -13.4855 -13.2600 -13.1911 -12.7908 -12.7313 -12.6612 -12.5562 -12.4694
    -1.1226  -0.8008  -0.5496  -0.4996  -0.2385  -0.0137   0.1392   0.1947
     0.4041   0.5728   0.7723   0.7885   0.8554   0.8877   1.0616   1.1018
     1.1515   1.2489   1.3017   1.3879   1.5349   1.6611   1.7389   1.8682
     1.9533   2.0363   2.1052   2.1843   2.2010   2.2992   2.3187   2.3641
     2.4230   2.6789   2.7441   2.8698   3.0258   3.1931   3.5059   3.7048
     3.8608   4.2007   4.2830   4.3009   4.4055   4.4500

          k = 0.0267-0.0944 0.0000 ( 43081 PWs)   bands (ev):

   -77.3244 -77.3239 -77.2034 -77.2031 -77.1963 -77.1959 -39.1421 -39.1389
   -39.0647 -39.0599 -39.0309 -39.0125 -39.0107 -39.0084 -39.0057 -38.9892
   -38.9773 -38.9717 -38.9710 -38.9603 -38.9580 -38.9550 -38.8747 -38.8720
   -30.0860 -30.0378 -29.7062 -29.6587 -28.7741 -28.7226 -14.1733 -13.9826
   -13.9228 -13.8923 -13.8484 -13.7939 -13.6551 -13.6281 -13.6129 -13.5623
   -13.4931 -13.3040 -13.1582 -12.7720 -12.7506 -12.6556 -12.5835 -12.5748
    -0.8438  -0.7403  -0.3622  -0.3162  -0.2348   0.1412   0.2369   0.2960
     0.3420   0.6703   0.7463   0.7776   0.8976   0.9490   0.9635   1.1084
     1.1134   1.2646   1.2647   1.3993   1.5093   1.6286   1.6598   1.7195
     1.9628   1.9666   2.0645   2.1230   2.1549   2.2110   2.3222   2.3910
     2.4099   2.5901   2.6482   2.8021   3.0692   3.0762   3.2740   3.4341
     3.9920   4.2362   4.3068   4.3344   4.4503   4.5072

          k = 0.0267-0.0803 0.0000 ( 43100 PWs)   bands (ev):

   -77.3243 -77.3239 -77.2033 -77.2031 -77.1962 -77.1960 -39.1416 -39.1393
   -39.0647 -39.0599 -39.0260 -39.0134 -39.0120 -39.0110 -39.0014 -38.9935
   -38.9733 -38.9718 -38.9710 -38.9643 -38.9568 -38.9562 -38.8742 -38.8724
   -30.0738 -30.0505 -29.6938 -29.6719 -28.7622 -28.7352 -14.0575 -13.9663
   -13.9097 -13.9048 -13.8009 -13.7701 -13.7316 -13.6240 -13.6004 -13.5782
   -13.4980 -13.4291 -13.0327 -12.7728 -12.7578 -12.7317 -12.6178 -12.5907
    -0.8315  -0.6899  -0.3419  -0.2906  -0.1153  -0.0216   0.1399   0.4523
     0.5695   0.6374   0.6518   0.7392   0.8340   0.9576   1.0050   1.0275
     1.1889   1.2211   1.2996   1.3473   1.4063   1.5475   1.5973   1.6738
     1.8318   1.9014   1.9040   1.9789   2.0117   2.2952   2.4235   2.4518
     2.4787   2.5492   2.6153   2.7063   3.1268   3.1872   3.4063   3.4085
     4.1128   4.2417   4.2699   4.4256   4.4597   4.5480

          k = 0.0267-0.0661 0.0000 ( 43101 PWs)   bands (ev):

   -77.3243 -77.3239 -77.2033 -77.2032 -77.1961 -77.1960 -39.1410 -39.1397
   -39.0645 -39.0601 -39.0207 -39.0186 -39.0116 -39.0113 -38.9982 -38.9968
   -38.9725 -38.9704 -38.9689 -38.9687 -38.9574 -38.9556 -38.8737 -38.8729
   -30.0644 -30.0611 -29.6862 -29.6811 -28.7497 -28.7491 -13.9484 -13.9454
   -13.9046 -13.9009 -13.8803 -13.8051 -13.6144 -13.6098 -13.5857 -13.5803
   -13.5508 -13.5001 -12.8905 -12.8723 -12.7962 -12.7354 -12.6033 -12.5955
    -1.0663  -0.7308  -0.5181  -0.3222  -0.2775  -0.0161   0.0075   0.4025
     0.5073   0.6982   0.7370   0.7846   0.8837   0.8845   1.0037   1.0295
     1.1467   1.1679   1.2338   1.3613   1.4424   1.4563   1.5309   1.6269
     1.6852   1.7363   1.8042   1.8857   2.0365   2.3360   2.4415   2.4687
     2.5477   2.5898   2.6213   2.6446   3.3753   3.4338   3.6193   3.7367
     4.1228   4.1670   4.3572   4.4097   4.5350   4.6150

          k = 0.0267-0.0519 0.0000 ( 43077 PWs)   bands (ev):

   -77.3243 -77.3239 -77.2033 -77.2031 -77.1962 -77.1960 -39.1404 -39.1400
   -39.0642 -39.0604 -39.0239 -39.0153 -39.0117 -39.0112 -39.0027 -38.9923
   -38.9732 -38.9730 -38.9697 -38.9645 -38.9586 -38.9545 -38.8733 -38.8731
   -30.0782 -30.0487 -29.7005 -29.6688 -28.7633 -28.7374 -14.0278 -13.9431
   -13.9255 -13.8568 -13.8105 -13.7800 -13.6888 -13.6192 -13.5894 -13.5499
   -13.5062 -13.4486 -13.0049 -12.8199 -12.7399 -12.7209 -12.6132 -12.5679
    -1.3578  -0.8900  -0.7183  -0.5920  -0.4233  -0.1382   0.0064   0.1334
     0.4257   0.6879   0.7366   0.7535   0.8950   0.9221   0.9578   1.0319
     1.1133   1.1476   1.1987   1.2473   1.4926   1.5259   1.5459   1.5462
     1.6391   1.7542   1.8614   1.8834   2.1296   2.2868   2.3418   2.5301
     2.5626   2.6510   2.7067   2.7797   3.6208   3.7583   3.9042   4.0151
     4.0550   4.2007   4.3532   4.4580   4.6157   4.6316

          k = 0.0267-0.0378 0.0000 ( 43036 PWs)   bands (ev):

   -77.3244 -77.3239 -77.2034 -77.2030 -77.1962 -77.1959 -39.1406 -39.1397
   -39.0637 -39.0609 -39.0288 -39.0124 -39.0108 -39.0097 -39.0069 -38.9881
   -38.9770 -38.9737 -38.9692 -38.9605 -38.9596 -38.9535 -38.8737 -38.8726
   -30.0909 -30.0373 -29.7137 -29.6575 -28.7764 -28.7259 -14.1419 -13.9571
   -13.9068 -13.8267 -13.8155 -13.8018 -13.6526 -13.6320 -13.5726 -13.5230
   -13.5092 -13.3129 -13.1263 -12.8390 -12.7087 -12.6218 -12.5939 -12.5409
    -1.6306  -1.0689  -0.9016  -0.8585  -0.5757  -0.2239  -0.1161  -0.0780
     0.3252   0.5242   0.6176   0.6963   0.7428   0.8385   1.0147   1.0544
     1.0707   1.1606   1.1743   1.2580   1.4830   1.4864   1.5601   1.6779
     1.8822   1.8973   1.9827   2.0010   2.1909   2.2403   2.3133   2.5315
     2.6404   2.7578   2.8329   2.8892   3.7251   3.8843   3.9657   4.2133
     4.2763   4.2922   4.3865   4.5239   4.5807   4.7367

          k = 0.0267-0.0236 0.0000 ( 43040 PWs)   bands (ev):

   -77.3244 -77.3238 -77.2035 -77.2030 -77.1963 -77.1958 -39.1410 -39.1391
   -39.0631 -39.0614 -39.0332 -39.0127 -39.0105 -39.0104 -39.0053 -38.9846
   -38.9805 -38.9740 -38.9688 -38.9606 -38.9568 -38.9528 -38.8741 -38.8720
   -30.1017 -30.0274 -29.7247 -29.6478 -28.7876 -28.7159 -14.2396 -13.9707
   -13.9087 -13.8805 -13.8259 -13.7994 -13.6502 -13.5569 -13.5305 -13.5182
   -13.4980 -13.2298 -13.1907 -12.8521 -12.6997 -12.6300 -12.5187 -12.4642
    -1.8392  -1.2115  -1.0556  -1.0355  -0.7014  -0.3179  -0.2777  -0.1685
     0.2474   0.3351   0.5052   0.5225   0.7678   0.7995   0.9567   1.0253
     1.0701   1.1497   1.2205   1.2235   1.4077   1.4846   1.6112   1.8817
     2.0341   2.0367   2.1896   2.2218   2.2820   2.2896   2.3255   2.5248
     2.6838   2.9190   2.9522   2.9647   3.6632   3.9508   3.9861   4.1863
     4.3818   4.3893   4.5046   4.5556   4.5589   4.7257

          k = 0.0400-0.0142 0.0000 ( 43038 PWs)   bands (ev):

   -77.3244 -77.3238 -77.2035 -77.2030 -77.1963 -77.1958 -39.1413 -39.1389
   -39.0625 -39.0620 -39.0336 -39.0127 -39.0105 -39.0102 -39.0051 -38.9848
   -38.9806 -38.9736 -38.9691 -38.9603 -38.9568 -38.9531 -38.8743 -38.8720
   -30.1006 -30.0273 -29.7232 -29.6478 -28.7870 -28.7151 -14.2459 -13.9751
   -13.9151 -13.8816 -13.8496 -13.7965 -13.6476 -13.5548 -13.5434 -13.5295
   -13.4953 -13.2365 -13.1903 -12.8365 -12.7062 -12.6385 -12.5263 -12.4642
    -1.7092  -1.1395  -0.9588  -0.9359  -0.6089  -0.2624  -0.2128  -0.1043
     0.2855   0.3752   0.5583   0.5849   0.8203   0.8305   0.9692   1.0365
     1.1073   1.1888   1.2230   1.2281   1.4044   1.5768   1.6227   1.9209
     1.9509   2.0642   2.1692   2.2078   2.3118   2.3221   2.3388   2.5669
     2.5690   2.7584   2.9051   2.9478   3.6812   3.8704   3.8731   4.0368
     4.2809   4.3695   4.4245   4.4446   4.5427   4.6462

          k = 0.0400-0.0001 0.0000 ( 43051 PWs)   bands (ev):

   -77.3244 -77.3238 -77.2035 -77.2029 -77.1964 -77.1958 -39.1419 -39.1385
   -39.0629 -39.0615 -39.0372 -39.0130 -39.0128 -39.0102 -39.0014 -38.9833
   -38.9821 -38.9737 -38.9690 -38.9608 -38.9541 -38.9527 -38.8748 -38.8716
   -30.1079 -30.0195 -29.7302 -29.6400 -28.7948 -28.7066 -14.3248 -13.9934
   -13.9902 -13.8764 -13.8710 -13.7774 -13.6565 -13.5687 -13.5412 -13.4778
   -13.4399 -13.3203 -13.0970 -12.8350 -12.7035 -12.6513 -12.5179 -12.3665
    -1.7480  -1.1547  -1.0087  -0.9289  -0.5994  -0.3627  -0.2063  -0.0633
     0.2754   0.2816   0.4865   0.6046   0.7984   0.8947   0.9664   1.0953
     1.0983   1.1808   1.2262   1.2429   1.3641   1.6186   1.6830   1.9153
     2.0175   2.1802   2.2260   2.2898   2.3693   2.4919   2.4967   2.5838
     2.6555   2.6754   2.9292   3.2033   3.6082   3.7069   3.7972   4.1123
     4.1807   4.2181   4.3056   4.3928   4.4313   4.5365

          k = 0.0400 0.0141 0.0000 ( 43027 PWs)   bands (ev):

   -77.3245 -77.3238 -77.2035 -77.2029 -77.1964 -77.1957 -39.1424 -39.1381
   -39.0638 -39.0607 -39.0397 -39.0143 -39.0132 -39.0101 -38.9990 -38.9850
   -38.9806 -38.9736 -38.9691 -38.9610 -38.9525 -38.9524 -38.8752 -38.8713
   -30.1118 -30.0143 -29.7337 -29.6348 -28.7992 -28.7006 -14.3773 -14.0486
   -14.0030 -13.9043 -13.8627 -13.7669 -13.6630 -13.5954 -13.5319 -13.4685
   -13.3836 -13.3760 -13.0394 -12.8280 -12.7041 -12.6641 -12.5185 -12.3063
    -1.6871  -1.0968  -0.9768  -0.8456  -0.5204  -0.3885  -0.1650   0.0517
     0.2431   0.3215   0.4877   0.6743   0.7878   0.9841   1.0084   1.1043
     1.1684   1.1708   1.2618   1.2713   1.3428   1.6455   1.7231   1.8766
     2.0035   2.1587   2.2390   2.3662   2.4008   2.4262   2.4899   2.6266
     2.7849   2.9056   3.0005   3.4142   3.4649   3.6118   3.6589   3.8759
     3.9875   4.0072   4.1584   4.2891   4.3548   4.4859

          k = 0.0400 0.0282 0.0000 ( 43041 PWs)   bands (ev):

   -77.3245 -77.3238 -77.2035 -77.2029 -77.1964 -77.1957 -39.1428 -39.1380
   -39.0645 -39.0600 -39.0408 -39.0146 -39.0133 -39.0100 -38.9981 -38.9856
   -38.9801 -38.9733 -38.9694 -38.9608 -38.9526 -38.9518 -38.8755 -38.8711
   -30.1123 -30.0123 -29.7336 -29.6327 -28.8001 -28.6978 -14.4001 -14.0744
   -14.0121 -13.9297 -13.8594 -13.7642 -13.6667 -13.6194 -13.5278 -13.4664
   -13.4001 -13.3657 -13.0217 -12.8171 -12.7083 -12.6742 -12.5267 -12.2888
    -1.5329  -0.9805  -0.8767  -0.7033  -0.4011  -0.3230  -0.0866   0.2100
     0.2809   0.3970   0.5585   0.7761   0.7787   1.0741   1.0944   1.1422
     1.1593   1.1850   1.3022   1.3506   1.3594   1.6188   1.7719   1.8325
     1.9773   2.1359   2.2375   2.2905   2.3515   2.4073   2.4647   2.6034
     2.8011   2.9873   3.1239   3.2486   3.3477   3.4652   3.6047   3.7333
     3.8016   3.8773   4.1549   4.1925   4.2034   4.2486

          k = 0.0400 0.0424 0.0000 ( 43053 PWs)   bands (ev):

   -77.3245 -77.3238 -77.2035 -77.2029 -77.1964 -77.1957 -39.1430 -39.1380
   -39.0652 -39.0594 -39.0404 -39.0138 -39.0132 -39.0100 -38.9986 -38.9851
   -38.9809 -38.9730 -38.9698 -38.9603 -38.9529 -38.9523 -38.8756 -38.8712
   -30.1094 -30.0138 -29.7301 -29.6342 -28.7976 -28.6985 -14.3913 -14.0683
   -14.0161 -13.9491 -13.8609 -13.7670 -13.6671 -13.6370 -13.5294 -13.4693
   -13.3904 -13.3870 -13.0441 -12.8038 -12.7162 -12.6793 -12.5400 -12.3140
    -1.3018  -0.8301  -0.7240  -0.5294  -0.2675  -0.1818   0.0382   0.3469
     0.3776   0.4885   0.6810   0.7708   0.8788   1.0355   1.1462   1.1721
     1.2005   1.2413   1.3830   1.3883   1.4077   1.6238   1.7900   1.8539
     1.9496   2.1044   2.1525   2.2318   2.2607   2.3892   2.4393   2.6240
     2.6570   2.7548   2.8231   3.0333   3.2422   3.3502   3.5217   3.7043
     3.7652   3.9379   4.0236   4.0923   4.1983   4.2663

          k = 0.0400 0.0566 0.0000 ( 43083 PWs)   bands (ev):

   -77.3244 -77.3238 -77.2035 -77.2030 -77.1964 -77.1958 -39.1430 -39.1381
   -39.0656 -39.0591 -39.0387 -39.0130 -39.0120 -39.0101 -39.0006 -38.9835
   -38.9828 -38.9725 -38.9704 -38.9596 -38.9540 -38.9535 -38.8755 -38.8713
   -30.1035 -30.0188 -29.7237 -29.6393 -28.7919 -28.7029 -14.3504 -14.0294
   -14.0137 -13.9595 -13.8666 -13.7727 -13.6637 -13.6456 -13.5362 -13.4745
   -13.4444 -13.3466 -13.1031 -12.7894 -12.7280 -12.6774 -12.5555 -12.3781
    -1.0210  -0.6822  -0.5350  -0.3559  -0.1004  -0.0550   0.2161   0.4131
     0.4937   0.5048   0.8129   0.8205   0.9001   0.9467   1.1573   1.1896
     1.2228   1.3002   1.3479   1.3897   1.5870   1.6060   1.8163   1.8667
     1.9643   2.0305   2.0537   2.1946   2.2613   2.2986   2.3571   2.4137
     2.4287   2.6108   2.7511   2.8822   3.0037   3.0621   3.3105   3.6279
     3.7490   4.0512   4.1025   4.1943   4.2162   4.3774

          k = 0.0400-0.0991 0.0000 ( 43125 PWs)   bands (ev):

   -77.3244 -77.3239 -77.2035 -77.2030 -77.1963 -77.1958 -39.1428 -39.1384
   -39.0658 -39.0590 -39.0356 -39.0128 -39.0103 -39.0091 -39.0038 -38.9858
   -38.9809 -38.9720 -38.9710 -38.9587 -38.9567 -38.9544 -38.8753 -38.8716
   -30.0951 -30.0270 -29.7149 -29.6477 -28.7837 -28.7109 -14.2789 -14.0046
   -13.9589 -13.9588 -13.8759 -13.7791 -13.6563 -13.6436 -13.5474 -13.5319
   -13.4801 -13.2704 -13.1923 -12.7747 -12.7434 -12.6676 -12.5706 -12.4741
    -0.7346  -0.5918  -0.3325  -0.2151  -0.0550   0.1469   0.3732   0.4082
     0.4121   0.6005   0.7943   0.8608   0.9223   0.9594   1.1123   1.1627
     1.1865   1.2960   1.3159   1.3860   1.6030   1.6060   1.7237   1.7289
     2.0294   2.0388   2.1081   2.1247   2.1515   2.2255   2.2268   2.2869
     2.3327   2.5349   2.6972   2.8190   2.8885   2.9060   3.1377   3.3756
     3.8342   4.1672   4.2303   4.2410   4.3926   4.4311

          k = 0.0400-0.0850 0.0000 ( 43112 PWs)   bands (ev):

   -77.3244 -77.3239 -77.2034 -77.2031 -77.1963 -77.1959 -39.1424 -39.1387
   -39.0657 -39.0590 -39.0314 -39.0124 -39.0106 -39.0081 -39.0054 -38.9895
   -38.9774 -38.9716 -38.9714 -38.9603 -38.9576 -38.9553 -38.8749 -38.8719
   -30.0847 -30.0380 -29.7044 -29.6590 -28.7735 -28.7218 -14.1804 -13.9896
   -13.9462 -13.8901 -13.8572 -13.7851 -13.6550 -13.6327 -13.6302 -13.5622
   -13.4850 -13.3037 -13.1650 -12.7620 -12.7603 -12.6518 -12.5914 -12.5840
    -0.6294  -0.5296  -0.1510  -0.1422  -0.1395   0.2116   0.3055   0.3906
     0.5097   0.6605   0.7707   0.8519   0.9003   0.9796   0.9865   1.1202
     1.1243   1.2673   1.2710   1.4014   1.4989   1.5593   1.6080   1.6793
     1.9105   1.9117   1.9433   2.0407   2.0554   2.2548   2.2888   2.3798
     2.3865   2.4741   2.6396   2.6854   2.8434   3.0070   3.2919   3.2922
     3.9625   4.1770   4.2739   4.3498   4.4928   4.5304

          k = 0.0400-0.0708 0.0000 ( 43115 PWs)   bands (ev):

   -77.3243 -77.3239 -77.2033 -77.2031 -77.1962 -77.1960 -39.1418 -39.1391
   -39.0654 -39.0593 -39.0263 -39.0131 -39.0120 -39.0109 -39.0012 -38.9938
   -38.9733 -38.9722 -38.9708 -38.9643 -38.9565 -38.9564 -38.8744 -38.8723
   -30.0731 -30.0508 -29.6928 -29.6723 -28.7620 -28.7349 -14.0613 -13.9706
   -13.9226 -13.9026 -13.7912 -13.7694 -13.7359 -13.6267 -13.6094 -13.5791
   -13.4896 -13.4289 -13.0358 -12.7824 -12.7510 -12.7254 -12.6226 -12.5952
    -0.8180  -0.5333  -0.3205  -0.1591   0.0051   0.0417   0.0579   0.5535
     0.6504   0.6539   0.7202   0.7203   0.8991   0.9822   1.0289   1.0584
     1.1488   1.1872   1.2265   1.3456   1.4254   1.4797   1.5674   1.6474
     1.7028   1.7057   1.7962   1.8871   2.1191   2.2823   2.3855   2.4506
     2.4677   2.5321   2.5363   2.6274   3.0052   3.2113   3.4746   3.5798
     4.0745   4.1968   4.2177   4.4714   4.4846   4.5725

          k = 0.0400-0.0567 0.0000 ( 43108 PWs)   bands (ev):

   -77.3243 -77.3240 -77.2033 -77.2032 -77.1961 -77.1960 -39.1412 -39.1396
   -39.0649 -39.0598 -39.0208 -39.0185 -39.0116 -39.0113 -38.9983 -38.9967
   -38.9727 -38.9702 -38.9689 -38.9686 -38.9575 -38.9555 -38.8738 -38.8728
   -30.0646 -30.0609 -29.6866 -29.6807 -28.7498 -28.7491 -13.9498 -13.9459
   -13.8999 -13.8984 -13.8911 -13.7986 -13.6147 -13.6103 -13.5811 -13.5805
   -13.5585 -13.4955 -12.8909 -12.8698 -12.8021 -12.7317 -12.6047 -12.5957
    -1.0884  -0.6963  -0.5263  -0.3010  -0.2627  -0.0581   0.0594   0.3910
     0.5432   0.7202   0.7487   0.8653   0.9020   0.9355   1.0254   1.0752
     1.0998   1.1020   1.1418   1.3139   1.4097   1.5065   1.5348   1.5447
     1.6643   1.7224   1.7438   1.7449   2.1848   2.2421   2.3734   2.4757
     2.5213   2.5944   2.6120   2.6704   3.4032   3.4063   3.7613   3.8559
     4.0762   4.1110   4.3435   4.3994   4.6027   4.6197

          k = 0.0400-0.0425 0.0000 ( 43077 PWs)   bands (ev):

   -77.3243 -77.3239 -77.2033 -77.2031 -77.1962 -77.1960 -39.1404 -39.1400
   -39.0642 -39.0604 -39.0239 -39.0153 -39.0117 -39.0112 -39.0027 -38.9923
   -38.9732 -38.9730 -38.9697 -38.9645 -38.9586 -38.9545 -38.8733 -38.8731
   -30.0782 -30.0487 -29.7005 -29.6688 -28.7633 -28.7374 -14.0278 -13.9431
   -13.9255 -13.8568 -13.8105 -13.7800 -13.6888 -13.6192 -13.5894 -13.5499
   -13.5062 -13.4486 -13.0049 -12.8199 -12.7399 -12.7209 -12.6132 -12.5679
    -1.3578  -0.8900  -0.7183  -0.5920  -0.4233  -0.1382   0.0064   0.1334
     0.4257   0.6879   0.7366   0.7535   0.8950   0.9221   0.9578   1.0319
     1.1133   1.1476   1.1987   1.2473   1.4926   1.5259   1.5459   1.5462
     1.6391   1.7542   1.8614   1.8834   2.1296   2.2868   2.3418   2.5301
     2.5626   2.6510   2.7067   2.7797   3.6208   3.7583   3.9042   4.0151
     4.0550   4.2006   4.3532   4.4585   4.6157   4.6316

          k = 0.0400-0.0284 0.0000 ( 43037 PWs)   bands (ev):

   -77.3244 -77.3239 -77.2034 -77.2030 -77.1962 -77.1959 -39.1407 -39.1396
   -39.0633 -39.0612 -39.0290 -39.0125 -39.0108 -39.0096 -39.0068 -38.9882
   -38.9771 -38.9735 -38.9693 -38.9604 -38.9595 -38.9537 -38.8738 -38.8725
   -30.0905 -30.0373 -29.7131 -29.6576 -28.7762 -28.7256 -14.1449 -13.9589
   -13.9052 -13.8270 -13.8248 -13.8056 -13.6529 -13.6293 -13.5714 -13.5214
   -13.5202 -13.3112 -13.1295 -12.8314 -12.7121 -12.6308 -12.5875 -12.5437
    -1.5743  -1.0478  -0.8624  -0.8193  -0.5461  -0.1930  -0.0892  -0.0708
     0.3350   0.5268   0.6258   0.6855   0.8056   0.8567   0.9910   1.0110
     1.1241   1.1989   1.1997   1.2484   1.4636   1.5287   1.5723   1.6836
     1.8930   1.9346   1.9526   2.0723   2.0994   2.2989   2.3766   2.5396
     2.5896   2.7370   2.8044   2.8404   3.7485   3.8815   3.8872   4.0119
     4.2198   4.3458   4.3851   4.5209   4.5311   4.6918

          k = 0.0534-0.0190 0.0000 ( 43063 PWs)   bands (ev):

   -77.3244 -77.3239 -77.2034 -77.2031 -77.1962 -77.1959 -39.1411 -39.1394
   -39.0625 -39.0621 -39.0296 -39.0125 -39.0108 -39.0093 -39.0065 -38.9885
   -38.9771 -38.9729 -38.9697 -38.9604 -38.9591 -38.9541 -38.8741 -38.8724
   -30.0893 -30.0374 -29.7112 -29.6579 -28.7757 -28.7248 -14.1529 -13.9644
   -13.9012 -13.8554 -13.8240 -13.8111 -13.6537 -13.6253 -13.5682 -13.5509
   -13.5128 -13.3078 -13.1378 -12.8126 -12.7218 -12.6447 -12.5800 -12.5515
    -1.4109  -0.9811  -0.7509  -0.7042  -0.4644  -0.0987  -0.0430  -0.0082
     0.3537   0.5556   0.6750   0.7097   0.8412   0.8835   0.9870   1.0127
     1.1321   1.1643   1.2442   1.3676   1.4368   1.5795   1.7029   1.7403
     1.8592   1.9243   1.9925   2.0299   2.1889   2.3532   2.4125   2.4915
     2.6060   2.6280   2.7255   2.8051   3.5287   3.6649   3.8508   3.9423
     3.9757   4.3559   4.3735   4.4244   4.5343   4.5829

          k = 0.0534-0.0048 0.0000 ( 43066 PWs)   bands (ev):

   -77.3244 -77.3238 -77.2035 -77.2030 -77.1963 -77.1958 -39.1418 -39.1388
   -39.0632 -39.0613 -39.0342 -39.0128 -39.0105 -39.0098 -39.0047 -38.9851
   -38.9807 -38.9730 -38.9696 -38.9598 -38.9568 -38.9535 -38.8746 -38.8719
   -30.0989 -30.0272 -29.7206 -29.6478 -28.7860 -28.7138 -14.2565 -13.9837
   -13.9285 -13.8865 -13.8806 -13.7914 -13.6477 -13.5800 -13.5514 -13.5299
   -13.4909 -13.2477 -13.1902 -12.8132 -12.7177 -12.6507 -12.5399 -12.4658
    -1.4618  -0.9971  -0.7790  -0.7504  -0.4414  -0.1574  -0.0767   0.0196
     0.3522   0.4592   0.6603   0.6974   0.8236   0.8809   1.0087   1.0562
     1.1510   1.1858   1.2563   1.3434   1.4206   1.6496   1.7523   1.8313
     1.9242   2.0902   2.1445   2.2006   2.2937   2.3308   2.3694   2.4291
     2.5266   2.6637   2.8169   2.9060   3.3949   3.5886   3.7933   3.9276
     4.0274   4.2571   4.3529   4.3937   4.4950   4.5199

          k = 0.0534 0.0094 0.0000 ( 43074 PWs)   bands (ev):

   -77.3244 -77.3238 -77.2035 -77.2030 -77.1964 -77.1958 -39.1425 -39.1383
   -39.0642 -39.0603 -39.0380 -39.0131 -39.0123 -39.0102 -39.0010 -38.9834
   -38.9825 -38.9730 -38.9696 -38.9602 -38.9541 -38.9531 -38.8752 -38.8714
   -30.1057 -30.0191 -29.7269 -29.6396 -28.7934 -28.7047 -14.3376 -14.0116
   -14.0015 -13.9190 -13.8687 -13.7753 -13.6586 -13.6100 -13.5381 -13.4765
   -13.4420 -13.3336 -13.0999 -12.8099 -12.7157 -12.6656 -12.5365 -12.3720
    -1.4237  -0.9419  -0.7802  -0.6710  -0.3559  -0.2233  -0.0394   0.1580
     0.3950   0.4007   0.6485   0.7510   0.8249   0.9415   1.0530   1.1256
     1.1604   1.2188   1.2904   1.3526   1.4007   1.6722   1.7953   1.8362
     2.0015   2.1496   2.1630   2.2813   2.3159   2.3728   2.4319   2.4367
     2.5618   2.6629   2.8081   3.1409   3.2272   3.4358   3.6888   3.8047
     3.9748   4.2088   4.2100   4.2274   4.2329   4.4768

          k = 0.0534 0.0235 0.0000 ( 43053 PWs)   bands (ev):

   -77.3245 -77.3238 -77.2035 -77.2029 -77.1964 -77.1957 -39.1430 -39.1380
   -39.0652 -39.0594 -39.0404 -39.0138 -39.0132 -39.0100 -38.9986 -38.9851
   -38.9809 -38.9730 -38.9698 -38.9603 -38.9529 -38.9523 -38.8756 -38.8712
   -30.1094 -30.0138 -29.7301 -29.6342 -28.7976 -28.6985 -14.3913 -14.0683
   -14.0161 -13.9491 -13.8609 -13.7670 -13.6671 -13.6370 -13.5294 -13.4693
   -13.3904 -13.3870 -13.0441 -12.8038 -12.7162 -12.6793 -12.5400 -12.3140
    -1.3018  -0.8301  -0.7240  -0.5294  -0.2675  -0.1818   0.0382   0.3469
     0.3776   0.4885   0.6810   0.7708   0.8788   1.0355   1.1462   1.1721
     1.2005   1.2413   1.3830   1.3883   1.4077   1.6238   1.7900   1.8539
     1.9496   2.1044   2.1525   2.2318   2.2607   2.3892   2.4393   2.6240
     2.6570   2.7548   2.8231   3.0333   3.2422   3.3502   3.5217   3.7043
     3.7652   3.9379   4.0236   4.0922   4.1984   4.2662

          k = 0.0534 0.0377 0.0000 ( 43045 PWs)   bands (ev):

   -77.3245 -77.3238 -77.2035 -77.2029 -77.1964 -77.1957 -39.1434 -39.1378
   -39.0659 -39.0588 -39.0415 -39.0142 -39.0132 -39.0098 -38.9977 -38.9858
   -38.9805 -38.9728 -38.9701 -38.9602 -38.9530 -38.9517 -38.8758 -38.8710
   -30.1099 -30.0118 -29.7300 -29.6321 -28.7984 -28.6957 -14.4138 -14.0937
   -14.0253 -13.9728 -13.8578 -13.7647 -13.6722 -13.6575 -13.5259 -13.4676
   -13.4141 -13.3694 -13.0268 -12.7959 -12.7196 -12.6884 -12.5483 -12.2968
    -1.1090  -0.6853  -0.6246  -0.3526  -0.2016  -0.0411   0.1599   0.4038
     0.5122   0.6046   0.7509   0.7515   0.9524   1.0779   1.2068   1.2427
     1.2632   1.2919   1.4439   1.4744   1.5075   1.5511   1.7445   1.8500
     1.8647   2.0303   2.1416   2.1951   2.2139   2.4052   2.4446   2.6088
     2.7010   2.7372   2.8325   2.8443   3.0347   3.3184   3.3568   3.6500
     3.7215   3.7864   3.9063   3.9128   4.0345   4.1847

          k = 0.0534 0.0518 0.0000 ( 43109 PWs)   bands (ev):

   -77.3245 -77.3238 -77.2035 -77.2029 -77.1964 -77.1958 -39.1435 -39.1379
   -39.0664 -39.0584 -39.0411 -39.0135 -39.0132 -39.0098 -38.9982 -38.9853
   -38.9812 -38.9725 -38.9705 -38.9597 -38.9533 -38.9523 -38.8759 -38.8711
   -30.1073 -30.0133 -29.7270 -29.6337 -28.7961 -28.6967 -14.4033 -14.0852
   -14.0275 -13.9871 -13.8593 -13.7665 -13.6736 -13.6679 -13.5282 -13.4693
   -13.4027 -13.3900 -13.0483 -12.7867 -12.7265 -12.6905 -12.5589 -12.3208
    -0.8664  -0.5402  -0.4935  -0.1735  -0.0880   0.0804   0.3148   0.4560
     0.5495   0.6397   0.8227   0.8366   1.0021   1.0242   1.2387   1.2654
     1.3326   1.3664   1.3932   1.4835   1.5814   1.6477   1.7877   1.7956
     1.8996   1.9508   2.0632   2.2098   2.2457   2.3122   2.4552   2.4691
     2.5326   2.5466   2.7074   2.7396   2.8256   3.1325   3.2689   3.4920
     3.6186   3.7757   3.9330   4.0668   4.1148   4.1788

          k = 0.0534-0.1039 0.0000 ( 43082 PWs)   bands (ev):

   -77.3244 -77.3238 -77.2035 -77.2030 -77.1964 -77.1958 -39.1434 -39.1380
   -39.0666 -39.0582 -39.0392 -39.0130 -39.0117 -39.0099 -39.0003 -38.9836
   -38.9831 -38.9722 -38.9709 -38.9591 -38.9540 -38.9539 -38.8758 -38.8712
   -30.1019 -30.0185 -29.7213 -29.6390 -28.7909 -28.7016 -14.3596 -14.0422
   -14.0220 -13.9895 -13.8651 -13.7703 -13.6712 -13.6663 -13.5357 -13.4725
   -13.4462 -13.3560 -13.1056 -12.7768 -12.7369 -12.6844 -12.5696 -12.3830
    -0.6057  -0.4403  -0.3465  -0.0283   0.0645   0.1341   0.4159   0.4337
     0.5592   0.6478   0.8230   0.9488   1.0018   1.0128   1.1837   1.1938
     1.2964   1.3726   1.4012   1.4769   1.6094   1.6828   1.7493   1.7876
     1.9740   2.0435   2.0457   2.1566   2.1630   2.2123   2.2530   2.2649
     2.3331   2.4900   2.6757   2.7168   2.7365   3.0073   3.0173   3.2476
     3.6536   3.9964   4.1465   4.1816   4.1982   4.3387

          k = 0.0534-0.0897 0.0000 ( 43103 PWs)   bands (ev):

   -77.3244 -77.3239 -77.2035 -77.2030 -77.1963 -77.1958 -39.1431 -39.1383
   -39.0665 -39.0583 -39.0359 -39.0127 -39.0102 -39.0089 -39.0036 -38.9860
   -38.9809 -38.9717 -38.9714 -38.9583 -38.9567 -38.9546 -38.8755 -38.8715
   -30.0941 -30.0270 -29.7133 -29.6477 -28.7831 -28.7101 -14.2847 -14.0096
   -13.9785 -13.9667 -13.8746 -13.7752 -13.6604 -13.6571 -13.5475 -13.5327
   -13.4765 -13.2762 -13.1931 -12.7665 -12.7506 -12.6701 -12.5792 -12.4773
    -0.4444  -0.3801  -0.2246   0.0434   0.0473   0.2603   0.2713   0.4221
     0.6430   0.7348   0.8387   0.8591   0.9474   0.9916   1.0926   1.1361
     1.1884   1.2648   1.3917   1.4337   1.6082   1.6470   1.6918   1.7809
     1.8956   1.8991   2.0336   2.0863   2.1106   2.1888   2.2042   2.2516
     2.2954   2.4465   2.6234   2.6439   2.7583   2.9265   3.1082   3.1363
     3.7723   4.1457   4.2100   4.2805   4.4375   4.4850

          k = 0.0534-0.0756 0.0000 ( 43118 PWs)   bands (ev):

   -77.3244 -77.3239 -77.2034 -77.2031 -77.1963 -77.1959 -39.1426 -39.1387
   -39.0661 -39.0587 -39.0316 -39.0124 -39.0105 -39.0079 -39.0053 -38.9896
   -38.9774 -38.9719 -38.9713 -38.9602 -38.9574 -38.9555 -38.8750 -38.8719
   -30.0843 -30.0380 -29.7037 -29.6591 -28.7733 -28.7215 -14.1830 -13.9920
   -13.9550 -13.8896 -13.8603 -13.7817 -13.6547 -13.6380 -13.6329 -13.5626
   -13.4818 -13.3037 -13.1674 -12.7664 -12.7563 -12.6488 -12.5957 -12.5875
    -0.5851  -0.3610  -0.1177  -0.0963  -0.0051   0.1365   0.4044   0.4173
     0.5311   0.7227   0.8051   0.9172   0.9184   0.9349   1.0147   1.0874
     1.0896   1.1819   1.3796   1.4054   1.4469   1.5680   1.6411   1.6779
     1.7586   1.7607   1.9328   1.9766   2.1740   2.2266   2.2852   2.3227
     2.3770   2.5318   2.5449   2.6476   2.6740   3.0754   3.2243   3.3648
     3.9398   4.1441   4.2570   4.3904   4.5163   4.5175

          k = 0.0534-0.0614 0.0000 ( 43115 PWs)   bands (ev):

   -77.3243 -77.3239 -77.2033 -77.2031 -77.1962 -77.1960 -39.1418 -39.1391
   -39.0654 -39.0593 -39.0263 -39.0131 -39.0120 -39.0109 -39.0012 -38.9938
   -38.9733 -38.9722 -38.9708 -38.9643 -38.9565 -38.9564 -38.8744 -38.8723
   -30.0731 -30.0508 -29.6928 -29.6723 -28.7620 -28.7349 -14.0613 -13.9706
   -13.9226 -13.9026 -13.7912 -13.7694 -13.7359 -13.6267 -13.6094 -13.5791
   -13.4896 -13.4289 -13.0358 -12.7824 -12.7510 -12.7254 -12.6226 -12.5952
    -0.8180  -0.5333  -0.3205  -0.1591   0.0051   0.0417   0.0579   0.5535
     0.6504   0.6539   0.7202   0.7203   0.8991   0.9822   1.0289   1.0584
     1.1488   1.1872   1.2265   1.3456   1.4254   1.4797   1.5674   1.6474
     1.7028   1.7057   1.7962   1.8871   2.1191   2.2823   2.3855   2.4506
     2.4677   2.5321   2.5363   2.6274   3.0052   3.2113   3.4746   3.5798
     4.0745   4.1968   4.2177   4.4721   4.4847   4.5737

[...]
   -30.0968 -30.0271 -29.7175 -29.6477 -28.7848 -28.7122 -14.2686 -13.9947
   -13.9448 -13.9258 -13.8781 -13.7852 -13.6515 -13.6162 -13.5485 -13.5308
   -13.4855 -13.2600 -13.1911 -12.7908 -12.7313 -12.6612 -12.5562 -12.4694
    -1.1226  -0.8008  -0.5496  -0.4996  -0.2385  -0.0137   0.1392   0.1947
     0.4041   0.5728   0.7723   0.7885   0.8554   0.8877   1.0616   1.1018
     1.1515   1.2489   1.3017   1.3879   1.5349   1.6611   1.7389   1.8682
     1.9533   2.0363   2.1052   2.1843   2.2010   2.2992   2.3187   2.3641
     2.4230   2.6789   2.7441   2.8698   3.0258   3.1931   3.5058   3.7048
     3.8608   4.2008   4.2830   4.3008   4.4054   4.4502

          k = 0.0667 0.0188 0.0000 ( 43083 PWs)   bands (ev):

   -77.3244 -77.3238 -77.2035 -77.2030 -77.1964 -77.1958 -39.1430 -39.1381
   -39.0656 -39.0591 -39.0387 -39.0130 -39.0120 -39.0101 -39.0006 -38.9835
   -38.9828 -38.9725 -38.9704 -38.9596 -38.9540 -38.9535 -38.8755 -38.8713
   -30.1035 -30.0188 -29.7237 -29.6393 -28.7919 -28.7029 -14.3504 -14.0294
   -14.0137 -13.9595 -13.8666 -13.7727 -13.6637 -13.6456 -13.5362 -13.4745
   -13.4444 -13.3466 -13.1031 -12.7894 -12.7280 -12.6774 -12.5555 -12.3781
    -1.0210  -0.6822  -0.5350  -0.3559  -0.1004  -0.0550   0.2161   0.4131
     0.4937   0.5048   0.8129   0.8205   0.9001   0.9467   1.1573   1.1896
     1.2228   1.3002   1.3479   1.3897   1.5870   1.6060   1.8163   1.8667
     1.9643   2.0305   2.0537   2.1946   2.2613   2.2986   2.3571   2.4137
     2.4287   2.6108   2.7511   2.8822   3.0037   3.0621   3.3105   3.6279
     3.7490   4.0512   4.1025   4.1943   4.2162   4.3773

          k = 0.0667 0.0329 0.0000 ( 43109 PWs)   bands (ev):

   -77.3245 -77.3238 -77.2035 -77.2029 -77.1964 -77.1958 -39.1435 -39.1379
   -39.0664 -39.0584 -39.0411 -39.0135 -39.0132 -39.0098 -38.9982 -38.9853
   -38.9812 -38.9725 -38.9705 -38.9597 -38.9533 -38.9523 -38.8759 -38.8711
   -30.1073 -30.0133 -29.7270 -29.6337 -28.7961 -28.6967 -14.4033 -14.0852
   -14.0275 -13.9871 -13.8593 -13.7665 -13.6736 -13.6679 -13.5282 -13.4693
   -13.4027 -13.3900 -13.0483 -12.7867 -12.7265 -12.6905 -12.5589 -12.3208
    -0.8664  -0.5402  -0.4935  -0.1735  -0.0880   0.0804   0.3148   0.4560
     0.5495   0.6397   0.8227   0.8366   1.0021   1.0242   1.2387   1.2654
     1.3326   1.3664   1.3932   1.4835   1.5814   1.6477   1.7877   1.7956
     1.8996   1.9508   2.0632   2.2098   2.2457   2.3122   2.4552   2.4691
     2.5326   2.5466   2.7074   2.7396   2.8256   3.1325   3.2689   3.4920
     3.6186   3.7758   3.9330   4.0672   4.1148   4.1788

          k = 0.0667 0.0471 0.0000 ( 43120 PWs)   bands (ev):

   -77.3245 -77.3238 -77.2035 -77.2029 -77.1964 -77.1957 -39.1438 -39.1378
   -39.0669 -39.0580 -39.0420 -39.0140 -39.0132 -39.0097 -38.9974 -38.9859
   -38.9807 -38.9724 -38.9707 -38.9597 -38.9533 -38.9518 -38.8761 -38.8710
   -30.1081 -30.0114 -29.7274 -29.6316 -28.7972 -28.6942 -14.4238 -14.1077
   -14.0341 -14.0051 -13.8566 -13.7648 -13.6846 -13.6755 -13.5254 -13.4679
   -13.4244 -13.3720 -13.0306 -12.7829 -12.7277 -12.6974 -12.5642 -12.3026
    -0.6810  -0.4277  -0.4073  -0.0559   0.0144   0.2137   0.3468   0.4877
     0.5295   0.7898   0.8480   0.8588   1.0287   1.0868   1.2672   1.3409
     1.3759   1.4208   1.4785   1.5870   1.6067   1.6754   1.7130   1.7869
     1.8992   2.0104   2.0514   2.1556   2.2931   2.3281   2.3908   2.4147
     2.5166   2.5298   2.5805   2.6634   2.6824   2.9984   3.2433   3.4263
     3.5177   3.7391   3.7800   3.8762   4.0931   4.1601

          k = 0.0667-0.1086 0.0000 ( 43133 PWs)   bands (ev):

   -77.3245 -77.3238 -77.2035 -77.2030 -77.1964 -77.1958 -39.1438 -39.1378
   -39.0671 -39.0578 -39.0415 -39.0133 -39.0131 -39.0097 -38.9980 -38.9853
   -38.9814 -38.9723 -38.9709 -38.9594 -38.9535 -38.9523 -38.8761 -38.8710
   -30.1061 -30.0131 -29.7252 -29.6334 -28.7953 -28.6957 -14.4102 -14.0948
   -14.0327 -14.0105 -13.8584 -13.7661 -13.6874 -13.6748 -13.5281 -13.4689
   -13.4097 -13.3917 -13.0507 -12.7781 -12.7323 -12.6962 -12.5698 -12.3247
    -0.5008  -0.3404  -0.3238   0.0051   0.1655   0.2798   0.3304   0.4282
     0.5845   0.7583   0.8221   0.9930   1.0509   1.1084   1.2371   1.2559
     1.3760   1.4440   1.4766   1.5971   1.6846   1.7218   1.7433   1.8384
     1.9863   2.0154   2.0580   2.1382   2.1964   2.2144   2.2485   2.3384
     2.3805   2.4278   2.5756   2.5888   2.6586   2.9266   3.1057   3.2643
     3.5047   3.7489   3.9348   4.0812   4.1532   4.3736

          k = 0.0667-0.0945 0.0000 ( 43100 PWs)   bands (ev):

   -77.3244 -77.3238 -77.2035 -77.2030 -77.1964 -77.1958 -39.1436 -39.1380
   -39.0670 -39.0579 -39.0394 -39.0130 -39.0116 -39.0099 -39.0001 -38.9836
   -38.9832 -38.9720 -38.9712 -38.9589 -38.9540 -38.9540 -38.8759 -38.8712
   -30.1013 -30.0184 -29.7204 -29.6389 -28.7905 -28.7011 -14.3630 -14.0469
   -14.0242 -14.0013 -13.8646 -13.7694 -13.6787 -13.6688 -13.5357 -13.4716
   -13.4469 -13.3595 -13.1065 -12.7726 -12.7402 -12.6867 -12.5748 -12.3848
    -0.3640  -0.3313  -0.2810   0.0779   0.2035   0.2646   0.3045   0.3317
     0.6864   0.7447   0.8170   1.0229   1.0355   1.0511   1.1313   1.1558
     1.2524   1.4184   1.4588   1.5943   1.6887   1.7683   1.8187   1.8443
     1.8629   1.8930   1.9719   2.0117   2.1498   2.1673   2.2252   2.2729
     2.3207   2.4083   2.6023   2.6238   2.7396   2.9817   2.9841   3.0393
     3.6005   3.9917   4.1467   4.2041   4.2243   4.4115

          k = 0.0667-0.0803 0.0000 ( 43103 PWs)   bands (ev):

   -77.3244 -77.3239 -77.2035 -77.2030 -77.1963 -77.1958 -39.1431 -39.1383
   -39.0665 -39.0583 -39.0359 -39.0127 -39.0102 -39.0089 -39.0036 -38.9860
   -38.9809 -38.9717 -38.9714 -38.9583 -38.9567 -38.9546 -38.8755 -38.8715
   -30.0941 -30.0270 -29.7133 -29.6477 -28.7831 -28.7101 -14.2847 -14.0096
   -13.9785 -13.9667 -13.8746 -13.7752 -13.6604 -13.6571 -13.5475 -13.5327
   -13.4765 -13.2762 -13.1931 -12.7665 -12.7506 -12.6701 -12.5792 -12.4773
    -0.4444  -0.3801  -0.2246   0.0434   0.0473   0.2603   0.2713   0.4221
     0.6430   0.7348   0.8387   0.8591   0.9474   0.9916   1.0926   1.1361
     1.1884   1.2647   1.3917   1.4337   1.6082   1.6470   1.6918   1.7809
     1.8956   1.8991   2.0336   2.0863   2.1106   2.1888   2.2042   2.2516
     2.2954   2.4465   2.6234   2.6439   2.7583   2.9265   3.1082   3.1363
     3.7723   4.1457   4.2099   4.2805   4.4364   4.4854

          k = 0.0667-0.0662 0.0000 ( 43112 PWs)   bands (ev):

   -77.3244 -77.3239 -77.2034 -77.2031 -77.1963 -77.1959 -39.1424 -39.1387
   -39.0657 -39.0590 -39.0314 -39.0124 -39.0106 -39.0081 -39.0054 -38.9895
   -38.9774 -38.9716 -38.9714 -38.9603 -38.9576 -38.9553 -38.8749 -38.8719
   -30.0847 -30.0380 -29.7044 -29.6590 -28.7735 -28.7218 -14.1804 -13.9896
   -13.9462 -13.8901 -13.8572 -13.7851 -13.6550 -13.6327 -13.6302 -13.5622
   -13.4850 -13.3037 -13.1650 -12.7620 -12.7603 -12.6518 -12.5914 -12.5840
    -0.6294  -0.5296  -0.1510  -0.1422  -0.1395   0.2116   0.3055   0.3906
     0.5097   0.6605   0.7707   0.8519   0.9003   0.9796   0.9865   1.1202
     1.1243   1.2673   1.2710   1.4014   1.4989   1.5593   1.6080   1.6793
     1.9105   1.9117   1.9433   2.0407   2.0554   2.2548   2.2888   2.3798
     2.3865   2.4741   2.6396   2.6854   2.8434   3.0070   3.2919   3.2922
     3.9625   4.1769   4.2739   4.3498   4.4931   4.5311

          k = 0.0667-0.0520 0.0000 ( 43100 PWs)   bands (ev):

   -77.3243 -77.3239 -77.2033 -77.2031 -77.1962 -77.1960 -39.1416 -39.1393
   -39.0647 -39.0599 -39.0260 -39.0134 -39.0120 -39.0110 -39.0014 -38.9935
   -38.9733 -38.9718 -38.9710 -38.9643 -38.9568 -38.9562 -38.8742 -38.8724
   -30.0738 -30.0505 -29.6938 -29.6719 -28.7622 -28.7352 -14.0575 -13.9663
   -13.9097 -13.9048 -13.8009 -13.7701 -13.7316 -13.6240 -13.6004 -13.5782
   -13.4980 -13.4291 -13.0327 -12.7728 -12.7578 -12.7317 -12.6178 -12.5907
    -0.8315  -0.6899  -0.3419  -0.2906  -0.1153  -0.0216   0.1399   0.4523
     0.5695   0.6374   0.6518   0.7392   0.8340   0.9576   1.0050   1.0275
     1.1889   1.2211   1.2996   1.3473   1.4063   1.5475   1.5973   1.6738
     1.8318   1.9014   1.9040   1.9789   2.0117   2.2952   2.4235   2.4518
     2.4787   2.5492   2.6153   2.7063   3.1268   3.1872   3.4063   3.4085
     4.1129   4.2419   4.2701   4.4261   4.4597   4.5501

          k = 0.0667-0.0378 0.0000 ( 43092 PWs)   bands (ev):

   -77.3243 -77.3239 -77.2033 -77.2032 -77.1961 -77.1960 -39.1408 -39.1400
   -39.0636 -39.0610 -39.0203 -39.0191 -39.0117 -39.0115 -38.9979 -38.9970
   -38.9720 -38.9707 -38.9689 -38.9687 -38.9571 -38.9560 -38.8735 -38.8730
   -30.0637 -30.0618 -29.6851 -29.6822 -28.7496 -28.7492 -13.9454 -13.9444
   -13.9085 -13.9038 -13.8627 -13.8216 -13.6134 -13.6097 -13.5890 -13.5816
   -13.5373 -13.5111 -12.8887 -12.8783 -12.7810 -12.7461 -12.6001 -12.5955
    -1.0040  -0.8142  -0.4941  -0.3863  -0.2701  -0.1102   0.0858   0.3864
     0.4462   0.6508   0.6849   0.7209   0.8721   0.8929   0.9694   0.9721
     1.1882   1.1949   1.2839   1.3089   1.4748   1.5308   1.6290   1.7399
     1.8231   1.8600   1.8916   1.9325   2.0435   2.3140   2.4813   2.5008
     2.5923   2.5932   2.6405   2.6934   3.3106   3.3610   3.4983   3.5186
     4.1641   4.2073   4.3860   4.4247   4.4682   4.4996

          k =-0.0800 0.0284 0.0000 ( 43070 PWs)   bands (ev):

   -77.3243 -77.3239 -77.2033 -77.2032 -77.1961 -77.1960 -39.1405 -39.1402
   -39.0624 -39.0622 -39.0197 -39.0197 -39.0117 -39.0115 -38.9976 -38.9973
   -38.9713 -38.9713 -38.9688 -38.9687 -38.9566 -38.9565 -38.8733 -38.8732
   -30.0629 -30.0626 -29.6837 -29.6836 -28.7495 -28.7493 -13.9440 -13.9439
   -13.9075 -13.9072 -13.8423 -13.8422 -13.6117 -13.6117 -13.5858 -13.5858
   -13.5239 -13.5239 -12.8846 -12.8846 -12.7625 -12.7625 -12.5971 -12.5970
    -0.9139  -0.9136  -0.4502  -0.4501  -0.2160  -0.2158   0.2273   0.2277
     0.5320   0.5321   0.6999   0.7000   0.8951   0.8952   0.9459   0.9459
     1.2279   1.2283   1.2514   1.2515   1.5254   1.5256   1.7464   1.7470
     1.8237   1.8239   2.0431   2.0436   2.1765   2.1767   2.5055   2.5062
     2.5799   2.5801   2.7139   2.7141   3.2647   3.2651   3.4558   3.4559
     4.1840   4.1841   4.4130   4.4137   4.4501   4.4501

          k =-0.0800 0.0426 0.0000 ( 43087 PWs)   bands (ev):

   -77.3243 -77.3239 -77.2033 -77.2031 -77.1962 -77.1960 -39.1412 -39.1396
   -39.0636 -39.0611 -39.0255 -39.0139 -39.0120 -39.0111 -39.0017 -38.9932
   -38.9732 -38.9715 -38.9711 -38.9644 -38.9573 -38.9558 -38.8740 -38.8726
   -30.0750 -30.0501 -29.6956 -29.6710 -28.7625 -28.7358 -14.0506 -13.9591
   -13.9094 -13.8868 -13.8166 -13.7713 -13.7228 -13.6198 -13.5827 -13.5791
   -13.5116 -13.4304 -13.0266 -12.7708 -12.7572 -12.7393 -12.6125 -12.5835
    -0.9086  -0.8547  -0.4451  -0.3769  -0.2856  -0.0762   0.2418   0.2474
     0.3983   0.6622   0.6748   0.7716   0.8144   0.9413   0.9576   1.0033
     1.1378   1.2309   1.2478   1.3857   1.4533   1.5841   1.6881   1.7615
     1.8548   1.8812   2.0358   2.0804   2.1638   2.1938   2.4510   2.4750
     2.4979   2.6296   2.6578   2.7580   3.1801   3.2631   3.4152   3.4206
     4.1016   4.2652   4.3256   4.4267   4.4491   4.5103

          k =-0.0800 0.0567 0.0000 ( 43081 PWs)   bands (ev):

   -77.3244 -77.3239 -77.2034 -77.2031 -77.1963 -77.1959 -39.1421 -39.1389
   -39.0647 -39.0599 -39.0309 -39.0125 -39.0107 -39.0084 -39.0057 -38.9892
   -38.9773 -38.9717 -38.9710 -38.9603 -38.9580 -38.9550 -38.8747 -38.8720
   -30.0860 -30.0378 -29.7062 -29.6587 -28.7741 -28.7226 -14.1733 -13.9826
   -13.9228 -13.8923 -13.8484 -13.7939 -13.6551 -13.6281 -13.6129 -13.5623
   -13.4931 -13.3040 -13.1582 -12.7720 -12.7506 -12.6556 -12.5835 -12.5748
    -0.8438  -0.7403  -0.3622  -0.3162  -0.2348   0.1412   0.2369   0.2960
     0.3420   0.6703   0.7463   0.7776   0.8976   0.9490   0.9635   1.1084
     1.1134   1.2645   1.2647   1.3993   1.5093   1.6286   1.6598   1.7195
     1.9628   1.9666   2.0645   2.1230   2.1549   2.2110   2.3222   2.3910
     2.4099   2.5901   2.6482   2.8021   3.0692   3.0762   3.2740   3.4341
     3.9922   4.2361   4.3069   4.3343   4.4504   4.5084

          k =-0.0800 0.0709 0.0000 ( 43125 PWs)   bands (ev):

   -77.3244 -77.3239 -77.2035 -77.2030 -77.1963 -77.1958 -39.1428 -39.1384
   -39.0658 -39.0590 -39.0356 -39.0128 -39.0103 -39.0091 -39.0038 -38.9858
   -38.9809 -38.9720 -38.9710 -38.9587 -38.9567 -38.9544 -38.8753 -38.8716
   -30.0951 -30.0270 -29.7149 -29.6477 -28.7837 -28.7109 -14.2789 -14.0046
   -13.9589 -13.9588 -13.8759 -13.7791 -13.6563 -13.6436 -13.5474 -13.5319
   -13.4801 -13.2704 -13.1923 -12.7747 -12.7434 -12.6676 -12.5706 -12.4741
    -0.7346  -0.5918  -0.3325  -0.2151  -0.0550   0.1469   0.3732   0.4082
     0.4121   0.6005   0.7943   0.8608   0.9223   0.9594   1.1123   1.1627
     1.1865   1.2960   1.3159   1.3860   1.6030   1.6060   1.7237   1.7289
     2.0294   2.0388   2.1081   2.1247   2.1515   2.2255   2.2268   2.2869
     2.3327   2.5349   2.6972   2.8190   2.8885   2.9060   3.1377   3.3756
     3.8342   4.1671   4.2302   4.2409   4.3926   4.4312

          k =-0.0800 0.0851 0.0000 ( 43082 PWs)   bands (ev):

   -77.3244 -77.3238 -77.2035 -77.2030 -77.1964 -77.1958 -39.1434 -39.1380
   -39.0666 -39.0582 -39.0392 -39.0130 -39.0117 -39.0099 -39.0003 -38.9836
   -38.9831 -38.9722 -38.9709 -38.9591 -38.9540 -38.9539 -38.8758 -38.8712
   -30.1019 -30.0185 -29.7213 -29.6390 -28.7909 -28.7016 -14.3596 -14.0422
   -14.0220 -13.9895 -13.8651 -13.7703 -13.6712 -13.6663 -13.5357 -13.4725
   -13.4462 -13.3560 -13.1056 -12.7768 -12.7369 -12.6844 -12.5696 -12.3830
    -0.6057  -0.4403  -0.3465  -0.0283   0.0645   0.1341   0.4159   0.4337
     0.5592   0.6478   0.8230   0.9488   1.0018   1.0128   1.1837   1.1938
     1.2964   1.3726   1.4012   1.4769   1.6094   1.6828   1.7493   1.7876
     1.9740   2.0435   2.0457   2.1566   2.1630   2.2123   2.2530   2.2649
     2.3331   2.4900   2.6757   2.7168   2.7365   3.0074   3.0173   3.2476
     3.6536   3.9965   4.1464   4.1816   4.1983   4.3391

          k =-0.0800 0.0992 0.0000 ( 43133 PWs)   bands (ev):

   -77.3245 -77.3238 -77.2035 -77.2030 -77.1964 -77.1958 -39.1438 -39.1378
   -39.0671 -39.0578 -39.0415 -39.0133 -39.0131 -39.0097 -38.9980 -38.9853
   -38.9814 -38.9723 -38.9709 -38.9594 -38.9535 -38.9523 -38.8761 -38.8710
   -30.1061 -30.0131 -29.7252 -29.6334 -28.7953 -28.6957 -14.4102 -14.0948
   -14.0327 -14.0105 -13.8584 -13.7661 -13.6874 -13.6748 -13.5281 -13.4689
   -13.4097 -13.3917 -13.0507 -12.7781 -12.7323 -12.6962 -12.5698 -12.3247
    -0.5008  -0.3404  -0.3238   0.0051   0.1655   0.2798   0.3304   0.4282
     0.5845   0.7583   0.8221   0.9930   1.0509   1.1084   1.2371   1.2559
     1.3760   1.4440   1.4766   1.5971   1.6846   1.7218   1.7433   1.8384
     1.9863   2.0154   2.0580   2.1382   2.1964   2.2144   2.2485   2.3384
     2.3805   2.4278   2.5756   2.5888   2.6586   2.9266   3.1057   3.2643
     3.5047   3.7489   3.9348   4.0812   4.1489   4.1593

          k =-0.0800-0.0565 0.0000 ( 43142 PWs)   bands (ev):

   -77.3245 -77.3238 -77.2035 -77.2029 -77.1964 -77.1957 -39.1440 -39.1377
   -39.0673 -39.0576 -39.0422 -39.0139 -39.0132 -39.0097 -38.9972 -38.9859
   -38.9808 -38.9723 -38.9709 -38.9595 -38.9534 -38.9518 -38.8762 -38.8710
   -30.1075 -30.0112 -29.7265 -29.6314 -28.7967 -28.6936 -14.4274 -14.1128
   -14.0360 -14.0182 -13.8562 -13.7649 -13.6933 -13.6775 -13.5254 -13.4679
   -13.4281 -13.3730 -13.0319 -12.7786 -12.7306 -12.7004 -12.5701 -12.3047
    -0.4677  -0.3189  -0.2792  -0.0244   0.2708   0.2975   0.3628   0.3708
     0.5896   0.7589   0.8027   1.0380   1.0725   1.1643   1.2265   1.3629
     1.3937   1.4696   1.4830   1.5168   1.6349   1.7559   1.8831   1.8839
     2.0239   2.0351   2.1779   2.1996   2.2016   2.2224   2.2329   2.2764
     2.3929   2.3990   2.4415   2.5615   2.6060   2.8939   3.0678   3.4140
     3.4455   3.6929   3.7978   3.8778   4.1419   4.1684

     the Fermi energy is     2.3598 ev

!    total energy              =   -1839.17636097 Ry
     estimated scf accuracy    <       0.00000893 Ry
     smearing contrib. (-TS)   =      -0.09989436 Ry
     internal energy E=F+TS    =   -1839.07646661 Ry

     The total energy is F=E-TS. E is the sum of the following terms:
     one-electron contribution =   -9766.14841046 Ry
     hartree contribution      =    4887.92106212 Ry
     xc contribution           =    -694.00450000 Ry
     ewald contribution        =    3733.15524833 Ry
     electric field correction =       0.00013339 Ry

     convergence has been achieved in  21 iterations

     negative rho (up, down):  1.353E-04 0.000E+00

     Forces acting on atoms (cartesian axes, Ry/au):

     atom    1 type  1   force =    -0.00054018   -0.00045947   -0.02809557
     atom    2 type  1   force =    -0.00062014   -0.00035861   -0.02809474
     atom    3 type  2   force =     0.00076344    0.00054253    0.05126539
     atom    4 type  2   force =     0.00081522    0.00057048    0.05124684
     atom    5 type  1   force =     0.00021514    0.00020728   -0.04395951
     atom    6 type  1   force =     0.00027658    0.00014054   -0.04396059
     atom    7 type  2   force =     0.00028928    0.00020792    0.02621364
     atom    8 type  2   force =     0.00027440    0.00018925    0.02627316
     atom    9 type  1   force =    -0.00033770   -0.00017671   -0.00197074
     atom   10 type  1   force =    -0.00024927   -0.00023669   -0.00194616
     atom   11 type  2   force =    -0.00038803   -0.00029363   -0.00348635
     atom   12 type  2   force =    -0.00049874   -0.00033290   -0.00348538

     Total force =     0.110053     Total SCF correction =     0.007746

     Writing output data file ./La2Re2/La2Re2_beef.save/

     init_run     :    358.46s CPU    359.91s WALL (       1 calls)
     electrons    :  15882.90s CPU  15928.08s WALL (       1 calls)
     forces       :    157.65s CPU    158.10s WALL (       1 calls)

     Called by init_run:
     wfcinit      :    340.32s CPU    341.09s WALL (       1 calls)
     potinit      :      9.71s CPU      9.85s WALL (       1 calls)
     hinit0       :      2.98s CPU      3.01s WALL (       1 calls)

     Called by electrons:
     c_bands      :  13527.00s CPU  13551.45s WALL (      21 calls)
     sum_band     :   2142.26s CPU   2153.74s WALL (      21 calls)
     v_of_rho     :    132.37s CPU    134.20s WALL (      22 calls)
     newd         :     74.30s CPU     82.07s WALL (      22 calls)
     mix_rho      :     13.59s CPU     13.62s WALL (      21 calls)
     vdW_kernel   :      6.20s CPU      6.21s WALL (       1 calls)

     Called by c_bands:
     init_us_2    :     27.30s CPU     27.41s WALL (    3256 calls)
     cegterg      :  13387.72s CPU  13409.53s WALL (    1554 calls)

     Called by *egterg:
     cdiaghg      :    250.72s CPU    250.95s WALL (    9566 calls)
     h_psi        :   9122.21s CPU   9141.37s WALL (    9640 calls)
     s_psi        :   1386.17s CPU   1386.55s WALL (    9640 calls)
     g_psi        :      2.38s CPU      2.42s WALL (    8012 calls)

     Called by h_psi:
     h_psi:calbec :   1782.42s CPU   1784.68s WALL (    9640 calls)
     vloc_psi     :   5937.28s CPU   5953.73s WALL (    9640 calls)
     add_vuspsi   :   1392.49s CPU   1392.91s WALL (    9640 calls)

     General routines
     calbec       :   2603.94s CPU   2607.07s WALL (   11490 calls)
     fft          :    135.35s CPU    136.33s WALL (    1445 calls)
     ffts         :      3.06s CPU      3.07s WALL (      43 calls)
     fftw         :   7144.82s CPU   7163.66s WALL (  865816 calls)
     interpolate  :      3.42s CPU      3.45s WALL (      22 calls)

     Parallel routines
     fft_scatt_xy :     99.84s CPU    100.35s WALL (  867304 calls)
     fft_scatt_yz :   6448.81s CPU   6460.90s WALL (  867304 calls)

     PWSCF        :      4h57m CPU      5h17m WALL


   This run was terminated on:  21:54:10  25Jun2022            

=------------------------------------------------------------------------------=
   JOB DONE.
=------------------------------------------------------------------------------=
