
     Program PWSCF v.6.6 starts on 26Jun2022 at  7:42:17 

     This program is part of the open-source Quantum ESPRESSO suite
     for quantum simulation of materials; please cite
         "P. Giannozzi et al., J. Phys.:Condens. Matter 21 395502 (2009);
         "P. Giannozzi et al., J. Phys.:Condens. Matter 29 465901 (2017);
          URL http://www.quantum-espresso.org", 
     in publications or presentations arising from this work. More details at
     http://www.quantum-espresso.org/quote

     Parallel version (MPI), running on    37 processors

     MPI processes distributed on     1 nodes
     R & G space division:  proc/nbgrp/npool/nimage =      37
     Fft bands division:     nmany     =       1
     Reading input from La2Ta2.in
Warning: card &CELL ignored
Warning: card / ignored

     Current dimensions of program PWSCF are:
     Max number of different atomic species (ntypx) = 10
     Max number of k-points (npk) =  40000
     Max angular momentum in pseudopotentials (lmaxx) =  3
     Presently stress not available with electric field and gates

     Message from routine cell_base_init:
     DEPRECATED: use true lattice parameter, not A to a.u. conversion factor
     file La.pbe-spfn-rrkjus_psl.1.0.0.UPF: wavefunction(s)  4F renormalized
     file Ta.pbe-spfn-rrkjus_psl.1.0.0.UPF: wavefunction(s)  5S 5P renormalized

     **************************************************************************
     Initializing libbeef V0.1.2 with the BEEF-vdW functional.
     Citation: Wellendorff et al., PRB 85, 235149 (2012).
     **************************************************************************


     IMPORTANT: XC functional enforced from input :
     Exchange-correlation= BEEF-VDW
                           (   1   4  43  14   2   0   0)
     Any further DFT definition will be discarded
     Please, verify this is what you really want


     Subspace diagonalization in iterative solution of the eigenvalue problem:
     a serial algorithm will be used

     Found symmetry operation: I + (  0.5000  0.0000  0.0000)
     This is a supercell, fractional translations are disabled

     Parallelization info
     --------------------
     sticks:   dense  smooth     PW     G-vecs:    dense   smooth      PW
     Min         159      63     18                37993     9607    1452
     Max         160      64     19                38004     9626    1465
     Sum        5899    2365    671              1405975   355971   53919



     bravais-lattice index     =            0
     lattice parameter (alat)  =       1.8897  a.u.
     unit-cell volume          =    6433.5636 (a.u.)^3
     number of atoms/cell      =           12
     number of atomic types    =            2
     number of electrons       =       228.00
     number of Kohn-Sham states=          137
     kinetic-energy cutoff     =      55.1240  Ry
     charge density cutoff     =     551.2396  Ry
     convergence threshold     =      1.0E-05
     mixing beta               =       0.1000
     number of iterations used =           10  plain     mixing
     Exchange-correlation= BEEF-VDW
                           (   1   4  43  14   2   0   0)

     celldm(1)=   1.889726  celldm(2)=   0.000000  celldm(3)=   0.000000
     celldm(4)=   0.000000  celldm(5)=   0.000000  celldm(6)=   0.000000

     crystal axes: (cart. coord. in units of alat)
               a(1) = (   6.205950   0.000000   0.000000 )  
               a(2) = (  -3.102975   6.064255   0.000000 )  
               a(3) = (   0.000000   0.000000  25.331993 )  

     reciprocal axes: (cart. coord. in units 2 pi/alat)
               b(1) = (  0.161136  0.082450 -0.000000 )  
               b(2) = (  0.000000  0.164901  0.000000 )  
               b(3) = (  0.000000 -0.000000  0.039476 )  


     PseudoPot. # 1 for La read from file:
     ../pseudo/La.pbe-spfn-rrkjus_psl.1.0.0.UPF
     MD5 check sum: e3bc141c2ecb461b8d0a035ce9ac970e
     Pseudo is Ultrasoft + core correction, Zval = 11.0
     Generated using "atomic" code by A. Dal Corso v.6.2.2
     Using radial grid of 1253 points,  8 beta functions with: 
                l(1) =   0
                l(2) =   0
                l(3) =   1
                l(4) =   1
                l(5) =   2
                l(6) =   2
                l(7) =   3
                l(8) =   3
     Q(r) pseudized with 0 coefficients 


     PseudoPot. # 2 for Ta read from file:
     ../pseudo/Ta.pbe-spfn-rrkjus_psl.1.0.0.UPF
     MD5 check sum: 39d7d349fe394e56adf8454eb9315fbb
     Pseudo is Ultrasoft + core correction, Zval = 27.0
     Generated using "atomic" code by A. Dal Corso v.6.3
     Using radial grid of 1273 points,  8 beta functions with: 
                l(1) =   0
                l(2) =   0
                l(3) =   1
                l(4) =   1
                l(5) =   2
                l(6) =   2
                l(7) =   3
                l(8) =   3
     Q(r) pseudized with 0 coefficients 


     atomic species   valence    mass     pseudopotential
        La            11.00   138.90547     La( 1.00)
        Ta            27.00   180.94788     Ta( 1.00)

     No symmetry found



   Cartesian axes

     site n.     atom                  positions (alat units)
         1           La  tau(   1) = (   0.0000000   0.0000000  10.0000000  )
         2           La  tau(   2) = (   3.1029749   0.0000000  10.0000000  )
         3           Ta  tau(   3) = (   1.5514874   3.0321273  10.0000000  )
         4           Ta  tau(   4) = (  -1.5514874   3.0321273  10.0000000  )
         5           La  tau(   5) = (   3.1029749   1.5877389  12.6659966  )
         6           La  tau(   6) = (  -0.0000000   1.5877389  12.6659966  )
         7           Ta  tau(   7) = (  -1.5514874   4.6198662  12.6659966  )
         8           Ta  tau(   8) = (   1.5514874   4.6198662  12.6659966  )
         9           La  tau(   9) = (  -0.0000915   3.3092682  15.5576015  )
        10           La  tau(  10) = (   3.1028836   3.3092565  15.5576174  )
        11           Ta  tau(  11) = (   1.5514365   6.0316906  15.0029564  )
        12           Ta  tau(  12) = (  -1.5515061   6.0317160  15.0029484  )

     number of k points=    74  Fermi-Dirac smearing, width (Ry)=  0.0100
                       cart. coord. in units 2pi/alat
        k(    1) = (   0.0000000   0.0000000   0.0000000), wk =   0.0138889
        k(    2) = (   0.0000000   0.0137417   0.0000000), wk =   0.0277778
        k(    3) = (   0.0000000   0.0274835   0.0000000), wk =   0.0277778
        k(    4) = (   0.0000000   0.0412252   0.0000000), wk =   0.0277778
        k(    5) = (   0.0000000   0.0549669   0.0000000), wk =   0.0277778
        k(    6) = (   0.0000000   0.0687086   0.0000000), wk =   0.0277778
        k(    7) = (   0.0000000  -0.0824504   0.0000000), wk =   0.0138889
        k(    8) = (   0.0134280   0.0068709   0.0000000), wk =   0.0277778
        k(    9) = (   0.0134280   0.0206126   0.0000000), wk =   0.0277778
        k(   10) = (   0.0134280   0.0343543   0.0000000), wk =   0.0277778
        k(   11) = (   0.0134280   0.0480960   0.0000000), wk =   0.0277778
        k(   12) = (   0.0134280   0.0618378   0.0000000), wk =   0.0277778
        k(   13) = (   0.0134280   0.0755795   0.0000000), wk =   0.0277778
        k(   14) = (   0.0134280  -0.0755795   0.0000000), wk =   0.0277778
        k(   15) = (   0.0134280  -0.0618378   0.0000000), wk =   0.0277778
        k(   16) = (   0.0134280  -0.0480960   0.0000000), wk =   0.0277778
        k(   17) = (   0.0134280  -0.0343543   0.0000000), wk =   0.0277778
        k(   18) = (   0.0134280  -0.0206126   0.0000000), wk =   0.0277778
        k(   19) = (   0.0134280  -0.0068709   0.0000000), wk =   0.0277778
        k(   20) = (   0.0268559   0.0137417   0.0000000), wk =   0.0277778
        k(   21) = (   0.0268559   0.0274835   0.0000000), wk =   0.0277778
        k(   22) = (   0.0268559   0.0412252   0.0000000), wk =   0.0277778
        k(   23) = (   0.0268559   0.0549669   0.0000000), wk =   0.0277778
        k(   24) = (   0.0268559   0.0687086   0.0000000), wk =   0.0277778
        k(   25) = (   0.0268559   0.0824504   0.0000000), wk =   0.0277778
        k(   26) = (   0.0268559  -0.0687086   0.0000000), wk =   0.0277778
        k(   27) = (   0.0268559  -0.0549669   0.0000000), wk =   0.0277778
        k(   28) = (   0.0268559  -0.0412252   0.0000000), wk =   0.0277778
        k(   29) = (   0.0268559  -0.0274835   0.0000000), wk =   0.0277778
        k(   30) = (   0.0268559  -0.0137417   0.0000000), wk =   0.0277778
        k(   31) = (   0.0268559  -0.0000000   0.0000000), wk =   0.0277778
        k(   32) = (   0.0402839   0.0206126   0.0000000), wk =   0.0277778
        k(   33) = (   0.0402839   0.0343543   0.0000000), wk =   0.0277778
        k(   34) = (   0.0402839   0.0480960   0.0000000), wk =   0.0277778
        k(   35) = (   0.0402839   0.0618378   0.0000000), wk =   0.0277778
        k(   36) = (   0.0402839   0.0755795   0.0000000), wk =   0.0277778
        k(   37) = (   0.0402839   0.0893212   0.0000000), wk =   0.0277778
        k(   38) = (   0.0402839  -0.0618378   0.0000000), wk =   0.0277778
        k(   39) = (   0.0402839  -0.0480960   0.0000000), wk =   0.0277778
        k(   40) = (   0.0402839  -0.0343543   0.0000000), wk =   0.0277778
        k(   41) = (   0.0402839  -0.0206126   0.0000000), wk =   0.0277778
        k(   42) = (   0.0402839  -0.0068709   0.0000000), wk =   0.0277778
        k(   43) = (   0.0402839   0.0068709   0.0000000), wk =   0.0277778
        k(   44) = (   0.0537119   0.0274835   0.0000000), wk =   0.0277778
        k(   45) = (   0.0537119   0.0412252   0.0000000), wk =   0.0277778
        k(   46) = (   0.0537119   0.0549669   0.0000000), wk =   0.0277778
        k(   47) = (   0.0537119   0.0687086   0.0000000), wk =   0.0277778
        k(   48) = (   0.0537119   0.0824504   0.0000000), wk =   0.0277778
        k(   49) = (   0.0537119   0.0961921   0.0000000), wk =   0.0277778
        k(   50) = (   0.0537119  -0.0549669   0.0000000), wk =   0.0277778
        k(   51) = (   0.0537119  -0.0412252   0.0000000), wk =   0.0277778
        k(   52) = (   0.0537119  -0.0274835   0.0000000), wk =   0.0277778
        k(   53) = (   0.0537119  -0.0137417   0.0000000), wk =   0.0277778
        k(   54) = (   0.0537119   0.0000000   0.0000000), wk =   0.0277778
        k(   55) = (   0.0537119   0.0137417   0.0000000), wk =   0.0277778
        k(   56) = (   0.0671399   0.0343543   0.0000000), wk =   0.0277778
        k(   57) = (   0.0671399   0.0480960   0.0000000), wk =   0.0277778
        k(   58) = (   0.0671399   0.0618378   0.0000000), wk =   0.0277778
        k(   59) = (   0.0671399   0.0755795   0.0000000), wk =   0.0277778
        k(   60) = (   0.0671399   0.0893212   0.0000000), wk =   0.0277778
        k(   61) = (   0.0671399   0.1030629   0.0000000), wk =   0.0277778
        k(   62) = (   0.0671399  -0.0480960   0.0000000), wk =   0.0277778
        k(   63) = (   0.0671399  -0.0343543   0.0000000), wk =   0.0277778
        k(   64) = (   0.0671399  -0.0206126   0.0000000), wk =   0.0277778
        k(   65) = (   0.0671399  -0.0068709   0.0000000), wk =   0.0277778
        k(   66) = (   0.0671399   0.0068709   0.0000000), wk =   0.0277778
        k(   67) = (   0.0671399   0.0206126   0.0000000), wk =   0.0277778
        k(   68) = (  -0.0805678  -0.0412252   0.0000000), wk =   0.0138889
        k(   69) = (  -0.0805678  -0.0274835   0.0000000), wk =   0.0277778
        k(   70) = (  -0.0805678  -0.0137417   0.0000000), wk =   0.0277778
        k(   71) = (  -0.0805678   0.0000000   0.0000000), wk =   0.0277778
        k(   72) = (  -0.0805678   0.0137417   0.0000000), wk =   0.0277778
        k(   73) = (  -0.0805678   0.0274835   0.0000000), wk =   0.0277778
        k(   74) = (  -0.0805678  -0.1236755   0.0000000), wk =   0.0138889

     Dense  grid:  1405975 G-vectors     FFT dimensions: (  90, 100, 360)

     Smooth grid:   355971 G-vectors     FFT dimensions: (  60,  64, 240)

     Estimated max dynamical RAM per process >     561.07 MB

     Estimated total dynamical RAM >      20.27 GB

     Initial potential from superposition of free atoms

     starting charge  227.81620, renormalised to  228.00000

     negative rho (up, down):  4.146E-04 0.000E+00


     %%%%%%%%%%%%%%%%%%%%%%%%%%%%%%%%%%%%%%%%%%%%%%%%%%%%%%%%%%%%%%%%%%%%%%%%
     %                                                                      %
     % You are using vdW-DF, which was implemented by the Thonhauser group. %
     % Please cite the following two papers that made this development      %
     % possible and the two reviews that describe the various versions:     %
     %                                                                      %
     %   T. Thonhauser et al., PRL 115, 136402 (2015).                      %
     %   T. Thonhauser et al., PRB 76, 125112 (2007).                       %
     %   K. Berland et al., Rep. Prog. Phys. 78, 066501 (2015).             %
     %   D.C. Langreth et al., J. Phys.: Condens. Matter 21, 084203 (2009). %
     %                                                                      %
     %                                                                      %
     % If you are calculating the stress with vdW-DF, please also cite:     %
     %                                                                      %
     %   R. Sabatini et al., J. Phys.: Condens. Matter 24, 424209 (2012).   %
     %                                                                      %
     %%%%%%%%%%%%%%%%%%%%%%%%%%%%%%%%%%%%%%%%%%%%%%%%%%%%%%%%%%%%%%%%%%%%%%%%



     Adding external electric field

     Computed dipole along edir(3) : 
        Dipole                0.0439 Ry au,          0.1116 Debye
        Dipole field          0.0001 Ry au, 

        Potential amp.       -0.0080 Ry
        Total length         46.6738 bohr

     Starting wfcs are  222 randomized atomic wfcs

     total cpu time spent up to now is      823.0 secs

     Self-consistent Calculation

     iteration #  1     ecut=    55.12 Ry     beta= 0.10
     Davidson diagonalization with overlap
     ethr =  1.00E-02,  avg # of iterations =  2.0

     negative rho (up, down):  2.726E-04 0.000E+00

     Adding external electric field

     Computed dipole along edir(3) : 
        Dipole               -0.7603 Ry au,         -1.9325 Debye
        Dipole field         -0.0015 Ry au, 

        Potential amp.        0.1386 Ry
        Total length         46.6738 bohr


     total cpu time spent up to now is     2049.5 secs

     total energy              =   -4853.86054113 Ry
     estimated scf accuracy    <      16.30233652 Ry

     iteration #  2     ecut=    55.12 Ry     beta= 0.10
     Davidson diagonalization with overlap
     ethr =  7.15E-03,  avg # of iterations =  4.4

     negative rho (up, down):  3.099E-04 0.000E+00

     Adding external electric field

     Computed dipole along edir(3) : 
        Dipole                1.4470 Ry au,          3.6780 Debye
        Dipole field          0.0028 Ry au, 

        Potential amp.       -0.2638 Ry
        Total length         46.6738 bohr


     total cpu time spent up to now is     3953.7 secs

     total energy              =   -4854.13148839 Ry
     estimated scf accuracy    <      21.33644408 Ry

     iteration #  3     ecut=    55.12 Ry     beta= 0.10
     Davidson diagonalization with overlap
     ethr =  7.15E-03,  avg # of iterations =  3.5

     negative rho (up, down):  6.328E-04 0.000E+00

     Adding external electric field

     Computed dipole along edir(3) : 
        Dipole                0.0604 Ry au,          0.1535 Debye
        Dipole field          0.0001 Ry au, 

        Potential amp.       -0.0110 Ry
        Total length         46.6738 bohr


     total cpu time spent up to now is     5267.5 secs

     total energy              =   -4854.22940733 Ry
     estimated scf accuracy    <      75.19057393 Ry

     iteration #  4     ecut=    55.12 Ry     beta= 0.10
     Davidson diagonalization with overlap
     ethr =  7.15E-03,  avg # of iterations =  1.3

     negative rho (up, down):  5.527E-04 0.000E+00

     Adding external electric field

     Computed dipole along edir(3) : 
        Dipole                0.0476 Ry au,          0.1209 Debye
        Dipole field          0.0001 Ry au, 

        Potential amp.       -0.0087 Ry
        Total length         46.6738 bohr


     total cpu time spent up to now is     6504.5 secs

     total energy              =   -4855.39687236 Ry
     estimated scf accuracy    <       0.82087940 Ry

     iteration #  5     ecut=    55.12 Ry     beta= 0.10
     Davidson diagonalization with overlap
     ethr =  3.60E-04,  avg # of iterations =  8.5

     negative rho (up, down):  4.647E-04 0.000E+00

     Adding external electric field

     Computed dipole along edir(3) : 
        Dipole                0.2440 Ry au,          0.6202 Debye
        Dipole field          0.0005 Ry au, 

        Potential amp.       -0.0445 Ry
        Total length         46.6738 bohr


     total cpu time spent up to now is     8662.6 secs

     total energy              =   -4855.39171681 Ry
     estimated scf accuracy    <       0.95792160 Ry

     iteration #  6     ecut=    55.12 Ry     beta= 0.10
     Davidson diagonalization with overlap
     ethr =  3.60E-04,  avg # of iterations =  2.1

     negative rho (up, down):  4.743E-04 0.000E+00

     Adding external electric field

     Computed dipole along edir(3) : 
        Dipole                0.1747 Ry au,          0.4440 Debye
        Dipole field          0.0003 Ry au, 

        Potential amp.       -0.0319 Ry
        Total length         46.6738 bohr


     total cpu time spent up to now is     9811.4 secs

     total energy              =   -4855.42274643 Ry
     estimated scf accuracy    <       1.51847503 Ry

     iteration #  7     ecut=    55.12 Ry     beta= 0.10
     Davidson diagonalization with overlap
     ethr =  3.60E-04,  avg # of iterations =  2.2

     negative rho (up, down):  4.456E-04 0.000E+00

     Adding external electric field

     Computed dipole along edir(3) : 
        Dipole                0.1302 Ry au,          0.3310 Debye
        Dipole field          0.0003 Ry au, 

        Potential amp.       -0.0237 Ry
        Total length         46.6738 bohr


     total cpu time spent up to now is    11043.0 secs

     total energy              =   -4855.38938480 Ry
     estimated scf accuracy    <       0.55539933 Ry

     iteration #  8     ecut=    55.12 Ry     beta= 0.10
     Davidson diagonalization with overlap
     ethr =  2.44E-04,  avg # of iterations =  1.7

     negative rho (up, down):  4.082E-04 0.000E+00

     Adding external electric field

     Computed dipole along edir(3) : 
        Dipole                0.2261 Ry au,          0.5746 Debye
        Dipole field          0.0004 Ry au, 

        Potential amp.       -0.0412 Ry
        Total length         46.6738 bohr


     total cpu time spent up to now is    11782.7 secs

     total energy              =   -4855.41778175 Ry
     estimated scf accuracy    <       0.07796675 Ry

     iteration #  9     ecut=    55.12 Ry     beta= 0.10
     Davidson diagonalization with overlap
     c_bands:  1 eigenvalues not converged
     c_bands:  3 eigenvalues not converged
     c_bands:  1 eigenvalues not converged
     c_bands:  1 eigenvalues not converged
     c_bands:  1 eigenvalues not converged
     c_bands:  1 eigenvalues not converged
     c_bands:  1 eigenvalues not converged
     c_bands:  1 eigenvalues not converged
     c_bands:  3 eigenvalues not converged
     c_bands:  2 eigenvalues not converged
     c_bands:  1 eigenvalues not converged
     c_bands:  3 eigenvalues not converged
     c_bands:  1 eigenvalues not converged
     c_bands:  1 eigenvalues not converged
     c_bands:  1 eigenvalues not converged
     ethr =  3.42E-05,  avg # of iterations = 16.4

     negative rho (up, down):  3.571E-04 0.000E+00

     Adding external electric field

     Computed dipole along edir(3) : 
        Dipole                0.2309 Ry au,          0.5868 Debye
        Dipole field          0.0005 Ry au, 

        Potential amp.       -0.0421 Ry
        Total length         46.6738 bohr


     total cpu time spent up to now is    13333.1 secs

     total energy              =   -4855.42260305 Ry
     estimated scf accuracy    <       0.05525442 Ry

     iteration # 10     ecut=    55.12 Ry     beta= 0.10
     Davidson diagonalization with overlap
     c_bands:  1 eigenvalues not converged
     c_bands:  1 eigenvalues not converged
     c_bands:  1 eigenvalues not converged
     ethr =  2.42E-05,  avg # of iterations =  3.8

     negative rho (up, down):  5.178E-04 0.000E+00

     Adding external electric field

     Computed dipole along edir(3) : 
        Dipole                0.2516 Ry au,          0.6394 Debye
        Dipole field          0.0005 Ry au, 

        Potential amp.       -0.0459 Ry
        Total length         46.6738 bohr


     total cpu time spent up to now is    14242.2 secs

     total energy              =   -4855.42010118 Ry
     estimated scf accuracy    <       0.02781154 Ry

     iteration # 11     ecut=    55.12 Ry     beta= 0.10
     Davidson diagonalization with overlap
     c_bands:  4 eigenvalues not converged
     c_bands:  1 eigenvalues not converged
     c_bands:  1 eigenvalues not converged
     c_bands:  1 eigenvalues not converged
     c_bands:  2 eigenvalues not converged
     c_bands:  2 eigenvalues not converged
     c_bands:  2 eigenvalues not converged
     c_bands:  1 eigenvalues not converged
     c_bands:  2 eigenvalues not converged
     c_bands:  2 eigenvalues not converged
     c_bands:  2 eigenvalues not converged
     c_bands:  2 eigenvalues not converged
     c_bands:  3 eigenvalues not converged
     c_bands:  3 eigenvalues not converged
     c_bands:  1 eigenvalues not converged
     c_bands:  2 eigenvalues not converged
     c_bands:  1 eigenvalues not converged
     c_bands:  1 eigenvalues not converged
     c_bands:  2 eigenvalues not converged
     c_bands:  1 eigenvalues not converged
     c_bands:  2 eigenvalues not converged
     c_bands:  1 eigenvalues not converged
     c_bands:  1 eigenvalues not converged
     c_bands:  1 eigenvalues not converged
     c_bands:  1 eigenvalues not converged
     c_bands:  1 eigenvalues not converged
     c_bands:  1 eigenvalues not converged
     c_bands:  1 eigenvalues not converged
     c_bands:  1 eigenvalues not converged
     c_bands:  2 eigenvalues not converged
     c_bands:  1 eigenvalues not converged
     c_bands:  2 eigenvalues not converged
     c_bands:  1 eigenvalues not converged
     c_bands:  2 eigenvalues not converged
     c_bands:  2 eigenvalues not converged
     c_bands:  1 eigenvalues not converged
     c_bands:  1 eigenvalues not converged
     c_bands:  1 eigenvalues not converged
     c_bands:  1 eigenvalues not converged
     c_bands:  2 eigenvalues not converged
     c_bands:  1 eigenvalues not converged
     c_bands:  1 eigenvalues not converged
     ethr =  1.22E-05,  avg # of iterations = 16.8

     negative rho (up, down):  4.708E-04 0.000E+00

     Adding external electric field

     Computed dipole along edir(3) : 
        Dipole                0.2390 Ry au,          0.6074 Debye
        Dipole field          0.0005 Ry au, 

        Potential amp.       -0.0436 Ry
        Total length         46.6738 bohr


     total cpu time spent up to now is    15575.9 secs

     total energy              =   -4855.42384451 Ry
     estimated scf accuracy    <       0.00683488 Ry

     iteration # 12     ecut=    55.12 Ry     beta= 0.10
     Davidson diagonalization with overlap
     c_bands:  1 eigenvalues not converged
     c_bands:  1 eigenvalues not converged
     c_bands:  1 eigenvalues not converged
     c_bands:  1 eigenvalues not converged
     c_bands:  1 eigenvalues not converged
     c_bands:  1 eigenvalues not converged
     c_bands:  1 eigenvalues not converged
     c_bands:  1 eigenvalues not converged
     c_bands:  1 eigenvalues not converged
     c_bands:  2 eigenvalues not converged
     c_bands:  1 eigenvalues not converged
     c_bands:  1 eigenvalues not converged
     c_bands:  1 eigenvalues not converged
     c_bands:  1 eigenvalues not converged
     c_bands:  2 eigenvalues not converged
     c_bands:  2 eigenvalues not converged
     c_bands:  1 eigenvalues not converged
     c_bands:  2 eigenvalues not converged
     c_bands:  1 eigenvalues not converged
     c_bands:  2 eigenvalues not converged
     c_bands:  1 eigenvalues not converged
     c_bands:  1 eigenvalues not converged
     c_bands:  2 eigenvalues not converged
     c_bands:  1 eigenvalues not converged
     c_bands:  2 eigenvalues not converged
     c_bands:  1 eigenvalues not converged
     c_bands:  1 eigenvalues not converged
     c_bands:  2 eigenvalues not converged
     c_bands:  1 eigenvalues not converged
     c_bands:  1 eigenvalues not converged
     c_bands:  1 eigenvalues not converged
     c_bands:  2 eigenvalues not converged
     c_bands:  2 eigenvalues not converged
     c_bands:  1 eigenvalues not converged
     c_bands:  2 eigenvalues not converged
     c_bands:  2 eigenvalues not converged
     c_bands:  1 eigenvalues not converged
     c_bands:  1 eigenvalues not converged
     c_bands:  2 eigenvalues not converged
     c_bands:  1 eigenvalues not converged
     c_bands:  1 eigenvalues not converged
     c_bands:  1 eigenvalues not converged
     c_bands:  1 eigenvalues not converged
     c_bands:  1 eigenvalues not converged
     c_bands:  1 eigenvalues not converged
     c_bands:  2 eigenvalues not converged
     c_bands:  2 eigenvalues not converged
     c_bands:  1 eigenvalues not converged
     c_bands:  1 eigenvalues not converged
     c_bands:  1 eigenvalues not converged
     c_bands:  1 eigenvalues not converged
     ethr =  3.00E-06,  avg # of iterations = 18.1

     negative rho (up, down):  4.566E-04 0.000E+00

     Adding external electric field

     Computed dipole along edir(3) : 
        Dipole                0.2291 Ry au,          0.5823 Debye
        Dipole field          0.0004 Ry au, 

        Potential amp.       -0.0418 Ry
        Total length         46.6738 bohr


     total cpu time spent up to now is    16691.0 secs

     total energy              =   -4855.42400997 Ry
     estimated scf accuracy    <       0.01006101 Ry

     iteration # 13     ecut=    55.12 Ry     beta= 0.10
     Davidson diagonalization with overlap
     c_bands:  1 eigenvalues not converged
     c_bands:  1 eigenvalues not converged
     c_bands:  1 eigenvalues not converged
     c_bands:  1 eigenvalues not converged
     ethr =  3.00E-06,  avg # of iterations =  5.8

     negative rho (up, down):  4.921E-04 0.000E+00

     Adding external electric field

     Computed dipole along edir(3) : 
        Dipole                0.2361 Ry au,          0.6000 Debye
        Dipole field          0.0005 Ry au, 

        Potential amp.       -0.0430 Ry
        Total length         46.6738 bohr


     total cpu time spent up to now is    17510.7 secs

     total energy              =   -4855.42433703 Ry
     estimated scf accuracy    <       0.00170500 Ry

     iteration # 14     ecut=    55.12 Ry     beta= 0.10
     Davidson diagonalization with overlap
     c_bands:  1 eigenvalues not converged
     c_bands:  1 eigenvalues not converged
     c_bands:  1 eigenvalues not converged
     c_bands:  1 eigenvalues not converged
     c_bands:  1 eigenvalues not converged
     c_bands:  1 eigenvalues not converged
     c_bands:  1 eigenvalues not converged
     c_bands:  1 eigenvalues not converged
     ethr =  7.48E-07,  avg # of iterations = 11.7

     negative rho (up, down):  4.792E-04 0.000E+00

     Adding external electric field

     Computed dipole along edir(3) : 
        Dipole                0.2338 Ry au,          0.5943 Debye
        Dipole field          0.0005 Ry au, 

        Potential amp.       -0.0426 Ry
        Total length         46.6738 bohr


     total cpu time spent up to now is    18521.6 secs

     total energy              =   -4855.42433668 Ry
     estimated scf accuracy    <       0.00108788 Ry

     iteration # 15     ecut=    55.12 Ry     beta= 0.10
     Davidson diagonalization with overlap
     c_bands:  2 eigenvalues not converged
     c_bands:  1 eigenvalues not converged
     ethr =  4.77E-07,  avg # of iterations =  6.3

     negative rho (up, down):  4.714E-04 0.000E+00

     Adding external electric field

     Computed dipole along edir(3) : 
        Dipole                0.2353 Ry au,          0.5980 Debye
        Dipole field          0.0005 Ry au, 

        Potential amp.       -0.0429 Ry
        Total length         46.6738 bohr


     total cpu time spent up to now is    19410.3 secs

     total energy              =   -4855.42439221 Ry
     estimated scf accuracy    <       0.00075088 Ry

     iteration # 16     ecut=    55.12 Ry     beta= 0.10
     Davidson diagonalization with overlap
     ethr =  3.29E-07,  avg # of iterations =  2.9

     negative rho (up, down):  4.518E-04 0.000E+00

     Adding external electric field

     Computed dipole along edir(3) : 
        Dipole                0.2325 Ry au,          0.5910 Debye
        Dipole field          0.0005 Ry au, 

        Potential amp.       -0.0424 Ry
        Total length         46.6738 bohr


     total cpu time spent up to now is    20229.3 secs

     total energy              =   -4855.42441700 Ry
     estimated scf accuracy    <       0.00007579 Ry

     iteration # 17     ecut=    55.12 Ry     beta= 0.10
     Davidson diagonalization with overlap
     c_bands:  1 eigenvalues not converged
     c_bands:  2 eigenvalues not converged
     ethr =  3.32E-08,  avg # of iterations =  8.6

     negative rho (up, down):  4.133E-04 0.000E+00

     Adding external electric field

     Computed dipole along edir(3) : 
        Dipole                0.2327 Ry au,          0.5914 Debye
        Dipole field          0.0005 Ry au, 

        Potential amp.       -0.0424 Ry
        Total length         46.6738 bohr


     total cpu time spent up to now is    21471.7 secs

     total energy              =   -4855.42444458 Ry
     estimated scf accuracy    <       0.00003565 Ry

     iteration # 18     ecut=    55.12 Ry     beta= 0.10
     Davidson diagonalization with overlap
     ethr =  1.56E-08,  avg # of iterations =  2.3

     negative rho (up, down):  3.867E-04 0.000E+00

     Adding external electric field

     Computed dipole along edir(3) : 
        Dipole                0.2328 Ry au,          0.5917 Debye
        Dipole field          0.0005 Ry au, 

        Potential amp.       -0.0424 Ry
        Total length         46.6738 bohr


     total cpu time spent up to now is    22203.9 secs

     total energy              =   -4855.42444459 Ry
     estimated scf accuracy    <       0.00001464 Ry

     iteration # 19     ecut=    55.12 Ry     beta= 0.10
     Davidson diagonalization with overlap
     ethr =  6.42E-09,  avg # of iterations =  6.7

     negative rho (up, down):  2.604E-04 0.000E+00

     Adding external electric field

     Computed dipole along edir(3) : 
        Dipole                0.2309 Ry au,          0.5868 Debye
        Dipole field          0.0005 Ry au, 

        Potential amp.       -0.0421 Ry
        Total length         46.6738 bohr


     total cpu time spent up to now is    23168.1 secs

     End of self-consistent calculation

          k = 0.0000 0.0000 0.0000 ( 44439 PWs)   bands (ev):

   -65.9774 -65.9614 -65.6666 -65.6501 -65.6074 -65.5912 -32.3270 -32.3107
   -32.2903 -32.2232 -32.1855 -32.1704 -32.1310 -32.1212 -32.0413 -31.9753
   -31.9717 -31.9265 -31.8736 -31.8346 -31.7666 -31.7025 -31.6115 -31.5804
   -30.3054 -30.1900 -29.8587 -29.7373 -29.6736 -29.2216 -17.7036 -17.7009
   -17.6999 -17.6990 -17.6983 -17.6902 -17.6845 -17.6805 -17.6788 -17.6676
   -17.6526 -17.6497 -17.6366 -17.6321 -17.3658 -17.3639 -17.3580 -17.3578
   -17.3528 -17.3515 -17.3497 -17.3496 -17.3470 -17.3452 -17.3433 -17.3419
   -17.3329 -17.3291 -17.3230 -17.3208 -17.3125 -17.3111 -17.3109 -17.3092
   -17.3014 -17.3003 -17.2987 -17.2878 -17.2757 -17.2746 -17.2712 -17.2686
   -15.3991 -15.3217 -14.8620 -14.6739 -14.1871 -14.0678 -13.9487 -13.8045
   -13.6239 -13.5060 -13.3740 -13.3495 -12.9282 -12.8938 -12.5341 -12.4958
   -12.3948 -11.9336  -2.5230  -1.3422  -0.9167  -0.7972  -0.3275   0.1394
     0.1991   0.5986   0.6187   0.7914   0.8339   0.9836   1.0143   1.0915
     1.1718   1.6267   1.8151   1.8892   2.1296   2.2242   2.3784   2.5950
     2.8169   3.0289   3.1027   3.2423   3.2519   3.3363   3.6185   3.8003
     3.8713   3.8980   3.9634   4.0308   4.0514   4.1521   4.1877   4.2807
     4.2811   4.2844   4.3466   4.4563   4.4916   4.5190   4.5604   4.5650
     4.5890

          k = 0.0000 0.0137 0.0000 ( 44447 PWs)   bands (ev):

   -65.9774 -65.9614 -65.6666 -65.6501 -65.6074 -65.5912 -32.3271 -32.3108
   -32.2903 -32.2236 -32.1854 -32.1705 -32.1310 -32.1214 -32.0413 -31.9759
   -31.9717 -31.9264 -31.8736 -31.8346 -31.7666 -31.7025 -31.6115 -31.5804
   -30.3046 -30.1892 -29.8585 -29.7371 -29.6732 -29.2215 -17.7036 -17.7009
   -17.6999 -17.6990 -17.6982 -17.6902 -17.6845 -17.6806 -17.6788 -17.6676
   -17.6525 -17.6497 -17.6366 -17.6321 -17.3658 -17.3639 -17.3580 -17.3578
   -17.3528 -17.3515 -17.3496 -17.3495 -17.3470 -17.3453 -17.3433 -17.3419
   -17.3329 -17.3291 -17.3229 -17.3208 -17.3125 -17.3110 -17.3109 -17.3092
   -17.3014 -17.3003 -17.2987 -17.2878 -17.2757 -17.2746 -17.2712 -17.2686
   -15.4004 -15.3227 -14.8627 -14.6761 -14.1880 -14.0674 -13.9526 -13.8085
   -13.6237 -13.5073 -13.3750 -13.3505 -12.9284 -12.8952 -12.5342 -12.4960
   -12.3950 -11.9337  -2.4765  -1.3081  -0.8738  -0.7528  -0.2916   0.1632
     0.2445   0.6194   0.6466   0.8100   0.8692   1.0012   1.0235   1.1481
     1.1902   1.6342   1.8119   1.9074   2.1246   2.1952   2.3231   2.6163
     2.7785   2.9891   3.0386   3.2199   3.2384   3.3397   3.4812   3.8033
     3.8122   3.8401   3.9122   4.0572   4.1154   4.1169   4.1610   4.2187
     4.2629   4.2903   4.3325   4.4557   4.4631   4.5227   4.5665   4.5682
     4.5773

          k = 0.0000 0.0275 0.0000 ( 44415 PWs)   bands (ev):

   -65.9774 -65.9614 -65.6666 -65.6501 -65.6074 -65.5912 -32.3275 -32.3110
   -32.2903 -32.2246 -32.1854 -32.1709 -32.1310 -32.1218 -32.0413 -31.9775
   -31.9717 -31.9263 -31.8737 -31.8347 -31.7666 -31.7025 -31.6115 -31.5803
   -30.3023 -30.1871 -29.8579 -29.7366 -29.6722 -29.2213 -17.7036 -17.7008
   -17.6999 -17.6989 -17.6982 -17.6902 -17.6844 -17.6806 -17.6788 -17.6676
   -17.6524 -17.6497 -17.6365 -17.6321 -17.3657 -17.3639 -17.3580 -17.3577
   -17.3528 -17.3515 -17.3496 -17.3494 -17.3469 -17.3453 -17.3433 -17.3419
   -17.3328 -17.3291 -17.3227 -17.3208 -17.3125 -17.3110 -17.3108 -17.3091
   -17.3014 -17.3002 -17.2986 -17.2878 -17.2757 -17.2746 -17.2712 -17.2685
   -15.4038 -15.3254 -14.8645 -14.6819 -14.1905 -14.0663 -13.9632 -13.8190
   -13.6232 -13.5107 -13.3779 -13.3531 -12.9287 -12.8990 -12.5344 -12.4965
   -12.3955 -11.9341  -2.3423  -1.2175  -0.7488  -0.6229  -0.1893   0.2305
     0.3774   0.6801   0.7295   0.8649   0.9685   1.0529   1.0795   1.2447
     1.2836   1.6507   1.8058   1.9579   2.0899   2.1058   2.2202   2.6151
     2.6840   2.8708   2.9159   3.1380   3.1488   3.2870   3.3590   3.6519
     3.6852   3.7792   3.7959   3.9763   4.0092   4.0676   4.0729   4.1739
     4.1809   4.3165   4.3601   4.3887   4.4326   4.4780   4.5461   4.5783
     4.5918

          k = 0.0000 0.0412 0.0000 ( 44405 PWs)   bands (ev):

   -65.9774 -65.9614 -65.6666 -65.6501 -65.6074 -65.5912 -32.3280 -32.3114
   -32.2902 -32.2260 -32.1853 -32.1714 -32.1310 -32.1223 -32.0413 -31.9797
   -31.9717 -31.9262 -31.8739 -31.8347 -31.7665 -31.7025 -31.6115 -31.5804
   -30.2991 -30.1842 -29.8572 -29.7358 -29.6708 -29.2211 -17.7035 -17.7008
   -17.6997 -17.6989 -17.6981 -17.6902 -17.6844 -17.6805 -17.6788 -17.6676
   -17.6522 -17.6497 -17.6365 -17.6320 -17.3657 -17.3639 -17.3580 -17.3577
   -17.3528 -17.3515 -17.3496 -17.3492 -17.3469 -17.3452 -17.3433 -17.3419
   -17.3328 -17.3290 -17.3225 -17.3208 -17.3125 -17.3110 -17.3108 -17.3090
   -17.3014 -17.3002 -17.2987 -17.2878 -17.2757 -17.2746 -17.2711 -17.2685
   -15.4085 -15.3290 -14.8669 -14.6899 -14.1938 -14.0650 -13.9777 -13.8330
   -13.6225 -13.5154 -13.3823 -13.3568 -12.9289 -12.9041 -12.5345 -12.4972
   -12.3963 -11.9346  -2.1366  -1.1057  -0.5542  -0.4179  -0.0369   0.3293
     0.5801   0.7759   0.8661   0.9521   1.0960   1.1340   1.2029   1.3337
     1.4622   1.6554   1.8197   1.9579   1.9625   2.0473   2.1523   2.4937
     2.5921   2.6930   2.7968   3.0031   3.0225   3.1768   3.3474   3.4212
     3.4787   3.6065   3.6288   3.7336   3.8587   3.8979   3.9984   4.0534
     4.0940   4.2699   4.3187   4.3544   4.4192   4.4923   4.5218   4.5954
     4.6081

          k = 0.0000 0.0550 0.0000 ( 44439 PWs)   bands (ev):

   -65.9774 -65.9614 -65.6666 -65.6501 -65.6074 -65.5912 -32.3285 -32.3117
   -32.2902 -32.2273 -32.1853 -32.1718 -32.1309 -32.1229 -32.0413 -31.9818
   -31.9717 -31.9261 -31.8740 -31.8348 -31.7665 -31.7025 -31.6114 -31.5804
   -30.2960 -30.1812 -29.8564 -29.7351 -29.6694 -29.2209 -17.7035 -17.7008
   -17.6996 -17.6989 -17.6981 -17.6902 -17.6843 -17.6805 -17.6787 -17.6676
   -17.6520 -17.6497 -17.6365 -17.6320 -17.3657 -17.3639 -17.3580 -17.3577
   -17.3527 -17.3515 -17.3495 -17.3491 -17.3468 -17.3452 -17.3433 -17.3420
   -17.3328 -17.3290 -17.3223 -17.3208 -17.3124 -17.3110 -17.3109 -17.3090
   -17.3014 -17.3002 -17.2987 -17.2878 -17.2757 -17.2746 -17.2710 -17.2685
   -15.4132 -15.3327 -14.8694 -14.6978 -14.1971 -14.0637 -13.9923 -13.8466
   -13.6219 -13.5201 -13.3870 -13.3604 -12.9289 -12.9094 -12.5346 -12.4978
   -12.3970 -11.9351  -1.8902  -1.0249  -0.3194  -0.1611   0.1395   0.4415
     0.7816   0.8974   1.0626   1.0718   1.1795   1.2239   1.4001   1.4486
     1.6172   1.6314   1.7955   1.8236   1.9187   2.0477   2.1321   2.3383
     2.4977   2.5668   2.6875   2.8456   2.9182   3.0772   3.1555   3.1800
     3.2344   3.2659   3.4257   3.5216   3.6817   3.7074   3.7972   3.9965
     4.1139   4.1964   4.2020   4.3464   4.3924   4.4409   4.5640   4.5894
     4.6183

          k = 0.0000 0.0687 0.0000 ( 44485 PWs)   bands (ev):

   -65.9774 -65.9614 -65.6666 -65.6501 -65.6074 -65.5912 -32.3288 -32.3120
   -32.2902 -32.2283 -32.1853 -32.1722 -32.1309 -32.1233 -32.0413 -31.9834
   -31.9717 -31.9260 -31.8741 -31.8349 -31.7665 -31.7025 -31.6114 -31.5804
   -30.2937 -30.1791 -29.8559 -29.7346 -29.6684 -29.2207 -17.7035 -17.7008
   -17.6995 -17.6989 -17.6981 -17.6902 -17.6843 -17.6805 -17.6788 -17.6676
   -17.6519 -17.6497 -17.6365 -17.6320 -17.3657 -17.3639 -17.3580 -17.3577
   -17.3528 -17.3515 -17.3495 -17.3490 -17.3468 -17.3451 -17.3433 -17.3420
   -17.3328 -17.3290 -17.3221 -17.3208 -17.3124 -17.3110 -17.3109 -17.3090
   -17.3014 -17.3002 -17.2987 -17.2878 -17.2757 -17.2747 -17.2709 -17.2685
   -15.4167 -15.3353 -14.8712 -14.7035 -14.1995 -14.0628 -14.0030 -13.8563
   -13.6214 -13.5235 -13.3906 -13.3630 -12.9288 -12.9132 -12.5347 -12.4983
   -12.3976 -11.9355  -1.6580  -1.0138  -0.1075   0.0928   0.3043   0.5393
     0.8550   1.0252   1.1804   1.1933   1.2777   1.3228   1.5082   1.5381
     1.6135   1.7123   1.7539   1.7609   1.9896   2.0919   2.1010   2.2667
     2.4941   2.5500   2.5935   2.6715   2.7917   2.8148   2.8933   2.9020
     3.0205   3.0318   3.2591   3.3932   3.4727   3.5111   3.7683   4.0131
     4.0743   4.1269   4.1588   4.2643   4.4204   4.4596   4.5446   4.5463
     4.6220

          k = 0.0000-0.0825 0.0000 ( 44534 PWs)   bands (ev):

   -65.9774 -65.9614 -65.6666 -65.6501 -65.6074 -65.5912 -32.3290 -32.3121
   -32.2902 -32.2287 -32.1853 -32.1723 -32.1309 -32.1235 -32.0413 -31.9839
   -31.9717 -31.9260 -31.8742 -31.8349 -31.7666 -31.7025 -31.6114 -31.5804
   -30.2928 -30.1783 -29.8557 -29.7344 -29.6680 -29.2207 -17.7035 -17.7009
   -17.6995 -17.6989 -17.6981 -17.6902 -17.6843 -17.6805 -17.6788 -17.6676
   -17.6519 -17.6497 -17.6365 -17.6320 -17.3658 -17.3639 -17.3580 -17.3577
   -17.3528 -17.3516 -17.3495 -17.3490 -17.3468 -17.3451 -17.3433 -17.3420
   -17.3328 -17.3290 -17.3221 -17.3208 -17.3124 -17.3110 -17.3109 -17.3090
   -17.3014 -17.3002 -17.2987 -17.2878 -17.2756 -17.2747 -17.2709 -17.2685
   -15.4180 -15.3363 -14.8718 -14.7056 -14.2004 -14.0625 -14.0070 -13.8598
   -13.6212 -13.5248 -13.3919 -13.3640 -12.9287 -12.9146 -12.5347 -12.4985
   -12.3978 -11.9356  -1.5484  -1.0342  -0.0173   0.2121   0.3909   0.5808
     0.8326   1.0985   1.1841   1.2198   1.3469   1.3513   1.4138   1.5873
     1.7223   1.7500   1.7899   1.8233   1.9577   2.0872   2.1899   2.2730
     2.4525   2.4823   2.5856   2.6228   2.6428   2.6973   2.7198   2.8721
     2.9545   2.9792   3.1095   3.3418   3.3759   3.4445   3.8104   3.9974
     4.0353   4.1320   4.1449   4.2386   4.4303   4.4823   4.5265   4.5295
     4.6240

          k = 0.0134 0.0069 0.0000 ( 44426 PWs)   bands (ev):

   -65.9771 -65.9617 -65.6663 -65.6504 -65.6071 -65.5915 -32.3264 -32.3051
   -32.2910 -32.2227 -32.1862 -32.1697 -32.1318 -32.1153 -32.0357 -31.9777
   -31.9746 -31.9274 -31.8729 -31.8353 -31.7728 -31.7084 -31.6110 -31.5809
   -30.2981 -30.1826 -29.8666 -29.7454 -29.6663 -29.2298 -17.7035 -17.7009
   -17.6999 -17.6990 -17.6981 -17.6903 -17.6844 -17.6806 -17.6786 -17.6678
   -17.6523 -17.6495 -17.6368 -17.6325 -17.3656 -17.3637 -17.3581 -17.3577
   -17.3528 -17.3517 -17.3495 -17.3493 -17.3470 -17.3452 -17.3433 -17.3420
   -17.3331 -17.3295 -17.3227 -17.3206 -17.3126 -17.3108 -17.3107 -17.3093
   -17.3015 -17.3002 -17.2989 -17.2881 -17.2757 -17.2747 -17.2712 -17.2686
   -15.3582 -15.2804 -14.8207 -14.6670 -14.1969 -14.0606 -13.9429 -13.7985
   -13.6318 -13.5154 -13.3669 -13.3592 -12.9221 -12.9034 -12.5583 -12.5413
   -12.4581 -11.9970  -2.4692  -1.2904  -0.8655  -0.7660  -0.2790   0.1535
     0.2435   0.6468   0.6714   0.8315   0.8702   1.0080   1.0331   1.1227
     1.2438   1.6581   1.8244   1.8948   2.1576   2.2218   2.3697   2.6270
     2.8452   2.9323   3.1177   3.2805   3.2860   3.3523   3.5802   3.7071
     3.7889   3.8468   3.8802   4.0086   4.0588   4.1099   4.1113   4.1819
     4.2516   4.2952   4.3537   4.3897   4.4530   4.4846   4.5313   4.5468
     4.6048

          k = 0.0134 0.0206 0.0000 ( 44442 PWs)   bands (ev):

   -65.9771 -65.9617 -65.6663 -65.6504 -65.6071 -65.5915 -32.3267 -32.3053
   -32.2910 -32.2234 -32.1861 -32.1700 -32.1318 -32.1156 -32.0357 -31.9777
   -31.9757 -31.9273 -31.8730 -31.8353 -31.7728 -31.7085 -31.6110 -31.5809
   -30.2965 -30.1811 -29.8663 -29.7450 -29.6656 -29.2297 -17.7035 -17.7009
   -17.6999 -17.6990 -17.6981 -17.6903 -17.6844 -17.6806 -17.6786 -17.6678
   -17.6522 -17.6495 -17.6368 -17.6325 -17.3656 -17.3637 -17.3581 -17.3577
   -17.3529 -17.3517 -17.3495 -17.3492 -17.3470 -17.3452 -17.3433 -17.3420
   -17.3331 -17.3295 -17.3226 -17.3206 -17.3126 -17.3108 -17.3107 -17.3093
   -17.3015 -17.3002 -17.2989 -17.2881 -17.2757 -17.2747 -17.2712 -17.2686
   -15.3606 -15.2823 -14.8219 -14.6710 -14.1985 -14.0598 -13.9502 -13.8059
   -13.6314 -13.5176 -13.3689 -13.3609 -12.9223 -12.9059 -12.5586 -12.5414
   -12.4584 -11.9972  -2.3782  -1.2255  -0.7809  -0.6818  -0.2108   0.2049
     0.3249   0.7028   0.7122   0.8676   0.9393   1.0429   1.0615   1.2238
     1.2786   1.6721   1.8181   1.9294   2.1387   2.1653   2.2835   2.6426
     2.7776   2.8756   3.0061   3.1852   3.2082   3.3812   3.4081   3.6172
     3.6977   3.8161   3.8274   3.9653   3.9927   4.0714   4.1374   4.1888
     4.2545   4.2646   4.3171   4.4015   4.4041   4.4341   4.5429   4.5450
     4.5941

          k = 0.0134 0.0344 0.0000 ( 44451 PWs)   bands (ev):

   -65.9771 -65.9617 -65.6663 -65.6504 -65.6071 -65.5915 -32.3271 -32.3056
   -32.2909 -32.2246 -32.1861 -32.1705 -32.1318 -32.1161 -32.0357 -31.9779
   -31.9774 -31.9272 -31.8731 -31.8354 -31.7728 -31.7085 -31.6109 -31.5809
   -30.2937 -30.1786 -29.8657 -29.7444 -29.6644 -29.2295 -17.7035 -17.7009
   -17.6998 -17.6989 -17.6980 -17.6903 -17.6843 -17.6806 -17.6786 -17.6678
   -17.6520 -17.6495 -17.6368 -17.6325 -17.3656 -17.3637 -17.3581 -17.3576
   -17.3529 -17.3517 -17.3495 -17.3491 -17.3469 -17.3452 -17.3433 -17.3420
   -17.3331 -17.3294 -17.3224 -17.3206 -17.3126 -17.3108 -17.3107 -17.3093
   -17.3015 -17.3001 -17.2989 -17.2881 -17.2757 -17.2747 -17.2711 -17.2685
   -15.3647 -15.2856 -14.8241 -14.6780 -14.2013 -14.0586 -13.9630 -13.8184
   -13.6309 -13.5215 -13.3725 -13.3638 -12.9226 -12.9104 -12.5591 -12.5415
   -12.4589 -11.9976  -2.2066  -1.1189  -0.6192  -0.5198  -0.0846   0.2944
     0.4845   0.7900   0.8127   0.9375   1.0606   1.1113   1.1468   1.3471
     1.3836   1.6875   1.8159   1.9846   2.0552   2.0673   2.1972   2.5803
     2.6796   2.7394   2.8711   3.0382   3.0779   3.2752   3.3887   3.4471
     3.5342   3.6796   3.7138   3.7807   3.8761   4.0200   4.0438   4.1152
     4.1413   4.2624   4.2765   4.3970   4.4239   4.4718   4.4851   4.5192
     4.5902

          k = 0.0134 0.0481 0.0000 ( 44446 PWs)   bands (ev):

   -65.9771 -65.9617 -65.6663 -65.6504 -65.6071 -65.5915 -32.3276 -32.3059
   -32.2909 -32.2260 -32.1860 -32.1709 -32.1317 -32.1166 -32.0357 -31.9798
   -31.9776 -31.9270 -31.8733 -31.8354 -31.7728 -31.7084 -31.6109 -31.5809
   -30.2905 -30.1756 -29.8649 -29.7437 -29.6630 -29.2293 -17.7035 -17.7009
   -17.6997 -17.6989 -17.6980 -17.6903 -17.6843 -17.6806 -17.6786 -17.6678
   -17.6518 -17.6495 -17.6367 -17.6324 -17.3656 -17.3637 -17.3581 -17.3576
   -17.3529 -17.3517 -17.3494 -17.3489 -17.3468 -17.3451 -17.3432 -17.3420
   -17.3330 -17.3294 -17.3221 -17.3206 -17.3126 -17.3108 -17.3107 -17.3092
   -17.3015 -17.3001 -17.2989 -17.2881 -17.2757 -17.2747 -17.2710 -17.2685
   -15.3695 -15.2893 -14.8266 -14.6860 -14.2045 -14.0572 -13.9777 -13.8325
   -13.6302 -13.5260 -13.3771 -13.3672 -12.9227 -12.9155 -12.5597 -12.5417
   -12.4595 -11.9980  -1.9769  -1.0162  -0.3987  -0.2956   0.0789   0.4058
     0.6921   0.8972   0.9727   1.0351   1.1754   1.2047   1.3036   1.4461
     1.5593   1.6760   1.8565   1.9055   1.9202   2.0674   2.1475   2.4292
     2.5491   2.5686   2.7535   2.9064   2.9757   3.1503   3.1896   3.2828
     3.3313   3.4539   3.4852   3.5883   3.7534   3.8191   3.9445   3.9814
     4.0957   4.1471   4.2697   4.3506   4.4029   4.4577   4.5231   4.5537
     4.6010

          k = 0.0134 0.0618 0.0000 ( 44463 PWs)   bands (ev):

   -65.9771 -65.9617 -65.6663 -65.6504 -65.6071 -65.5915 -32.3280 -32.3062
   -32.2908 -32.2272 -32.1860 -32.1714 -32.1317 -32.1171 -32.0357 -31.9817
   -31.9776 -31.9269 -31.8734 -31.8355 -31.7728 -31.7085 -31.6108 -31.5809
   -30.2878 -30.1730 -29.8643 -29.7431 -29.6618 -29.2291 -17.7034 -17.7009
   -17.6995 -17.6989 -17.6980 -17.6903 -17.6842 -17.6806 -17.6786 -17.6678
   -17.6517 -17.6495 -17.6367 -17.6324 -17.3655 -17.3637 -17.3581 -17.3576
   -17.3529 -17.3517 -17.3494 -17.3488 -17.3468 -17.3451 -17.3432 -17.3420
   -17.3330 -17.3294 -17.3219 -17.3206 -17.3125 -17.3108 -17.3107 -17.3092
   -17.3015 -17.3001 -17.2989 -17.2881 -17.2756 -17.2747 -17.2709 -17.2686
   -15.3737 -15.2925 -14.8288 -14.6929 -14.2073 -14.0561 -13.9905 -13.8443
   -13.6297 -13.5299 -13.3813 -13.3701 -12.9226 -12.9200 -12.5602 -12.5417
   -12.4601 -11.9983  -1.7295  -0.9687  -0.1625  -0.0428   0.2473   0.5176
     0.8483   1.0177   1.1431   1.1503   1.2761   1.2906   1.5017   1.5488
     1.5981   1.7157   1.7889   1.7917   2.0238   2.0293   2.1335   2.2930
     2.4730   2.4810   2.6384   2.7438   2.8446   2.9170   2.9779   2.9953
     3.0947   3.1669   3.3999   3.4307   3.5660   3.5921   3.8241   3.9648
     4.0682   4.1152   4.2042   4.2528   4.4024   4.4572   4.5348   4.5584
     4.6037

          k = 0.0134 0.0756 0.0000 ( 44458 PWs)   bands (ev):

   -65.9771 -65.9617 -65.6663 -65.6504 -65.6071 -65.5915 -32.3283 -32.3064
   -32.2908 -32.2278 -32.1859 -32.1716 -32.1317 -32.1174 -32.0357 -31.9828
   -31.9776 -31.9268 -31.8735 -31.8355 -31.7728 -31.7085 -31.6108 -31.5809
   -30.2862 -30.1716 -29.8640 -29.7428 -29.6611 -29.2290 -17.7034 -17.7009
   -17.6995 -17.6989 -17.6979 -17.6903 -17.6842 -17.6806 -17.6786 -17.6678
   -17.6516 -17.6495 -17.6367 -17.6324 -17.3655 -17.3637 -17.3581 -17.3576
   -17.3529 -17.3517 -17.3493 -17.3487 -17.3468 -17.3450 -17.3432 -17.3420
   -17.3330 -17.3294 -17.3218 -17.3205 -17.3125 -17.3108 -17.3107 -17.3092
   -17.3015 -17.3001 -17.2989 -17.2881 -17.2756 -17.2747 -17.2708 -17.2686
   -15.3761 -15.2943 -14.8300 -14.6969 -14.2089 -14.0555 -13.9979 -13.8509
   -13.6294 -13.5321 -13.3838 -13.3718 -12.9226 -12.9225 -12.5605 -12.5418
   -12.4604 -11.9985  -1.5414  -0.9853   0.0047   0.1569   0.3704   0.5951
     0.8673   1.1135   1.1584   1.2627   1.3316   1.4107   1.5070   1.5725
     1.6912   1.7744   1.8156   1.8282   1.9689   2.1071   2.1900   2.2592
     2.4237   2.4827   2.5078   2.5534   2.6240   2.6543   2.8742   2.8794
     2.9996   3.0245   3.1981   3.3501   3.3804   3.4930   3.8226   4.0051
     4.0271   4.1280   4.1517   4.1663   4.4044   4.4798   4.5232   4.5378
     4.6035

          k = 0.0134-0.0756 0.0000 ( 44458 PWs)   bands (ev):

   -65.9771 -65.9617 -65.6663 -65.6504 -65.6071 -65.5915 -32.3283 -32.3064
   -32.2908 -32.2278 -32.1859 -32.1716 -32.1317 -32.1174 -32.0357 -31.9828
   -31.9776 -31.9268 -31.8735 -31.8355 -31.7728 -31.7085 -31.6108 -31.5809
   -30.2862 -30.1716 -29.8640 -29.7428 -29.6611 -29.2290 -17.7034 -17.7009
   -17.6995 -17.6989 -17.6979 -17.6903 -17.6842 -17.6806 -17.6786 -17.6678
   -17.6516 -17.6495 -17.6367 -17.6324 -17.3655 -17.3637 -17.3581 -17.3576
   -17.3529 -17.3517 -17.3493 -17.3487 -17.3468 -17.3450 -17.3432 -17.3420
   -17.3330 -17.3294 -17.3218 -17.3205 -17.3125 -17.3108 -17.3107 -17.3092
   -17.3015 -17.3001 -17.2989 -17.2881 -17.2756 -17.2747 -17.2708 -17.2686
   -15.3761 -15.2943 -14.8300 -14.6969 -14.2089 -14.0555 -13.9979 -13.8509
   -13.6294 -13.5321 -13.3838 -13.3718 -12.9226 -12.9225 -12.5605 -12.5418
   -12.4604 -11.9985  -1.5414  -0.9853   0.0047   0.1569   0.3704   0.5951
     0.8673   1.1135   1.1584   1.2627   1.3316   1.4107   1.5070   1.5726
     1.6912   1.7744   1.8156   1.8282   1.9689   2.1071   2.1900   2.2592
     2.4237   2.4827   2.5078   2.5534   2.6240   2.6543   2.8742   2.8794
     2.9996   3.0245   3.1981   3.3501   3.3804   3.4930   3.8226   4.0051
     4.0271   4.1280   4.1517   4.1663   4.4044   4.4797   4.5233   4.5377
     4.6036

          k = 0.0134-0.0618 0.0000 ( 44463 PWs)   bands (ev):

   -65.9771 -65.9617 -65.6663 -65.6504 -65.6071 -65.5915 -32.3280 -32.3062
   -32.2908 -32.2272 -32.1860 -32.1714 -32.1317 -32.1171 -32.0357 -31.9817
   -31.9776 -31.9269 -31.8734 -31.8355 -31.7728 -31.7085 -31.6108 -31.5809
   -30.2878 -30.1730 -29.8643 -29.7431 -29.6618 -29.2291 -17.7034 -17.7009
   -17.6995 -17.6989 -17.6980 -17.6903 -17.6842 -17.6806 -17.6786 -17.6678
   -17.6517 -17.6495 -17.6367 -17.6324 -17.3655 -17.3637 -17.3581 -17.3576
   -17.3529 -17.3517 -17.3494 -17.3488 -17.3468 -17.3451 -17.3432 -17.3420
   -17.3330 -17.3294 -17.3219 -17.3206 -17.3125 -17.3108 -17.3107 -17.3092
   -17.3015 -17.3001 -17.2989 -17.2881 -17.2756 -17.2747 -17.2709 -17.2686
   -15.3737 -15.2925 -14.8288 -14.6929 -14.2073 -14.0561 -13.9905 -13.8443
   -13.6297 -13.5299 -13.3813 -13.3701 -12.9226 -12.9200 -12.5602 -12.5417
   -12.4601 -11.9983  -1.7295  -0.9687  -0.1625  -0.0428   0.2473   0.5176
     0.8483   1.0177   1.1432   1.1503   1.2761   1.2906   1.5018   1.5488
     1.5981   1.7157   1.7889   1.7917   2.0238   2.0293   2.1335   2.2930
     2.4730   2.4810   2.6384   2.7438   2.8446   2.9170   2.9779   2.9953
     3.0947   3.1669   3.3999   3.4307   3.5660   3.5921   3.8241   3.9648
     4.0682   4.1154   4.2042   4.2528   4.4024   4.4572   4.5351   4.5585
     4.6053

          k = 0.0134-0.0481 0.0000 ( 44446 PWs)   bands (ev):

   -65.9771 -65.9617 -65.6663 -65.6504 -65.6071 -65.5915 -32.3276 -32.3059
   -32.2909 -32.2260 -32.1860 -32.1709 -32.1317 -32.1166 -32.0357 -31.9798
   -31.9776 -31.9270 -31.8733 -31.8354 -31.7728 -31.7084 -31.6109 -31.5809
   -30.2905 -30.1756 -29.8649 -29.7437 -29.6630 -29.2293 -17.7035 -17.7009
   -17.6997 -17.6989 -17.6980 -17.6903 -17.6843 -17.6806 -17.6786 -17.6678
   -17.6518 -17.6495 -17.6367 -17.6324 -17.3656 -17.3637 -17.3581 -17.3576
   -17.3529 -17.3517 -17.3494 -17.3489 -17.3468 -17.3451 -17.3432 -17.3420
   -17.3330 -17.3294 -17.3221 -17.3206 -17.3126 -17.3108 -17.3107 -17.3092
   -17.3015 -17.3001 -17.2989 -17.2881 -17.2757 -17.2747 -17.2710 -17.2685
   -15.3695 -15.2893 -14.8266 -14.6860 -14.2045 -14.0572 -13.9777 -13.8325
   -13.6302 -13.5260 -13.3771 -13.3672 -12.9227 -12.9155 -12.5597 -12.5417
   -12.4595 -11.9980  -1.9769  -1.0162  -0.3987  -0.2956   0.0788   0.4058
     0.6921   0.8972   0.9727   1.0351   1.1754   1.2047   1.3036   1.4461
     1.5593   1.6760   1.8565   1.9055   1.9202   2.0674   2.1475   2.4292
     2.5491   2.5686   2.7535   2.9064   2.9757   3.1503   3.1896   3.2828
     3.3313   3.4538   3.4851   3.5883   3.7534   3.8191   3.9445   3.9814
     4.0957   4.1471   4.2697   4.3508   4.4029   4.4578   4.5236   4.5540
     4.6005

          k = 0.0134-0.0344 0.0000 ( 44451 PWs)   bands (ev):

   -65.9771 -65.9617 -65.6663 -65.6504 -65.6071 -65.5915 -32.3271 -32.3056
   -32.2909 -32.2246 -32.1861 -32.1705 -32.1318 -32.1161 -32.0357 -31.9779
   -31.9774 -31.9272 -31.8731 -31.8354 -31.7728 -31.7085 -31.6109 -31.5809
   -30.2937 -30.1786 -29.8657 -29.7444 -29.6644 -29.2295 -17.7035 -17.7009
   -17.6998 -17.6989 -17.6980 -17.6903 -17.6843 -17.6806 -17.6786 -17.6678
   -17.6520 -17.6495 -17.6368 -17.6325 -17.3656 -17.3637 -17.3581 -17.3576
   -17.3529 -17.3517 -17.3495 -17.3491 -17.3469 -17.3452 -17.3433 -17.3420
   -17.3331 -17.3294 -17.3224 -17.3206 -17.3126 -17.3108 -17.3107 -17.3093
   -17.3015 -17.3001 -17.2989 -17.2881 -17.2757 -17.2747 -17.2711 -17.2685
   -15.3647 -15.2856 -14.8241 -14.6780 -14.2013 -14.0586 -13.9630 -13.8184
   -13.6309 -13.5215 -13.3725 -13.3638 -12.9226 -12.9104 -12.5591 -12.5415
   -12.4589 -11.9976  -2.2066  -1.1189  -0.6192  -0.5198  -0.0846   0.2944
     0.4845   0.7900   0.8127   0.9375   1.0606   1.1113   1.1468   1.3471
     1.3836   1.6875   1.8159   1.9846   2.0552   2.0673   2.1972   2.5803
     2.6796   2.7394   2.8711   3.0381   3.0779   3.2752   3.3887   3.4471
     3.5342   3.6796   3.7138   3.7807   3.8761   4.0200   4.0438   4.1152
     4.1413   4.2624   4.2764   4.3973   4.4241   4.4720   4.4855   4.5195
     4.5918

          k = 0.0134-0.0206 0.0000 ( 44442 PWs)   bands (ev):

   -65.9771 -65.9617 -65.6663 -65.6504 -65.6071 -65.5915 -32.3267 -32.3053
   -32.2910 -32.2234 -32.1861 -32.1700 -32.1318 -32.1156 -32.0357 -31.9777
   -31.9757 -31.9273 -31.8730 -31.8353 -31.7728 -31.7085 -31.6110 -31.5809
   -30.2965 -30.1811 -29.8663 -29.7450 -29.6656 -29.2297 -17.7035 -17.7009
   -17.6999 -17.6990 -17.6981 -17.6903 -17.6844 -17.6806 -17.6786 -17.6678
   -17.6522 -17.6495 -17.6368 -17.6325 -17.3656 -17.3637 -17.3581 -17.3577
   -17.3529 -17.3517 -17.3495 -17.3492 -17.3470 -17.3452 -17.3433 -17.3420
   -17.3331 -17.3295 -17.3226 -17.3206 -17.3126 -17.3108 -17.3107 -17.3093
   -17.3015 -17.3002 -17.2989 -17.2881 -17.2757 -17.2747 -17.2712 -17.2686
   -15.3606 -15.2823 -14.8219 -14.6710 -14.1985 -14.0598 -13.9502 -13.8059
   -13.6314 -13.5176 -13.3689 -13.3609 -12.9223 -12.9059 -12.5586 -12.5414
   -12.4584 -11.9972  -2.3782  -1.2255  -0.7809  -0.6818  -0.2108   0.2049
     0.3249   0.7028   0.7121   0.8676   0.9393   1.0429   1.0615   1.2238
     1.2786   1.6721   1.8181   1.9294   2.1387   2.1653   2.2835   2.6426
     2.7776   2.8756   3.0061   3.1852   3.2082   3.3812   3.4082   3.6172
     3.6977   3.8161   3.8274   3.9653   3.9927   4.0714   4.1375   4.1888
     4.2545   4.2646   4.3172   4.4016   4.4040   4.4338   4.5430   4.5454
     4.5943

          k = 0.0134-0.0069 0.0000 ( 44426 PWs)   bands (ev):

   -65.9771 -65.9617 -65.6663 -65.6504 -65.6071 -65.5915 -32.3264 -32.3051
   -32.2910 -32.2227 -32.1862 -32.1697 -32.1318 -32.1153 -32.0357 -31.9777
   -31.9746 -31.9274 -31.8729 -31.8353 -31.7728 -31.7084 -31.6110 -31.5809
   -30.2981 -30.1826 -29.8666 -29.7454 -29.6663 -29.2298 -17.7035 -17.7009
   -17.6999 -17.6990 -17.6981 -17.6903 -17.6844 -17.6806 -17.6786 -17.6678
   -17.6523 -17.6495 -17.6368 -17.6325 -17.3656 -17.3637 -17.3581 -17.3577
   -17.3528 -17.3517 -17.3495 -17.3493 -17.3470 -17.3452 -17.3433 -17.3420
   -17.3331 -17.3295 -17.3227 -17.3206 -17.3126 -17.3108 -17.3107 -17.3093
   -17.3015 -17.3002 -17.2989 -17.2881 -17.2757 -17.2747 -17.2712 -17.2686
   -15.3582 -15.2804 -14.8207 -14.6670 -14.1969 -14.0606 -13.9429 -13.7985
   -13.6318 -13.5154 -13.3669 -13.3592 -12.9221 -12.9034 -12.5583 -12.5413
   -12.4581 -11.9970  -2.4692  -1.2904  -0.8655  -0.7660  -0.2790   0.1535
     0.2435   0.6468   0.6714   0.8315   0.8702   1.0080   1.0331   1.1227
     1.2438   1.6581   1.8244   1.8948   2.1576   2.2218   2.3696   2.6270
     2.8452   2.9323   3.1177   3.2805   3.2860   3.3523   3.5802   3.7072
     3.7889   3.8468   3.8802   4.0086   4.0588   4.1098   4.1113   4.1819
     4.2516   4.2951   4.3537   4.3897   4.4531   4.4852   4.5315   4.5468
     4.6054

          k = 0.0269 0.0137 0.0000 ( 44438 PWs)   bands (ev):

   -65.9763 -65.9625 -65.6655 -65.6512 -65.6063 -65.5923 -32.3247 -32.2929
   -32.2886 -32.2211 -32.1883 -32.1679 -32.1340 -32.0981 -32.0192 -31.9951
   -31.9725 -31.9301 -31.8710 -31.8373 -31.7912 -31.7258 -31.6094 -31.5824
   -30.2764 -30.1608 -29.8899 -29.7690 -29.6450 -29.2538 -17.7034 -17.7010
   -17.6998 -17.6990 -17.6977 -17.6907 -17.6842 -17.6808 -17.6781 -17.6684
   -17.6513 -17.6489 -17.6374 -17.6336 -17.3651 -17.3630 -17.3584 -17.3574
   -17.3531 -17.3523 -17.3491 -17.3485 -17.3470 -17.3449 -17.3431 -17.3421
   -17.3337 -17.3306 -17.3219 -17.3200 -17.3129 -17.3103 -17.3102 -17.3099
   -17.3019 -17.2998 -17.2995 -17.2891 -17.2757 -17.2747 -17.2710 -17.2687
   -15.2370 -15.1583 -14.6984 -14.6463 -14.2252 -14.0394 -13.9255 -13.7805
   -13.6548 -13.5424 -13.3871 -13.3460 -12.9310 -12.9043 -12.7372 -12.6393
   -12.5622 -12.1786  -2.3119  -1.1392  -0.7151  -0.6849  -0.1411   0.2032
     0.3556   0.7308   0.8630   0.9452   0.9759   1.0796   1.0923   1.2096
     1.4416   1.7437   1.8576   1.9043   2.2167   2.2280   2.3554   2.6842
     2.7513   2.9125   3.1539   3.2619   3.2818   3.4236   3.4586   3.5199
     3.5746   3.7778   3.8203   3.8559   3.8618   3.9668   4.0729   4.0819
     4.1413   4.2097   4.2261   4.3542   4.3791   4.4601   4.4668   4.5696
     4.5803

          k = 0.0269 0.0275 0.0000 ( 44459 PWs)   bands (ev):

   -65.9763 -65.9625 -65.6655 -65.6512 -65.6063 -65.5923 -32.3250 -32.2929
   -32.2888 -32.2220 -32.1882 -32.1682 -32.1339 -32.0985 -32.0192 -31.9951
   -31.9740 -31.9299 -31.8711 -31.8373 -31.7912 -31.7258 -31.6094 -31.5824
   -30.2744 -30.1589 -29.8895 -29.7687 -29.6440 -29.2537 -17.7033 -17.7010
   -17.6998 -17.6990 -17.6976 -17.6907 -17.6842 -17.6808 -17.6781 -17.6684
   -17.6512 -17.6489 -17.6374 -17.6336 -17.3651 -17.3630 -17.3584 -17.3574
   -17.3531 -17.3523 -17.3491 -17.3484 -17.3469 -17.3449 -17.3431 -17.3422
   -17.3337 -17.3306 -17.3218 -17.3200 -17.3129 -17.3103 -17.3102 -17.3099
   -17.3019 -17.2998 -17.2995 -17.2891 -17.2757 -17.2747 -17.2710 -17.2687
   -15.2402 -15.1609 -14.7001 -14.6516 -14.2270 -14.0384 -13.9352 -13.7903
   -13.6544 -13.5448 -13.3887 -13.3486 -12.9342 -12.9045 -12.7374 -12.6394
   -12.5623 -12.1787  -2.1817  -1.0506  -0.5922  -0.5792  -0.0534   0.2863
     0.4508   0.8144   0.9211   0.9924   1.0748   1.1299   1.1466   1.3421
     1.4844   1.7625   1.8491   1.9476   2.1475   2.1678   2.2762   2.6421
     2.6915   2.8496   2.9906   3.0440   3.1779   3.2930   3.4065   3.4338
     3.5253   3.6780   3.7001   3.7816   3.8134   3.9419   4.0721   4.0766
     4.1768   4.1845   4.2780   4.3106   4.3249   4.4066   4.4837   4.5507
     4.5582

          k = 0.0269 0.0412 0.0000 ( 44472 PWs)   bands (ev):

   -65.9763 -65.9625 -65.6655 -65.6512 -65.6063 -65.5923 -32.3255 -32.2929
   -32.2891 -32.2232 -32.1880 -32.1687 -32.1338 -32.0990 -32.0192 -31.9950
   -31.9760 -31.9297 -31.8713 -31.8374 -31.7911 -31.7258 -31.6093 -31.5824
   -30.2715 -30.1562 -29.8890 -29.7682 -29.6428 -29.2536 -17.7033 -17.7010
   -17.6997 -17.6990 -17.6976 -17.6907 -17.6841 -17.6808 -17.6781 -17.6684
   -17.6510 -17.6489 -17.6374 -17.6336 -17.3651 -17.3631 -17.3584 -17.3574
   -17.3531 -17.3522 -17.3491 -17.3482 -17.3469 -17.3449 -17.3431 -17.3422
   -17.3337 -17.3306 -17.3215 -17.3200 -17.3129 -17.3103 -17.3102 -17.3098
   -17.3019 -17.2998 -17.2995 -17.2891 -17.2757 -17.2747 -17.2709 -17.2687
   -15.2446 -15.1644 -14.7024 -14.6589 -14.2295 -14.0371 -13.9485 -13.8033
   -13.6539 -13.5481 -13.3910 -13.3525 -12.9386 -12.9046 -12.7377 -12.6396
   -12.5624 -12.1787  -1.9815  -0.9408  -0.4145  -0.3987   0.0793   0.4029
     0.6055   0.9440   1.0076   1.0679   1.2035   1.2144   1.2561   1.5097
     1.5533   1.7726   1.8633   1.9772   2.0525   2.0798   2.2073   2.5210
     2.5432   2.6913   2.8556   2.8962   3.0921   3.0933   3.2422   3.3024
     3.3667   3.5204   3.5640   3.6641   3.7208   3.9197   3.9492   3.9911
     4.0123   4.2173   4.2224   4.2927   4.3797   4.4599   4.4849   4.5241
     4.5377

          k = 0.0269 0.0550 0.0000 ( 44460 PWs)   bands (ev):

   -65.9763 -65.9625 -65.6655 -65.6512 -65.6063 -65.5923 -32.3259 -32.2928
   -32.2895 -32.2245 -32.1879 -32.1692 -32.1338 -32.0995 -32.0192 -31.9950
   -31.9780 -31.9294 -31.8714 -31.8374 -31.7910 -31.7258 -31.6093 -31.5825
   -30.2687 -30.1536 -29.8885 -29.7677 -29.6415 -29.2535 -17.7033 -17.7010
   -17.6996 -17.6989 -17.6975 -17.6907 -17.6841 -17.6808 -17.6781 -17.6684
   -17.6509 -17.6488 -17.6374 -17.6336 -17.3650 -17.3631 -17.3584 -17.3574
   -17.3531 -17.3522 -17.3490 -17.3481 -17.3469 -17.3449 -17.3431 -17.3422
   -17.3337 -17.3306 -17.3213 -17.3200 -17.3129 -17.3103 -17.3102 -17.3098
   -17.3019 -17.2998 -17.2995 -17.2891 -17.2756 -17.2747 -17.2708 -17.2687
   -15.2490 -15.1678 -14.7048 -14.6661 -14.2319 -14.0359 -13.9618 -13.8159
   -13.6534 -13.5515 -13.3932 -13.3566 -12.9430 -12.9045 -12.7380 -12.6398
   -12.5624 -12.1788  -1.7404  -0.8614  -0.2137  -0.1600   0.2338   0.5285
     0.7896   1.0874   1.0990   1.1711   1.3046   1.3229   1.4140   1.6430
     1.6470   1.7582   1.8792   1.9218   2.0072   2.0737   2.1688   2.3654
     2.4012   2.4854   2.7476   2.7880   2.8385   2.9739   3.0159   3.0487
     3.1426   3.3464   3.4727   3.4851   3.6724   3.7533   3.8368   3.8679
     4.0134   4.0961   4.1814   4.3351   4.3839   4.4113   4.4880   4.5584
     4.5725

          k = 0.0269 0.0687 0.0000 ( 44449 PWs)   bands (ev):

   -65.9763 -65.9625 -65.6655 -65.6512 -65.6063 -65.5923 -32.3262 -32.2928
   -32.2897 -32.2254 -32.1878 -32.1695 -32.1338 -32.0999 -32.0192 -31.9949
   -31.9794 -31.9293 -31.8715 -31.8375 -31.7910 -31.7258 -31.6093 -31.5825
   -30.2666 -30.1516 -29.8881 -29.7673 -29.6405 -29.2534 -17.7032 -17.7010
   -17.6995 -17.6989 -17.6975 -17.6907 -17.6840 -17.6808 -17.6780 -17.6684
   -17.6508 -17.6488 -17.6374 -17.6336 -17.3650 -17.3630 -17.3584 -17.3574
   -17.3531 -17.3522 -17.3489 -17.3480 -17.3469 -17.3448 -17.3430 -17.3422
   -17.3337 -17.3306 -17.3212 -17.3199 -17.3129 -17.3103 -17.3101 -17.3098
   -17.3019 -17.2998 -17.2995 -17.2891 -17.2756 -17.2747 -17.2708 -17.2687
   -15.2522 -15.1704 -14.7065 -14.6714 -14.2337 -14.0351 -13.9716 -13.8249
   -13.6531 -13.5539 -13.3949 -13.3598 -12.9462 -12.9043 -12.7382 -12.6400
   -12.5625 -12.1789  -1.5124  -0.8512  -0.0260   0.0640   0.3726   0.6317
     0.9149   1.1488   1.1651   1.2917   1.4098   1.4401   1.5518   1.6600
     1.6814   1.8385   1.8435   1.8901   2.0105   2.1551   2.1613   2.2641
     2.3454   2.4192   2.4732   2.5912   2.6267   2.7025   2.8634   2.9104
     3.0824   3.1652   3.3049   3.3652   3.5206   3.6319   3.8155   3.8666
     4.0296   4.0495   4.1289   4.2736   4.3368   4.4216   4.5061   4.5516
     4.5875

          k = 0.0269 0.0825 0.0000 ( 44464 PWs)   bands (ev):

   -65.9763 -65.9625 -65.6655 -65.6512 -65.6063 -65.5923 -32.3264 -32.2928
   -32.2898 -32.2257 -32.1878 -32.1696 -32.1337 -32.1001 -32.0192 -31.9949
   -31.9799 -31.9292 -31.8715 -31.8375 -31.7909 -31.7258 -31.6093 -31.5825
   -30.2658 -30.1509 -29.8880 -29.7672 -29.6402 -29.2533 -17.7032 -17.7010
   -17.6994 -17.6989 -17.6975 -17.6907 -17.6840 -17.6808 -17.6780 -17.6684
   -17.6508 -17.6488 -17.6374 -17.6336 -17.3650 -17.3630 -17.3584 -17.3574
   -17.3531 -17.3522 -17.3489 -17.3480 -17.3469 -17.3448 -17.3430 -17.3422
   -17.3337 -17.3306 -17.3211 -17.3199 -17.3129 -17.3103 -17.3101 -17.3098
   -17.3019 -17.2998 -17.2995 -17.2891 -17.2756 -17.2747 -17.2708 -17.2687
   -15.2534 -15.1713 -14.7071 -14.6733 -14.2344 -14.0347 -13.9753 -13.8282
   -13.6529 -13.5548 -13.3955 -13.3610 -12.9474 -12.9042 -12.7383 -12.6400
   -12.5625 -12.1789  -1.4047  -0.8718   0.0582   0.1635   0.4356   0.6687
     0.9439   1.1419   1.1889   1.3634   1.4384   1.5096   1.5824   1.6184
     1.7949   1.8235   1.9291   1.9345   1.9514   2.1724   2.1753   2.2314
     2.2745   2.4243   2.4271   2.4543   2.4981   2.5249   2.8514   2.8998
     3.0678   3.0817   3.2169   3.2963   3.4047   3.6232   3.8051   3.9305
     3.9821   4.0698   4.1274   4.1969   4.3248   4.4261   4.5141   4.5399
     4.6022

          k = 0.0269-0.0687 0.0000 ( 44449 PWs)   bands (ev):

   -65.9763 -65.9625 -65.6655 -65.6512 -65.6063 -65.5923 -32.3262 -32.2928
   -32.2897 -32.2254 -32.1878 -32.1695 -32.1338 -32.0999 -32.0192 -31.9949
   -31.9794 -31.9293 -31.8715 -31.8375 -31.7910 -31.7258 -31.6093 -31.5825
   -30.2666 -30.1516 -29.8881 -29.7673 -29.6405 -29.2534 -17.7032 -17.7010
   -17.6995 -17.6989 -17.6975 -17.6907 -17.6840 -17.6808 -17.6780 -17.6684
   -17.6508 -17.6488 -17.6374 -17.6336 -17.3650 -17.3630 -17.3584 -17.3574
   -17.3531 -17.3522 -17.3489 -17.3480 -17.3469 -17.3448 -17.3430 -17.3422
   -17.3337 -17.3306 -17.3212 -17.3199 -17.3129 -17.3103 -17.3101 -17.3098
   -17.3019 -17.2998 -17.2995 -17.2891 -17.2756 -17.2747 -17.2708 -17.2687
   -15.2522 -15.1704 -14.7065 -14.6714 -14.2337 -14.0351 -13.9716 -13.8249
   -13.6531 -13.5539 -13.3949 -13.3598 -12.9462 -12.9043 -12.7382 -12.6400
   -12.5625 -12.1789  -1.5124  -0.8512  -0.0260   0.0640   0.3726   0.6317
     0.9149   1.1489   1.1651   1.2917   1.4098   1.4401   1.5518   1.6600
     1.6814   1.8385   1.8435   1.8900   2.0105   2.1551   2.1613   2.2641
     2.3454   2.4192   2.4732   2.5912   2.6266   2.7025   2.8634   2.9104
     3.0824   3.1652   3.3049   3.3652   3.5206   3.6319   3.8155   3.8666
     4.0296   4.0495   4.1289   4.2738   4.3369   4.4217   4.5059   4.5516
     4.5869

          k = 0.0269-0.0550 0.0000 ( 44460 PWs)   bands (ev):

   -65.9763 -65.9625 -65.6655 -65.6512 -65.6063 -65.5923 -32.3259 -32.2928
   -32.2895 -32.2245 -32.1879 -32.1692 -32.1338 -32.0995 -32.0192 -31.9950
   -31.9780 -31.9294 -31.8714 -31.8374 -31.7910 -31.7258 -31.6093 -31.5825
   -30.2687 -30.1536 -29.8885 -29.7677 -29.6415 -29.2535 -17.7033 -17.7010
   -17.6996 -17.6989 -17.6975 -17.6907 -17.6841 -17.6808 -17.6781 -17.6684
   -17.6509 -17.6488 -17.6374 -17.6336 -17.3650 -17.3631 -17.3584 -17.3574
   -17.3531 -17.3522 -17.3490 -17.3481 -17.3469 -17.3449 -17.3431 -17.3422
   -17.3337 -17.3306 -17.3213 -17.3200 -17.3129 -17.3103 -17.3102 -17.3098
   -17.3019 -17.2998 -17.2995 -17.2891 -17.2756 -17.2747 -17.2708 -17.2687
   -15.2490 -15.1678 -14.7048 -14.6661 -14.2319 -14.0359 -13.9618 -13.8159
   -13.6534 -13.5515 -13.3932 -13.3566 -12.9430 -12.9045 -12.7380 -12.6398
   -12.5624 -12.1788  -1.7404  -0.8614  -0.2137  -0.1600   0.2338   0.5285
     0.7896   1.0874   1.0990   1.1711   1.3046   1.3230   1.4140   1.6430
     1.6470   1.7582   1.8792   1.9218   2.0072   2.0737   2.1688   2.3654
     2.4011   2.4854   2.7476   2.7880   2.8385   2.9739   3.0159   3.0487
     3.1426   3.3464   3.4727   3.4850   3.6724   3.7533   3.8368   3.8678
     4.0134   4.0962   4.1815   4.3352   4.3840   4.4113   4.4880   4.5589
     4.5715

          k = 0.0269-0.0412 0.0000 ( 44472 PWs)   bands (ev):

   -65.9763 -65.9625 -65.6655 -65.6512 -65.6063 -65.5923 -32.3255 -32.2929
   -32.2891 -32.2232 -32.1880 -32.1687 -32.1338 -32.0990 -32.0192 -31.9950
   -31.9760 -31.9297 -31.8713 -31.8374 -31.7911 -31.7258 -31.6093 -31.5824
   -30.2715 -30.1562 -29.8890 -29.7682 -29.6428 -29.2536 -17.7033 -17.7010
   -17.6997 -17.6990 -17.6976 -17.6907 -17.6841 -17.6808 -17.6781 -17.6684
   -17.6510 -17.6489 -17.6374 -17.6336 -17.3651 -17.3631 -17.3584 -17.3574
   -17.3531 -17.3522 -17.3491 -17.3482 -17.3469 -17.3449 -17.3431 -17.3422
   -17.3337 -17.3306 -17.3215 -17.3200 -17.3129 -17.3103 -17.3102 -17.3098
   -17.3019 -17.2998 -17.2995 -17.2891 -17.2757 -17.2747 -17.2709 -17.2687
   -15.2446 -15.1644 -14.7024 -14.6589 -14.2295 -14.0371 -13.9485 -13.8033
   -13.6539 -13.5481 -13.3910 -13.3525 -12.9386 -12.9046 -12.7377 -12.6396
   -12.5624 -12.1787  -1.9815  -0.9408  -0.4145  -0.3987   0.0793   0.4029
     0.6055   0.9440   1.0076   1.0679   1.2035   1.2144   1.2561   1.5097
     1.5533   1.7726   1.8633   1.9772   2.0525   2.0798   2.2073   2.5210
     2.5432   2.6913   2.8556   2.8962   3.0921   3.0933   3.2422   3.3024
     3.3667   3.5204   3.5639   3.6641   3.7208   3.9197   3.9492   3.9910
     4.0122   4.2174   4.2223   4.2927   4.3797   4.4599   4.4849   4.5241
     4.5378

          k = 0.0269-0.0275 0.0000 ( 44459 PWs)   bands (ev):

   -65.9763 -65.9625 -65.6655 -65.6512 -65.6063 -65.5923 -32.3250 -32.2929
   -32.2888 -32.2220 -32.1882 -32.1682 -32.1339 -32.0985 -32.0192 -31.9951
   -31.9740 -31.9299 -31.8711 -31.8373 -31.7912 -31.7258 -31.6094 -31.5824
   -30.2744 -30.1589 -29.8895 -29.7687 -29.6440 -29.2537 -17.7033 -17.7010
   -17.6998 -17.6990 -17.6976 -17.6907 -17.6842 -17.6808 -17.6781 -17.6684
   -17.6512 -17.6489 -17.6374 -17.6336 -17.3651 -17.3630 -17.3584 -17.3574
   -17.3531 -17.3523 -17.3491 -17.3484 -17.3469 -17.3449 -17.3431 -17.3422
   -17.3337 -17.3306 -17.3218 -17.3200 -17.3129 -17.3103 -17.3102 -17.3099
   -17.3019 -17.2998 -17.2995 -17.2891 -17.2757 -17.2747 -17.2710 -17.2687
   -15.2402 -15.1609 -14.7001 -14.6516 -14.2270 -14.0384 -13.9352 -13.7903
   -13.6544 -13.5448 -13.3887 -13.3486 -12.9342 -12.9045 -12.7374 -12.6394
   -12.5623 -12.1787  -2.1817  -1.0506  -0.5922  -0.5792  -0.0534   0.2863
     0.4508   0.8144   0.9211   0.9924   1.0748   1.1299   1.1466   1.3421
     1.4844   1.7625   1.8491   1.9476   2.1475   2.1678   2.2762   2.6421
     2.6915   2.8496   2.9906   3.0440   3.1778   3.2930   3.4065   3.4338
     3.5252   3.6780   3.7001   3.7816   3.8134   3.9419   4.0722   4.0766
     4.1769   4.1846   4.2780   4.3106   4.3249   4.4066   4.4839   4.5510
     4.5579

          k = 0.0269-0.0137 0.0000 ( 44438 PWs)   bands (ev):

   -65.9763 -65.9625 -65.6655 -65.6512 -65.6063 -65.5923 -32.3247 -32.2929
   -32.2886 -32.2211 -32.1883 -32.1679 -32.1340 -32.0981 -32.0192 -31.9951
   -31.9725 -31.9301 -31.8710 -31.8373 -31.7912 -31.7258 -31.6094 -31.5824
   -30.2764 -30.1608 -29.8899 -29.7690 -29.6450 -29.2538 -17.7034 -17.7010
   -17.6998 -17.6990 -17.6977 -17.6907 -17.6842 -17.6808 -17.6781 -17.6684
   -17.6513 -17.6489 -17.6374 -17.6336 -17.3651 -17.3630 -17.3584 -17.3574
   -17.3531 -17.3523 -17.3491 -17.3485 -17.3470 -17.3449 -17.3431 -17.3421
   -17.3337 -17.3306 -17.3219 -17.3200 -17.3129 -17.3103 -17.3102 -17.3099
   -17.3019 -17.2998 -17.2995 -17.2891 -17.2757 -17.2747 -17.2710 -17.2687
   -15.2370 -15.1583 -14.6984 -14.6463 -14.2252 -14.0394 -13.9255 -13.7805
   -13.6548 -13.5424 -13.3871 -13.3460 -12.9310 -12.9043 -12.7372 -12.6393
   -12.5622 -12.1786  -2.3119  -1.1392  -0.7151  -0.6849  -0.1411   0.2032
     0.3556   0.7308   0.8630   0.9452   0.9759   1.0796   1.0923   1.2096
     1.4416   1.7437   1.8576   1.9043   2.2167   2.2280   2.3554   2.6842
     2.7513   2.9125   3.1539   3.2618   3.2817   3.4236   3.4585   3.5200
     3.5746   3.7779   3.8203   3.8559   3.8618   3.9669   4.0728   4.0819
     4.1413   4.2094   4.2260   4.3542   4.3792   4.4601   4.4671   4.5697
     4.5809

          k = 0.0269-0.0000 0.0000 ( 44446 PWs)   bands (ev):

   -65.9763 -65.9625 -65.6655 -65.6512 -65.6063 -65.5923 -32.3245 -32.2930
   -32.2885 -32.2207 -32.1883 -32.1677 -32.1340 -32.0980 -32.0192 -31.9951
   -31.9720 -31.9302 -31.8710 -31.8373 -31.7912 -31.7258 -31.6094 -31.5824
   -30.2772 -30.1615 -29.8900 -29.7692 -29.6453 -29.2538 -17.7034 -17.7010
   -17.6998 -17.6990 -17.6977 -17.6907 -17.6842 -17.6808 -17.6781 -17.6684
   -17.6514 -17.6489 -17.6374 -17.6336 -17.3651 -17.3631 -17.3584 -17.3574
   -17.3531 -17.3523 -17.3492 -17.3485 -17.3470 -17.3449 -17.3431 -17.3421
   -17.3337 -17.3306 -17.3220 -17.3200 -17.3129 -17.3103 -17.3102 -17.3099
   -17.3019 -17.2998 -17.2995 -17.2891 -17.2757 -17.2747 -17.2711 -17.2687
   -15.2358 -15.1574 -14.6978 -14.6443 -14.2245 -14.0397 -13.9219 -13.7769
   -13.6549 -13.5415 -13.3865 -13.3451 -12.9299 -12.9041 -12.7371 -12.6393
   -12.5621 -12.1786  -2.3570  -1.1725  -0.7571  -0.7211  -0.1715   0.1732
     0.3238   0.7022   0.8429   0.9290   0.9408   1.0631   1.0833   1.1529
     1.4272   1.7360   1.8615   1.8885   2.2416   2.2418   2.3967   2.6821
     2.7634   2.9394   3.2314   3.3325   3.3641   3.4340   3.4719   3.5876
     3.6836   3.7238   3.8145   3.8741   3.8771   3.9952   3.9980   4.0670
     4.1509   4.1748   4.2682   4.3740   4.4174   4.4495   4.5096   4.5536
     4.5898

          k = 0.0403 0.0206 0.0000 ( 44497 PWs)   bands (ev):

   -65.9751 -65.9638 -65.6642 -65.6525 -65.6050 -65.5936 -32.3219 -32.2959
   -32.2623 -32.2184 -32.1916 -32.1649 -32.1372 -32.0707 -32.0227 -31.9928
   -31.9690 -31.9344 -31.8680 -31.8404 -31.8203 -31.7533 -31.6069 -31.5849
   -30.2420 -30.1260 -29.9266 -29.8064 -29.6108 -29.2916 -17.7031 -17.7012
   -17.6997 -17.6990 -17.6970 -17.6913 -17.6839 -17.6811 -17.6773 -17.6693
   -17.6499 -17.6478 -17.6385 -17.6354 -17.3643 -17.3620 -17.3589 -17.3570
   -17.3535 -17.3532 -17.3486 -17.3472 -17.3470 -17.3445 -17.3427 -17.3424
   -17.3348 -17.3326 -17.3207 -17.3191 -17.3134 -17.3108 -17.3096 -17.3092
   -17.3026 -17.3005 -17.2992 -17.2906 -17.2756 -17.2748 -17.2708 -17.2690
   -15.0405 -14.9604 -14.6127 -14.5004 -14.2691 -14.0054 -13.8968 -13.7509
   -13.6911 -13.5841 -13.4302 -13.3124 -13.0128 -12.9741 -12.9193 -12.8696
   -12.5950 -12.4554  -2.0628  -0.9014  -0.5968  -0.4764   0.0529   0.2842
     0.5087   0.8641   1.0465   1.1396   1.1467   1.1984   1.2170   1.3421
     1.6982   1.8444   1.9040   1.9425   2.2160   2.2786   2.3655   2.5633
     2.6701   2.9543   3.0438   3.1108   3.1192   3.2454   3.4091   3.4317
     3.5567   3.6061   3.6710   3.7116   3.7810   3.7841   3.9478   3.9989
     4.0343   4.1127   4.1826   4.2557   4.2978   4.3966   4.4512   4.5460
     4.5696

          k = 0.0403 0.0344 0.0000 ( 44469 PWs)   bands (ev):

   -65.9751 -65.9638 -65.6642 -65.6525 -65.6050 -65.5936 -32.3222 -32.2959
   -32.2626 -32.2194 -32.1914 -32.1653 -32.1371 -32.0712 -32.0226 -31.9928
   -31.9707 -31.9340 -31.8681 -31.8404 -31.8201 -31.7533 -31.6069 -31.5849
   -30.2397 -30.1239 -29.9264 -29.8062 -29.6098 -29.2916 -17.7030 -17.7011
   -17.6996 -17.6990 -17.6969 -17.6913 -17.6838 -17.6811 -17.6773 -17.6693
   -17.6497 -17.6478 -17.6385 -17.6354 -17.3643 -17.3620 -17.3589 -17.3570
   -17.3535 -17.3531 -17.3486 -17.3471 -17.3469 -17.3445 -17.3427 -17.3424
   -17.3348 -17.3325 -17.3205 -17.3191 -17.3134 -17.3108 -17.3096 -17.3092
   -17.3026 -17.3005 -17.2992 -17.2906 -17.2756 -17.2748 -17.2708 -17.2690
   -15.0441 -14.9634 -14.6185 -14.5023 -14.2705 -14.0043 -13.9074 -13.7616
   -13.6908 -13.5856 -13.4307 -13.3151 -13.0123 -12.9772 -12.9190 -12.8699
   -12.5951 -12.4550  -1.9018  -0.8004  -0.5087  -0.3215   0.1311   0.4045
     0.5958   0.9641   1.1051   1.2154   1.2570   1.2577   1.2792   1.4936
     1.7255   1.8633   1.9361   1.9412   2.1730   2.1839   2.2923   2.5032
     2.5565   2.8179   2.8540   2.9453   3.0013   3.1987   3.2686   3.3182
     3.4017   3.5369   3.5551   3.6826   3.7122   3.8049   3.8757   3.9517
     4.0802   4.0989   4.2043   4.2710   4.2854   4.4289   4.4525   4.5156
     4.5874

          k = 0.0403 0.0481 0.0000 ( 44470 PWs)   bands (ev):

   -65.9751 -65.9638 -65.6642 -65.6525 -65.6050 -65.5936 -32.3227 -32.2957
   -32.2629 -32.2206 -32.1911 -32.1657 -32.1370 -32.0717 -32.0226 -31.9928
   -31.9726 -31.9336 -31.8682 -31.8405 -31.8200 -31.7533 -31.6068 -31.5849
   -30.2371 -30.1215 -29.9262 -29.8059 -29.6086 -29.2916 -17.7030 -17.7011
   -17.6996 -17.6990 -17.6969 -17.6913 -17.6838 -17.6811 -17.6773 -17.6693
   -17.6496 -17.6478 -17.6385 -17.6354 -17.3643 -17.3620 -17.3589 -17.3570
   -17.3535 -17.3531 -17.3485 -17.3470 -17.3469 -17.3445 -17.3427 -17.3424
   -17.3348 -17.3326 -17.3203 -17.3190 -17.3135 -17.3107 -17.3096 -17.3092
   -17.3026 -17.3004 -17.2992 -17.2906 -17.2756 -17.2748 -17.2707 -17.2689
   -15.0483 -14.9668 -14.6251 -14.5046 -14.2720 -14.0032 -13.9197 -13.7736
   -13.6905 -13.5875 -13.4314 -13.3186 -13.0119 -12.9808 -12.9185 -12.8703
   -12.5951 -12.4547  -1.6848  -0.7023  -0.3929  -0.1038   0.2440   0.5554
     0.7225   1.0873   1.1753   1.2838   1.3489   1.3708   1.3953   1.6471
     1.7625   1.8731   1.9434   1.9821   2.1104   2.1263   2.2134   2.3794
     2.4106   2.5696   2.7255   2.7721   2.8976   3.0262   3.0369   3.1737
     3.2833   3.4204   3.4763   3.5381   3.6596   3.8038   3.8273   3.8622
     3.8967   4.1867   4.1924   4.2217   4.3225   4.4576   4.4873   4.5243
     4.5720

          k = 0.0403 0.0618 0.0000 ( 44454 PWs)   bands (ev):

   -65.9751 -65.9638 -65.6642 -65.6525 -65.6050 -65.5936 -32.3230 -32.2957
   -32.2632 -32.2216 -32.1910 -32.1661 -32.1369 -32.0721 -32.0225 -31.9928
   -31.9742 -31.9333 -31.8683 -31.8405 -31.8199 -31.7533 -31.6068 -31.5849
   -30.2349 -30.1194 -29.9260 -29.8057 -29.6075 -29.2916 -17.7030 -17.7011
   -17.6994 -17.6990 -17.6968 -17.6913 -17.6838 -17.6811 -17.6772 -17.6693
   -17.6494 -17.6478 -17.6385 -17.6354 -17.3642 -17.3620 -17.3589 -17.3570
   -17.3535 -17.3531 -17.3485 -17.3469 -17.3468 -17.3445 -17.3427 -17.3425
   -17.3348 -17.3326 -17.3201 -17.3190 -17.3135 -17.3107 -17.3096 -17.3092
   -17.3026 -17.3005 -17.2992 -17.2906 -17.2755 -17.2748 -17.2706 -17.2690
   -15.0519 -14.9697 -14.6309 -14.5065 -14.2733 -14.0022 -13.9304 -13.7838
   -13.6903 -13.5891 -13.4321 -13.3218 -13.0115 -12.9839 -12.9179 -12.8706
   -12.5951 -12.4544  -1.4490  -0.6580  -0.2767   0.1441   0.3711   0.6892
     0.8869   1.1769   1.2287   1.3422   1.4360   1.4769   1.5143   1.7302
     1.8100   1.8776   1.9122   2.0431   2.0852   2.1113   2.1479   2.2899
     2.3336   2.3809   2.4917   2.6648   2.7404   2.7607   2.7702   3.0460
     3.2374   3.2662   3.3855   3.4089   3.6521   3.6823   3.7588   3.8210
     3.9321   4.0953   4.1127   4.2692   4.3587   4.3806   4.4794   4.5584
     4.5619

          k = 0.0403 0.0756 0.0000 ( 44466 PWs)   bands (ev):

   -65.9751 -65.9638 -65.6642 -65.6525 -65.6050 -65.5936 -32.3232 -32.2956
   -32.2634 -32.2222 -32.1908 -32.1663 -32.1369 -32.0724 -32.0225 -31.9928
   -31.9751 -31.9331 -31.8684 -31.8405 -31.8198 -31.7534 -31.6068 -31.5849
   -30.2336 -30.1182 -29.9259 -29.8056 -29.6069 -29.2916 -17.7030 -17.7011
   -17.6994 -17.6990 -17.6968 -17.6913 -17.6837 -17.6811 -17.6772 -17.6693
   -17.6494 -17.6478 -17.6384 -17.6354 -17.3642 -17.3620 -17.3589 -17.3570
   -17.3535 -17.3531 -17.3485 -17.3469 -17.3467 -17.3444 -17.3427 -17.3425
   -17.3347 -17.3326 -17.3200 -17.3190 -17.3135 -17.3107 -17.3096 -17.3092
   -17.3026 -17.3005 -17.2992 -17.2906 -17.2755 -17.2748 -17.2706 -17.2690
   -15.0540 -14.9714 -14.6342 -14.5076 -14.2741 -14.0017 -13.9366 -13.7895
   -13.6901 -13.5900 -13.4324 -13.3237 -13.0113 -12.9857 -12.9176 -12.8708
   -12.5951 -12.4543  -1.2690  -0.6758  -0.2006   0.3376   0.4702   0.7525
     1.0459   1.1830   1.2449   1.3663   1.4268   1.5812   1.6335   1.7955
     1.8032   1.8966   1.9313   2.0387   2.0488   2.1278   2.1407   2.2271
[...]
   -17.6455 -17.6449 -17.6415 -17.6403 -17.3623 -17.3604 -17.3591 -17.3559
   -17.3558 -17.3546 -17.3477 -17.3472 -17.3437 -17.3431 -17.3429 -17.3408
   -17.3377 -17.3376 -17.3178 -17.3164 -17.3151 -17.3133 -17.3074 -17.3064
   -17.3047 -17.3032 -17.2973 -17.2942 -17.2754 -17.2751 -17.2702 -17.2696
   -14.5129 -14.4593 -14.3951 -14.3661 -13.9176 -13.9089 -13.8119 -13.7895
   -13.7209 -13.6936 -13.6637 -13.6298 -13.5433 -13.2139 -13.1713 -13.0895
   -12.7870 -12.6857  -1.3763  -0.7248  -0.2754   0.1574   0.1753   0.5184
     0.9211   1.1885   1.2231   1.4459   1.5086   1.5281   1.5698   1.7123
     1.7626   1.9795   2.0203   2.0880   2.1754   2.3316   2.3342   2.4047
     2.4052   2.5000   2.6259   2.7498   2.8442   3.0757   3.0778   3.1968
     3.2605   3.3380   3.3734   3.4265   3.5953   3.7959   3.8441   3.9570
     4.0432   4.1314   4.2037   4.2325   4.3316   4.3762   4.4752   4.4781
     4.5602

          k = 0.0671-0.0206 0.0000 ( 44499 PWs)   bands (ev):

   -65.9715 -65.9674 -65.6605 -65.6562 -65.6014 -65.5972 -32.3136 -32.3045
   -32.2097 -32.2010 -32.1873 -32.1561 -32.1463 -32.1000 -31.9924 -31.9576
   -31.9468 -31.9179 -31.9014 -31.8593 -31.8492 -31.8302 -31.5999 -31.5918
   -30.1453 -30.0282 -30.0281 -29.9094 -29.5134 -29.3956 -17.7024 -17.7016
   -17.6995 -17.6991 -17.6951 -17.6929 -17.6830 -17.6820 -17.6749 -17.6720
   -17.6456 -17.6449 -17.6415 -17.6402 -17.3624 -17.3604 -17.3591 -17.3559
   -17.3558 -17.3546 -17.3477 -17.3471 -17.3437 -17.3432 -17.3429 -17.3408
   -17.3377 -17.3376 -17.3179 -17.3164 -17.3151 -17.3133 -17.3074 -17.3064
   -17.3047 -17.3032 -17.2973 -17.2942 -17.2754 -17.2751 -17.2703 -17.2696
   -14.5092 -14.4565 -14.3953 -14.3646 -13.9164 -13.9096 -13.8046 -13.7892
   -13.7228 -13.6958 -13.6559 -13.6317 -13.5465 -13.2124 -13.1727 -13.0886
   -12.7868 -12.6858  -1.5061  -0.6526  -0.3504   0.0457   0.1666   0.5041
     0.8632   1.1100   1.2314   1.3996   1.4201   1.4868   1.5566   1.5872
     1.7872   1.9874   2.0833   2.1085   2.2225   2.2924   2.3442   2.4230
     2.4357   2.4904   2.7137   2.9195   2.9668   3.0447   3.1465   3.2258
     3.3207   3.3800   3.4294   3.4886   3.5249   3.6954   3.8996   3.9076
     4.0619   4.0948   4.1914   4.2104   4.3674   4.4122   4.4709   4.5290
     4.6186

          k = 0.0671-0.0069 0.0000 ( 44481 PWs)   bands (ev):

   -65.9715 -65.9674 -65.6605 -65.6562 -65.6014 -65.5972 -32.3134 -32.3046
   -32.2092 -32.2013 -32.1872 -32.1559 -32.1464 -32.1001 -31.9922 -31.9569
   -31.9472 -31.9179 -31.9015 -31.8592 -31.8492 -31.8302 -31.5999 -31.5918
   -30.1461 -30.0289 -30.0278 -29.9091 -29.5138 -29.3954 -17.7024 -17.7016
   -17.6995 -17.6991 -17.6951 -17.6929 -17.6830 -17.6819 -17.6749 -17.6720
   -17.6456 -17.6449 -17.6415 -17.6402 -17.3624 -17.3603 -17.3591 -17.3559
   -17.3558 -17.3546 -17.3477 -17.3471 -17.3437 -17.3432 -17.3429 -17.3408
   -17.3378 -17.3376 -17.3179 -17.3164 -17.3150 -17.3134 -17.3074 -17.3064
   -17.3047 -17.3032 -17.2973 -17.2942 -17.2754 -17.2751 -17.2703 -17.2695
   -14.5071 -14.4548 -14.3955 -14.3637 -13.9158 -13.9100 -13.8002 -13.7890
   -13.7240 -13.6971 -13.6503 -13.6339 -13.5483 -13.2113 -13.1737 -13.0882
   -12.7867 -12.6859  -1.5743  -0.6025  -0.3952  -0.0112   0.1559   0.5122
     0.8212   1.0711   1.2375   1.3644   1.3808   1.4324   1.4949   1.5616
     1.8098   1.9983   2.1390   2.1752   2.2292   2.2306   2.2860   2.4153
     2.4399   2.5739   2.7917   2.9331   2.9877   3.0515   3.1630   3.3046
     3.3192   3.3876   3.4463   3.5523   3.6384   3.6600   3.8457   3.8802
     3.9658   4.0180   4.2180   4.2587   4.3517   4.4473   4.4688   4.5986
     4.6639

          k = 0.0671 0.0069 0.0000 ( 44481 PWs)   bands (ev):

   -65.9715 -65.9674 -65.6605 -65.6562 -65.6014 -65.5972 -32.3134 -32.3046
   -32.2092 -32.2013 -32.1872 -32.1559 -32.1464 -32.1001 -31.9922 -31.9569
   -31.9472 -31.9179 -31.9015 -31.8592 -31.8492 -31.8302 -31.5999 -31.5918
   -30.1461 -30.0289 -30.0278 -29.9091 -29.5138 -29.3954 -17.7024 -17.7016
   -17.6995 -17.6991 -17.6951 -17.6929 -17.6830 -17.6819 -17.6749 -17.6720
   -17.6456 -17.6449 -17.6415 -17.6402 -17.3624 -17.3603 -17.3591 -17.3559
   -17.3558 -17.3546 -17.3477 -17.3471 -17.3437 -17.3432 -17.3429 -17.3408
   -17.3378 -17.3376 -17.3179 -17.3164 -17.3150 -17.3134 -17.3074 -17.3064
   -17.3047 -17.3032 -17.2973 -17.2942 -17.2754 -17.2751 -17.2703 -17.2695
   -14.5071 -14.4548 -14.3955 -14.3637 -13.9158 -13.9100 -13.8002 -13.7890
   -13.7240 -13.6971 -13.6503 -13.6339 -13.5483 -13.2113 -13.1737 -13.0882
   -12.7867 -12.6859  -1.5743  -0.6025  -0.3952  -0.0112   0.1559   0.5122
     0.8212   1.0711   1.2375   1.3644   1.3808   1.4324   1.4949   1.5616
     1.8098   1.9983   2.1389   2.1752   2.2292   2.2306   2.2860   2.4153
     2.4399   2.5739   2.7917   2.9331   2.9877   3.0515   3.1629   3.3045
     3.3192   3.3876   3.4462   3.5522   3.6384   3.6600   3.8457   3.8802
     3.9659   4.0181   4.2181   4.2584   4.3517   4.4474   4.4696   4.5985
     4.6572

          k = 0.0671 0.0206 0.0000 ( 44499 PWs)   bands (ev):

   -65.9715 -65.9674 -65.6605 -65.6562 -65.6014 -65.5972 -32.3136 -32.3045
   -32.2097 -32.2010 -32.1873 -32.1561 -32.1463 -32.1000 -31.9924 -31.9576
   -31.9468 -31.9179 -31.9014 -31.8593 -31.8492 -31.8302 -31.5999 -31.5918
   -30.1453 -30.0282 -30.0281 -29.9094 -29.5134 -29.3956 -17.7024 -17.7016
   -17.6995 -17.6991 -17.6951 -17.6929 -17.6830 -17.6820 -17.6749 -17.6720
   -17.6456 -17.6449 -17.6415 -17.6402 -17.3624 -17.3604 -17.3591 -17.3559
   -17.3558 -17.3546 -17.3477 -17.3471 -17.3437 -17.3432 -17.3429 -17.3408
   -17.3377 -17.3376 -17.3179 -17.3164 -17.3151 -17.3133 -17.3074 -17.3064
   -17.3047 -17.3032 -17.2973 -17.2942 -17.2754 -17.2751 -17.2703 -17.2696
   -14.5092 -14.4565 -14.3953 -14.3646 -13.9164 -13.9096 -13.8046 -13.7892
   -13.7228 -13.6958 -13.6559 -13.6317 -13.5465 -13.2124 -13.1727 -13.0886
   -12.7868 -12.6858  -1.5061  -0.6526  -0.3504   0.0457   0.1666   0.5041
     0.8632   1.1099   1.2314   1.3996   1.4201   1.4868   1.5566   1.5872
     1.7872   1.9874   2.0833   2.1085   2.2225   2.2924   2.3442   2.4230
     2.4357   2.4904   2.7137   2.9195   2.9668   3.0447   3.1465   3.2258
     3.3207   3.3800   3.4294   3.4886   3.5250   3.6954   3.8996   3.9076
     4.0618   4.0949   4.1914   4.2103   4.3673   4.4123   4.4707   4.5291
     4.6159

          k =-0.0806-0.0412 0.0000 ( 44522 PWs)   bands (ev):

   -65.9694 -65.9694 -65.6583 -65.6583 -65.5993 -65.5993 -32.3091 -32.3091
   -32.2056 -32.2056 -32.1515 -32.1514 -32.1437 -32.1437 -31.9529 -31.9529
   -31.9468 -31.9468 -31.8742 -31.8742 -31.8543 -31.8543 -31.5959 -31.5959
   -30.0866 -30.0866 -29.9687 -29.9687 -29.4548 -29.4548 -17.7020 -17.7020
   -17.6993 -17.6993 -17.6940 -17.6940 -17.6825 -17.6825 -17.6734 -17.6734
   -17.6432 -17.6432 -17.6429 -17.6429 -17.3613 -17.3613 -17.3575 -17.3574
   -17.3552 -17.3552 -17.3474 -17.3474 -17.3434 -17.3433 -17.3404 -17.3404
   -17.3393 -17.3393 -17.3164 -17.3164 -17.3149 -17.3149 -17.3061 -17.3060
   -17.3048 -17.3048 -17.2959 -17.2959 -17.2752 -17.2752 -17.2699 -17.2699
   -14.4519 -14.4518 -14.1015 -14.1015 -14.0143 -14.0143 -13.8518 -13.8518
   -13.7532 -13.7532 -13.6036 -13.6036 -13.5509 -13.5509 -13.1523 -13.1523
   -12.7369 -12.7369  -1.0144  -1.0144   0.0088   0.0088   0.4260   0.4260
     1.1255   1.1255   1.3900   1.3900   1.5635   1.5635   1.7247   1.7247
     1.8592   1.8592   2.0390   2.0390   2.2098   2.2098   2.3115   2.3115
     2.5001   2.5001   2.6292   2.6292   2.9313   2.9313   3.0439   3.0439
     3.2080   3.2080   3.3173   3.3173   3.7370   3.7370   3.9140   3.9141
     4.0947   4.0948   4.2961   4.2962   4.3871   4.3875   4.4176   4.4189
     4.5216

          k =-0.0806-0.0275 0.0000 ( 44499 PWs)   bands (ev):

   -65.9694 -65.9694 -65.6583 -65.6583 -65.5993 -65.5993 -32.3093 -32.3089
   -32.2062 -32.2049 -32.1517 -32.1512 -32.1439 -32.1435 -31.9539 -31.9519
   -31.9471 -31.9466 -31.8742 -31.8742 -31.8543 -31.8542 -31.5959 -31.5958
   -30.0877 -30.0855 -29.9698 -29.9677 -29.4554 -29.4542 -17.7020 -17.7020
   -17.6993 -17.6992 -17.6940 -17.6939 -17.6825 -17.6825 -17.6734 -17.6734
   -17.6432 -17.6432 -17.6430 -17.6429 -17.3614 -17.3613 -17.3575 -17.3575
   -17.3552 -17.3552 -17.3474 -17.3473 -17.3433 -17.3433 -17.3405 -17.3403
   -17.3393 -17.3393 -17.3165 -17.3162 -17.3149 -17.3148 -17.3061 -17.3060
   -17.3048 -17.3048 -17.2959 -17.2959 -17.2752 -17.2752 -17.2699 -17.2699
   -14.4545 -14.4492 -14.1037 -14.0991 -14.0165 -14.0120 -13.8521 -13.8516
   -13.7586 -13.7479 -13.6097 -13.5976 -13.5528 -13.5488 -13.1526 -13.1520
   -12.7370 -12.7367  -1.1326  -0.8710  -0.0344   0.0364   0.3586   0.5229
     1.0897   1.1816   1.3035   1.4499   1.5424   1.5563   1.6584   1.7838
     1.7967   1.9442   1.9556   2.0857   2.1300   2.1982   2.3336   2.3984
     2.4230   2.5087   2.5381   2.7285   2.8659   2.9221   3.1040   3.1296
     3.2074   3.2454   3.2833   3.4069   3.5052   3.7133   3.8634   3.9919
     4.1167   4.1893   4.2295   4.2799   4.3773   4.4004   4.4489   4.4717
     4.5305

          k =-0.0806-0.0137 0.0000 ( 44472 PWs)   bands (ev):

   -65.9694 -65.9694 -65.6583 -65.6583 -65.5993 -65.5993 -32.3095 -32.3087
   -32.2067 -32.2044 -32.1519 -32.1510 -32.1441 -32.1433 -31.9546 -31.9510
   -31.9474 -31.9464 -31.8742 -31.8742 -31.8543 -31.8542 -31.5959 -31.5958
   -30.0885 -30.0847 -29.9705 -29.9669 -29.4558 -29.4537 -17.7020 -17.7019
   -17.6993 -17.6992 -17.6940 -17.6939 -17.6825 -17.6824 -17.6734 -17.6734
   -17.6432 -17.6431 -17.6430 -17.6428 -17.3614 -17.3612 -17.3575 -17.3574
   -17.3552 -17.3552 -17.3474 -17.3473 -17.3433 -17.3433 -17.3405 -17.3403
   -17.3393 -17.3393 -17.3165 -17.3161 -17.3149 -17.3148 -17.3061 -17.3060
   -17.3048 -17.3048 -17.2959 -17.2958 -17.2752 -17.2752 -17.2700 -17.2698
   -14.4564 -14.4473 -14.1053 -14.0972 -14.0179 -14.0102 -13.8524 -13.8515
   -13.7626 -13.7441 -13.6142 -13.5934 -13.5542 -13.5472 -13.1529 -13.1520
   -12.7371 -12.7366  -1.2085  -0.7384  -0.0683   0.0292   0.3184   0.6428
     1.0498   1.2310   1.2515   1.4447   1.5230   1.5259   1.6040   1.7024
     1.8602   1.9523   2.0551   2.0746   2.0832   2.1430   2.2924   2.3392
     2.4102   2.4718   2.6036   2.7904   2.8578   2.9030   3.1005   3.1764
     3.2203   3.2834   3.3358   3.3955   3.5470   3.5818   3.8625   3.9416
     4.0127   4.1553   4.2343   4.3671   4.3676   4.4675   4.4737   4.5346
     4.5752

          k =-0.0806 0.0000 0.0000 ( 44448 PWs)   bands (ev):

   -65.9694 -65.9694 -65.6583 -65.6583 -65.5993 -65.5993 -32.3096 -32.3086
   -32.2069 -32.2043 -32.1519 -32.1509 -32.1442 -32.1433 -31.9548 -31.9507
   -31.9476 -31.9463 -31.8742 -31.8742 -31.8543 -31.8542 -31.5959 -31.5958
   -30.0887 -30.0844 -29.9708 -29.9667 -29.4559 -29.4536 -17.7020 -17.7019
   -17.6994 -17.6991 -17.6940 -17.6939 -17.6825 -17.6824 -17.6734 -17.6734
   -17.6432 -17.6431 -17.6430 -17.6428 -17.3614 -17.3612 -17.3574 -17.3574
   -17.3552 -17.3552 -17.3474 -17.3473 -17.3433 -17.3433 -17.3405 -17.3403
   -17.3393 -17.3393 -17.3166 -17.3161 -17.3149 -17.3148 -17.3061 -17.3060
   -17.3048 -17.3048 -17.2959 -17.2958 -17.2753 -17.2752 -17.2700 -17.2698
   -14.4571 -14.4466 -14.1059 -14.0965 -14.0185 -14.0096 -13.8525 -13.8515
   -13.7640 -13.7427 -13.6158 -13.5918 -13.5546 -13.5467 -13.1530 -13.1520
   -12.7371 -12.7366  -1.2345  -0.6797  -0.0806   0.0151   0.3051   0.7178
     1.0066   1.2081   1.2956   1.4162   1.5003   1.5222   1.5796   1.6762
     1.9157   1.9331   2.0590   2.0982   2.1330   2.1387   2.1987   2.2728
     2.3933   2.4751   2.7380   2.7579   2.8556   2.8963   3.0212   3.1557
     3.2327   3.2974   3.4251   3.4282   3.5244   3.6470   3.8038   3.9146
     3.9268   4.1249   4.2776   4.3616   4.3718   4.4655   4.4844   4.5805
     4.5887

          k =-0.0806 0.0137 0.0000 ( 44472 PWs)   bands (ev):

   -65.9694 -65.9694 -65.6583 -65.6583 -65.5993 -65.5993 -32.3095 -32.3087
   -32.2067 -32.2044 -32.1519 -32.1510 -32.1441 -32.1433 -31.9546 -31.9510
   -31.9474 -31.9464 -31.8742 -31.8742 -31.8543 -31.8542 -31.5959 -31.5958
   -30.0885 -30.0847 -29.9705 -29.9669 -29.4558 -29.4537 -17.7020 -17.7019
   -17.6993 -17.6992 -17.6940 -17.6939 -17.6825 -17.6824 -17.6734 -17.6734
   -17.6432 -17.6431 -17.6430 -17.6428 -17.3614 -17.3612 -17.3575 -17.3574
   -17.3552 -17.3552 -17.3474 -17.3473 -17.3433 -17.3433 -17.3405 -17.3403
   -17.3393 -17.3393 -17.3165 -17.3161 -17.3149 -17.3148 -17.3061 -17.3060
   -17.3048 -17.3048 -17.2959 -17.2958 -17.2752 -17.2752 -17.2700 -17.2698
   -14.4564 -14.4473 -14.1053 -14.0972 -14.0179 -14.0102 -13.8524 -13.8515
   -13.7626 -13.7441 -13.6142 -13.5934 -13.5542 -13.5472 -13.1529 -13.1520
   -12.7371 -12.7366  -1.2085  -0.7384  -0.0683   0.0292   0.3184   0.6428
     1.0498   1.2310   1.2515   1.4447   1.5230   1.5259   1.6040   1.7024
     1.8602   1.9523   2.0551   2.0746   2.0832   2.1430   2.2924   2.3392
     2.4102   2.4718   2.6036   2.7904   2.8577   2.9031   3.1005   3.1764
     3.2203   3.2834   3.3358   3.3955   3.5470   3.5818   3.8625   3.9417
     4.0127   4.1553   4.2342   4.3672   4.3676   4.4675   4.4744   4.5351
     4.5754

          k =-0.0806 0.0275 0.0000 ( 44499 PWs)   bands (ev):

   -65.9694 -65.9694 -65.6583 -65.6583 -65.5993 -65.5993 -32.3093 -32.3089
   -32.2062 -32.2049 -32.1517 -32.1512 -32.1439 -32.1435 -31.9539 -31.9519
   -31.9471 -31.9466 -31.8742 -31.8742 -31.8543 -31.8542 -31.5959 -31.5958
   -30.0877 -30.0855 -29.9698 -29.9677 -29.4554 -29.4542 -17.7020 -17.7020
   -17.6993 -17.6992 -17.6940 -17.6939 -17.6825 -17.6825 -17.6734 -17.6734
   -17.6432 -17.6432 -17.6430 -17.6429 -17.3614 -17.3613 -17.3575 -17.3575
   -17.3552 -17.3552 -17.3474 -17.3473 -17.3433 -17.3433 -17.3405 -17.3403
   -17.3393 -17.3393 -17.3165 -17.3162 -17.3149 -17.3148 -17.3061 -17.3060
   -17.3048 -17.3048 -17.2959 -17.2959 -17.2752 -17.2752 -17.2699 -17.2699
   -14.4545 -14.4492 -14.1037 -14.0991 -14.0165 -14.0120 -13.8521 -13.8516
   -13.7586 -13.7479 -13.6097 -13.5976 -13.5528 -13.5488 -13.1526 -13.1520
   -12.7370 -12.7367  -1.1326  -0.8710  -0.0344   0.0364   0.3586   0.5229
     1.0897   1.1816   1.3035   1.4499   1.5424   1.5563   1.6584   1.7838
     1.7967   1.9442   1.9556   2.0857   2.1300   2.1982   2.3336   2.3984
     2.4230   2.5087   2.5381   2.7285   2.8659   2.9221   3.1040   3.1296
     3.2074   3.2454   3.2833   3.4069   3.5052   3.7133   3.8634   3.9920
     4.1167   4.1894   4.2295   4.2799   4.3773   4.4005   4.4489   4.4720
     4.5300

          k =-0.0806-0.1237 0.0000 ( 44522 PWs)   bands (ev):

   -65.9694 -65.9694 -65.6583 -65.6583 -65.5993 -65.5993 -32.3091 -32.3091
   -32.2056 -32.2056 -32.1515 -32.1514 -32.1437 -32.1437 -31.9529 -31.9529
   -31.9468 -31.9468 -31.8742 -31.8742 -31.8543 -31.8543 -31.5959 -31.5959
   -30.0866 -30.0866 -29.9687 -29.9687 -29.4548 -29.4548 -17.7020 -17.7020
   -17.6993 -17.6993 -17.6940 -17.6940 -17.6825 -17.6825 -17.6734 -17.6734
   -17.6432 -17.6432 -17.6429 -17.6429 -17.3613 -17.3613 -17.3575 -17.3574
   -17.3552 -17.3552 -17.3474 -17.3474 -17.3434 -17.3433 -17.3404 -17.3404
   -17.3393 -17.3393 -17.3164 -17.3164 -17.3149 -17.3149 -17.3061 -17.3060
   -17.3048 -17.3048 -17.2959 -17.2959 -17.2752 -17.2752 -17.2699 -17.2699
   -14.4519 -14.4518 -14.1015 -14.1015 -14.0143 -14.0143 -13.8518 -13.8518
   -13.7532 -13.7532 -13.6036 -13.6036 -13.5509 -13.5509 -13.1523 -13.1523
   -12.7369 -12.7369  -1.0144  -1.0144   0.0088   0.0088   0.4260   0.4260
     1.1255   1.1255   1.3901   1.3901   1.5635   1.5635   1.7247   1.7247
     1.8592   1.8592   2.0390   2.0390   2.2098   2.2099   2.3115   2.3115
     2.5000   2.5001   2.6292   2.6292   2.9313   2.9313   3.0439   3.0439
     3.2080   3.2080   3.3173   3.3173   3.7370   3.7371   3.9140   3.9140
     4.0947   4.0948   4.2962   4.2962   4.3871   4.3874   4.4177   4.4188
     4.5218

     the Fermi energy is     2.6393 ev

!    total energy              =   -4855.42443814 Ry
     estimated scf accuracy    <       0.00000711 Ry
     smearing contrib. (-TS)   =      -0.08164246 Ry
     internal energy E=F+TS    =   -4855.34279569 Ry

     The total energy is F=E-TS. E is the sum of the following terms:
     one-electron contribution =  -22958.78649178 Ry
     hartree contribution      =   11591.19814501 Ry
     xc contribution           =    -861.88856328 Ry
     ewald contribution        =    7374.13401025 Ry
     electric field correction =       0.00010411 Ry

     convergence has been achieved in  19 iterations

     negative rho (up, down):  2.604E-04 0.000E+00

     Forces acting on atoms (cartesian axes, Ry/au):

     atom    1 type  1   force =     0.00000483   -0.01261492   -0.02376886
     atom    2 type  1   force =     0.00000314   -0.01261153   -0.02376576
     atom    3 type  2   force =    -0.00001596    0.02215111    0.05199894
     atom    4 type  2   force =     0.00001776    0.02214660    0.05200349
     atom    5 type  1   force =     0.00001859    0.00844629   -0.00941712
     atom    6 type  1   force =     0.00001941    0.00844585   -0.00941264
     atom    7 type  2   force =    -0.00003968   -0.01996221   -0.01833454
     atom    8 type  2   force =    -0.00003764   -0.01996361   -0.01834587
     atom    9 type  1   force =     0.00000136    0.00033938   -0.00071589
     atom   10 type  1   force =    -0.00000226    0.00033999   -0.00071893
     atom   11 type  2   force =     0.00001318    0.00164423    0.00023321
     atom   12 type  2   force =     0.00001727    0.00163882    0.00024399

     Total force =     0.098152     Total SCF correction =     0.009179

     Writing output data file ./La2Ta2/La2Ta2_beef.save/

     init_run     :    798.93s CPU    800.03s WALL (       1 calls)
     electrons    :  22190.32s CPU  22345.45s WALL (       1 calls)
     forces       :    156.81s CPU    157.38s WALL (       1 calls)

     Called by init_run:
     wfcinit      :    753.15s CPU    754.03s WALL (       1 calls)
     potinit      :     32.19s CPU     32.22s WALL (       1 calls)
     hinit0       :      6.89s CPU      6.90s WALL (       1 calls)

     Called by electrons:
     c_bands      :  19376.06s CPU  19518.61s WALL (      19 calls)
     sum_band     :   2643.52s CPU   2651.05s WALL (      19 calls)
     v_of_rho     :     93.91s CPU     95.08s WALL (      20 calls)
     newd         :    106.39s CPU    110.25s WALL (      20 calls)
     mix_rho      :      3.27s CPU      3.30s WALL (      19 calls)
     vdW_kernel   :     14.26s CPU     14.26s WALL (       1 calls)

     Called by c_bands:
     init_us_2    :     13.56s CPU     13.61s WALL (    2960 calls)
     cegterg      :  18950.57s CPU  19089.28s WALL (    1406 calls)

     Called by *egterg:
     cdiaghg      :    832.58s CPU    836.70s WALL (   10677 calls)
     h_psi        :   8801.77s CPU   8907.41s WALL (   10751 calls)
     s_psi        :    929.27s CPU    933.62s WALL (   10751 calls)
     g_psi        :      2.61s CPU      2.65s WALL (    9271 calls)

     Called by h_psi:
     h_psi:calbec :   2766.25s CPU   2778.29s WALL (   10751 calls)
     vloc_psi     :   5088.91s CPU   5176.82s WALL (   10751 calls)
     add_vuspsi   :    941.88s CPU    947.54s WALL (   10751 calls)

     General routines
     calbec       :   4011.61s CPU   4025.39s WALL (   12453 calls)
     fft          :    156.62s CPU    157.47s WALL (    1319 calls)
     ffts         :      1.21s CPU      1.22s WALL (      39 calls)
     fftw         :   6389.19s CPU   6478.68s WALL ( 1156350 calls)
     interpolate  :      1.76s CPU      1.78s WALL (      20 calls)

     Parallel routines
     fft_scatt_xy :     89.16s CPU     89.84s WALL ( 1157708 calls)
     fft_scatt_yz :   5565.94s CPU   5648.64s WALL ( 1157708 calls)

     PWSCF        :      6h26m CPU      6h29m WALL


   This run was terminated on:  14:11:51  26Jun2022            

=------------------------------------------------------------------------------=
   JOB DONE.
=------------------------------------------------------------------------------=
