
     Program PWSCF v.6.6 starts on 26Jun2022 at 14:11:54 

     This program is part of the open-source Quantum ESPRESSO suite
     for quantum simulation of materials; please cite
         "P. Giannozzi et al., J. Phys.:Condens. Matter 21 395502 (2009);
         "P. Giannozzi et al., J. Phys.:Condens. Matter 29 465901 (2017);
          URL http://www.quantum-espresso.org", 
     in publications or presentations arising from this work. More details at
     http://www.quantum-espresso.org/quote

     Parallel version (MPI), running on    37 processors

     MPI processes distributed on     1 nodes
     R & G space division:  proc/nbgrp/npool/nimage =      37
     Fft bands division:     nmany     =       1
     Reading input from La2Tc2.in
Warning: card &CELL ignored
Warning: card / ignored

     Current dimensions of program PWSCF are:
     Max number of different atomic species (ntypx) = 10
     Max number of k-points (npk) =  40000
     Max angular momentum in pseudopotentials (lmaxx) =  3
     Presently stress not available with electric field and gates

     Message from routine cell_base_init:
     DEPRECATED: use true lattice parameter, not A to a.u. conversion factor
     file La.pbe-spfn-rrkjus_psl.1.0.0.UPF: wavefunction(s)  4F renormalized
     file Tc.pbe-spn-rrkjus_psl.0.3.0.UPF: wavefunction(s)  4S 4P renormalized

     **************************************************************************
     Initializing libbeef V0.1.2 with the BEEF-vdW functional.
     Citation: Wellendorff et al., PRB 85, 235149 (2012).
     **************************************************************************


     IMPORTANT: XC functional enforced from input :
     Exchange-correlation= BEEF-VDW
                           (   1   4  43  14   2   0   0)
     Any further DFT definition will be discarded
     Please, verify this is what you really want


     Subspace diagonalization in iterative solution of the eigenvalue problem:
     a serial algorithm will be used


     Parallelization info
     --------------------
     sticks:   dense  smooth     PW     G-vecs:    dense   smooth      PW
     Min         153      61     17                36305     9179    1349
     Max         154      62     18                36328     9188    1363
     Sum        5677    2269    631              1343691   339803   50197



     bravais-lattice index     =            0
     lattice parameter (alat)  =       1.8897  a.u.
     unit-cell volume          =    6148.4663 (a.u.)^3
     number of atoms/cell      =           12
     number of atomic types    =            2
     number of electrons       =       156.00
     number of Kohn-Sham states=           94
     kinetic-energy cutoff     =      55.1240  Ry
     charge density cutoff     =     551.2396  Ry
     convergence threshold     =      1.0E-05
     mixing beta               =       0.1000
     number of iterations used =           10  plain     mixing
     Exchange-correlation= BEEF-VDW
                           (   1   4  43  14   2   0   0)

     celldm(1)=   1.889726  celldm(2)=   0.000000  celldm(3)=   0.000000
     celldm(4)=   0.000000  celldm(5)=   0.000000  celldm(6)=   0.000000

     crystal axes: (cart. coord. in units of alat)
               a(1) = (   6.208390   0.000000   0.000000 )  
               a(2) = (   2.067103   5.854160   0.000000 )  
               a(3) = (   0.000000   0.000000  25.068405 )  

     reciprocal axes: (cart. coord. in units 2 pi/alat)
               b(1) = (  0.161072 -0.056875  0.000000 )  
               b(2) = (  0.000000  0.170819  0.000000 )  
               b(3) = (  0.000000  0.000000  0.039891 )  


     PseudoPot. # 1 for La read from file:
     ../pseudo/La.pbe-spfn-rrkjus_psl.1.0.0.UPF
     MD5 check sum: e3bc141c2ecb461b8d0a035ce9ac970e
     Pseudo is Ultrasoft + core correction, Zval = 11.0
     Generated using "atomic" code by A. Dal Corso v.6.2.2
     Using radial grid of 1253 points,  8 beta functions with: 
                l(1) =   0
                l(2) =   0
                l(3) =   1
                l(4) =   1
                l(5) =   2
                l(6) =   2
                l(7) =   3
                l(8) =   3
     Q(r) pseudized with 0 coefficients 


     PseudoPot. # 2 for Tc read from file:
     ../pseudo/Tc.pbe-spn-rrkjus_psl.0.3.0.UPF
     MD5 check sum: 5f147c0bf103030af994b79b1f5562e4
     Pseudo is Ultrasoft + core correction, Zval = 15.0
     Generated using "atomic" code by A. Dal Corso v.6.2.2
     Using radial grid of 1231 points,  6 beta functions with: 
                l(1) =   0
                l(2) =   0
                l(3) =   1
                l(4) =   1
                l(5) =   2
                l(6) =   2
     Q(r) pseudized with 0 coefficients 


     atomic species   valence    mass     pseudopotential
        La            11.00   138.90547     La( 1.00)
        Tc            15.00    97.90721     Tc( 1.00)

     No symmetry found



   Cartesian axes

     site n.     atom                  positions (alat units)
         1           La  tau(   1) = (   0.0000000   0.0000000  10.0000000  )
         2           La  tau(   2) = (   4.1377465   2.9270800  10.0000000  )
         3           Tc  tau(   3) = (   3.1041949   0.0000000  10.0000000  )
         4           Tc  tau(   4) = (   1.0335516   2.9270800  10.0000000  )
         5           La  tau(   5) = (   6.2083898   4.3918721  12.5342023  )
         6           La  tau(   6) = (   2.0706433   1.4647921  12.5342023  )
         7           Tc  tau(   7) = (   3.1041949   4.3918721  12.5342023  )
         8           Tc  tau(   8) = (   5.1748382   1.4647921  12.5342023  )
         9           La  tau(   9) = (   4.1393002   2.9281929  15.1012074  )
        10           La  tau(  10) = (   0.0015674   0.0010952  15.1012229  )
        11           Tc  tau(  11) = (   1.0380748   2.9302664  14.5332517  )
        12           Tc  tau(  12) = (   3.1087832   0.0032528  14.5332608  )

     number of k points=    74  Fermi-Dirac smearing, width (Ry)=  0.0100
                       cart. coord. in units 2pi/alat
        k(    1) = (   0.0000000   0.0000000   0.0000000), wk =   0.0138889
        k(    2) = (   0.0000000   0.0142349   0.0000000), wk =   0.0277778
        k(    3) = (   0.0000000   0.0284698   0.0000000), wk =   0.0277778
        k(    4) = (   0.0000000   0.0427047   0.0000000), wk =   0.0277778
        k(    5) = (   0.0000000   0.0569396   0.0000000), wk =   0.0277778
        k(    6) = (   0.0000000   0.0711745   0.0000000), wk =   0.0277778
        k(    7) = (   0.0000000  -0.0854093   0.0000000), wk =   0.0138889
        k(    8) = (   0.0134227  -0.0047396   0.0000000), wk =   0.0277778
        k(    9) = (   0.0134227   0.0094953   0.0000000), wk =   0.0277778
        k(   10) = (   0.0134227   0.0237302   0.0000000), wk =   0.0277778
        k(   11) = (   0.0134227   0.0379651   0.0000000), wk =   0.0277778
        k(   12) = (   0.0134227   0.0522000   0.0000000), wk =   0.0277778
        k(   13) = (   0.0134227   0.0664349   0.0000000), wk =   0.0277778
        k(   14) = (   0.0134227  -0.0901489   0.0000000), wk =   0.0277778
        k(   15) = (   0.0134227  -0.0759140   0.0000000), wk =   0.0277778
        k(   16) = (   0.0134227  -0.0616791   0.0000000), wk =   0.0277778
        k(   17) = (   0.0134227  -0.0474442   0.0000000), wk =   0.0277778
        k(   18) = (   0.0134227  -0.0332093   0.0000000), wk =   0.0277778
        k(   19) = (   0.0134227  -0.0189744   0.0000000), wk =   0.0277778
        k(   20) = (   0.0268454  -0.0094791   0.0000000), wk =   0.0277778
        k(   21) = (   0.0268454   0.0047558   0.0000000), wk =   0.0277778
        k(   22) = (   0.0268454   0.0189907   0.0000000), wk =   0.0277778
        k(   23) = (   0.0268454   0.0332256   0.0000000), wk =   0.0277778
        k(   24) = (   0.0268454   0.0474605   0.0000000), wk =   0.0277778
        k(   25) = (   0.0268454   0.0616954   0.0000000), wk =   0.0277778
        k(   26) = (   0.0268454  -0.0948885   0.0000000), wk =   0.0277778
        k(   27) = (   0.0268454  -0.0806536   0.0000000), wk =   0.0277778
        k(   28) = (   0.0268454  -0.0664187   0.0000000), wk =   0.0277778
        k(   29) = (   0.0268454  -0.0521838   0.0000000), wk =   0.0277778
        k(   30) = (   0.0268454  -0.0379489   0.0000000), wk =   0.0277778
        k(   31) = (   0.0268454  -0.0237140   0.0000000), wk =   0.0277778
        k(   32) = (   0.0402681  -0.0142187   0.0000000), wk =   0.0277778
        k(   33) = (   0.0402681   0.0000162   0.0000000), wk =   0.0277778
        k(   34) = (   0.0402681   0.0142511   0.0000000), wk =   0.0277778
        k(   35) = (   0.0402681   0.0284860   0.0000000), wk =   0.0277778
        k(   36) = (   0.0402681   0.0427209   0.0000000), wk =   0.0277778
        k(   37) = (   0.0402681   0.0569558   0.0000000), wk =   0.0277778
        k(   38) = (   0.0402681  -0.0996280   0.0000000), wk =   0.0277778
        k(   39) = (   0.0402681  -0.0853931   0.0000000), wk =   0.0277778
        k(   40) = (   0.0402681  -0.0711582   0.0000000), wk =   0.0277778
        k(   41) = (   0.0402681  -0.0569233   0.0000000), wk =   0.0277778
        k(   42) = (   0.0402681  -0.0426884   0.0000000), wk =   0.0277778
        k(   43) = (   0.0402681  -0.0284535   0.0000000), wk =   0.0277778
        k(   44) = (   0.0536908  -0.0189582   0.0000000), wk =   0.0277778
        k(   45) = (   0.0536908  -0.0047233   0.0000000), wk =   0.0277778
        k(   46) = (   0.0536908   0.0095116   0.0000000), wk =   0.0277778
        k(   47) = (   0.0536908   0.0237465   0.0000000), wk =   0.0277778
        k(   48) = (   0.0536908   0.0379814   0.0000000), wk =   0.0277778
        k(   49) = (   0.0536908   0.0522163   0.0000000), wk =   0.0277778
        k(   50) = (   0.0536908  -0.1043676   0.0000000), wk =   0.0277778
        k(   51) = (   0.0536908  -0.0901327   0.0000000), wk =   0.0277778
        k(   52) = (   0.0536908  -0.0758978   0.0000000), wk =   0.0277778
        k(   53) = (   0.0536908  -0.0616629   0.0000000), wk =   0.0277778
        k(   54) = (   0.0536908  -0.0474280   0.0000000), wk =   0.0277778
        k(   55) = (   0.0536908  -0.0331931   0.0000000), wk =   0.0277778
        k(   56) = (   0.0671135  -0.0236978   0.0000000), wk =   0.0277778
        k(   57) = (   0.0671135  -0.0094629   0.0000000), wk =   0.0277778
        k(   58) = (   0.0671135   0.0047720   0.0000000), wk =   0.0277778
        k(   59) = (   0.0671135   0.0190069   0.0000000), wk =   0.0277778
        k(   60) = (   0.0671135   0.0332418   0.0000000), wk =   0.0277778
        k(   61) = (   0.0671135   0.0474767   0.0000000), wk =   0.0277778
        k(   62) = (   0.0671135  -0.1091071   0.0000000), wk =   0.0277778
        k(   63) = (   0.0671135  -0.0948722   0.0000000), wk =   0.0277778
        k(   64) = (   0.0671135  -0.0806373   0.0000000), wk =   0.0277778
        k(   65) = (   0.0671135  -0.0664024   0.0000000), wk =   0.0277778
        k(   66) = (   0.0671135  -0.0521675   0.0000000), wk =   0.0277778
        k(   67) = (   0.0671135  -0.0379327   0.0000000), wk =   0.0277778
        k(   68) = (  -0.0805362   0.0284373   0.0000000), wk =   0.0138889
        k(   69) = (  -0.0805362   0.0426722   0.0000000), wk =   0.0277778
        k(   70) = (  -0.0805362   0.0569071   0.0000000), wk =   0.0277778
        k(   71) = (  -0.0805362   0.0711420   0.0000000), wk =   0.0277778
        k(   72) = (  -0.0805362   0.0853769   0.0000000), wk =   0.0277778
        k(   73) = (  -0.0805362   0.0996118   0.0000000), wk =   0.0277778
        k(   74) = (  -0.0805362  -0.0569720   0.0000000), wk =   0.0138889

     Dense  grid:  1343691 G-vectors     FFT dimensions: (  90,  90, 360)

     Smooth grid:   339803 G-vectors     FFT dimensions: (  60,  60, 225)

     Estimated max dynamical RAM per process >     478.27 MB

     Estimated total dynamical RAM >      17.28 GB

     Check: negative core charge=   -0.000001

     Initial potential from superposition of free atoms

     starting charge  155.81748, renormalised to  156.00000

     negative rho (up, down):  6.197E-03 0.000E+00


     %%%%%%%%%%%%%%%%%%%%%%%%%%%%%%%%%%%%%%%%%%%%%%%%%%%%%%%%%%%%%%%%%%%%%%%%
     %                                                                      %
     % You are using vdW-DF, which was implemented by the Thonhauser group. %
     % Please cite the following two papers that made this development      %
     % possible and the two reviews that describe the various versions:     %
     %                                                                      %
     %   T. Thonhauser et al., PRL 115, 136402 (2015).                      %
     %   T. Thonhauser et al., PRB 76, 125112 (2007).                       %
     %   K. Berland et al., Rep. Prog. Phys. 78, 066501 (2015).             %
     %   D.C. Langreth et al., J. Phys.: Condens. Matter 21, 084203 (2009). %
     %                                                                      %
     %                                                                      %
     % If you are calculating the stress with vdW-DF, please also cite:     %
     %                                                                      %
     %   R. Sabatini et al., J. Phys.: Condens. Matter 24, 424209 (2012).   %
     %                                                                      %
     %%%%%%%%%%%%%%%%%%%%%%%%%%%%%%%%%%%%%%%%%%%%%%%%%%%%%%%%%%%%%%%%%%%%%%%%



     Adding external electric field

     Computed dipole along edir(3) : 
        Dipole                0.0364 Ry au,          0.0924 Debye
        Dipole field          0.0001 Ry au, 

        Potential amp.       -0.0069 Ry
        Total length         46.1881 bohr

     Starting wfcs are  198 randomized atomic wfcs

     total cpu time spent up to now is      228.5 secs

     Self-consistent Calculation

     iteration #  1     ecut=    55.12 Ry     beta= 0.10
     Davidson diagonalization with overlap
     ethr =  1.00E-02,  avg # of iterations =  2.0

     negative rho (up, down):  6.096E-03 0.000E+00

     Adding external electric field

     Computed dipole along edir(3) : 
        Dipole               -0.9650 Ry au,         -2.4529 Debye
        Dipole field         -0.0020 Ry au, 

        Potential amp.        0.1822 Ry
        Total length         46.1881 bohr


     total cpu time spent up to now is      470.4 secs

     total energy              =   -1850.78842675 Ry
     estimated scf accuracy    <      12.15922678 Ry

     iteration #  2     ecut=    55.12 Ry     beta= 0.10
     Davidson diagonalization with overlap
     ethr =  7.79E-03,  avg # of iterations =  2.0

     negative rho (up, down):  6.154E-03 0.000E+00

     Adding external electric field

     Computed dipole along edir(3) : 
        Dipole                0.8676 Ry au,          2.2053 Debye
        Dipole field          0.0018 Ry au, 

        Potential amp.       -0.1638 Ry
        Total length         46.1881 bohr


     total cpu time spent up to now is      938.2 secs

     total energy              =   -1850.61711593 Ry
     estimated scf accuracy    <      28.67468463 Ry

     iteration #  3     ecut=    55.12 Ry     beta= 0.10
     Davidson diagonalization with overlap
     ethr =  7.79E-03,  avg # of iterations =  1.6

     negative rho (up, down):  6.043E-03 0.000E+00

     Adding external electric field

     Computed dipole along edir(3) : 
        Dipole                0.1995 Ry au,          0.5072 Debye
        Dipole field          0.0004 Ry au, 

        Potential amp.       -0.0377 Ry
        Total length         46.1881 bohr


     total cpu time spent up to now is     1158.3 secs

     total energy              =   -1851.23172343 Ry
     estimated scf accuracy    <      10.64804445 Ry

     iteration #  4     ecut=    55.12 Ry     beta= 0.10
     Davidson diagonalization with overlap
     ethr =  6.83E-03,  avg # of iterations =  1.0

     negative rho (up, down):  5.926E-03 0.000E+00

     Adding external electric field

     Computed dipole along edir(3) : 
        Dipole                0.3106 Ry au,          0.7894 Debye
        Dipole field          0.0006 Ry au, 

        Potential amp.       -0.0586 Ry
        Total length         46.1881 bohr


     total cpu time spent up to now is     1362.9 secs

     total energy              =   -1851.37714425 Ry
     estimated scf accuracy    <       1.18394518 Ry

     iteration #  5     ecut=    55.12 Ry     beta= 0.10
     Davidson diagonalization with overlap
     ethr =  7.59E-04,  avg # of iterations =  9.8

     negative rho (up, down):  6.029E-03 0.000E+00

     Adding external electric field

     Computed dipole along edir(3) : 
        Dipole               -0.1286 Ry au,         -0.3267 Debye
        Dipole field         -0.0003 Ry au, 

        Potential amp.        0.0243 Ry
        Total length         46.1881 bohr


     total cpu time spent up to now is     1712.8 secs

     total energy              =   -1851.38913198 Ry
     estimated scf accuracy    <       1.59777665 Ry

     iteration #  6     ecut=    55.12 Ry     beta= 0.10
     Davidson diagonalization with overlap
     ethr =  7.59E-04,  avg # of iterations =  2.3

     negative rho (up, down):  5.967E-03 0.000E+00

     Adding external electric field

     Computed dipole along edir(3) : 
        Dipole                0.0651 Ry au,          0.1655 Debye
        Dipole field          0.0001 Ry au, 

        Potential amp.       -0.0123 Ry
        Total length         46.1881 bohr


     total cpu time spent up to now is     1955.5 secs

     total energy              =   -1851.48400572 Ry
     estimated scf accuracy    <       1.79958658 Ry

     iteration #  7     ecut=    55.12 Ry     beta= 0.10
     Davidson diagonalization with overlap
     ethr =  7.59E-04,  avg # of iterations =  1.0

     negative rho (up, down):  5.936E-03 0.000E+00

     Adding external electric field

     Computed dipole along edir(3) : 
        Dipole                0.0276 Ry au,          0.0702 Debye
        Dipole field          0.0001 Ry au, 

        Potential amp.       -0.0052 Ry
        Total length         46.1881 bohr


     total cpu time spent up to now is     2167.7 secs

     total energy              =   -1851.45841381 Ry
     estimated scf accuracy    <       0.18306019 Ry

     iteration #  8     ecut=    55.12 Ry     beta= 0.10
     Davidson diagonalization with overlap
     c_bands:  1 eigenvalues not converged
     c_bands:  1 eigenvalues not converged
     ethr =  1.17E-04,  avg # of iterations = 11.7

     negative rho (up, down):  5.849E-03 0.000E+00

     Adding external electric field

     Computed dipole along edir(3) : 
        Dipole                0.1967 Ry au,          0.4998 Debye
        Dipole field          0.0004 Ry au, 

        Potential amp.       -0.0371 Ry
        Total length         46.1881 bohr


     total cpu time spent up to now is     2615.8 secs

     total energy              =   -1851.47986399 Ry
     estimated scf accuracy    <       0.75981227 Ry

     iteration #  9     ecut=    55.12 Ry     beta= 0.10
     Davidson diagonalization with overlap
     ethr =  1.17E-04,  avg # of iterations =  3.2

     negative rho (up, down):  5.805E-03 0.000E+00

     Adding external electric field

     Computed dipole along edir(3) : 
        Dipole                0.2781 Ry au,          0.7069 Debye
        Dipole field          0.0006 Ry au, 

        Potential amp.       -0.0525 Ry
        Total length         46.1881 bohr


     total cpu time spent up to now is     3182.3 secs

     total energy              =   -1851.49448545 Ry
     estimated scf accuracy    <       0.04966883 Ry

     iteration # 10     ecut=    55.12 Ry     beta= 0.10
     Davidson diagonalization with overlap
     c_bands:  2 eigenvalues not converged
     c_bands:  1 eigenvalues not converged
     c_bands:  1 eigenvalues not converged
     c_bands:  1 eigenvalues not converged
     c_bands:  1 eigenvalues not converged
     c_bands:  1 eigenvalues not converged
     c_bands:  1 eigenvalues not converged
     c_bands:  1 eigenvalues not converged
     c_bands:  1 eigenvalues not converged
     c_bands:  1 eigenvalues not converged
     c_bands:  1 eigenvalues not converged
     c_bands:  2 eigenvalues not converged
     c_bands:  1 eigenvalues not converged
     c_bands:  1 eigenvalues not converged
     c_bands:  2 eigenvalues not converged
     c_bands:  1 eigenvalues not converged
     c_bands:  1 eigenvalues not converged
     c_bands:  1 eigenvalues not converged
     c_bands:  1 eigenvalues not converged
     ethr =  3.18E-05,  avg # of iterations = 14.3

     negative rho (up, down):  5.792E-03 0.000E+00

     Adding external electric field

     Computed dipole along edir(3) : 
        Dipole                0.1409 Ry au,          0.3580 Debye
        Dipole field          0.0003 Ry au, 

        Potential amp.       -0.0266 Ry
        Total length         46.1881 bohr


     total cpu time spent up to now is     3718.3 secs

     total energy              =   -1851.49147021 Ry
     estimated scf accuracy    <       0.21971098 Ry

     iteration # 11     ecut=    55.12 Ry     beta= 0.10
     Davidson diagonalization with overlap
     c_bands:  3 eigenvalues not converged
     ethr =  3.18E-05,  avg # of iterations =  5.5

     negative rho (up, down):  5.766E-03 0.000E+00

     Adding external electric field

     Computed dipole along edir(3) : 
        Dipole                0.1659 Ry au,          0.4217 Debye
        Dipole field          0.0003 Ry au, 

        Potential amp.       -0.0313 Ry
        Total length         46.1881 bohr


     total cpu time spent up to now is     4076.8 secs

     total energy              =   -1851.48827322 Ry
     estimated scf accuracy    <       0.09310456 Ry

     iteration # 12     ecut=    55.12 Ry     beta= 0.10
     Davidson diagonalization with overlap
     ethr =  3.18E-05,  avg # of iterations =  4.3

     negative rho (up, down):  5.715E-03 0.000E+00

     Adding external electric field

     Computed dipole along edir(3) : 
        Dipole                0.2023 Ry au,          0.5141 Debye
        Dipole field          0.0004 Ry au, 

        Potential amp.       -0.0382 Ry
        Total length         46.1881 bohr


     total cpu time spent up to now is     4437.8 secs

     total energy              =   -1851.49386911 Ry
     estimated scf accuracy    <       0.02014936 Ry

     iteration # 13     ecut=    55.12 Ry     beta= 0.10
     Davidson diagonalization with overlap
     c_bands:  2 eigenvalues not converged
     c_bands:  2 eigenvalues not converged
     c_bands:  1 eigenvalues not converged
     c_bands:  4 eigenvalues not converged
     c_bands:  1 eigenvalues not converged
     c_bands:  1 eigenvalues not converged
     c_bands:  1 eigenvalues not converged
     c_bands:  1 eigenvalues not converged
     c_bands:  2 eigenvalues not converged
     c_bands:  2 eigenvalues not converged
     c_bands:  1 eigenvalues not converged
     c_bands:  2 eigenvalues not converged
     ethr =  1.29E-05,  avg # of iterations = 10.6

     negative rho (up, down):  5.664E-03 0.000E+00

     Adding external electric field

     Computed dipole along edir(3) : 
        Dipole                0.2033 Ry au,          0.5166 Debye
        Dipole field          0.0004 Ry au, 

        Potential amp.       -0.0384 Ry
        Total length         46.1881 bohr


     total cpu time spent up to now is     4806.4 secs

     total energy              =   -1851.49389450 Ry
     estimated scf accuracy    <       0.01210524 Ry

     iteration # 14     ecut=    55.12 Ry     beta= 0.10
     Davidson diagonalization with overlap
     c_bands:  2 eigenvalues not converged
     c_bands:  1 eigenvalues not converged
     c_bands:  3 eigenvalues not converged
     c_bands:  1 eigenvalues not converged
     c_bands:  1 eigenvalues not converged
     c_bands:  1 eigenvalues not converged
     c_bands:  1 eigenvalues not converged
     c_bands:  1 eigenvalues not converged
     c_bands:  3 eigenvalues not converged
     ethr =  7.76E-06,  avg # of iterations =  6.7

     negative rho (up, down):  5.630E-03 0.000E+00

     Adding external electric field

     Computed dipole along edir(3) : 
        Dipole                0.1945 Ry au,          0.4943 Debye
        Dipole field          0.0004 Ry au, 

        Potential amp.       -0.0367 Ry
        Total length         46.1881 bohr


     total cpu time spent up to now is     5410.0 secs

     total energy              =   -1851.49480726 Ry
     estimated scf accuracy    <       0.00086809 Ry

     iteration # 15     ecut=    55.12 Ry     beta= 0.10
     Davidson diagonalization with overlap
     c_bands:  1 eigenvalues not converged
     c_bands:  2 eigenvalues not converged
     c_bands:  1 eigenvalues not converged
     c_bands:  2 eigenvalues not converged
     c_bands:  1 eigenvalues not converged
     c_bands:  1 eigenvalues not converged
     c_bands:  1 eigenvalues not converged
     c_bands:  3 eigenvalues not converged
     c_bands:  1 eigenvalues not converged
     c_bands:  1 eigenvalues not converged
     c_bands:  2 eigenvalues not converged
     c_bands:  1 eigenvalues not converged
     c_bands:  3 eigenvalues not converged
     c_bands:  1 eigenvalues not converged
     c_bands:  1 eigenvalues not converged
     c_bands:  1 eigenvalues not converged
     c_bands:  2 eigenvalues not converged
     c_bands:  1 eigenvalues not converged
     c_bands:  1 eigenvalues not converged
     c_bands:  1 eigenvalues not converged
     c_bands:  2 eigenvalues not converged
     c_bands:  2 eigenvalues not converged
     c_bands:  1 eigenvalues not converged
     c_bands:  1 eigenvalues not converged
     c_bands:  2 eigenvalues not converged
     c_bands:  1 eigenvalues not converged
     c_bands:  1 eigenvalues not converged
     c_bands:  1 eigenvalues not converged
     c_bands:  1 eigenvalues not converged
     ethr =  5.56E-07,  avg # of iterations = 17.2

     negative rho (up, down):  5.620E-03 0.000E+00

     Adding external electric field

     Computed dipole along edir(3) : 
        Dipole                0.1801 Ry au,          0.4578 Debye
        Dipole field          0.0004 Ry au, 

        Potential amp.       -0.0340 Ry
        Total length         46.1881 bohr


     total cpu time spent up to now is     6001.8 secs

     total energy              =   -1851.49524317 Ry
     estimated scf accuracy    <       0.00064817 Ry

     iteration # 16     ecut=    55.12 Ry     beta= 0.10
     Davidson diagonalization with overlap
     c_bands:  1 eigenvalues not converged
     c_bands:  1 eigenvalues not converged
     c_bands:  2 eigenvalues not converged
     c_bands:  1 eigenvalues not converged
     c_bands:  2 eigenvalues not converged
     c_bands:  1 eigenvalues not converged
     ethr =  4.15E-07,  avg # of iterations =  6.1

     negative rho (up, down):  5.591E-03 0.000E+00

     Adding external electric field

     Computed dipole along edir(3) : 
        Dipole                0.1759 Ry au,          0.4470 Debye
        Dipole field          0.0004 Ry au, 

        Potential amp.       -0.0332 Ry
        Total length         46.1881 bohr


     total cpu time spent up to now is     6360.5 secs

     total energy              =   -1851.49520983 Ry
     estimated scf accuracy    <       0.00157722 Ry

     iteration # 17     ecut=    55.12 Ry     beta= 0.10
     Davidson diagonalization with overlap
     c_bands:  2 eigenvalues not converged
     c_bands:  1 eigenvalues not converged
     ethr =  4.15E-07,  avg # of iterations =  3.0

     negative rho (up, down):  5.571E-03 0.000E+00

     Adding external electric field

     Computed dipole along edir(3) : 
        Dipole                0.1840 Ry au,          0.4676 Debye
        Dipole field          0.0004 Ry au, 

        Potential amp.       -0.0347 Ry
        Total length         46.1881 bohr


     total cpu time spent up to now is     6673.9 secs

     total energy              =   -1851.49513141 Ry
     estimated scf accuracy    <       0.00071588 Ry

     iteration # 18     ecut=    55.12 Ry     beta= 0.10
     Davidson diagonalization with overlap
     c_bands:  1 eigenvalues not converged
     ethr =  4.15E-07,  avg # of iterations =  3.8

     negative rho (up, down):  5.559E-03 0.000E+00

     Adding external electric field

     Computed dipole along edir(3) : 
        Dipole                0.1769 Ry au,          0.4496 Debye
        Dipole field          0.0004 Ry au, 

        Potential amp.       -0.0334 Ry
        Total length         46.1881 bohr


     total cpu time spent up to now is     6977.3 secs

     total energy              =   -1851.49519124 Ry
     estimated scf accuracy    <       0.00019733 Ry

     iteration # 19     ecut=    55.12 Ry     beta= 0.10
     Davidson diagonalization with overlap
     ethr =  1.26E-07,  avg # of iterations =  3.1

     negative rho (up, down):  5.550E-03 0.000E+00

     Adding external electric field

     Computed dipole along edir(3) : 
        Dipole                0.1808 Ry au,          0.4596 Debye
        Dipole field          0.0004 Ry au, 

        Potential amp.       -0.0341 Ry
        Total length         46.1881 bohr


     total cpu time spent up to now is     7332.0 secs

     total energy              =   -1851.49520431 Ry
     estimated scf accuracy    <       0.00007109 Ry

     iteration # 20     ecut=    55.12 Ry     beta= 0.10
     Davidson diagonalization with overlap
     ethr =  4.56E-08,  avg # of iterations =  4.8

     negative rho (up, down):  5.549E-03 0.000E+00

     Adding external electric field

     Computed dipole along edir(3) : 
        Dipole                0.1795 Ry au,          0.4563 Debye
        Dipole field          0.0004 Ry au, 

        Potential amp.       -0.0339 Ry
        Total length         46.1881 bohr


     total cpu time spent up to now is     7727.2 secs

     total energy              =   -1851.49521259 Ry
     estimated scf accuracy    <       0.00002172 Ry

     iteration # 21     ecut=    55.12 Ry     beta= 0.10
     Davidson diagonalization with overlap
     c_bands:  1 eigenvalues not converged
     ethr =  1.39E-08,  avg # of iterations =  5.3

     negative rho (up, down):  5.535E-03 0.000E+00

     Adding external electric field

     Computed dipole along edir(3) : 
        Dipole                0.1825 Ry au,          0.4638 Debye
        Dipole field          0.0004 Ry au, 

        Potential amp.       -0.0345 Ry
        Total length         46.1881 bohr


     total cpu time spent up to now is     8096.9 secs

     End of self-consistent calculation

          k = 0.0000 0.0000 0.0000 ( 42429 PWs)   bands (ev):

   -63.8374 -63.8353 -63.7619 -63.7600 -63.7007 -63.6989 -35.8613 -35.8509
   -35.8240 -35.8162 -35.8105 -35.7656 -35.7591 -35.7539 -35.7529 -35.7479
   -35.7239 -35.7103 -35.7065 -35.6904 -35.6861 -35.6659 -35.6342 -35.6300
   -30.2964 -30.1887 -29.9808 -29.8711 -29.0106 -28.9135 -14.5544 -14.2643
   -14.1575 -14.0456 -14.0226 -13.9536 -13.8915 -13.7617 -13.7403 -13.6740
   -13.5335 -13.5130 -13.2188 -13.0201 -12.8511 -12.8331 -12.6783 -12.4560
    -1.1337  -0.8373  -0.8152  -0.6146  -0.4673  -0.2930  -0.1903   0.0870
     0.1606   0.1826   0.2819   0.4325   0.7252   0.7456   0.8047   1.0277
     1.0654   1.1205   1.1760   1.2463   1.2724   1.4034   1.6769   1.8116
     1.9500   2.0768   2.0840   2.2770   2.4053   2.6100   2.7686   2.7715
     3.0109   3.1460   3.4447   3.6031   3.6131   3.7241   3.8230   3.8883
     3.9361   4.1319   4.3745   4.4945   4.5308   4.5389

          k = 0.0000 0.0142 0.0000 ( 42462 PWs)   bands (ev):

   -63.8374 -63.8353 -63.7618 -63.7600 -63.7007 -63.6989 -35.8613 -35.8514
   -35.8237 -35.8153 -35.8108 -35.7653 -35.7604 -35.7534 -35.7528 -35.7471
   -35.7242 -35.7110 -35.7058 -35.6903 -35.6861 -35.6666 -35.6342 -35.6301
   -30.2943 -30.1903 -29.9786 -29.8726 -29.0087 -28.9149 -14.5393 -14.2497
   -14.1561 -14.0480 -14.0253 -13.9578 -13.8880 -13.7636 -13.7425 -13.6781
   -13.5340 -13.5181 -13.2406 -13.0158 -12.8532 -12.8328 -12.6832 -12.4783
    -1.0773  -0.8016  -0.7748  -0.5794  -0.4284  -0.2772  -0.1472   0.1330
     0.1786   0.2153   0.3242   0.4586   0.7326   0.7553   0.8333   1.0258
     1.0754   1.1084   1.1891   1.2648   1.2678   1.4131   1.6580   1.8270
     1.9444   2.0763   2.1103   2.2327   2.3714   2.6060   2.7395   2.7485
     2.9309   3.0558   3.3216   3.4680   3.5251   3.7729   3.8477   4.0453
     4.0821   4.0995   4.3640   4.4828   4.4908   4.5281

          k = 0.0000 0.0285 0.0000 ( 42479 PWs)   bands (ev):

   -63.8373 -63.8354 -63.7617 -63.7601 -63.7006 -63.6990 -35.8613 -35.8525
   -35.8231 -35.8125 -35.8117 -35.7648 -35.7637 -35.7538 -35.7509 -35.7451
   -35.7250 -35.7132 -35.7039 -35.6901 -35.6863 -35.6688 -35.6342 -35.6305
   -30.2883 -30.1950 -29.9721 -29.8771 -29.0031 -28.9189 -14.4948 -14.2065
   -14.1518 -14.0550 -14.0318 -13.9696 -13.8788 -13.7693 -13.7482 -13.6890
   -13.5946 -13.4728 -13.3031 -13.0037 -12.8595 -12.8317 -12.6969 -12.5426
    -0.9160  -0.6997  -0.6578  -0.4811  -0.3142  -0.2292  -0.0301   0.2292
     0.2634   0.2999   0.4435   0.5301   0.7538   0.7913   0.9079   1.0206
     1.0809   1.1384   1.1904   1.2443   1.3268   1.4450   1.6100   1.8584
     1.9158   2.1051   2.1177   2.1602   2.2852   2.5955   2.6250   2.6957
     2.7329   2.8011   3.0784   3.3142   3.5369   3.8050   3.9103   4.0102
     4.2046   4.2793   4.3245   4.3969   4.4957   4.5180

          k = 0.0000 0.0427 0.0000 ( 42483 PWs)   bands (ev):

   -63.8371 -63.8356 -63.7616 -63.7603 -63.7004 -63.6991 -35.8611 -35.8541
   -35.8223 -35.8131 -35.8081 -35.7688 -35.7636 -35.7547 -35.7474 -35.7425
   -35.7264 -35.7167 -35.7008 -35.6898 -35.6867 -35.6721 -35.6341 -35.6310
   -30.2788 -30.2026 -29.9622 -29.8845 -28.9943 -28.9256 -14.4226 -14.1448
   -14.1368 -14.0651 -14.0390 -13.9864 -13.8663 -13.7784 -13.7551 -13.7043
   -13.6882 -13.3999 -13.3993 -12.9863 -12.8696 -12.8289 -12.7173 -12.6409
    -0.6733  -0.5469  -0.4755  -0.3389  -0.1521  -0.1325   0.1279   0.2989
     0.4009   0.4480   0.6048   0.6254   0.7972   0.8499   0.9828   1.0147
     1.1147   1.1736   1.2214   1.2278   1.3974   1.5146   1.5524   1.7874
     1.8537   2.0641   2.1189   2.1829   2.2587   2.3348   2.5221   2.5788
     2.6075   2.6375   2.8482   3.1607   3.6428   3.7910   3.8581   3.9838
     4.1640   4.2498   4.2838   4.3421   4.3898   4.5170

          k = 0.0000 0.0569 0.0000 ( 42509 PWs)   bands (ev):

   -63.8369 -63.8358 -63.7614 -63.7605 -63.7002 -63.6993 -35.8607 -35.8559
   -35.8211 -35.8147 -35.8025 -35.7749 -35.7622 -35.7560 -35.7429 -35.7395
   -35.7283 -35.7211 -35.6967 -35.6894 -35.6871 -35.6764 -35.6338 -35.6317
   -30.2667 -30.2129 -29.9495 -29.8946 -28.9832 -28.9346 -14.3261 -14.1352
   -14.0819 -14.0438 -14.0395 -14.0041 -13.8546 -13.8034 -13.7903 -13.7603
   -13.7208 -13.5190 -13.3023 -12.9664 -12.8830 -12.8280 -12.7576 -12.7411
    -0.3937  -0.3690  -0.2454  -0.1792  -0.0567   0.1002   0.2756   0.3581
     0.4723   0.6200   0.7069   0.7194   0.8917   0.9171   0.9937   1.0172
     1.1421   1.1573   1.2311   1.3555   1.4617   1.4931   1.6583   1.6645
     1.7746   1.9938   2.0104   2.1090   2.2168   2.2891   2.3657   2.5099
     2.5610   2.6580   2.6702   3.0285   3.5957   3.6955   3.8050   3.9211
     3.9477   4.1651   4.2348   4.2651   4.3657   4.4551

          k = 0.0000 0.0712 0.0000 ( 42509 PWs)   bands (ev):

   -63.8366 -63.8360 -63.7612 -63.7607 -63.7000 -63.6995 -35.8600 -35.8576
   -35.8198 -35.8165 -35.7959 -35.7817 -35.7607 -35.7575 -35.7377 -35.7365
   -35.7306 -35.7263 -35.6920 -35.6889 -35.6876 -35.6813 -35.6335 -35.6324
   -30.2531 -30.2252 -29.9353 -29.9069 -28.9707 -28.9455 -14.2104 -14.1236
   -14.0943 -14.0447 -14.0219 -13.9402 -13.9265 -13.8334 -13.8038 -13.7641
   -13.7348 -13.6487 -13.1847 -12.9539 -12.9017 -12.8993 -12.7998 -12.7650
    -0.2049  -0.1699  -0.0314   0.0052   0.0479   0.3310   0.3697   0.3824
     0.4668   0.6767   0.7567   0.8114   0.8314   0.9729   0.9915   1.0595
     1.1265   1.1562   1.2543   1.4167   1.4669   1.4824   1.7043   1.7136
     1.8257   1.8619   1.9331   2.0364   2.1618   2.1983   2.4176   2.5279
     2.5352   2.6546   2.7954   2.8958   3.3267   3.5316   3.5795   3.7122
     3.9756   4.1374   4.1644   4.3046   4.3200   4.3483

          k = 0.0000-0.0854 0.0000 ( 42512 PWs)   bands (ev):

   -63.8365 -63.8362 -63.7609 -63.7609 -63.6998 -63.6997 -35.8591 -35.8589
   -35.8183 -35.8181 -35.7889 -35.7888 -35.7591 -35.7590 -35.7338 -35.7338
   -35.7318 -35.7316 -35.6885 -35.6885 -35.6864 -35.6863 -35.6330 -35.6329
   -30.2389 -30.2389 -29.9208 -29.9208 -28.9578 -28.9578 -14.1126 -14.1125
   -14.0804 -14.0804 -14.0304 -14.0304 -13.8215 -13.8215 -13.8041 -13.8041
   -13.7365 -13.7365 -13.0543 -13.0543 -12.9167 -12.9167 -12.7859 -12.7859
    -0.1130  -0.1130   0.0552   0.0553   0.2779   0.2780   0.3895   0.3895
     0.5946   0.5947   0.7362   0.7362   0.9253   0.9253   1.0008   1.0008
     1.2017   1.2017   1.3071   1.3071   1.4963   1.4964   1.7146   1.7146
     1.7973   1.7973   2.0302   2.0302   2.1693   2.1694   2.4425   2.4425
     2.6839   2.6839   2.8371   2.8372   3.2746   3.2746   3.5301   3.5302
     4.0735   4.0735   4.2214   4.2216   4.3116   4.3120

          k = 0.0134-0.0047 0.0000 ( 42462 PWs)   bands (ev):

   -63.8374 -63.8353 -63.7618 -63.7600 -63.7007 -63.6989 -35.8613 -35.8514
   -35.8237 -35.8153 -35.8108 -35.7653 -35.7604 -35.7534 -35.7528 -35.7471
   -35.7242 -35.7110 -35.7058 -35.6903 -35.6861 -35.6666 -35.6342 -35.6301
   -30.2943 -30.1903 -29.9786 -29.8726 -29.0087 -28.9149 -14.5393 -14.2497
   -14.1561 -14.0480 -14.0253 -13.9578 -13.8880 -13.7636 -13.7425 -13.6781
   -13.5340 -13.5181 -13.2406 -13.0158 -12.8532 -12.8328 -12.6832 -12.4783
    -1.0773  -0.8016  -0.7748  -0.5794  -0.4284  -0.2772  -0.1472   0.1330
     0.1786   0.2153   0.3242   0.4586   0.7326   0.7553   0.8333   1.0258
     1.0754   1.1084   1.1891   1.2648   1.2678   1.4131   1.6580   1.8270
     1.9444   2.0763   2.1103   2.2327   2.3714   2.6060   2.7395   2.7485
     2.9309   3.0558   3.3216   3.4680   3.5252   3.7730   3.8477   4.0451
     4.0825   4.0997   4.3641   4.4829   4.4893   4.5285

          k = 0.0134 0.0095 0.0000 ( 42475 PWs)   bands (ev):

   -63.8374 -63.8353 -63.7619 -63.7600 -63.7007 -63.6989 -35.8617 -35.8515
   -35.8224 -35.8165 -35.8122 -35.7650 -35.7590 -35.7538 -35.7533 -35.7469
   -35.7242 -35.7103 -35.7066 -35.6904 -35.6861 -35.6659 -35.6345 -35.6299
   -30.2956 -30.1885 -29.9796 -29.8708 -29.0100 -28.9128 -14.5574 -14.2687
   -14.1604 -14.0445 -14.0373 -13.9544 -13.8873 -13.7599 -13.7528 -13.6750
   -13.5367 -13.5139 -13.2201 -13.0115 -12.8544 -12.8368 -12.6838 -12.4580
    -1.0622  -0.7869  -0.7698  -0.5560  -0.4281  -0.2664  -0.1281   0.1209
     0.1856   0.2341   0.3285   0.4826   0.7597   0.7626   0.8421   1.0490
     1.0771   1.0923   1.2385   1.2427   1.2736   1.4406   1.6763   1.8320
     1.9218   2.0435   2.1218   2.2664   2.4068   2.5988   2.6948   2.6986
     2.9461   3.2049   3.4599   3.5334   3.6308   3.6570   3.8581   3.8717
     3.9049   4.0088   4.3456   4.4115   4.4725   4.5091

          k = 0.0134 0.0237 0.0000 ( 42471 PWs)   bands (ev):

   -63.8373 -63.8353 -63.7619 -63.7600 -63.7007 -63.6989 -35.8620 -35.8523
   -35.8209 -35.8158 -35.8140 -35.7642 -35.7602 -35.7541 -35.7529 -35.7454
   -35.7249 -35.7111 -35.7060 -35.6904 -35.6861 -35.6666 -35.6348 -35.6300
   -30.2927 -30.1898 -29.9763 -29.8720 -29.0076 -28.9136 -14.5451 -14.2580
   -14.1618 -14.0515 -14.0459 -13.9589 -13.8820 -13.7654 -13.7603 -13.6795
   -13.5356 -13.5243 -13.2427 -13.0001 -12.8596 -12.8396 -12.6934 -12.4819
    -0.9389  -0.7043  -0.6881  -0.4679  -0.3510  -0.2226  -0.0300   0.1991
     0.2270   0.3090   0.4127   0.5526   0.7853   0.8028   0.9039   1.0655
     1.0813   1.1161   1.2226   1.2680   1.3041   1.4847   1.6572   1.8669
     1.8836   2.0501   2.1532   2.2165   2.3670   2.5757   2.6049   2.6439
     2.8533   3.0801   3.2402   3.4784   3.4999   3.7513   3.8669   3.9172
     3.9482   4.0269   4.2393   4.3436   4.4162   4.4706

          k = 0.0134 0.0380 0.0000 ( 42452 PWs)   bands (ev):

   -63.8372 -63.8355 -63.7618 -63.7601 -63.7006 -63.6990 -35.8621 -35.8536
   -35.8194 -35.8161 -35.8131 -35.7638 -35.7628 -35.7550 -35.7507 -35.7429
   -35.7261 -35.7134 -35.7042 -35.6901 -35.6864 -35.6687 -35.6349 -35.6303
   -30.2861 -30.1945 -29.9691 -29.8766 -29.0017 -28.9173 -14.5026 -14.2177
   -14.1600 -14.0644 -14.0516 -13.9693 -13.8740 -13.7773 -13.7651 -13.6894
   -13.5960 -13.4812 -13.3050 -12.9837 -12.8687 -12.8398 -12.7102 -12.5463
    -0.7239  -0.5669  -0.5382  -0.3339  -0.2031  -0.1473   0.1228   0.2893
     0.3516   0.4076   0.5576   0.6495   0.8322   0.8433   0.9854   1.0632
     1.1102   1.1769   1.2184   1.2528   1.3699   1.5432   1.6295   1.8168
     1.9023   2.1091   2.1225   2.1949   2.2617   2.4741   2.5051   2.6516
     2.6981   2.7548   2.9282   3.3010   3.5841   3.7050   3.7250   3.9873
     4.0577   4.0892   4.2185   4.2602   4.3357   4.4056

          k = 0.0134 0.0522 0.0000 ( 42485 PWs)   bands (ev):

   -63.8370 -63.8356 -63.7616 -63.7602 -63.7004 -63.6991 -35.8619 -35.8551
   -35.8183 -35.8178 -35.8088 -35.7683 -35.7617 -35.7563 -35.7472 -35.7400
   -35.7278 -35.7168 -35.7011 -35.6898 -35.6867 -35.6720 -35.6349 -35.6307
   -30.2765 -30.2023 -29.9589 -29.8843 -28.9930 -28.9239 -14.4314 -14.1548
   -14.1490 -14.0729 -14.0607 -13.9827 -13.8642 -13.7855 -13.7738 -13.7019
   -13.6886 -13.4091 -13.3997 -12.9647 -12.8813 -12.8365 -12.7312 -12.6430
    -0.4546  -0.3964  -0.3296  -0.1798  -0.0515   0.0056   0.2900   0.3437
     0.4876   0.5323   0.7056   0.7511   0.8774   0.8902   1.0242   1.0444
     1.1495   1.1786   1.2469   1.3342   1.4442   1.5557   1.6987   1.7330
     1.8194   2.0853   2.0952   2.2258   2.2403   2.2729   2.4283   2.4747
     2.5706   2.6881   2.7073   3.1282   3.4725   3.6098   3.7190   3.9098
     3.9463   4.0727   4.1815   4.2550   4.3547   4.3711

          k = 0.0134 0.0664 0.0000 ( 42490 PWs)   bands (ev):

   -63.8368 -63.8359 -63.7615 -63.7604 -63.7002 -63.6993 -35.8613 -35.8566
   -35.8203 -35.8162 -35.8032 -35.7742 -35.7603 -35.7578 -35.7427 -35.7370
   -35.7300 -35.7214 -35.6970 -35.6894 -35.6871 -35.6762 -35.6347 -35.6313
   -30.2646 -30.2130 -29.9464 -29.8949 -28.9822 -28.9332 -14.3346 -14.1461
   -14.0753 -14.0750 -14.0513 -13.9957 -13.8556 -13.8020 -13.7878 -13.7858
   -13.7141 -13.5170 -13.3108 -12.9458 -12.8972 -12.8333 -12.7564 -12.7534
    -0.2247  -0.2062  -0.0657  -0.0327   0.0429   0.2556   0.3573   0.4088
     0.5057   0.6772   0.7518   0.8188   0.8852   0.9877   1.0223   1.0608
     1.0933   1.1970   1.2604   1.3957   1.4990   1.5386   1.6498   1.7996
     1.8801   1.9441   1.9662   2.1165   2.2006   2.2673   2.3309   2.4226
     2.5297   2.6394   2.8248   2.9711   3.2117   3.4402   3.6548   3.6761
     3.8642   4.1056   4.1930   4.2173   4.3014   4.3851

          k = 0.0134-0.0901 0.0000 ( 42525 PWs)   bands (ev):

   -63.8366 -63.8361 -63.7612 -63.7606 -63.7000 -63.6995 -35.8603 -35.8578
   -35.8221 -35.8145 -35.7967 -35.7809 -35.7595 -35.7587 -35.7376 -35.7342
   -35.7325 -35.7266 -35.6922 -35.6889 -35.6876 -35.6811 -35.6342 -35.6318
   -30.2513 -30.2258 -29.9328 -29.9079 -28.9703 -28.9447 -14.2175 -14.1341
   -14.0861 -14.0699 -14.0070 -13.9380 -13.9366 -13.8361 -13.8002 -13.7843
   -13.7231 -13.6456 -13.1910 -12.9410 -12.9156 -12.8943 -12.7990 -12.7740
    -0.1003  -0.0764   0.0693   0.0821   0.2317   0.3132   0.4443   0.4475
     0.5182   0.6756   0.7043   0.8432   0.8804   0.9639   1.0072   1.0396
     1.2035   1.2144   1.2270   1.4148   1.4484   1.5462   1.6128   1.7634
     1.8357   1.8466   2.0256   2.0455   2.1536   2.1908   2.3596   2.4633
     2.5734   2.7338   2.8248   2.8291   3.1726   3.3065   3.4626   3.4642
     3.9907   4.1286   4.1404   4.2695   4.3081   4.3310

          k = 0.0134-0.0759 0.0000 ( 42500 PWs)   bands (ev):

   -63.8365 -63.8362 -63.7610 -63.7609 -63.6998 -63.6997 -35.8589 -35.8587
   -35.8235 -35.8129 -35.7896 -35.7881 -35.7611 -35.7572 -35.7359 -35.7325
   -35.7316 -35.7312 -35.6886 -35.6885 -35.6866 -35.6861 -35.6336 -35.6323
   -30.2400 -30.2377 -29.9225 -29.9191 -28.9580 -28.9576 -14.1201 -14.1084
   -14.0800 -14.0783 -14.0467 -14.0121 -13.8236 -13.8233 -13.8021 -13.8013
   -13.7492 -13.7248 -13.0574 -13.0495 -12.9346 -12.9006 -12.7911 -12.7818
    -0.1202  -0.0920   0.0282   0.0552   0.1578   0.3665   0.4334   0.4931
     0.5174   0.6967   0.7199   0.7471   0.8869   0.9842   1.0145   1.0202
     1.1683   1.2447   1.2691   1.3597   1.4300   1.5229   1.5919   1.7232
     1.7966   1.8237   1.9376   1.9836   2.0760   2.1870   2.4453   2.4671
     2.6284   2.6415   2.7575   2.7791   3.3592   3.4407   3.4819   3.5793
     4.0660   4.0744   4.1985   4.2415   4.3310   4.3470

          k = 0.0134-0.0617 0.0000 ( 42528 PWs)   bands (ev):

   -63.8367 -63.8360 -63.7611 -63.7607 -63.7000 -63.6995 -35.8596 -35.8570
   -35.8244 -35.8115 -35.7952 -35.7823 -35.7626 -35.7559 -35.7387 -35.7379
   -35.7291 -35.7261 -35.6917 -35.6889 -35.6876 -35.6815 -35.6329 -35.6328
   -30.2545 -30.2247 -29.9375 -29.9061 -28.9711 -28.9462 -14.2037 -14.1162
   -14.1025 -14.0337 -14.0186 -13.9425 -13.9161 -13.8355 -13.8085 -13.7450
   -13.7400 -13.6543 -13.1783 -12.9683 -12.9037 -12.8862 -12.8031 -12.7577
    -0.2718  -0.2653  -0.1109  -0.0994  -0.0294   0.2462   0.3347   0.4237
     0.5255   0.6787   0.7385   0.7865   0.9034   0.9566   0.9726   1.0682
     1.1290   1.1594   1.2324   1.4117   1.4196   1.4748   1.5250   1.6545
     1.7904   1.8040   1.9310   2.0323   2.0912   2.1992   2.4793   2.4967
     2.5358   2.6205   2.6393   2.9078   3.6518   3.6651   3.7418   3.8498
     3.9634   4.1173   4.2284   4.2945   4.3605   4.4898

          k = 0.0134-0.0474 0.0000 ( 42477 PWs)   bands (ev):

   -63.8369 -63.8357 -63.7614 -63.7605 -63.7002 -63.6993 -35.8601 -35.8551
   -35.8250 -35.8104 -35.8018 -35.7754 -35.7638 -35.7547 -35.7431 -35.7415
   -35.7271 -35.7210 -35.6965 -35.6893 -35.6871 -35.6765 -35.6332 -35.6320
   -30.2683 -30.2128 -29.9518 -29.8944 -28.9839 -28.9356 -14.3197 -14.1287
   -14.0876 -14.0294 -14.0170 -14.0102 -13.8572 -13.8057 -13.7943 -13.7357
   -13.7257 -13.5214 -13.2956 -12.9836 -12.8732 -12.8198 -12.7620 -12.7323
    -0.5380  -0.4556  -0.3405  -0.2738  -0.1270   0.0079   0.1991   0.3526
     0.4611   0.6014   0.6647   0.6863   0.8126   0.8863   1.0020   1.0077
     1.1254   1.1846   1.1865   1.2776   1.4405   1.4710   1.4981   1.5816
     1.8840   2.0213   2.0329   2.0486   2.1593   2.2804   2.3616   2.5367
     2.5624   2.6378   2.7955   3.0150   3.7285   3.8195   3.8893   3.9800
     4.1605   4.2456   4.2798   4.3609   4.3759   4.5328

          k = 0.0134-0.0332 0.0000 ( 42418 PWs)   bands (ev):

   -63.8371 -63.8355 -63.7616 -63.7603 -63.7004 -63.6991 -35.8605 -35.8534
   -35.8250 -35.8099 -35.8076 -35.7691 -35.7648 -35.7539 -35.7475 -35.7440
   -35.7256 -35.7165 -35.7006 -35.6898 -35.6867 -35.6721 -35.6336 -35.6312
   -30.2801 -30.2028 -29.9641 -29.8847 -28.9950 -28.9265 -14.4175 -14.1399
   -14.1298 -14.0676 -14.0160 -13.9882 -13.8712 -13.7815 -13.7346 -13.7057
   -13.6882 -13.3994 -13.3944 -13.0003 -12.8630 -12.8235 -12.7093 -12.6402
    -0.7944  -0.6234  -0.5503  -0.4238  -0.2059  -0.2014   0.0441   0.2709
     0.3572   0.4077   0.5557   0.5684   0.7220   0.8140   0.9618   0.9983
     1.0778   1.1619   1.2051   1.2118   1.3765   1.4242   1.5448   1.7622
     1.9511   2.0160   2.0841   2.1631   2.2740   2.3802   2.5395   2.5634
     2.6395   2.7203   2.9856   3.1251   3.6133   3.8360   3.9130   4.1039
     4.2888   4.3091   4.3723   4.4319   4.4445   4.6070

          k = 0.0134-0.0190 0.0000 ( 42454 PWs)   bands (ev):

   -63.8373 -63.8354 -63.7617 -63.7601 -63.7006 -63.6990 -35.8609 -35.8520
   -35.8246 -35.8122 -35.8101 -35.7653 -35.7640 -35.7534 -35.7509 -35.7459
   -35.7246 -35.7132 -35.7038 -35.6901 -35.6863 -35.6688 -35.6339 -35.6305
   -30.2891 -30.1952 -29.9733 -29.8773 -29.0035 -28.9195 -14.4919 -14.2023
   -14.1491 -14.0562 -14.0181 -13.9696 -13.8826 -13.7710 -13.7364 -13.6889
   -13.5941 -13.4698 -13.3025 -13.0118 -12.8562 -12.8284 -12.6921 -12.5413
    -0.9835  -0.7448  -0.7001  -0.5326  -0.3514  -0.2568  -0.0835   0.2084
     0.2342   0.2623   0.4041   0.4890   0.7177   0.7707   0.8787   1.0063
     1.0828   1.1197   1.1865   1.2402   1.3127   1.4057   1.6090   1.8303
     1.9631   2.0741   2.1187   2.1635   2.2937   2.5902   2.7196   2.7230
     2.7581   2.8070   3.1385   3.2989   3.5203   3.8152   3.8744   4.1363
     4.2654   4.2914   4.3432   4.4715   4.5026   4.5459

          k = 0.0268-0.0095 0.0000 ( 42479 PWs)   bands (ev):

   -63.8373 -63.8354 -63.7617 -63.7601 -63.7006 -63.6990 -35.8613 -35.8525
   -35.8231 -35.8125 -35.8117 -35.7648 -35.7637 -35.7538 -35.7509 -35.7451
   -35.7250 -35.7132 -35.7039 -35.6901 -35.6863 -35.6688 -35.6342 -35.6305
   -30.2883 -30.1950 -29.9721 -29.8771 -29.0031 -28.9189 -14.4948 -14.2065
   -14.1518 -14.0550 -14.0318 -13.9696 -13.8788 -13.7693 -13.7482 -13.6890
   -13.5946 -13.4728 -13.3031 -13.0037 -12.8595 -12.8317 -12.6969 -12.5426
    -0.9160  -0.6997  -0.6578  -0.4811  -0.3142  -0.2292  -0.0301   0.2292
     0.2634   0.2999   0.4435   0.5301   0.7538   0.7913   0.9079   1.0206
     1.0809   1.1384   1.1904   1.2443   1.3268   1.4450   1.6100   1.8584
     1.9158   2.1050   2.1177   2.1602   2.2852   2.5955   2.6250   2.6957
     2.7329   2.8011   3.0784   3.3142   3.5369   3.8050   3.9104   4.0103
     4.2044   4.2794   4.3245   4.3979   4.4409   4.4966

          k = 0.0268 0.0048 0.0000 ( 42471 PWs)   bands (ev):

   -63.8373 -63.8353 -63.7619 -63.7600 -63.7007 -63.6989 -35.8620 -35.8523
   -35.8209 -35.8158 -35.8140 -35.7642 -35.7602 -35.7541 -35.7529 -35.7454
   -35.7249 -35.7111 -35.7060 -35.6904 -35.6861 -35.6666 -35.6348 -35.6300
   -30.2927 -30.1898 -29.9763 -29.8720 -29.0076 -28.9136 -14.5451 -14.2580
   -14.1618 -14.0515 -14.0459 -13.9589 -13.8820 -13.7654 -13.7603 -13.6795
   -13.5356 -13.5243 -13.2427 -13.0001 -12.8596 -12.8396 -12.6934 -12.4819
    -0.9389  -0.7043  -0.6881  -0.4679  -0.3510  -0.2226  -0.0300   0.1991
     0.2270   0.3090   0.4127   0.5527   0.7853   0.8028   0.9039   1.0655
     1.0813   1.1160   1.2226   1.2680   1.3041   1.4847   1.6572   1.8669
     1.8836   2.0501   2.1532   2.2165   2.3670   2.5757   2.6049   2.6439
     2.8533   3.0800   3.2402   3.4784   3.4998   3.7510   3.8671   3.9173
     3.9483   4.0268   4.2395   4.3445   4.4159   4.4704

          k = 0.0268 0.0190 0.0000 ( 42427 PWs)   bands (ev):

   -63.8373 -63.8353 -63.7619 -63.7599 -63.7007 -63.6989 -35.8626 -35.8527
   -35.8184 -35.8174 -35.8166 -35.7635 -35.7588 -35.7546 -35.7536 -35.7445
   -35.7252 -35.7105 -35.7069 -35.6904 -35.6861 -35.6659 -35.6353 -35.6298
   -30.2932 -30.1878 -29.9763 -29.8699 -29.0085 -28.9109 -14.5658 -14.2807
   -14.1692 -14.0720 -14.0418 -13.9562 -13.8819 -13.7837 -13.7554 -13.6775
   -13.5455 -13.5164 -13.2235 -12.9904 -12.8634 -12.8463 -12.6988 -12.4635
    -0.8591  -0.6433  -0.6400  -0.3887  -0.3112  -0.1839   0.0449   0.2253
     0.2636   0.3774   0.4615   0.6241   0.7983   0.8624   0.9522   1.1055
     1.1095   1.1206   1.2429   1.2738   1.3277   1.5419   1.6606   1.8537
     1.8704   1.9950   2.1811   2.2380   2.4119   2.4935   2.5236   2.6036
     2.8443   3.2583   3.3380   3.4679   3.5080   3.6487   3.7099   3.7492
     3.8635   3.9227   4.0790   4.2920   4.3596   4.5107

          k = 0.0268 0.0332 0.0000 ( 42443 PWs)   bands (ev):

   -63.8373 -63.8354 -63.7619 -63.7599 -63.7007 -63.6989 -35.8630 -35.8536
   -35.8193 -35.8174 -35.8155 -35.7625 -35.7598 -35.7557 -35.7527 -35.7426
   -35.7262 -35.7113 -35.7064 -35.6904 -35.6861 -35.6666 -35.6357 -35.6298
   -30.2899 -30.1891 -29.9723 -29.8711 -29.0058 -28.9114 -14.5552 -14.2724
   -14.1733 -14.0899 -14.0425 -13.9600 -13.8793 -13.7999 -13.7555 -13.6816
   -13.5383 -13.5348 -13.2464 -12.9764 -12.8706 -12.8501 -12.7113 -12.4881
    -0.6871  -0.5285  -0.5183  -0.2614  -0.2001  -0.1116   0.1767   0.3261
     0.3397   0.4742   0.5766   0.7236   0.8341   0.9150   1.0307   1.1244
     1.1488   1.1732   1.2545   1.2726   1.3700   1.5835   1.6580   1.8044
     1.8971   2.0067   2.1930   2.2163   2.3575   2.3946   2.4182   2.6212
     2.7650   3.0175   3.0493   3.3788   3.5229   3.5626   3.6384   3.8071
     3.8700   3.9326   3.9901   4.2010   4.2665   4.4156

          k = 0.0268 0.0475 0.0000 ( 42451 PWs)   bands (ev):

   -63.8371 -63.8355 -63.7619 -63.7600 -63.7006 -63.6990 -35.8630 -35.8547
   -35.8218 -35.8160 -35.8124 -35.7631 -35.7611 -35.7569 -35.7505 -35.7401
   -35.7276 -35.7136 -35.7045 -35.6902 -35.6863 -35.6687 -35.6359 -35.6300
   -30.2832 -30.1939 -29.9650 -29.8758 -29.0000 -28.9151 -14.5132 -14.2328
   -14.1732 -14.1024 -14.0475 -13.9678 -13.8743 -13.8110 -13.7606 -13.6894
   -13.5981 -13.4923 -13.3078 -12.9602 -12.8813 -12.8492 -12.7286 -12.5518
    -0.4567  -0.3580  -0.3420  -0.1124  -0.0340  -0.0056   0.3435   0.3852
     0.5056   0.5582   0.7317   0.8232   0.8864   0.9330   1.0806   1.1156
     1.1574   1.2191   1.2786   1.3518   1.4292   1.5745   1.6987   1.7740
     1.8980   2.0745   2.1132   2.2250   2.2446   2.3218   2.3274   2.6404
     2.6531   2.6914   2.7269   3.2107   3.3056   3.4912   3.6471   3.7048
     3.9173   3.9902   4.0255   4.1151   4.2197   4.3525

          k = 0.0268 0.0617 0.0000 ( 42496 PWs)   bands (ev):

   -63.8370 -63.8357 -63.7617 -63.7601 -63.7004 -63.6991 -35.8626 -35.8559
   -35.8240 -35.8138 -35.8085 -35.7677 -35.7598 -35.7584 -35.7470 -35.7374
   -35.7295 -35.7171 -35.7014 -35.6899 -35.6867 -35.6719 -35.6359 -35.6304
   -30.2738 -30.2020 -29.9550 -29.8839 -28.9915 -28.9220 -14.4413 -14.1684
   -14.1628 -14.1072 -14.0558 -13.9771 -13.8670 -13.8147 -13.7703 -13.6983
   -13.6895 -13.4193 -13.4007 -12.9434 -12.8953 -12.8427 -12.7477 -12.6467
    -0.2244  -0.1852  -0.0816   0.0301   0.0832   0.2038   0.4064   0.5118
     0.5918   0.6549   0.8137   0.8900   0.9367   0.9544   1.0893   1.0987
     1.1471   1.2510   1.2820   1.3970   1.5351   1.5540   1.6488   1.8567
     1.8966   2.0021   2.0586   2.1804   2.2147   2.2244   2.3182   2.3797
     2.4479   2.6546   2.8072   3.0250   3.0600   3.2841   3.4891   3.6686
     3.7557   4.0595   4.0911   4.1103   4.2887   4.3179

          k = 0.0268-0.0949 0.0000 ( 42502 PWs)   bands (ev):

   -63.8367 -63.8359 -63.7615 -63.7603 -63.7002 -63.6993 -35.8616 -35.8569
   -35.8258 -35.8116 -35.8035 -35.7736 -35.7599 -35.7585 -35.7426 -35.7348
   -35.7318 -35.7216 -35.6973 -35.6894 -35.6871 -35.6761 -35.6355 -35.6309
   -30.2624 -30.2131 -29.9433 -29.8952 -28.9813 -28.9319 -14.3428 -14.1587
   -14.1029 -14.0723 -14.0599 -13.9854 -13.8588 -13.8105 -13.8019 -13.7839
   -13.7061 -13.5162 -13.3187 -12.9281 -12.9122 -12.8333 -12.7662 -12.7597
    -0.0398  -0.0289   0.1310   0.1415   0.2003   0.3796   0.4619   0.5697
     0.5858   0.7132   0.8221   0.8264   0.9492   1.0371   1.0412   1.1159
     1.1533   1.2436   1.2657   1.3986   1.5308   1.5480   1.5966   1.7548
     1.9135   1.9491   2.0313   2.0758   2.1411   2.2130   2.2346   2.4167
     2.4264   2.7248   2.7453   2.8522   3.0623   3.1490   3.2797   3.4308
     3.8575   4.0899   4.1242   4.1722   4.2799   4.3609

          k = 0.0268-0.0807 0.0000 ( 42504 PWs)   bands (ev):

   -63.8365 -63.8361 -63.7613 -63.7606 -63.7000 -63.6995 -35.8602 -35.8578
   -35.8269 -35.8099 -35.7972 -35.7803 -35.7614 -35.7572 -35.7377 -35.7341
   -35.7323 -35.7268 -35.6924 -35.6889 -35.6876 -35.6810 -35.6349 -35.6314
   -30.2498 -30.2263 -29.9306 -29.9088 -28.9699 -28.9440 -14.2231 -14.1445
   -14.0894 -14.0804 -13.9918 -13.9440 -13.9362 -13.8408 -13.8004 -13.7976
   -13.7117 -13.6446 -13.1957 -12.9316 -12.9310 -12.8847 -12.8010 -12.7824
     0.0163   0.0171   0.1235   0.1281   0.3061   0.4582   0.4953   0.5877
     0.6551   0.6704   0.7150   0.8297   0.9429   0.9651   1.0581   1.0777
     1.1978   1.2753   1.3142   1.3539   1.4114   1.5007   1.6029   1.6768
     1.7808   1.8869   1.9602   1.9605   2.0171   2.1683   2.3765   2.4033
     2.5649   2.6249   2.6989   2.7420   3.1681   3.2194   3.3855   3.4399
     3.9707   4.0970   4.1048   4.2804   4.2953   4.3816

          k = 0.0268-0.0664 0.0000 ( 42506 PWs)   bands (ev):

   -63.8365 -63.8362 -63.7610 -63.7608 -63.6998 -63.6997 -35.8586 -35.8584
   -35.8274 -35.8088 -35.7901 -35.7875 -35.7627 -35.7560 -35.7376 -35.7325
   -35.7314 -35.7300 -35.6886 -35.6885 -35.6867 -35.6860 -35.6341 -35.6319
   -30.2408 -30.2369 -29.9237 -29.9178 -28.9582 -28.9575 -14.1273 -14.1072
   -14.0765 -14.0760 -14.0598 -13.9957 -13.8272 -13.8262 -13.8012 -13.7919
   -13.7636 -13.7150 -13.0586 -13.0450 -12.9491 -12.8899 -12.7957 -12.7795
    -0.1128  -0.0829   0.0085   0.0237   0.1073   0.4014   0.5002   0.5299
     0.6214   0.7095   0.7563   0.8174   0.9026   1.0177   1.0408   1.1018
     1.1670   1.2069   1.2488   1.3753   1.4052   1.4449   1.5541   1.6549
     1.6580   1.7286   1.9225   1.9411   1.9651   2.1725   2.4339   2.4804
     2.5480   2.5702   2.6112   2.7684   3.4334   3.4821   3.6457   3.7080
     4.0257   4.0275   4.1681   4.2405   4.3882   4.4585

          k = 0.0268-0.0522 0.0000 ( 42522 PWs)   bands (ev):

   -63.8367 -63.8359 -63.7611 -63.7608 -63.7000 -63.6995 -35.8592 -35.8566
   -35.8272 -35.8084 -35.7947 -35.7827 -35.7638 -35.7550 -35.7400 -35.7380
   -35.7282 -35.7260 -35.6916 -35.6888 -35.6876 -35.6815 -35.6331 -35.6324
   -30.2554 -30.2243 -29.9388 -29.9056 -28.9713 -28.9466 -14.1995 -14.1127
   -14.1076 -14.0403 -14.0003 -13.9445 -13.9093 -13.8396 -13.8114 -13.7515
   -13.7214 -13.6604 -13.1742 -12.9783 -12.9028 -12.8791 -12.8063 -12.7538
    -0.3321  -0.3015  -0.1513  -0.1400  -0.0723   0.2020   0.3306   0.4426
     0.5560   0.6971   0.7819   0.7938   0.9172   0.9508   1.0305   1.0560
     1.1135   1.1354   1.2122   1.2997   1.4213   1.4575   1.4868   1.4941
     1.7702   1.8358   1.9632   2.0247   2.0251   2.1322   2.4354   2.4486
     2.5427   2.6102   2.7053   2.8719   3.6961   3.7767   3.8563   3.9682
     4.0245   4.0911   4.2018   4.2702   4.4549   4.4646

          k = 0.0268-0.0379 0.0000 ( 42486 PWs)   bands (ev):

   -63.8369 -63.8357 -63.7613 -63.7605 -63.7002 -63.6993 -35.8599 -35.8548
   -35.8264 -35.8088 -35.8016 -35.7756 -35.7645 -35.7543 -35.7431 -35.7422
   -35.7267 -35.7209 -35.6964 -35.6893 -35.6871 -35.6765 -35.6330 -35.6321
   -30.2689 -30.2128 -29.9526 -29.8943 -28.9842 -28.9359 -14.3172 -14.1266
   -14.0897 -14.0249 -14.0129 -14.0057 -13.8594 -13.8068 -13.7959 -13.7275
   -13.7257 -13.5226 -13.2931 -12.9904 -12.8697 -12.8154 -12.7649 -12.7292
    -0.5901  -0.4838  -0.3711  -0.3063  -0.1522  -0.0223   0.1745   0.3464
     0.4556   0.6046   0.6715   0.7048   0.7390   0.8531   1.0082   1.0611
     1.0705   1.1545   1.1863   1.2558   1.4270   1.4420   1.4804   1.5650
     1.9399   1.9820   2.0453   2.0640   2.1029   2.2707   2.3530   2.5298
     2.5394   2.6925   2.8824   2.9694   3.7171   3.8535   3.8673   4.1618
     4.1705   4.2422   4.3320   4.3665   4.4392   4.5683

          k = 0.0268-0.0237 0.0000 ( 42418 PWs)   bands (ev):

   -63.8371 -63.8355 -63.7616 -63.7603 -63.7004 -63.6991 -35.8605 -35.8534
   -35.8250 -35.8099 -35.8076 -35.7691 -35.7648 -35.7539 -35.7475 -35.7440
   -35.7256 -35.7165 -35.7006 -35.6898 -35.6867 -35.6721 -35.6336 -35.6312
   -30.2801 -30.2028 -29.9641 -29.8847 -28.9950 -28.9265 -14.4175 -14.1399
   -14.1298 -14.0676 -14.0160 -13.9882 -13.8712 -13.7815 -13.7346 -13.7057
   -13.6882 -13.3994 -13.3944 -13.0003 -12.8630 -12.8235 -12.7093 -12.6402
    -0.7944  -0.6234  -0.5503  -0.4238  -0.2059  -0.2014   0.0441   0.2709
     0.3572   0.4077   0.5557   0.5684   0.7220   0.8140   0.9618   0.9983
     1.0778   1.1619   1.2051   1.2118   1.3765   1.4242   1.5448   1.7622
     1.9511   2.0160   2.0841   2.1631   2.2740   2.3802   2.5395   2.5634
     2.6395   2.7203   2.9856   3.1250   3.6132   3.8359   3.9130   4.1040
     4.2889   4.3090   4.3722   4.4318   4.4450   4.5986

          k = 0.0403-0.0142 0.0000 ( 42483 PWs)   bands (ev):

   -63.8371 -63.8356 -63.7616 -63.7603 -63.7004 -63.6991 -35.8611 -35.8541
   -35.8223 -35.8131 -35.8081 -35.7688 -35.7636 -35.7547 -35.7474 -35.7425
   -35.7264 -35.7167 -35.7008 -35.6898 -35.6867 -35.6721 -35.6341 -35.6310
   -30.2788 -30.2026 -29.9622 -29.8845 -28.9943 -28.9256 -14.4226 -14.1448
   -14.1368 -14.0651 -14.0390 -13.9864 -13.8663 -13.7784 -13.7551 -13.7043
   -13.6882 -13.3999 -13.3993 -12.9863 -12.8696 -12.8289 -12.7173 -12.6409
    -0.6733  -0.5469  -0.4755  -0.3389  -0.1521  -0.1325   0.1279   0.2989
     0.4009   0.4480   0.6048   0.6254   0.7972   0.8499   0.9828   1.0147
     1.1147   1.1736   1.2214   1.2278   1.3974   1.5146   1.5524   1.7874
     1.8537   2.0641   2.1189   2.1829   2.2587   2.3348   2.5221   2.5788
     2.6075   2.6375   2.8482   3.1607   3.6427   3.7910   3.8581   3.9836
     4.1637   4.2496   4.2839   4.3424   4.3902   4.5173

          k = 0.0403 0.0000 0.0000 ( 42452 PWs)   bands (ev):

   -63.8372 -63.8355 -63.7618 -63.7601 -63.7006 -63.6990 -35.8621 -35.8536
   -35.8194 -35.8161 -35.8131 -35.7638 -35.7628 -35.7550 -35.7507 -35.7429
   -35.7261 -35.7134 -35.7042 -35.6901 -35.6864 -35.6687 -35.6349 -35.6303
   -30.2861 -30.1945 -29.9691 -29.8766 -29.0017 -28.9173 -14.5026 -14.2177
   -14.1600 -14.0644 -14.0516 -13.9693 -13.8740 -13.7773 -13.7651 -13.6894
   -13.5960 -13.4812 -13.3050 -12.9837 -12.8687 -12.8398 -12.7102 -12.5463
    -0.7239  -0.5669  -0.5382  -0.3339  -0.2031  -0.1473   0.1228   0.2893
     0.3516   0.4076   0.5576   0.6495   0.8322   0.8433   0.9854   1.0632
     1.1102   1.1769   1.2184   1.2528   1.3699   1.5432   1.6295   1.8168
     1.9023   2.1091   2.1225   2.1949   2.2617   2.4741   2.5051   2.6516
     2.6981   2.7548   2.9282   3.3011   3.5841   3.7050   3.7251   3.9872
     4.0579   4.0894   4.2186   4.2607   4.3361   4.4041

          k = 0.0403 0.0143 0.0000 ( 42443 PWs)   bands (ev):

   -63.8373 -63.8354 -63.7619 -63.7599 -63.7007 -63.6989 -35.8630 -35.8536
   -35.8193 -35.8174 -35.8155 -35.7625 -35.7598 -35.7557 -35.7527 -35.7426
   -35.7262 -35.7113 -35.7064 -35.6904 -35.6861 -35.6666 -35.6357 -35.6298
   -30.2899 -30.1891 -29.9723 -29.8711 -29.0058 -28.9114 -14.5552 -14.2724
   -14.1733 -14.0899 -14.0425 -13.9600 -13.8793 -13.7999 -13.7555 -13.6816
   -13.5383 -13.5348 -13.2464 -12.9764 -12.8706 -12.8501 -12.7113 -12.4881
    -0.6871  -0.5285  -0.5183  -0.2614  -0.2001  -0.1116   0.1767   0.3261
     0.3397   0.4742   0.5766   0.7236   0.8341   0.9150   1.0307   1.1244
     1.1488   1.1732   1.2545   1.2726   1.3700   1.5835   1.6580   1.8044
     1.8971   2.0067   2.1930   2.2163   2.3575   2.3946   2.4182   2.6212
     2.7650   3.0175   3.0493   3.3788   3.5230   3.5626   3.6383   3.8071
     3.8702   3.9326   3.9901   4.2010   4.2666   4.4154

          k = 0.0403 0.0285 0.0000 ( 42461 PWs)   bands (ev):

   -63.8373 -63.8354 -63.7620 -63.7599 -63.7007 -63.6989 -35.8637 -35.8540
   -35.8224 -35.8186 -35.8132 -35.7616 -35.7585 -35.7566 -35.7534 -35.7416
   -35.7267 -35.7107 -35.7073 -35.6905 -35.6861 -35.6659 -35.6364 -35.6296
   -30.2900 -30.1868 -29.9718 -29.8687 -29.0064 -28.9084 -14.5772 -14.2969
   -14.1833 -14.1125 -14.0384 -13.9574 -13.8821 -13.8197 -13.7509 -13.6802
   -13.5574 -13.5198 -13.2282 -12.9659 -12.8754 -12.8575 -12.7194 -12.4710
    -0.5753  -0.4426  -0.4122  -0.1386  -0.1295  -0.0419   0.2657   0.3982
     0.4308   0.5673   0.6570   0.8281   0.8558   0.9881   1.1122   1.1659
     1.2117   1.2577   1.2597   1.2811   1.3985   1.5832   1.6634   1.8136
     1.8696   1.9600   2.2009   2.2421   2.2760   2.3222   2.4193   2.5715
     2.7402   3.0556   3.1977   3.2295   3.3254   3.5112   3.5739   3.6444
     3.6738   3.8184   3.9574   4.1284   4.1869   4.2992

          k = 0.0403 0.0427 0.0000 ( 42442 PWs)   bands (ev):

   -63.8372 -63.8355 -63.7620 -63.7599 -63.7007 -63.6989 -35.8639 -35.8547
   -35.8252 -35.8183 -35.8105 -35.7606 -35.7594 -35.7577 -35.7525 -35.7397
   -35.7278 -35.7115 -35.7068 -35.6904 -35.6861 -35.6666 -35.6368 -35.6296
   -30.2867 -30.1882 -29.9678 -29.8700 -29.0037 -28.9088 -14.5668 -14.2889
   -14.1887 -14.1291 -14.0390 -13.9597 -13.8820 -13.8337 -13.7519 -13.6831
   -13.5469 -13.5415 -13.2508 -12.9535 -12.8832 -12.8602 -12.7322 -12.4954
    -0.4205  -0.2679  -0.2657  -0.0052   0.0068   0.0628   0.3869   0.4755
     0.5942   0.6432   0.7817   0.8984   0.9329   1.0241   1.1838   1.1977
     1.1987   1.2714   1.3334   1.3973   1.4308   1.5372   1.7014   1.8435
     1.8521   1.9767   2.1544   2.1791   2.2284   2.2679   2.3463   2.6183
     2.6935   2.7837   2.8460   3.1145   3.1544   3.4518   3.4712   3.6120
     3.7143   3.7892   3.9311   4.0802   4.0945   4.2285

          k = 0.0403 0.0570 0.0000 ( 42478 PWs)   bands (ev):

   -63.8371 -63.8356 -63.7619 -63.7599 -63.7006 -63.6990 -35.8637 -35.8555
   -35.8274 -35.8162 -35.8081 -35.7625 -35.7594 -35.7590 -35.7503 -35.7376
   -35.7293 -35.7138 -35.7049 -35.6902 -35.6863 -35.6686 -35.6369 -35.6298
   -30.2803 -30.1932 -29.9609 -29.8750 -28.9982 -28.9128 -14.5238 -14.2477
   -14.1882 -14.1373 -14.0438 -13.9647 -13.8783 -13.8397 -13.7584 -13.6882
   -13.6004 -13.5032 -13.3108 -12.9405 -12.8941 -12.8566 -12.7472 -12.5577
    -0.2412  -0.1010  -0.0207   0.1354   0.1433   0.2141   0.5150   0.5479
     0.6740   0.7423   0.9248   0.9435   0.9563   1.0207   1.1562   1.2195
     1.2347   1.3190   1.3241   1.3933   1.5189   1.5954   1.7161   1.8280
     1.9242   2.0385   2.0389   2.1137   2.2099   2.2396   2.2787   2.4354
     2.4899   2.6637   2.7281   2.8903   2.9814   3.2434   3.2775   3.5776
     3.6314   3.9144   3.9658   4.0959   4.1445   4.2355

          k = 0.0403-0.0996 0.0000 ( 42503 PWs)   bands (ev):

   -63.8369 -63.8358 -63.7618 -63.7601 -63.7004 -63.6991 -35.8629 -35.8563
   -35.8290 -35.8127 -35.8058 -35.7672 -35.7604 -35.7583 -35.7468 -35.7353
   -35.7311 -35.7173 -35.7017 -35.6899 -35.6867 -35.6718 -35.6367 -35.6301
   -30.2715 -30.2017 -29.9517 -29.8837 -28.9902 -28.9203 -14.4498 -14.1814
   -14.1746 -14.1351 -14.0523 -13.9705 -13.8711 -13.8365 -13.7697 -13.6937
   -13.6906 -13.4278 -13.4019 -12.9277 -12.9078 -12.8460 -12.7622 -12.6510
    -0.0408   0.0501   0.2225   0.2313   0.2413   0.4253   0.5042   0.6770
     0.7303   0.7881   0.8217   0.9344   1.0467   1.0535   1.1464   1.1818
     1.2337   1.2896   1.3447   1.3757   1.5403   1.6197   1.6682   1.7559
     2.0113   2.0167   2.0555   2.0664   2.1253   2.1580   2.2294   2.2700
     2.3133   2.6346   2.7006   2.8420   2.8950   3.0258   3.1089   3.3487
     3.6815   4.0446   4.0626   4.0892   4.2586   4.2849

          k = 0.0403-0.0854 0.0000 ( 42530 PWs)   bands (ev):

   -63.8367 -63.8360 -63.7616 -63.7603 -63.7002 -63.6993 -35.8616 -35.8570
   -35.8298 -35.8090 -35.8028 -35.7731 -35.7616 -35.7573 -35.7425 -35.7332
   -35.7332 -35.7218 -35.6975 -35.6894 -35.6871 -35.6760 -35.6361 -35.6305
   -30.2608 -30.2131 -29.9410 -29.8954 -28.9806 -28.9309 -14.3486 -14.1686
   -14.1223 -14.0758 -14.0608 -13.9760 -13.8615 -13.8244 -13.8029 -13.7850
   -13.6989 -13.5161 -13.3241 -12.9237 -12.9167 -12.8296 -12.7758 -12.7651
     0.1312   0.1348   0.2280   0.2298   0.3960   0.4660   0.6598   0.6689
     0.7358   0.7577   0.8192   0.9133   0.9792   1.0378   1.1070   1.1569
     1.1726   1.2762   1.2968   1.3965   1.5322   1.5392   1.6279   1.6925
     1.8591   1.8925   1.9584   1.9917   2.0202   2.1446   2.2656   2.3069
     2.4128   2.5090   2.7017   2.7984   2.8521   3.0120   3.2588   3.2737
     3.7958   4.0557   4.0947   4.1844   4.3447   4.3775

          k = 0.0403-0.0712 0.0000 ( 42548 PWs)   bands (ev):

   -63.8365 -63.8362 -63.7613 -63.7605 -63.7000 -63.6995 -35.8600 -35.8577
   -35.8298 -35.8073 -35.7974 -35.7799 -35.7627 -35.7563 -35.7379 -35.7349
   -35.7313 -35.7270 -35.6926 -35.6890 -35.6876 -35.6809 -35.6353 -35.6311
   -30.2490 -30.2266 -29.9294 -29.9093 -28.9697 -28.9436 -14.2262 -14.1510
   -14.1001 -14.0778 -13.9816 -13.9477 -13.9352 -13.8438 -13.8042 -13.8026
   -13.7042 -13.6445 -13.1980 -12.9405 -12.9263 -12.8781 -12.8036 -12.7875
     0.0841   0.0909   0.1317   0.1470   0.3313   0.5530   0.5910   0.6663
     0.7000   0.7223   0.7768   0.9063   0.9841   1.0032   1.0721   1.1388
     1.1935   1.2057   1.3090   1.3984   1.4517   1.4664   1.5753   1.6529
     1.6687   1.7227   1.8261   1.8687   2.0280   2.1384   2.3818   2.3862
     2.4172   2.5780   2.6368   2.6932   3.0265   3.2391   3.4579   3.5507
     3.9324   4.0431   4.0688   4.3045   4.3137   4.4440

          k = 0.0403-0.0569 0.0000 ( 42506 PWs)   bands (ev):

   -63.8365 -63.8361 -63.7611 -63.7608 -63.6998 -63.6997 -35.8585 -35.8582
   -35.8289 -35.8073 -35.7903 -35.7873 -35.7634 -35.7556 -35.7382 -35.7325
   -35.7314 -35.7296 -35.6886 -35.6885 -35.6868 -35.6859 -35.6342 -35.6317
   -30.2411 -30.2366 -29.9242 -29.9174 -28.9582 -28.9575 -14.1302 -14.1070
   -14.0753 -14.0714 -14.0682 -13.9889 -13.8286 -13.8278 -13.8013 -13.7789
   -13.7782 -13.7109 -13.0588 -13.0431 -12.9547 -12.8861 -12.7975 -12.7788
    -0.1071  -0.0867   0.0025   0.0075   0.1019   0.4127   0.5166   0.5561
     0.6431   0.7061   0.7915   0.9331   0.9396   1.0381   1.0545   1.1215
     1.1481   1.2023   1.2074   1.2977   1.4501   1.4551   1.4908   1.4912
     1.7052   1.7326   1.8173   1.8770   2.0602   2.1102   2.3984   2.4847
     2.5182   2.5416   2.5972   2.7526   3.4476   3.4748   3.7391   3.8362
     3.9700   3.9835   4.1481   4.2421   4.4205   4.4726

          k = 0.0403-0.0427 0.0000 ( 42522 PWs)   bands (ev):

   -63.8367 -63.8359 -63.7611 -63.7608 -63.7000 -63.6995 -35.8592 -35.8566
   -35.8272 -35.8084 -35.7947 -35.7827 -35.7638 -35.7550 -35.7400 -35.7380
   -35.7282 -35.7260 -35.6916 -35.6888 -35.6876 -35.6815 -35.6331 -35.6324
   -30.2554 -30.2243 -29.9388 -29.9056 -28.9713 -28.9466 -14.1995 -14.1127
   -14.1076 -14.0403 -14.0003 -13.9445 -13.9093 -13.8396 -13.8114 -13.7515
   -13.7214 -13.6604 -13.1742 -12.9783 -12.9028 -12.8791 -12.8063 -12.7538
    -0.3321  -0.3015  -0.1513  -0.1400  -0.0723   0.2020   0.3306   0.4426
     0.5560   0.6971   0.7819   0.7938   0.9172   0.9508   1.0305   1.0560
     1.1135   1.1354   1.2122   1.2997   1.4213   1.4575   1.4868   1.4941
     1.7702   1.8358   1.9632   2.0247   2.0251   2.1321   2.4354   2.4486
     2.5427   2.6102   2.7053   2.8719   3.6961   3.7766   3.8562   3.9680
     4.0244   4.0909   4.2018   4.2703   4.4556   4.4649

          k = 0.0403-0.0285 0.0000 ( 42477 PWs)   bands (ev):

   -63.8369 -63.8357 -63.7614 -63.7605 -63.7002 -63.6993 -35.8601 -35.8551
   -35.8250 -35.8104 -35.8018 -35.7754 -35.7638 -35.7547 -35.7431 -35.7415
   -35.7271 -35.7210 -35.6965 -35.6893 -35.6871 -35.6765 -35.6332 -35.6320
   -30.2683 -30.2128 -29.9518 -29.8944 -28.9839 -28.9356 -14.3197 -14.1287
   -14.0876 -14.0294 -14.0170 -14.0102 -13.8572 -13.8057 -13.7943 -13.7357
   -13.7257 -13.5214 -13.2956 -12.9836 -12.8732 -12.8198 -12.7620 -12.7323
    -0.5380  -0.4556  -0.3405  -0.2738  -0.1270   0.0079   0.1991   0.3526
     0.4611   0.6014   0.6647   0.6863   0.8126   0.8863   1.0020   1.0077
     1.1254   1.1846   1.1865   1.2776   1.4405   1.4710   1.4981   1.5816
     1.8840   2.0213   2.0329   2.0486   2.1593   2.2804   2.3616   2.5367
     2.5624   2.6378   2.7955   3.0150   3.7285   3.8195   3.8894   3.9800
     4.1604   4.2456   4.2798   4.3610   4.3757   4.5413

          k = 0.0537-0.0190 0.0000 ( 42509 PWs)   bands (ev):

   -63.8369 -63.8358 -63.7614 -63.7605 -63.7002 -63.6993 -35.8607 -35.8559
   -35.8211 -35.8147 -35.8025 -35.7749 -35.7622 -35.7560 -35.7429 -35.7395
   -35.7283 -35.7211 -35.6967 -35.6894 -35.6871 -35.6764 -35.6338 -35.6317
   -30.2667 -30.2129 -29.9495 -29.8946 -28.9832 -28.9346 -14.3261 -14.1352
   -14.0819 -14.0438 -14.0395 -14.0041 -13.8546 -13.8034 -13.7903 -13.7603
   -13.7208 -13.5190 -13.3023 -12.9664 -12.8830 -12.8280 -12.7575 -12.7411
    -0.3937  -0.3690  -0.2454  -0.1792  -0.0567   0.1002   0.2756   0.3581
     0.4723   0.6200   0.7069   0.7194   0.8917   0.9171   0.9937   1.0172
     1.1421   1.1573   1.2311   1.3555   1.4617   1.4931   1.6583   1.6645
     1.7746   1.9938   2.0104   2.1090   2.2168   2.2891   2.3657   2.5099
     2.5610   2.6580   2.6702   3.0285   3.5957   3.6955   3.8050   3.9212
     3.9477   4.1652   4.2348   4.2651   4.3652   4.4561

          k = 0.0537-0.0047 0.0000 ( 42485 PWs)   bands (ev):

   -63.8370 -63.8356 -63.7616 -63.7602 -63.7004 -63.6991 -35.8619 -35.8551
   -35.8183 -35.8178 -35.8088 -35.7683 -35.7617 -35.7563 -35.7472 -35.7400
   -35.7278 -35.7168 -35.7011 -35.6898 -35.6867 -35.6720 -35.6349 -35.6307
   -30.2765 -30.2023 -29.9589 -29.8843 -28.9930 -28.9239 -14.4314 -14.1548
   -14.1490 -14.0729 -14.0607 -13.9827 -13.8642 -13.7855 -13.7738 -13.7019
   -13.6886 -13.4091 -13.3997 -12.9647 -12.8813 -12.8365 -12.7312 -12.6430
    -0.4546  -0.3964  -0.3296  -0.1798  -0.0515   0.0056   0.2900   0.3437
     0.4876   0.5323   0.7056   0.7511   0.8774   0.8902   1.0242   1.0444
     1.1495   1.1786   1.2469   1.3342   1.4442   1.5557   1.6987   1.7330
     1.8194   2.0853   2.0952   2.2258   2.2403   2.2729   2.4283   2.4747
     2.5706   2.6881   2.7073   3.1282   3.4725   3.6098   3.7190   3.9096
     3.9461   4.0726   4.1815   4.2551   4.3548   4.3713

          k = 0.0537 0.0095 0.0000 ( 42451 PWs)   bands (ev):

   -63.8371 -63.8355 -63.7619 -63.7600 -63.7006 -63.6990 -35.8630 -35.8547
   -35.8218 -35.8160 -35.8124 -35.7631 -35.7611 -35.7569 -35.7505 -35.7401
   -35.7276 -35.7136 -35.7045 -35.6902 -35.6863 -35.6687 -35.6359 -35.6300
   -30.2832 -30.1939 -29.9650 -29.8758 -29.0000 -28.9151 -14.5132 -14.2328
   -14.1732 -14.1024 -14.0475 -13.9678 -13.8743 -13.8110 -13.7606 -13.6894
   -13.5981 -13.4923 -13.3078 -12.9602 -12.8813 -12.8492 -12.7286 -12.5518
    -0.4567  -0.3580  -0.3420  -0.1124  -0.0340  -0.0056   0.3435   0.3852
     0.5056   0.5582   0.7317   0.8232   0.8864   0.9330   1.0806   1.1156
     1.1574   1.2191   1.2786   1.3518   1.4292   1.5745   1.6987   1.7740
     1.8980   2.0745   2.1132   2.2250   2.2446   2.3218   2.3274   2.6404
     2.6531   2.6914   2.7269   3.2107   3.3056   3.4911   3.6471   3.7049
     3.9170   3.9903   4.0252   4.1151   4.2196   4.3526

          k = 0.0537 0.0237 0.0000 ( 42442 PWs)   bands (ev):

   -63.8372 -63.8355 -63.7620 -63.7599 -63.7007 -63.6989 -35.8639 -35.8547
   -35.8252 -35.8183 -35.8105 -35.7606 -35.7594 -35.7577 -35.7525 -35.7397
   -35.7278 -35.7115 -35.7068 -35.6904 -35.6861 -35.6666 -35.6368 -35.6296
   -30.2867 -30.1882 -29.9678 -29.8700 -29.0037 -28.9088 -14.5668 -14.2889
   -14.1887 -14.1291 -14.0390 -13.9597 -13.8820 -13.8337 -13.7519 -13.6831
   -13.5469 -13.5415 -13.2508 -12.9535 -12.8832 -12.8602 -12.7322 -12.4954
    -0.4205  -0.2679  -0.2657  -0.0052   0.0068   0.0628   0.3869   0.4755
     0.5942   0.6432   0.7817   0.8984   0.9329   1.0241   1.1838   1.1977
     1.1987   1.2714   1.3334   1.3973   1.4308   1.5372   1.7014   1.8435
     1.8521   1.9767   2.1544   2.1791   2.2284   2.2679   2.3463   2.6183
     2.6935   2.7837   2.8460   3.1146   3.1544   3.4518   3.4712   3.6120
     3.7143   3.7892   3.9311   4.0802   4.0944   4.2286

          k = 0.0537 0.0380 0.0000 ( 42486 PWs)   bands (ev):

   -63.8372 -63.8355 -63.7621 -63.7598 -63.7007 -63.6989 -35.8644 -35.8549
   -35.8281 -35.8197 -35.8079 -35.7598 -35.7587 -35.7582 -35.7531 -35.7389
   -35.7283 -35.7109 -35.7077 -35.6905 -35.6860 -35.6658 -35.6374 -35.6294
   -30.2868 -30.1859 -29.9673 -29.8676 -29.0043 -28.9058 -14.5886 -14.3130
   -14.1991 -14.1498 -14.0354 -13.9571 -13.8862 -13.8506 -13.7486 -13.6815
   -13.5693 -13.5232 -13.2329 -12.9455 -12.8874 -12.8669 -12.7402 -12.4785
    -0.3478  -0.1365  -0.1154   0.0698   0.1490   0.1638   0.4444   0.5885
     0.6976   0.7565   0.8544   0.9570   0.9993   1.1120   1.1952   1.2363
     1.2814   1.4317   1.4387   1.4483   1.4633   1.4885   1.7257   1.7734
     1.8219   2.0256   2.0710   2.0940   2.1656   2.2729   2.4177   2.5362
     2.6762   2.7330   2.8883   2.9172   2.9733   3.2689   3.3599   3.5523
     3.6317   3.7046   3.8945   4.0090   4.0127   4.0883

          k = 0.0537 0.0522 0.0000 ( 42476 PWs)   bands (ev):

   -63.8371 -63.8355 -63.7620 -63.7598 -63.7007 -63.6989 -35.8644 -35.8554
   -35.8303 -35.8192 -35.8058 -35.7598 -35.7593 -35.7589 -35.7523 -35.7375
   -35.7293 -35.7117 -35.7071 -35.6904 -35.6861 -35.6665 -35.6377 -35.6294
   -30.2839 -30.1874 -29.9638 -29.8690 -29.0019 -28.9066 -14.5768 -14.3029
   -14.2030 -14.1615 -14.0364 -13.9582 -13.8863 -13.8594 -13.7510 -13.6830
   -13.5573 -13.5443 -13.2546 -12.9368 -12.8941 -12.8674 -12.7504 -12.5018
    -0.2349   0.0100   0.0914   0.1811   0.2767   0.2876   0.5402   0.6677
     0.7170   0.9080   0.9278   0.9960   1.0678   1.0886   1.1953   1.2767
     1.3649   1.3929   1.4528   1.4881   1.5187   1.6633   1.7393   1.7742
     1.8870   1.9733   2.0064   2.0952   2.1534   2.2554   2.3270   2.4777
     2.5883   2.5962   2.6584   2.7204   2.8253   3.0978   3.2570   3.4923
     3.5191   3.7317   3.9348   3.9651   4.0919   4.0953

          k = 0.0537-0.1044 0.0000 ( 42544 PWs)   bands (ev):

   -63.8370 -63.8356 -63.7620 -63.7599 -63.7006 -63.6990 -35.8639 -35.8559
   -35.8316 -35.8168 -35.8043 -35.7622 -35.7608 -35.7582 -35.7501 -35.7358
   -35.7306 -35.7139 -35.7052 -35.6902 -35.6863 -35.6685 -35.6376 -35.6296
   -30.2782 -30.1927 -29.9578 -29.8744 -28.9969 -28.9112 -14.5315 -14.2584
   -14.1996 -14.1621 -14.0417 -13.9613 -13.8819 -13.8587 -13.7587 -13.6861
   -13.6021 -13.5111 -13.3131 -12.9280 -12.9035 -12.8608 -12.7610 -12.5622
    -0.0860   0.1486   0.2939   0.3138   0.3397   0.4332   0.6677   0.6767
     0.7357   0.8704   0.9721   0.9811   1.0914   1.1477   1.1539   1.2803
     1.3197   1.3726   1.4714   1.5225   1.5827   1.6987   1.7444   1.7612
     1.9667   2.0250   2.0648   2.0774   2.1573   2.1745   2.1769   2.2061
     2.2473   2.5270   2.6640   2.6927   2.7304   2.9881   3.0601   3.2755
     3.4968   3.8977   4.0129   4.0997   4.1248   4.2175

          k = 0.0537-0.0901 0.0000 ( 42538 PWs)   bands (ev):

   -63.8369 -63.8358 -63.7618 -63.7601 -63.7004 -63.6991 -35.8629 -35.8564
   -35.8320 -35.8128 -35.8033 -35.7669 -35.7617 -35.7575 -35.7468 -35.7342
   -35.7321 -35.7174 -35.7019 -35.6899 -35.6866 -35.6718 -35.6372 -35.6299
   -30.2701 -30.2015 -29.9498 -29.8835 -28.9895 -28.9194 -14.4547 -14.1890
   -14.1813 -14.1510 -14.0506 -13.9658 -13.8735 -13.8482 -13.7708 -13.6913
   -13.6903 -13.4326 -13.4028 -12.9195 -12.9152 -12.8469 -12.7707 -12.6539
     0.0870   0.2377   0.3098   0.3523   0.4175   0.6206   0.6450   0.7448
     0.7781   0.8383   0.9162   0.9612   1.0574   1.0889   1.1442   1.2033
     1.2435   1.3390   1.3776   1.5404   1.6415   1.6550   1.6948   1.7987
     1.8714   1.9142   1.9886   2.0291   2.0551   2.1143   2.1502   2.1693
     2.2480   2.4218   2.6423   2.6725   2.8383   2.9454   3.0743   3.0939
     3.5989   4.0370   4.0533   4.1276   4.2808   4.3358

          k = 0.0537-0.0759 0.0000 ( 42526 PWs)   bands (ev):

   -63.8367 -63.8360 -63.7616 -63.7603 -63.7002 -63.6993 -35.8616 -35.8570
   -35.8313 -35.8085 -35.8021 -35.7729 -35.7623 -35.7569 -35.7424 -35.7338
   -35.7326 -35.7218 -35.6976 -35.6895 -35.6871 -35.6760 -35.6364 -35.6304
   -30.2602 -30.2132 -29.9402 -29.8954 -28.9803 -28.9305 -14.3507 -14.1723
   -14.1293 -14.0781 -14.0603 -13.9721 -13.8625 -13.8292 -13.8033 -13.7860
   -13.6960 -13.5162 -13.3260 -12.9281 -12.9127 -12.8273 -12.7794 -12.7680
     0.1954   0.2226   0.2569   0.2737   0.3988   0.5266   0.7345   0.7936
     0.8035   0.8212   0.8416   0.9068   0.9848   1.0375   1.1006   1.1615
     1.1677   1.1885   1.3698   1.5218   1.5425   1.6151   1.6197   1.6864
     1.7285   1.7439   1.8868   1.9095   2.0507   2.1317   2.2365   2.2684
     2.3650   2.5651   2.6092   2.6278   2.8183   3.0451   3.1865   3.3235
     3.7664   4.0271   4.0884   4.2124   4.3794   4.3875

[...]
   -30.2738 -30.2020 -29.9550 -29.8839 -28.9915 -28.9220 -14.4413 -14.1684
   -14.1628 -14.1072 -14.0558 -13.9771 -13.8670 -13.8147 -13.7703 -13.6983
   -13.6895 -13.4193 -13.4007 -12.9434 -12.8953 -12.8427 -12.7477 -12.6467
    -0.2244  -0.1852  -0.0816   0.0301   0.0832   0.2038   0.4064   0.5118
     0.5918   0.6549   0.8137   0.8900   0.9367   0.9544   1.0893   1.0987
     1.1471   1.2510   1.2820   1.3970   1.5351   1.5540   1.6488   1.8567
     1.8966   2.0021   2.0586   2.1804   2.2147   2.2244   2.3182   2.3797
     2.4479   2.6546   2.8072   3.0250   3.0600   3.2841   3.4892   3.6686
     3.7556   4.0599   4.0910   4.1103   4.2882   4.3175

          k = 0.0671 0.0190 0.0000 ( 42478 PWs)   bands (ev):

   -63.8371 -63.8356 -63.7619 -63.7599 -63.7006 -63.6990 -35.8637 -35.8555
   -35.8274 -35.8162 -35.8081 -35.7625 -35.7594 -35.7590 -35.7503 -35.7376
   -35.7293 -35.7138 -35.7049 -35.6902 -35.6863 -35.6686 -35.6369 -35.6298
   -30.2803 -30.1932 -29.9609 -29.8750 -28.9982 -28.9128 -14.5238 -14.2477
   -14.1882 -14.1373 -14.0438 -13.9647 -13.8783 -13.8397 -13.7584 -13.6882
   -13.6004 -13.5032 -13.3108 -12.9405 -12.8941 -12.8566 -12.7472 -12.5577
    -0.2412  -0.1010  -0.0207   0.1354   0.1433   0.2141   0.5150   0.5479
     0.6740   0.7423   0.9248   0.9435   0.9563   1.0207   1.1562   1.2195
     1.2347   1.3190   1.3241   1.3933   1.5189   1.5954   1.7161   1.8280
     1.9242   2.0385   2.0389   2.1137   2.2099   2.2396   2.2787   2.4353
     2.4899   2.6637   2.7281   2.8903   2.9814   3.2434   3.2775   3.5776
     3.6314   3.9144   3.9658   4.0960   4.1446   4.2354

          k = 0.0671 0.0332 0.0000 ( 42476 PWs)   bands (ev):

   -63.8371 -63.8355 -63.7620 -63.7598 -63.7007 -63.6989 -35.8644 -35.8554
   -35.8303 -35.8192 -35.8058 -35.7598 -35.7593 -35.7589 -35.7523 -35.7375
   -35.7293 -35.7117 -35.7071 -35.6904 -35.6861 -35.6665 -35.6377 -35.6294
   -30.2839 -30.1874 -29.9638 -29.8690 -29.0019 -28.9066 -14.5768 -14.3029
   -14.2030 -14.1615 -14.0364 -13.9582 -13.8863 -13.8594 -13.7510 -13.6830
   -13.5573 -13.5443 -13.2546 -12.9368 -12.8941 -12.8674 -12.7504 -12.5018
    -0.2349   0.0100   0.0914   0.1811   0.2767   0.2876   0.5402   0.6677
     0.7170   0.9080   0.9278   0.9960   1.0678   1.0886   1.1953   1.2767
     1.3649   1.3929   1.4528   1.4881   1.5187   1.6633   1.7393   1.7742
     1.8870   1.9733   2.0064   2.0952   2.1534   2.2554   2.3270   2.4777
     2.5883   2.5962   2.6584   2.7204   2.8253   3.0978   3.2570   3.4923
     3.5190   3.7316   3.9348   3.9650   4.0915   4.0953

          k = 0.0671 0.0475 0.0000 ( 42484 PWs)   bands (ev):

   -63.8371 -63.8355 -63.7621 -63.7598 -63.7007 -63.6989 -35.8647 -35.8554
   -35.8322 -35.8205 -35.8040 -35.7605 -35.7586 -35.7579 -35.7529 -35.7370
   -35.7295 -35.7111 -35.7080 -35.6905 -35.6860 -35.6658 -35.6382 -35.6292
   -30.2845 -30.1852 -29.9640 -29.8667 -29.0028 -28.9040 -14.5969 -14.3247
   -14.2110 -14.1766 -14.0336 -13.9559 -13.8899 -13.8712 -13.7487 -13.6813
   -13.5779 -13.5257 -13.2363 -12.9327 -12.8961 -12.8727 -12.7555 -12.4840
    -0.1944   0.1291   0.2189   0.2618   0.3784   0.3834   0.5584   0.7378
     0.8209   0.9049   1.0532   1.0542   1.0590   1.1398   1.2357   1.2596
     1.4572   1.4578   1.5202   1.5321   1.6851   1.6987   1.7778   1.7895
     1.8668   1.9367   1.9887   2.1105   2.1464   2.2353   2.3826   2.3990
     2.4461   2.5569   2.5695   2.6224   2.6747   2.9793   3.1323   3.3787
     3.5958   3.6438   3.8221   3.9503   3.9962   4.1117

          k = 0.0671-0.1091 0.0000 ( 42532 PWs)   bands (ev):

   -63.8371 -63.8356 -63.7621 -63.7598 -63.7007 -63.6989 -35.8646 -35.8557
   -35.8332 -35.8198 -35.8030 -35.7611 -35.7589 -35.7582 -35.7522 -35.7362
   -35.7302 -35.7118 -35.7073 -35.6905 -35.6861 -35.6665 -35.6383 -35.6293
   -30.2823 -30.1870 -29.9615 -29.8685 -29.0009 -28.9053 -14.5826 -14.3110
   -14.2112 -14.1802 -14.0351 -13.9567 -13.8888 -13.8734 -13.7515 -13.6822
   -13.5633 -13.5459 -13.2568 -12.9283 -12.9004 -12.8710 -12.7610 -12.5055
    -0.1209   0.2352   0.3076   0.4040   0.4084   0.4634   0.6078   0.7750
     0.8551   0.8816   1.0049   1.0582   1.1277   1.1545   1.2374   1.2777
     1.3977   1.4075   1.6051   1.6098   1.7406   1.7781   1.7832   1.8448
     1.9645   1.9698   1.9887   2.1363   2.1527   2.1714   2.1726   2.2731
     2.2905   2.4305   2.5092   2.5569   2.6522   2.9260   3.0101   3.3464
     3.4148   3.7252   3.9317   3.9884   4.1270   4.1325

          k = 0.0671-0.0949 0.0000 ( 42550 PWs)   bands (ev):

   -63.8370 -63.8357 -63.7620 -63.7599 -63.7006 -63.6990 -35.8639 -35.8560
   -35.8331 -35.8171 -35.8028 -35.7620 -35.7615 -35.7578 -35.7501 -35.7352
   -35.7310 -35.7140 -35.7053 -35.6902 -35.6863 -35.6685 -35.6379 -35.6295
   -30.2774 -30.1925 -29.9567 -29.8742 -28.9964 -28.9106 -14.5343 -14.2623
   -14.2037 -14.1713 -14.0410 -13.9598 -13.8832 -13.8654 -13.7592 -13.6850
   -13.6028 -13.5139 -13.3140 -12.9238 -12.9070 -12.8620 -12.7661 -12.5639
    -0.0216   0.2934   0.3583   0.3753   0.4543   0.5668   0.6889   0.7838
     0.8103   0.8112   0.9737   1.0556   1.0612   1.1573   1.1912   1.2093
     1.3276   1.4268   1.5585   1.7138   1.7300   1.7612   1.8037   1.8652
     1.9383   1.9504   1.9532   2.0332   2.0388   2.0400   2.1141   2.1938
     2.2106   2.3654   2.5754   2.6510   2.6927   2.9363   2.9579   3.1686
     3.4308   3.8948   4.0288   4.1325   4.1494   4.2050

          k = 0.0671-0.0806 0.0000 ( 42538 PWs)   bands (ev):

   -63.8369 -63.8358 -63.7618 -63.7601 -63.7004 -63.6991 -35.8629 -35.8564
   -35.8320 -35.8128 -35.8033 -35.7669 -35.7617 -35.7575 -35.7468 -35.7342
   -35.7321 -35.7174 -35.7019 -35.6899 -35.6866 -35.6718 -35.6372 -35.6299
   -30.2701 -30.2015 -29.9498 -29.8835 -28.9895 -28.9194 -14.4547 -14.1890
   -14.1813 -14.1510 -14.0506 -13.9658 -13.8735 -13.8482 -13.7708 -13.6913
   -13.6903 -13.4326 -13.4028 -12.9195 -12.9152 -12.8469 -12.7707 -12.6539
     0.0870   0.2377   0.3098   0.3523   0.4175   0.6206   0.6450   0.7448
     0.7781   0.8383   0.9162   0.9612   1.0574   1.0889   1.1442   1.2033
     1.2435   1.3390   1.3776   1.5404   1.6415   1.6550   1.6948   1.7987
     1.8714   1.9142   1.9886   2.0291   2.0551   2.1143   2.1502   2.1693
     2.2480   2.4218   2.6423   2.6725   2.8383   2.9454   3.0743   3.0939
     3.5988   4.0369   4.0532   4.1276   4.2806   4.3327

          k = 0.0671-0.0664 0.0000 ( 42530 PWs)   bands (ev):

   -63.8367 -63.8360 -63.7616 -63.7603 -63.7002 -63.6993 -35.8616 -35.8570
   -35.8298 -35.8090 -35.8028 -35.7731 -35.7616 -35.7573 -35.7425 -35.7332
   -35.7332 -35.7218 -35.6975 -35.6894 -35.6871 -35.6760 -35.6361 -35.6305
   -30.2608 -30.2131 -29.9410 -29.8954 -28.9806 -28.9309 -14.3486 -14.1686
   -14.1223 -14.0758 -14.0608 -13.9760 -13.8615 -13.8244 -13.8029 -13.7850
   -13.6989 -13.5161 -13.3241 -12.9237 -12.9167 -12.8296 -12.7758 -12.7651
     0.1312   0.1348   0.2280   0.2298   0.3960   0.4660   0.6598   0.6689
     0.7358   0.7577   0.8192   0.9133   0.9792   1.0378   1.1070   1.1569
     1.1726   1.2762   1.2968   1.3965   1.5322   1.5392   1.6279   1.6925
     1.8591   1.8925   1.9584   1.9917   2.0202   2.1446   2.2656   2.3069
     2.4128   2.5090   2.7017   2.7984   2.8521   3.0120   3.2588   3.2737
     3.7958   4.0555   4.0947   4.1843   4.3448   4.3782

          k = 0.0671-0.0522 0.0000 ( 42504 PWs)   bands (ev):

   -63.8365 -63.8361 -63.7613 -63.7606 -63.7000 -63.6995 -35.8602 -35.8578
   -35.8269 -35.8099 -35.7972 -35.7803 -35.7614 -35.7572 -35.7377 -35.7341
   -35.7323 -35.7268 -35.6924 -35.6889 -35.6876 -35.6810 -35.6349 -35.6314
   -30.2498 -30.2263 -29.9306 -29.9088 -28.9699 -28.9440 -14.2231 -14.1445
   -14.0894 -14.0804 -13.9918 -13.9440 -13.9362 -13.8408 -13.8004 -13.7976
   -13.7117 -13.6446 -13.1957 -12.9316 -12.9310 -12.8847 -12.8010 -12.7824
     0.0163   0.0171   0.1235   0.1281   0.3061   0.4582   0.4953   0.5877
     0.6551   0.6704   0.7150   0.8297   0.9429   0.9651   1.0581   1.0777
     1.1978   1.2753   1.3142   1.3539   1.4114   1.5007   1.6029   1.6768
     1.7808   1.8869   1.9602   1.9605   2.0171   2.1683   2.3765   2.4033
     2.5649   2.6249   2.6989   2.7420   3.1681   3.2194   3.3855   3.4399
     3.9703   4.0968   4.1043   4.2807   4.2961   4.3818

          k = 0.0671-0.0379 0.0000 ( 42500 PWs)   bands (ev):

   -63.8365 -63.8362 -63.7610 -63.7609 -63.6998 -63.6997 -35.8589 -35.8587
   -35.8235 -35.8129 -35.7896 -35.7881 -35.7611 -35.7572 -35.7359 -35.7325
   -35.7316 -35.7312 -35.6886 -35.6885 -35.6866 -35.6861 -35.6336 -35.6323
   -30.2400 -30.2377 -29.9225 -29.9191 -28.9580 -28.9576 -14.1201 -14.1084
   -14.0800 -14.0783 -14.0466 -14.0121 -13.8236 -13.8233 -13.8021 -13.8013
   -13.7492 -13.7248 -13.0574 -13.0495 -12.9346 -12.9006 -12.7911 -12.7818
    -0.1202  -0.0920   0.0282   0.0552   0.1578   0.3665   0.4334   0.4931
     0.5174   0.6967   0.7199   0.7471   0.8869   0.9842   1.0145   1.0202
     1.1683   1.2447   1.2691   1.3597   1.4300   1.5229   1.5919   1.7232
     1.7966   1.8237   1.9376   1.9836   2.0760   2.1870   2.4453   2.4671
     2.6284   2.6415   2.7575   2.7791   3.3592   3.4407   3.4819   3.5793
     4.0660   4.0740   4.1985   4.2415   4.3300   4.3475

          k =-0.0805 0.0284 0.0000 ( 42512 PWs)   bands (ev):

   -63.8365 -63.8362 -63.7609 -63.7609 -63.6998 -63.6997 -35.8591 -35.8589
   -35.8183 -35.8181 -35.7889 -35.7888 -35.7591 -35.7590 -35.7338 -35.7338
   -35.7318 -35.7316 -35.6885 -35.6885 -35.6864 -35.6863 -35.6330 -35.6329
   -30.2389 -30.2389 -29.9208 -29.9208 -28.9578 -28.9578 -14.1126 -14.1125
   -14.0804 -14.0804 -14.0304 -14.0304 -13.8215 -13.8215 -13.8041 -13.8041
   -13.7365 -13.7365 -13.0543 -13.0543 -12.9167 -12.9167 -12.7859 -12.7859
    -0.1130  -0.1130   0.0552   0.0553   0.2779   0.2780   0.3895   0.3895
     0.5946   0.5947   0.7362   0.7363   0.9253   0.9253   1.0008   1.0008
     1.2017   1.2017   1.3071   1.3071   1.4963   1.4964   1.7146   1.7147
     1.7973   1.7973   2.0302   2.0302   2.1693   2.1693   2.4425   2.4425
     2.6839   2.6839   2.8371   2.8372   3.2746   3.2746   3.5302   3.5302
     4.0735   4.0736   4.2213   4.2214   4.3115   4.3119

          k =-0.0805 0.0427 0.0000 ( 42525 PWs)   bands (ev):

   -63.8366 -63.8361 -63.7612 -63.7606 -63.7000 -63.6995 -35.8603 -35.8578
   -35.8221 -35.8145 -35.7967 -35.7809 -35.7595 -35.7587 -35.7376 -35.7342
   -35.7325 -35.7266 -35.6922 -35.6889 -35.6876 -35.6811 -35.6342 -35.6318
   -30.2513 -30.2258 -29.9328 -29.9079 -28.9703 -28.9447 -14.2175 -14.1341
   -14.0861 -14.0699 -14.0070 -13.9380 -13.9366 -13.8361 -13.8002 -13.7843
   -13.7231 -13.6456 -13.1910 -12.9410 -12.9156 -12.8943 -12.7990 -12.7740
    -0.1003  -0.0764   0.0693   0.0821   0.2317   0.3132   0.4443   0.4475
     0.5182   0.6756   0.7043   0.8432   0.8804   0.9639   1.0072   1.0396
     1.2035   1.2144   1.2270   1.4148   1.4484   1.5462   1.6128   1.7634
     1.8357   1.8466   2.0256   2.0455   2.1536   2.1908   2.3596   2.4633
     2.5734   2.7338   2.8248   2.8291   3.1726   3.3065   3.4626   3.4642
     3.9905   4.1288   4.1403   4.2695   4.3069   4.3309

          k =-0.0805 0.0569 0.0000 ( 42502 PWs)   bands (ev):

   -63.8367 -63.8359 -63.7615 -63.7603 -63.7002 -63.6993 -35.8616 -35.8569
   -35.8258 -35.8116 -35.8035 -35.7736 -35.7599 -35.7585 -35.7426 -35.7348
   -35.7318 -35.7216 -35.6973 -35.6894 -35.6871 -35.6761 -35.6355 -35.6309
   -30.2624 -30.2131 -29.9433 -29.8952 -28.9813 -28.9319 -14.3428 -14.1587
   -14.1029 -14.0723 -14.0599 -13.9854 -13.8588 -13.8105 -13.8019 -13.7839
   -13.7061 -13.5162 -13.3187 -12.9281 -12.9122 -12.8333 -12.7662 -12.7597
    -0.0398  -0.0289   0.1310   0.1415   0.2003   0.3796   0.4619   0.5697
     0.5858   0.7132   0.8221   0.8264   0.9492   1.0371   1.0412   1.1159
     1.1533   1.2436   1.2657   1.3986   1.5308   1.5480   1.5966   1.7548
     1.9135   1.9491   2.0313   2.0758   2.1411   2.2130   2.2346   2.4167
     2.4264   2.7248   2.7453   2.8522   3.0623   3.1490   3.2797   3.4307
     3.8575   4.0901   4.1241   4.1718   4.2794   4.3607

          k =-0.0805 0.0711 0.0000 ( 42503 PWs)   bands (ev):

   -63.8369 -63.8358 -63.7618 -63.7601 -63.7004 -63.6991 -35.8629 -35.8563
   -35.8290 -35.8127 -35.8058 -35.7672 -35.7604 -35.7583 -35.7468 -35.7353
   -35.7311 -35.7173 -35.7017 -35.6899 -35.6867 -35.6718 -35.6367 -35.6301
   -30.2715 -30.2017 -29.9517 -29.8837 -28.9902 -28.9203 -14.4498 -14.1814
   -14.1746 -14.1351 -14.0523 -13.9705 -13.8711 -13.8365 -13.7697 -13.6937
   -13.6906 -13.4278 -13.4019 -12.9277 -12.9078 -12.8460 -12.7622 -12.6510
    -0.0408   0.0501   0.2225   0.2313   0.2413   0.4253   0.5042   0.6770
     0.7303   0.7881   0.8217   0.9344   1.0467   1.0535   1.1464   1.1818
     1.2337   1.2896   1.3447   1.3757   1.5403   1.6197   1.6682   1.7559
     2.0113   2.0167   2.0555   2.0664   2.1253   2.1580   2.2294   2.2700
     2.3133   2.6346   2.7006   2.8420   2.8950   3.0258   3.1089   3.3487
     3.6815   4.0443   4.0625   4.0891   4.2580   4.2835

          k =-0.0805 0.0854 0.0000 ( 42544 PWs)   bands (ev):

   -63.8370 -63.8356 -63.7620 -63.7599 -63.7006 -63.6990 -35.8639 -35.8559
   -35.8316 -35.8168 -35.8043 -35.7622 -35.7608 -35.7582 -35.7501 -35.7358
   -35.7306 -35.7139 -35.7052 -35.6902 -35.6863 -35.6685 -35.6376 -35.6296
   -30.2782 -30.1927 -29.9578 -29.8744 -28.9969 -28.9112 -14.5315 -14.2584
   -14.1996 -14.1621 -14.0417 -13.9613 -13.8819 -13.8587 -13.7587 -13.6861
   -13.6021 -13.5111 -13.3131 -12.9280 -12.9035 -12.8608 -12.7610 -12.5622
    -0.0860   0.1486   0.2939   0.3138   0.3397   0.4332   0.6677   0.6767
     0.7357   0.8704   0.9721   0.9811   1.0914   1.1477   1.1539   1.2803
     1.3197   1.3726   1.4714   1.5225   1.5827   1.6987   1.7444   1.7612
     1.9667   2.0250   2.0647   2.0774   2.1573   2.1745   2.1769   2.2061
     2.2473   2.5270   2.6640   2.6927   2.7304   2.9881   3.0601   3.2755
     3.4968   3.8977   4.0129   4.1003   4.1246   4.2177

          k =-0.0805 0.0996 0.0000 ( 42532 PWs)   bands (ev):

   -63.8371 -63.8356 -63.7621 -63.7598 -63.7007 -63.6989 -35.8646 -35.8557
   -35.8332 -35.8198 -35.8030 -35.7611 -35.7589 -35.7582 -35.7522 -35.7362
   -35.7302 -35.7118 -35.7073 -35.6905 -35.6861 -35.6665 -35.6383 -35.6293
   -30.2823 -30.1870 -29.9615 -29.8685 -29.0009 -28.9053 -14.5826 -14.3110
   -14.2112 -14.1802 -14.0351 -13.9567 -13.8888 -13.8734 -13.7515 -13.6822
   -13.5633 -13.5459 -13.2568 -12.9283 -12.9004 -12.8710 -12.7610 -12.5055
    -0.1209   0.2352   0.3076   0.4040   0.4084   0.4634   0.6078   0.7750
     0.8551   0.8816   1.0049   1.0582   1.1277   1.1545   1.2374   1.2777
     1.3977   1.4075   1.6051   1.6098   1.7406   1.7781   1.7832   1.8448
     1.9645   1.9698   1.9887   2.1363   2.1527   2.1714   2.1726   2.2731
     2.2905   2.4305   2.5092   2.5569   2.6522   2.9260   3.0101   3.3465
     3.4148   3.7252   3.9317   3.9884   4.1278   4.1327

          k =-0.0805-0.0570 0.0000 ( 42446 PWs)   bands (ev):

   -63.8371 -63.8355 -63.7621 -63.7597 -63.7007 -63.6989 -35.8648 -35.8556
   -35.8338 -35.8208 -35.8025 -35.7612 -35.7582 -35.7578 -35.7529 -35.7364
   -35.7300 -35.7111 -35.7081 -35.6905 -35.6860 -35.6658 -35.6385 -35.6292
   -30.2836 -30.1850 -29.9627 -29.8664 -29.0022 -28.9033 -14.6000 -14.3289
   -14.2152 -14.1866 -14.0329 -13.9553 -13.8912 -13.8785 -13.7491 -13.6810
   -13.5811 -13.5266 -13.2376 -12.9284 -12.8992 -12.8746 -12.7611 -12.4860
    -0.1332   0.2747   0.3101   0.4224   0.4576   0.4634   0.5834   0.8108
     0.8410   0.9968   1.0371   1.0427   1.0611   1.2129   1.2613   1.3571
     1.3600   1.3941   1.6211   1.6297   1.7227   1.7642   1.8650   1.9354
     2.0092   2.0160   2.0517   2.0940   2.1156   2.2031   2.2225   2.2947
     2.3654   2.3789   2.3892   2.4166   2.6401   2.9135   2.9756   3.2843
     3.5881   3.6439   3.7694   3.9843   4.0512   4.1382

     the Fermi energy is     2.3311 ev

!    total energy              =   -1851.49521921 Ry
     estimated scf accuracy    <       0.00000419 Ry
     smearing contrib. (-TS)   =      -0.09227303 Ry
     internal energy E=F+TS    =   -1851.40294618 Ry

     The total energy is F=E-TS. E is the sum of the following terms:
     one-electron contribution =  -10018.49242161 Ry
     hartree contribution      =    5024.73181338 Ry
     xc contribution           =    -685.82934059 Ry
     ewald contribution        =    3828.18693458 Ry
     electric field correction =       0.00006806 Ry

     convergence has been achieved in  21 iterations

     negative rho (up, down):  5.535E-03 0.000E+00

     Forces acting on atoms (cartesian axes, Ry/au):

     atom    1 type  1   force =     0.00014942    0.00007680   -0.02554038
     atom    2 type  1   force =     0.00012285    0.00011642   -0.02554009
     atom    3 type  2   force =    -0.00009338   -0.00006582    0.04574796
     atom    4 type  2   force =    -0.00008058   -0.00005686    0.04574956
     atom    5 type  1   force =    -0.00009175   -0.00006492   -0.02942685
     atom    6 type  1   force =    -0.00009192   -0.00006404   -0.02942848
     atom    7 type  2   force =     0.00004678    0.00003217    0.01234648
     atom    8 type  2   force =     0.00004839    0.00003345    0.01235381
     atom    9 type  1   force =     0.00006381    0.00006652   -0.00138962
     atom   10 type  1   force =     0.00008203    0.00003661   -0.00139239
     atom   11 type  2   force =    -0.00006878   -0.00004635   -0.00174267
     atom   12 type  2   force =    -0.00008688   -0.00006398   -0.00173733

     Total force =     0.086819     Total SCF correction =     0.007059

     Writing output data file ./La2Tc2/La2Tc2_beef.save/

     init_run     :    224.52s CPU    225.44s WALL (       1 calls)
     electrons    :   7703.65s CPU   7869.98s WALL (       1 calls)
     forces       :    108.77s CPU    109.27s WALL (       1 calls)

     Called by init_run:
     wfcinit      :    210.80s CPU    211.43s WALL (       1 calls)
     potinit      :      8.25s CPU      8.33s WALL (       1 calls)
     hinit0       :      2.70s CPU      2.72s WALL (       1 calls)

     Called by electrons:
     c_bands      :   6885.66s CPU   7036.30s WALL (      21 calls)
     sum_band     :    728.18s CPU    736.92s WALL (      21 calls)
     v_of_rho     :     41.26s CPU     42.61s WALL (      22 calls)
     newd         :     55.45s CPU     60.00s WALL (      22 calls)
     mix_rho      :      1.16s CPU      1.21s WALL (      21 calls)
     vdW_kernel   :      5.69s CPU      5.70s WALL (       1 calls)

     Called by c_bands:
     init_us_2    :     20.60s CPU     20.69s WALL (    3256 calls)
     cegterg      :   6789.65s CPU   6936.65s WALL (    1554 calls)

     Called by *egterg:
     cdiaghg      :    252.38s CPU    254.03s WALL (   10396 calls)
     h_psi        :   3552.20s CPU   3667.44s WALL (   10470 calls)
     s_psi        :    910.82s CPU    914.24s WALL (   10470 calls)
     g_psi        :      2.11s CPU      2.15s WALL (    8842 calls)

     Called by h_psi:
     h_psi:calbec :   1150.44s CPU   1162.81s WALL (   10470 calls)
     vloc_psi     :   1470.22s CPU   1569.59s WALL (   10470 calls)
     add_vuspsi   :    924.44s CPU    927.92s WALL (   10470 calls)

     General routines
     calbec       :   1688.90s CPU   1702.65s WALL (   12320 calls)
     fft          :     42.21s CPU     42.98s WALL (    1445 calls)
     ffts         :      0.11s CPU      0.12s WALL (      43 calls)
     fftw         :   1603.31s CPU   1704.70s WALL (  878038 calls)
     interpolate  :      0.41s CPU      0.42s WALL (      22 calls)

     Parallel routines
     fft_scatt_xy :     66.10s CPU     66.60s WALL (  879526 calls)
     fft_scatt_yz :    931.53s CPU   1026.16s WALL (  879526 calls)

     PWSCF        :      2h14m CPU      2h17m WALL


   This run was terminated on:  16:29:23  26Jun2022            

=------------------------------------------------------------------------------=
   JOB DONE.
=------------------------------------------------------------------------------=
