
     Program PWSCF v.6.6 starts on 26Jun2022 at 18:53: 8 

     This program is part of the open-source Quantum ESPRESSO suite
     for quantum simulation of materials; please cite
         "P. Giannozzi et al., J. Phys.:Condens. Matter 21 395502 (2009);
         "P. Giannozzi et al., J. Phys.:Condens. Matter 29 465901 (2017);
          URL http://www.quantum-espresso.org", 
     in publications or presentations arising from this work. More details at
     http://www.quantum-espresso.org/quote

     Parallel version (MPI), running on    37 processors

     MPI processes distributed on     1 nodes
     R & G space division:  proc/nbgrp/npool/nimage =      37
     Fft bands division:     nmany     =       1
     Reading input from La2Y2.in
Warning: card &CELL ignored
Warning: card / ignored

     Current dimensions of program PWSCF are:
     Max number of different atomic species (ntypx) = 10
     Max number of k-points (npk) =  40000
     Max angular momentum in pseudopotentials (lmaxx) =  3
     Presently stress not available with electric field and gates

     Message from routine cell_base_init:
     DEPRECATED: use true lattice parameter, not A to a.u. conversion factor
     file La.pbe-spfn-rrkjus_psl.1.0.0.UPF: wavefunction(s)  4F renormalized
     file Y.pbe-spn-rrkjus_psl.1.0.0.UPF: wavefunction(s)  4S renormalized

     **************************************************************************
     Initializing libbeef V0.1.2 with the BEEF-vdW functional.
     Citation: Wellendorff et al., PRB 85, 235149 (2012).
     **************************************************************************


     IMPORTANT: XC functional enforced from input :
     Exchange-correlation= BEEF-VDW
                           (   1   4  43  14   2   0   0)
     Any further DFT definition will be discarded
     Please, verify this is what you really want


     Subspace diagonalization in iterative solution of the eigenvalue problem:
     a serial algorithm will be used

     Found symmetry operation: I + (  0.5000 -0.5000  0.0000)
     This is a supercell, fractional translations are disabled

     Parallelization info
     --------------------
     sticks:   dense  smooth     PW     G-vecs:    dense   smooth      PW
     Min         197      78     22                48209    12188    1790
     Max         197      79     23                48219    12209    1798
     Sum        7289    2909    817              1783931   451313   66483



     bravais-lattice index     =            0
     lattice parameter (alat)  =       1.8897  a.u.
     unit-cell volume          =    8162.3700 (a.u.)^3
     number of atoms/cell      =           12
     number of atomic types    =            2
     number of electrons       =       132.00
     number of Kohn-Sham states=           79
     kinetic-energy cutoff     =      55.1240  Ry
     charge density cutoff     =     551.2396  Ry
     convergence threshold     =      1.0E-05
     mixing beta               =       0.1000
     number of iterations used =           10  plain     mixing
     Exchange-correlation= BEEF-VDW
                           (   1   4  43  14   2   0   0)

     celldm(1)=   1.889726  celldm(2)=   0.000000  celldm(3)=   0.000000
     celldm(4)=   0.000000  celldm(5)=   0.000000  celldm(6)=   0.000000

     crystal axes: (cart. coord. in units of alat)
               a(1) = (   7.312741   0.000000   0.000000 )  
               a(2) = (   3.600141   6.365152   0.000000 )  
               a(3) = (   0.000000   0.000000  25.985483 )  

     reciprocal axes: (cart. coord. in units 2 pi/alat)
               b(1) = (  0.136748 -0.077345  0.000000 )  
               b(2) = (  0.000000  0.157105  0.000000 )  
               b(3) = (  0.000000  0.000000  0.038483 )  


     PseudoPot. # 1 for La read from file:
     ../pseudo/La.pbe-spfn-rrkjus_psl.1.0.0.UPF
     MD5 check sum: e3bc141c2ecb461b8d0a035ce9ac970e
     Pseudo is Ultrasoft + core correction, Zval = 11.0
     Generated using "atomic" code by A. Dal Corso v.6.2.2
     Using radial grid of 1253 points,  8 beta functions with: 
                l(1) =   0
                l(2) =   0
                l(3) =   1
                l(4) =   1
                l(5) =   2
                l(6) =   2
                l(7) =   3
                l(8) =   3
     Q(r) pseudized with 0 coefficients 


     PseudoPot. # 2 for Y  read from file:
     ../pseudo/Y.pbe-spn-rrkjus_psl.1.0.0.UPF
     MD5 check sum: 5fe32e6a006803c2ec2edff47948a3c8
     Pseudo is Ultrasoft + core correction, Zval = 11.0
     Generated using "atomic" code by A. Dal Corso v.6.2.2
     Using radial grid of 1223 points,  6 beta functions with: 
                l(1) =   0
                l(2) =   0
                l(3) =   1
                l(4) =   1
                l(5) =   2
                l(6) =   2
     Q(r) pseudized with 0 coefficients 


     atomic species   valence    mass     pseudopotential
        La            11.00   138.90547     La( 1.00)
        Y             11.00    88.90584     Y ( 1.00)

     No symmetry found



   Cartesian axes

     site n.     atom                  positions (alat units)
         1           La  tau(   1) = (   0.0000000   0.0000000  10.0000000  )
         2           La  tau(   2) = (   5.4564410   3.1825762  10.0000000  )
         3           Y   tau(   3) = (   3.6563705   0.0000000  10.0000000  )
         4           Y   tau(   4) = (   1.8000705   3.1825762  10.0000000  )
         5           La  tau(   5) = (   7.3127409   4.2652995  12.9927414  )
         6           La  tau(   6) = (   1.8562999   1.0827233  12.9927414  )
         7           Y   tau(   7) = (   3.6563705   4.2652995  12.9927414  )
         8           Y   tau(   8) = (   5.5126704   1.0827233  12.9927414  )
         9           La  tau(   9) = (   3.7009792   2.1586559  15.9979764  )
        10           La  tau(  10) = (   9.1574063   5.3412501  15.9979850  )
        11           Y   tau(  11) = (   7.3659913   2.1637504  15.8504956  )
        12           Y   tau(  12) = (   5.5097333   5.3462784  15.8504100  )

     number of k points=    74  Fermi-Dirac smearing, width (Ry)=  0.0100
                       cart. coord. in units 2pi/alat
        k(    1) = (   0.0000000   0.0000000   0.0000000), wk =   0.0138889
        k(    2) = (   0.0000000   0.0130921   0.0000000), wk =   0.0277778
        k(    3) = (   0.0000000   0.0261842   0.0000000), wk =   0.0277778
        k(    4) = (   0.0000000   0.0392764   0.0000000), wk =   0.0277778
        k(    5) = (   0.0000000   0.0523685   0.0000000), wk =   0.0277778
        k(    6) = (   0.0000000   0.0654606   0.0000000), wk =   0.0277778
        k(    7) = (   0.0000000  -0.0785527   0.0000000), wk =   0.0138889
        k(    8) = (   0.0113956  -0.0064454   0.0000000), wk =   0.0277778
        k(    9) = (   0.0113956   0.0066467   0.0000000), wk =   0.0277778
        k(   10) = (   0.0113956   0.0197388   0.0000000), wk =   0.0277778
        k(   11) = (   0.0113956   0.0328310   0.0000000), wk =   0.0277778
        k(   12) = (   0.0113956   0.0459231   0.0000000), wk =   0.0277778
        k(   13) = (   0.0113956   0.0590152   0.0000000), wk =   0.0277778
        k(   14) = (   0.0113956  -0.0849981   0.0000000), wk =   0.0277778
        k(   15) = (   0.0113956  -0.0719060   0.0000000), wk =   0.0277778
        k(   16) = (   0.0113956  -0.0588139   0.0000000), wk =   0.0277778
        k(   17) = (   0.0113956  -0.0457218   0.0000000), wk =   0.0277778
        k(   18) = (   0.0113956  -0.0326296   0.0000000), wk =   0.0277778
        k(   19) = (   0.0113956  -0.0195375   0.0000000), wk =   0.0277778
        k(   20) = (   0.0227913  -0.0128908   0.0000000), wk =   0.0277778
        k(   21) = (   0.0227913   0.0002013   0.0000000), wk =   0.0277778
        k(   22) = (   0.0227913   0.0132935   0.0000000), wk =   0.0277778
        k(   23) = (   0.0227913   0.0263856   0.0000000), wk =   0.0277778
        k(   24) = (   0.0227913   0.0394777   0.0000000), wk =   0.0277778
        k(   25) = (   0.0227913   0.0525698   0.0000000), wk =   0.0277778
        k(   26) = (   0.0227913  -0.0914435   0.0000000), wk =   0.0277778
        k(   27) = (   0.0227913  -0.0783514   0.0000000), wk =   0.0277778
        k(   28) = (   0.0227913  -0.0652593   0.0000000), wk =   0.0277778
        k(   29) = (   0.0227913  -0.0521671   0.0000000), wk =   0.0277778
        k(   30) = (   0.0227913  -0.0390750   0.0000000), wk =   0.0277778
        k(   31) = (   0.0227913  -0.0259829   0.0000000), wk =   0.0277778
        k(   32) = (   0.0341869  -0.0193362   0.0000000), wk =   0.0277778
        k(   33) = (   0.0341869  -0.0062441   0.0000000), wk =   0.0277778
        k(   34) = (   0.0341869   0.0068481   0.0000000), wk =   0.0277778
        k(   35) = (   0.0341869   0.0199402   0.0000000), wk =   0.0277778
        k(   36) = (   0.0341869   0.0330323   0.0000000), wk =   0.0277778
        k(   37) = (   0.0341869   0.0461244   0.0000000), wk =   0.0277778
        k(   38) = (   0.0341869  -0.0978889   0.0000000), wk =   0.0277778
        k(   39) = (   0.0341869  -0.0847968   0.0000000), wk =   0.0277778
        k(   40) = (   0.0341869  -0.0717047   0.0000000), wk =   0.0277778
        k(   41) = (   0.0341869  -0.0586125   0.0000000), wk =   0.0277778
        k(   42) = (   0.0341869  -0.0455204   0.0000000), wk =   0.0277778
        k(   43) = (   0.0341869  -0.0324283   0.0000000), wk =   0.0277778
        k(   44) = (   0.0455825  -0.0257816   0.0000000), wk =   0.0277778
        k(   45) = (   0.0455825  -0.0126894   0.0000000), wk =   0.0277778
        k(   46) = (   0.0455825   0.0004027   0.0000000), wk =   0.0277778
        k(   47) = (   0.0455825   0.0134948   0.0000000), wk =   0.0277778
        k(   48) = (   0.0455825   0.0265869   0.0000000), wk =   0.0277778
        k(   49) = (   0.0455825   0.0396790   0.0000000), wk =   0.0277778
        k(   50) = (   0.0455825  -0.1043343   0.0000000), wk =   0.0277778
        k(   51) = (   0.0455825  -0.0912422   0.0000000), wk =   0.0277778
        k(   52) = (   0.0455825  -0.0781500   0.0000000), wk =   0.0277778
        k(   53) = (   0.0455825  -0.0650579   0.0000000), wk =   0.0277778
        k(   54) = (   0.0455825  -0.0519658   0.0000000), wk =   0.0277778
        k(   55) = (   0.0455825  -0.0388737   0.0000000), wk =   0.0277778
        k(   56) = (   0.0569782  -0.0322270   0.0000000), wk =   0.0277778
        k(   57) = (   0.0569782  -0.0191348   0.0000000), wk =   0.0277778
        k(   58) = (   0.0569782  -0.0060427   0.0000000), wk =   0.0277778
        k(   59) = (   0.0569782   0.0070494   0.0000000), wk =   0.0277778
        k(   60) = (   0.0569782   0.0201415   0.0000000), wk =   0.0277778
        k(   61) = (   0.0569782   0.0332336   0.0000000), wk =   0.0277778
        k(   62) = (   0.0569782  -0.1107797   0.0000000), wk =   0.0277778
        k(   63) = (   0.0569782  -0.0976876   0.0000000), wk =   0.0277778
        k(   64) = (   0.0569782  -0.0845954   0.0000000), wk =   0.0277778
        k(   65) = (   0.0569782  -0.0715033   0.0000000), wk =   0.0277778
        k(   66) = (   0.0569782  -0.0584112   0.0000000), wk =   0.0277778
        k(   67) = (   0.0569782  -0.0453191   0.0000000), wk =   0.0277778
        k(   68) = (  -0.0683738   0.0386723   0.0000000), wk =   0.0138889
        k(   69) = (  -0.0683738   0.0517645   0.0000000), wk =   0.0277778
        k(   70) = (  -0.0683738   0.0648566   0.0000000), wk =   0.0277778
        k(   71) = (  -0.0683738   0.0779487   0.0000000), wk =   0.0277778
        k(   72) = (  -0.0683738   0.0910408   0.0000000), wk =   0.0277778
        k(   73) = (  -0.0683738   0.1041329   0.0000000), wk =   0.0277778
        k(   74) = (  -0.0683738  -0.0398804   0.0000000), wk =   0.0138889

     Dense  grid:  1783931 G-vectors     FFT dimensions: ( 108, 108, 375)

     Smooth grid:   451313 G-vectors     FFT dimensions: (  72,  72, 240)

     Estimated max dynamical RAM per process >     607.29 MB

     Estimated total dynamical RAM >      21.94 GB

     Initial potential from superposition of free atoms

     starting charge  131.79676, renormalised to  132.00000

     negative rho (up, down):  5.010E-04 0.000E+00


     %%%%%%%%%%%%%%%%%%%%%%%%%%%%%%%%%%%%%%%%%%%%%%%%%%%%%%%%%%%%%%%%%%%%%%%%
     %                                                                      %
     % You are using vdW-DF, which was implemented by the Thonhauser group. %
     % Please cite the following two papers that made this development      %
     % possible and the two reviews that describe the various versions:     %
     %                                                                      %
     %   T. Thonhauser et al., PRL 115, 136402 (2015).                      %
     %   T. Thonhauser et al., PRB 76, 125112 (2007).                       %
     %   K. Berland et al., Rep. Prog. Phys. 78, 066501 (2015).             %
     %   D.C. Langreth et al., J. Phys.: Condens. Matter 21, 084203 (2009). %
     %                                                                      %
     %                                                                      %
     % If you are calculating the stress with vdW-DF, please also cite:     %
     %                                                                      %
     %   R. Sabatini et al., J. Phys.: Condens. Matter 24, 424209 (2012).   %
     %                                                                      %
     %%%%%%%%%%%%%%%%%%%%%%%%%%%%%%%%%%%%%%%%%%%%%%%%%%%%%%%%%%%%%%%%%%%%%%%%



     Adding external electric field

     Computed dipole along edir(3) : 
        Dipole                0.0072 Ry au,          0.0182 Debye
        Dipole field          0.0000 Ry au, 

        Potential amp.       -0.0011 Ry
        Total length         47.8778 bohr

     Starting wfcs are  198 randomized atomic wfcs

     total cpu time spent up to now is      451.2 secs

     Self-consistent Calculation

     iteration #  1     ecut=    55.12 Ry     beta= 0.10
     Davidson diagonalization with overlap
     ethr =  1.00E-02,  avg # of iterations =  2.0

     negative rho (up, down):  3.979E-04 0.000E+00

     Adding external electric field

     Computed dipole along edir(3) : 
        Dipole               -0.2228 Ry au,         -0.5663 Debye
        Dipole field         -0.0003 Ry au, 

        Potential amp.        0.0328 Ry
        Total length         47.8778 bohr


     total cpu time spent up to now is      836.9 secs

     total energy              =   -1267.92210099 Ry
     estimated scf accuracy    <       8.11565309 Ry

     iteration #  2     ecut=    55.12 Ry     beta= 0.10
     Davidson diagonalization with overlap
     ethr =  6.15E-03,  avg # of iterations =  5.3

     negative rho (up, down):  3.270E-04 0.000E+00

     Adding external electric field

     Computed dipole along edir(3) : 
        Dipole                0.7967 Ry au,          2.0251 Debye
        Dipole field          0.0012 Ry au, 

        Potential amp.       -0.1175 Ry
        Total length         47.8778 bohr


     total cpu time spent up to now is     1158.4 secs

     total energy              =   -1268.34392876 Ry
     estimated scf accuracy    <       2.38329347 Ry

     iteration #  3     ecut=    55.12 Ry     beta= 0.10
     Davidson diagonalization with overlap
     ethr =  1.81E-03,  avg # of iterations =  9.4

     negative rho (up, down):  5.885E-04 0.000E+00

     Adding external electric field

     Computed dipole along edir(3) : 
        Dipole               -0.2228 Ry au,         -0.5664 Debye
        Dipole field         -0.0003 Ry au, 

        Potential amp.        0.0328 Ry
        Total length         47.8778 bohr


     total cpu time spent up to now is     1581.7 secs

     total energy              =   -1268.16358891 Ry
     estimated scf accuracy    <      30.42230772 Ry

     iteration #  4     ecut=    55.12 Ry     beta= 0.10
     Davidson diagonalization with overlap
     ethr =  1.81E-03,  avg # of iterations =  3.7

     negative rho (up, down):  4.751E-04 0.000E+00

     Adding external electric field

     Computed dipole along edir(3) : 
        Dipole               -0.0941 Ry au,         -0.2393 Debye
        Dipole field         -0.0001 Ry au, 

        Potential amp.        0.0139 Ry
        Total length         47.8778 bohr


     total cpu time spent up to now is     1894.7 secs

     total energy              =   -1268.52188608 Ry
     estimated scf accuracy    <       0.94231943 Ry

     iteration #  5     ecut=    55.12 Ry     beta= 0.10
     Davidson diagonalization with overlap
     ethr =  7.14E-04,  avg # of iterations =  5.4

     negative rho (up, down):  3.077E-04 0.000E+00

     Adding external electric field

     Computed dipole along edir(3) : 
        Dipole               -0.0162 Ry au,         -0.0412 Debye
        Dipole field         -0.0000 Ry au, 

        Potential amp.        0.0024 Ry
        Total length         47.8778 bohr


     total cpu time spent up to now is     2207.4 secs

     total energy              =   -1268.51835971 Ry
     estimated scf accuracy    <       0.40794989 Ry

     iteration #  6     ecut=    55.12 Ry     beta= 0.10
     Davidson diagonalization with overlap
     ethr =  3.09E-04,  avg # of iterations =  7.6

     negative rho (up, down):  2.279E-04 0.000E+00

     Adding external electric field

     Computed dipole along edir(3) : 
        Dipole                0.0113 Ry au,          0.0288 Debye
        Dipole field          0.0000 Ry au, 

        Potential amp.       -0.0017 Ry
        Total length         47.8778 bohr


     total cpu time spent up to now is     2581.0 secs

     total energy              =   -1268.55353203 Ry
     estimated scf accuracy    <       0.08928381 Ry

     iteration #  7     ecut=    55.12 Ry     beta= 0.10
     Davidson diagonalization with overlap
     c_bands:  1 eigenvalues not converged
     c_bands:  1 eigenvalues not converged
     c_bands:  1 eigenvalues not converged
     ethr =  6.76E-05,  avg # of iterations = 12.1

     negative rho (up, down):  2.295E-04 0.000E+00

     Adding external electric field

     Computed dipole along edir(3) : 
        Dipole                0.0327 Ry au,          0.0831 Debye
        Dipole field          0.0001 Ry au, 

        Potential amp.       -0.0048 Ry
        Total length         47.8778 bohr


     total cpu time spent up to now is     3277.1 secs

     total energy              =   -1268.56491592 Ry
     estimated scf accuracy    <       0.05130085 Ry

     iteration #  8     ecut=    55.12 Ry     beta= 0.10
     Davidson diagonalization with overlap
     ethr =  3.89E-05,  avg # of iterations =  5.6

     negative rho (up, down):  4.239E-04 0.000E+00

     Adding external electric field

     Computed dipole along edir(3) : 
        Dipole               -0.0381 Ry au,         -0.0968 Debye
        Dipole field         -0.0001 Ry au, 

        Potential amp.        0.0056 Ry
        Total length         47.8778 bohr


     total cpu time spent up to now is     3734.4 secs

     total energy              =   -1268.56520137 Ry
     estimated scf accuracy    <       0.02833408 Ry

     iteration #  9     ecut=    55.12 Ry     beta= 0.10
     Davidson diagonalization with overlap
     c_bands:  1 eigenvalues not converged
     c_bands:  1 eigenvalues not converged
     c_bands:  1 eigenvalues not converged
     c_bands:  2 eigenvalues not converged
     ethr =  2.15E-05,  avg # of iterations = 10.1

     negative rho (up, down):  4.648E-04 0.000E+00

     Adding external electric field

     Computed dipole along edir(3) : 
        Dipole               -0.0060 Ry au,         -0.0152 Debye
        Dipole field         -0.0000 Ry au, 

        Potential amp.        0.0009 Ry
        Total length         47.8778 bohr


     total cpu time spent up to now is     4456.2 secs

     total energy              =   -1268.56744592 Ry
     estimated scf accuracy    <       0.10388003 Ry

     iteration # 10     ecut=    55.12 Ry     beta= 0.10
     Davidson diagonalization with overlap
     ethr =  2.15E-05,  avg # of iterations =  5.3

     negative rho (up, down):  4.388E-04 0.000E+00

     Adding external electric field

     Computed dipole along edir(3) : 
        Dipole               -0.0076 Ry au,         -0.0193 Debye
        Dipole field         -0.0000 Ry au, 

        Potential amp.        0.0011 Ry
        Total length         47.8778 bohr


     total cpu time spent up to now is     4898.7 secs

     total energy              =   -1268.56831034 Ry
     estimated scf accuracy    <       0.02053149 Ry

     iteration # 11     ecut=    55.12 Ry     beta= 0.10
     Davidson diagonalization with overlap
     ethr =  1.56E-05,  avg # of iterations =  5.2

     negative rho (up, down):  4.529E-04 0.000E+00

     Adding external electric field

     Computed dipole along edir(3) : 
        Dipole                0.0134 Ry au,          0.0340 Debye
        Dipole field          0.0000 Ry au, 

        Potential amp.       -0.0020 Ry
        Total length         47.8778 bohr


     total cpu time spent up to now is     5390.2 secs

     total energy              =   -1268.56972187 Ry
     estimated scf accuracy    <       0.01475306 Ry

     iteration # 12     ecut=    55.12 Ry     beta= 0.10
     Davidson diagonalization with overlap
     c_bands:  1 eigenvalues not converged
     ethr =  1.12E-05,  avg # of iterations =  1.9

     negative rho (up, down):  4.274E-04 0.000E+00

     Adding external electric field

     Computed dipole along edir(3) : 
        Dipole                0.0221 Ry au,          0.0562 Debye
        Dipole field          0.0000 Ry au, 

        Potential amp.       -0.0033 Ry
        Total length         47.8778 bohr


     total cpu time spent up to now is     5757.3 secs

     total energy              =   -1268.57023066 Ry
     estimated scf accuracy    <       0.00077387 Ry

     iteration # 13     ecut=    55.12 Ry     beta= 0.10
     Davidson diagonalization with overlap
     c_bands:  1 eigenvalues not converged
     c_bands:  1 eigenvalues not converged
     c_bands:  1 eigenvalues not converged
     c_bands:  1 eigenvalues not converged
     c_bands:  1 eigenvalues not converged
     c_bands:  2 eigenvalues not converged
     c_bands:  1 eigenvalues not converged
     c_bands:  2 eigenvalues not converged
     c_bands:  1 eigenvalues not converged
     c_bands:  3 eigenvalues not converged
     c_bands:  1 eigenvalues not converged
     c_bands:  1 eigenvalues not converged
     c_bands:  1 eigenvalues not converged
     c_bands:  1 eigenvalues not converged
     c_bands:  1 eigenvalues not converged
     c_bands:  1 eigenvalues not converged
     c_bands:  1 eigenvalues not converged
     c_bands:  1 eigenvalues not converged
     c_bands:  1 eigenvalues not converged
     c_bands:  2 eigenvalues not converged
     c_bands:  1 eigenvalues not converged
     c_bands:  1 eigenvalues not converged
     c_bands:  2 eigenvalues not converged
     c_bands:  1 eigenvalues not converged
     c_bands:  1 eigenvalues not converged
     c_bands:  1 eigenvalues not converged
     c_bands:  1 eigenvalues not converged
     c_bands:  3 eigenvalues not converged
     c_bands:  1 eigenvalues not converged
     c_bands:  1 eigenvalues not converged
     c_bands:  1 eigenvalues not converged
     c_bands:  3 eigenvalues not converged
     c_bands:  1 eigenvalues not converged
     c_bands:  2 eigenvalues not converged
     c_bands:  1 eigenvalues not converged
     ethr =  5.86E-07,  avg # of iterations = 17.5

     negative rho (up, down):  3.694E-04 0.000E+00

     Adding external electric field

     Computed dipole along edir(3) : 
        Dipole                0.0203 Ry au,          0.0516 Debye
        Dipole field          0.0000 Ry au, 

        Potential amp.       -0.0030 Ry
        Total length         47.8778 bohr


     total cpu time spent up to now is     6524.2 secs

     total energy              =   -1268.57063797 Ry
     estimated scf accuracy    <       0.00379898 Ry

     iteration # 14     ecut=    55.12 Ry     beta= 0.10
     Davidson diagonalization with overlap
     c_bands:  1 eigenvalues not converged
     c_bands:  1 eigenvalues not converged
     c_bands:  1 eigenvalues not converged
     ethr =  5.86E-07,  avg # of iterations =  4.7

     negative rho (up, down):  4.961E-04 0.000E+00

     Adding external electric field

     Computed dipole along edir(3) : 
        Dipole                0.0137 Ry au,          0.0348 Debye
        Dipole field          0.0000 Ry au, 

        Potential amp.       -0.0020 Ry
        Total length         47.8778 bohr


     total cpu time spent up to now is     6926.9 secs

     total energy              =   -1268.57054632 Ry
     estimated scf accuracy    <       0.00229686 Ry

     iteration # 15     ecut=    55.12 Ry     beta= 0.10
     Davidson diagonalization with overlap
     c_bands:  2 eigenvalues not converged
     ethr =  5.86E-07,  avg # of iterations = 11.3

     negative rho (up, down):  4.266E-04 0.000E+00

     Adding external electric field

     Computed dipole along edir(3) : 
        Dipole                0.0149 Ry au,          0.0380 Debye
        Dipole field          0.0000 Ry au, 

        Potential amp.       -0.0022 Ry
        Total length         47.8778 bohr


     total cpu time spent up to now is     7621.4 secs

     total energy              =   -1268.57076763 Ry
     estimated scf accuracy    <       0.00115871 Ry

     iteration # 16     ecut=    55.12 Ry     beta= 0.10
     Davidson diagonalization with overlap
     c_bands:  1 eigenvalues not converged
     c_bands:  1 eigenvalues not converged
     ethr =  5.86E-07,  avg # of iterations =  2.8

     negative rho (up, down):  3.998E-04 0.000E+00

     Adding external electric field

     Computed dipole along edir(3) : 
        Dipole                0.0141 Ry au,          0.0359 Debye
        Dipole field          0.0000 Ry au, 

        Potential amp.       -0.0021 Ry
        Total length         47.8778 bohr


     total cpu time spent up to now is     8020.9 secs

     total energy              =   -1268.57075459 Ry
     estimated scf accuracy    <       0.00028178 Ry

     iteration # 17     ecut=    55.12 Ry     beta= 0.10
     Davidson diagonalization with overlap
     ethr =  2.13E-07,  avg # of iterations =  7.2

     negative rho (up, down):  3.692E-04 0.000E+00

     Adding external electric field

     Computed dipole along edir(3) : 
        Dipole                0.0138 Ry au,          0.0351 Debye
        Dipole field          0.0000 Ry au, 

        Potential amp.       -0.0020 Ry
        Total length         47.8778 bohr


     total cpu time spent up to now is     8402.4 secs

     total energy              =   -1268.57079674 Ry
     estimated scf accuracy    <       0.00006739 Ry

     iteration # 18     ecut=    55.12 Ry     beta= 0.10
     Davidson diagonalization with overlap
     ethr =  5.11E-08,  avg # of iterations =  5.7

     negative rho (up, down):  3.338E-04 0.000E+00

     Adding external electric field

     Computed dipole along edir(3) : 
        Dipole                0.0123 Ry au,          0.0312 Debye
        Dipole field          0.0000 Ry au, 

        Potential amp.       -0.0018 Ry
        Total length         47.8778 bohr


     total cpu time spent up to now is     8854.1 secs

     total energy              =   -1268.57080320 Ry
     estimated scf accuracy    <       0.00001546 Ry

     iteration # 19     ecut=    55.12 Ry     beta= 0.10
     Davidson diagonalization with overlap
     ethr =  1.17E-08,  avg # of iterations =  8.1

     negative rho (up, down):  3.064E-04 0.000E+00

     Adding external electric field

     Computed dipole along edir(3) : 
        Dipole                0.0125 Ry au,          0.0318 Debye
        Dipole field          0.0000 Ry au, 

        Potential amp.       -0.0018 Ry
        Total length         47.8778 bohr


     total cpu time spent up to now is     9484.7 secs

     total energy              =   -1268.57080649 Ry
     estimated scf accuracy    <       0.00001826 Ry

     iteration # 20     ecut=    55.12 Ry     beta= 0.10
     Davidson diagonalization with overlap
     ethr =  1.17E-08,  avg # of iterations =  2.1

     negative rho (up, down):  1.397E-04 0.000E+00

     Adding external electric field

     Computed dipole along edir(3) : 
        Dipole                0.0216 Ry au,          0.0549 Debye
        Dipole field          0.0000 Ry au, 

        Potential amp.       -0.0032 Ry
        Total length         47.8778 bohr


     total cpu time spent up to now is     9886.6 secs

     End of self-consistent calculation

          k = 0.0000 0.0000 0.0000 ( 56493 PWs)   bands (ev):

   -42.0139 -41.9994 -41.9091 -41.8944 -41.4701 -41.4553 -31.7553 -31.7333
   -31.6806 -31.6585 -31.2168 -31.1399 -21.9980 -21.9911 -21.9745 -21.9240
   -21.9036 -21.9005 -21.8961 -21.8802 -21.8298 -21.8012 -21.7709 -21.6777
   -21.4969 -21.4485 -21.4189 -21.3723 -21.3481 -21.2700 -15.7591 -15.7381
   -15.5609 -15.4617 -15.4610 -15.3834 -15.3660 -15.3611 -15.2957 -15.2956
   -15.2768 -14.9630 -14.9419 -14.9007 -14.8051 -14.8034 -14.7168 -14.4802
    -2.1322  -1.3271  -0.7199  -0.4623  -0.3748  -0.0620   0.0011   0.1704
     0.1719   0.3509   0.3728   0.5355   0.5685   0.5994   0.7171   1.0177
     1.1807   1.3708   1.6600   1.6721   2.0648   2.1515   2.2136   2.3136
     2.3980   2.5012   2.5848   2.6002   2.6360   2.7488   2.7847

          k = 0.0000 0.0131 0.0000 ( 56509 PWs)   bands (ev):

   -42.0136 -41.9996 -41.9088 -41.8947 -41.4699 -41.4556 -31.7541 -31.7321
   -31.6819 -31.6598 -31.2155 -31.1412 -21.9975 -21.9874 -21.9749 -21.9233
   -21.9032 -21.8968 -21.8963 -21.8806 -21.8291 -21.8015 -21.7747 -21.6815
   -21.4931 -21.4478 -21.4192 -21.3719 -21.3485 -21.2738 -15.7470 -15.7259
   -15.5598 -15.4640 -15.4590 -15.3828 -15.3652 -15.3626 -15.2982 -15.2834
   -15.2788 -14.9782 -14.9571 -14.8995 -14.8055 -14.8038 -14.7185 -14.4958
    -2.0915  -1.2877  -0.6835  -0.4422  -0.3489  -0.0270   0.0143   0.1946
     0.2052   0.3864   0.3967   0.5610   0.5942   0.6210   0.7353   1.0332
     1.1879   1.3717   1.6618   1.6782   2.0590   2.1054   2.2037   2.2764
     2.3608   2.4688   2.5533   2.5606   2.6346   2.6700   2.7380

          k = 0.0000 0.0262 0.0000 ( 56439 PWs)   bands (ev):

   -42.0129 -42.0003 -41.9081 -41.8954 -41.4691 -41.4563 -31.7504 -31.7284
   -31.6857 -31.6637 -31.2118 -31.1452 -21.9963 -21.9766 -21.9758 -21.9213
   -21.9020 -21.8972 -21.8857 -21.8816 -21.8270 -21.8022 -21.7857 -21.6927
   -21.4818 -21.4457 -21.4201 -21.3707 -21.3497 -21.2852 -15.7112 -15.6900
   -15.5567 -15.4707 -15.4533 -15.3810 -15.3669 -15.3629 -15.3050 -15.2859
   -15.2461 -15.0224 -15.0013 -14.8959 -14.8118 -14.7999 -14.7234 -14.5411
    -1.9718  -1.1726  -0.5776  -0.3959  -0.2754   0.0386   0.0731   0.2621
     0.3070   0.4359   0.5288   0.6360   0.6716   0.6860   0.7877   1.0777
     1.2070   1.3734   1.6619   1.6898   1.9464   2.0672   2.1416   2.1854
     2.2561   2.3618   2.4456   2.5264   2.5354   2.5796   2.6141

          k = 0.0000 0.0393 0.0000 ( 56391 PWs)   bands (ev):

   -42.0117 -42.0015 -41.9069 -41.8966 -41.4680 -41.4575 -31.7446 -31.7226
   -31.6918 -31.6697 -31.2058 -31.1514 -21.9943 -21.9778 -21.9590 -21.9183
   -21.9000 -21.8985 -21.8835 -21.8680 -21.8239 -21.8036 -21.8032 -21.7104
   -21.4639 -21.4427 -21.4217 -21.3687 -21.3516 -21.3033 -15.6534 -15.6322
   -15.5512 -15.4809 -15.4445 -15.3775 -15.3740 -15.3588 -15.3154 -15.2959
   -15.1870 -15.0914 -15.0704 -14.8900 -14.8214 -14.7936 -14.7311 -14.6119
    -1.7810  -0.9916  -0.4126  -0.3733  -0.1748   0.0624   0.2230   0.3625
     0.4647   0.5337   0.7316   0.7550   0.7944   0.8011   0.8691   1.1437
     1.2317   1.3769   1.6396   1.6922   1.7966   1.9507   1.9627   2.0940
     2.1191   2.2525   2.3255   2.3698   2.4003   2.5003   2.5711

          k = 0.0000 0.0524 0.0000 ( 56387 PWs)   bands (ev):

   -42.0102 -42.0030 -41.9054 -41.8981 -41.4664 -41.4590 -31.7370 -31.7150
   -31.6997 -31.6776 -31.1979 -31.1595 -21.9918 -21.9801 -21.9363 -21.9146
   -21.9006 -21.8975 -21.8857 -21.8450 -21.8260 -21.8200 -21.8056 -21.7335
   -21.4405 -21.4389 -21.4239 -21.3662 -21.3540 -21.3269 -15.5767 -15.5555
   -15.5434 -15.4935 -15.4333 -15.3834 -15.3720 -15.3526 -15.3277 -15.3080
   -15.1793 -15.1583 -15.1084 -14.8819 -14.8333 -14.7853 -14.7409 -14.7020
    -1.5319  -0.7622  -0.4546  -0.2076  -0.1061   0.1236   0.3968   0.4754
     0.6448   0.6563   0.9025   0.9339   0.9643   0.9810   0.9841   1.2190
     1.2642   1.3945   1.5617   1.6629   1.6950   1.7445   1.7971   1.9009
     1.9926   2.0936   2.2447   2.2853   2.2941   2.3511   2.4019

          k = 0.0000 0.0655 0.0000 ( 56380 PWs)   bands (ev):

   -42.0085 -42.0047 -41.9036 -41.8999 -41.4646 -41.4608 -31.7281 -31.7088
   -31.7061 -31.6867 -31.1888 -31.1689 -21.9889 -21.9829 -21.9106 -21.9101
   -21.9030 -21.8947 -21.8884 -21.8526 -21.8185 -21.8160 -21.8081 -21.7604
   -21.4348 -21.4273 -21.4129 -21.3633 -21.3569 -21.3542 -15.5331 -15.5077
   -15.4850 -15.4639 -15.4207 -15.3946 -15.3644 -15.3443 -15.3405 -15.3206
   -15.2787 -15.2577 -15.0147 -14.8719 -14.8463 -14.8047 -14.7743 -14.7520
    -1.2429  -0.6602  -0.5123  -0.1373   0.0038   0.1956   0.5572   0.5848
     0.7476   0.7705   1.0171   1.0847   1.1294   1.1386   1.1491   1.3067
     1.3554   1.4315   1.4602   1.5777   1.5964   1.6540   1.6905   1.7742
     1.8827   1.8953   2.1339   2.1387   2.2103   2.2567   2.2773

          k = 0.0000-0.0786 0.0000 ( 56376 PWs)   bands (ev):

   -42.0066 -42.0066 -41.9018 -41.9017 -41.4627 -41.4627 -31.7185 -31.7185
   -31.6964 -31.6964 -31.1789 -31.1788 -21.9859 -21.9859 -21.9069 -21.9069
   -21.8918 -21.8918 -21.8808 -21.8808 -21.8121 -21.8121 -21.7892 -21.7891
   -21.4308 -21.4308 -21.3837 -21.3837 -21.3600 -21.3600 -15.5209 -15.5209
   -15.4082 -15.4082 -15.3853 -15.3853 -15.3641 -15.3641 -15.3505 -15.3505
   -15.3317 -15.3317 -14.9118 -14.9118 -14.8589 -14.8589 -14.7635 -14.7635
    -0.9400  -0.9400  -0.2852  -0.2852   0.1623   0.1623   0.6394   0.6394
     0.7842   0.7842   1.1113   1.1114   1.1745   1.1745   1.2784   1.2784
     1.4498   1.4498   1.5300   1.5300   1.5702   1.5702   1.7020   1.7020
     1.8295   1.8296   2.0511   2.0512   2.1550   2.1556   2.2226

          k = 0.0114-0.0064 0.0000 ( 56509 PWs)   bands (ev):

   -42.0136 -41.9996 -41.9088 -41.8947 -41.4699 -41.4556 -31.7541 -31.7321
   -31.6819 -31.6598 -31.2155 -31.1412 -21.9975 -21.9874 -21.9749 -21.9233
   -21.9032 -21.8968 -21.8963 -21.8806 -21.8291 -21.8015 -21.7747 -21.6815
   -21.4931 -21.4478 -21.4192 -21.3719 -21.3485 -21.2738 -15.7470 -15.7259
   -15.5598 -15.4640 -15.4590 -15.3828 -15.3652 -15.3626 -15.2982 -15.2834
   -15.2788 -14.9782 -14.9571 -14.8995 -14.8055 -14.8038 -14.7185 -14.4958
    -2.0915  -1.2877  -0.6835  -0.4422  -0.3489  -0.0270   0.0143   0.1946
     0.2052   0.3864   0.3967   0.5610   0.5942   0.6210   0.7353   1.0332
     1.1879   1.3717   1.6618   1.6782   2.0590   2.1053   2.2034   2.2763
     2.3612   2.4688   2.5532   2.5604   2.6352   2.6700   2.7391

          k = 0.0114 0.0066 0.0000 ( 56537 PWs)   bands (ev):

   -42.0139 -41.9994 -41.9091 -41.8944 -41.4701 -41.4553 -31.7553 -31.7333
   -31.6806 -31.6585 -31.2168 -31.1399 -21.9979 -21.9909 -21.9745 -21.9233
   -21.9035 -21.9002 -21.8959 -21.8802 -21.8291 -21.8010 -21.7709 -21.6777
   -21.4966 -21.4478 -21.4187 -21.3723 -21.3481 -21.2699 -15.7603 -15.7391
   -15.5626 -15.4625 -15.4602 -15.3860 -15.3680 -15.3608 -15.2967 -15.2965
   -15.2778 -14.9632 -14.9421 -14.9018 -14.8057 -14.8041 -14.7170 -14.4804
    -2.0897  -1.2859  -0.6828  -0.4264  -0.3421  -0.0464   0.0435   0.1599
     0.1992   0.3721   0.3864   0.5582   0.5901   0.6358   0.7462   1.0247
     1.1864   1.3840   1.6603   1.6789   2.0606   2.1365   2.1811   2.3068
     2.3648   2.4612   2.5102   2.5750   2.6263   2.7036   2.7674

          k = 0.0114 0.0197 0.0000 ( 56487 PWs)   bands (ev):

   -42.0136 -41.9996 -41.9088 -41.8947 -41.4699 -41.4556 -31.7541 -31.7321
   -31.6819 -31.6599 -31.2156 -31.1412 -21.9974 -21.9869 -21.9749 -21.9220
   -21.9031 -21.8963 -21.8959 -21.8805 -21.8277 -21.8011 -21.7746 -21.6815
   -21.4925 -21.4466 -21.4189 -21.3718 -21.3485 -21.2738 -15.7492 -15.7278
   -15.5632 -15.4655 -15.4576 -15.3877 -15.3691 -15.3620 -15.3000 -15.2852
   -15.2806 -14.9785 -14.9574 -14.9015 -14.8070 -14.8048 -14.7189 -14.4960
    -2.0077  -1.2070  -0.6121  -0.3757  -0.2876   0.0030   0.0880   0.1862
     0.2510   0.4204   0.4357   0.6063   0.6364   0.6911   0.7932   1.0461
     1.1985   1.3971   1.6609   1.6864   2.0204   2.1073   2.1250   2.2471
     2.2919   2.4026   2.4625   2.5152   2.5897   2.6090   2.6491

          k = 0.0114 0.0328 0.0000 ( 56453 PWs)   bands (ev):

   -42.0129 -42.0004 -41.9081 -41.8954 -41.4691 -41.4563 -31.7505 -31.7285
   -31.6858 -31.6637 -31.2119 -31.1452 -21.9961 -21.9762 -21.9754 -21.9197
   -21.9018 -21.8967 -21.8850 -21.8815 -21.8252 -21.8018 -21.7857 -21.6927
   -21.4811 -21.4442 -21.4198 -21.3705 -21.3497 -21.2852 -15.7141 -15.6926
   -15.5610 -15.4724 -15.4515 -15.3874 -15.3680 -15.3662 -15.3072 -15.2878
   -15.2487 -15.0225 -15.0015 -14.8986 -14.8136 -14.8011 -14.7239 -14.5413
    -1.8506  -1.0575  -0.4796  -0.3249  -0.1987   0.1144   0.1187   0.2828
     0.3491   0.5063   0.5799   0.7026   0.7314   0.7878   0.8703   1.0939
     1.2192   1.4092   1.6506   1.6889   1.8902   2.0036   2.0933   2.1142
     2.1414   2.3138   2.3879   2.4064   2.4564   2.5053   2.5490

          k = 0.0114 0.0459 0.0000 ( 56378 PWs)   bands (ev):

   -42.0117 -42.0015 -41.9069 -41.8966 -41.4680 -41.4575 -31.7447 -31.7227
   -31.6918 -31.6697 -31.2059 -31.1514 -21.9942 -21.9778 -21.9582 -21.9165
   -21.8998 -21.8983 -21.8834 -21.8672 -21.8219 -21.8033 -21.8033 -21.7105
   -21.4631 -21.4410 -21.4215 -21.3686 -21.3516 -21.3034 -15.6567 -15.6350
   -15.5558 -15.4824 -15.4426 -15.3844 -15.3733 -15.3642 -15.3170 -15.2974
   -15.1898 -15.0913 -15.0702 -14.8929 -14.8231 -14.7948 -14.7314 -14.6117
    -1.6285  -0.8509  -0.3535  -0.3015  -0.1053   0.1599   0.2693   0.4357
     0.4662   0.6410   0.7881   0.8368   0.8719   0.9204   0.9665   1.1630
     1.2419   1.4218   1.6021   1.6685   1.7735   1.8137   1.9286   1.9519
     2.0720   2.1544   2.2311   2.2838   2.3709   2.4047   2.4615

          k = 0.0114 0.0590 0.0000 ( 56409 PWs)   bands (ev):

   -42.0102 -42.0030 -41.9054 -41.8981 -41.4664 -41.4590 -31.7371 -31.7151
   -31.6996 -31.6776 -31.1981 -31.1595 -21.9917 -21.9801 -21.9355 -21.9129
   -21.9006 -21.8973 -21.8857 -21.8442 -21.8263 -21.8182 -21.8056 -21.7337
   -21.4398 -21.4373 -21.4240 -21.3660 -21.3541 -21.3271 -15.5798 -15.5582
   -15.5474 -15.4942 -15.4317 -15.3831 -15.3783 -15.3575 -15.3282 -15.3085
   -15.1786 -15.1576 -15.1112 -14.8845 -14.8344 -14.7863 -14.7410 -14.7013
    -1.3572  -0.6100  -0.5138  -0.1046  -0.0756   0.2359   0.4356   0.5799
     0.6045   0.7784   0.9761   1.0218   1.0410   1.0441   1.0819   1.2629
     1.2711   1.4506   1.4854   1.5975   1.6265   1.7221   1.8009   1.8072
     1.9288   1.9558   2.1598   2.1801   2.2341   2.2492   2.3397

          k = 0.0114-0.0850 0.0000 ( 56371 PWs)   bands (ev):

   -42.0085 -42.0047 -41.9036 -41.8999 -41.4646 -41.4608 -31.7282 -31.7087
   -31.7062 -31.6867 -31.1889 -31.1688 -21.9888 -21.9829 -21.9095 -21.9093
   -21.9034 -21.8945 -21.8884 -21.8529 -21.8178 -21.8145 -21.8085 -21.7608
   -21.4335 -21.4278 -21.4122 -21.3631 -21.3570 -21.3546 -15.5361 -15.5071
   -15.4877 -15.4663 -15.4196 -15.3947 -15.3692 -15.3480 -15.3393 -15.3198
   -15.2774 -15.2565 -15.0171 -14.8737 -14.8465 -14.8035 -14.7750 -14.7518
    -1.0588  -0.7711  -0.3708  -0.1683   0.0669   0.2616   0.5646   0.6675
     0.7113   0.8590   1.0630   1.1271   1.1493   1.1835   1.2061   1.3327
     1.3538   1.4148   1.4903   1.5209   1.5398   1.6787   1.6852   1.7638
     1.7642   1.9286   2.0144   2.0681   2.1289   2.1382   2.2190

          k = 0.0114-0.0719 0.0000 ( 56365 PWs)   bands (ev):

   -42.0066 -42.0066 -41.9018 -41.9017 -41.4627 -41.4627 -31.7185 -31.7184
   -31.6965 -31.6963 -31.1789 -31.1787 -21.9860 -21.9858 -21.9077 -21.9060
   -21.8918 -21.8916 -21.8814 -21.8804 -21.8130 -21.8112 -21.7897 -21.7887
   -21.4316 -21.4299 -21.3842 -21.3832 -21.3601 -21.3599 -15.5227 -15.5192
   -15.4089 -15.4073 -15.3865 -15.3833 -15.3652 -15.3625 -15.3533 -15.3485
   -15.3341 -15.3300 -14.9133 -14.9099 -14.8598 -14.8583 -14.7639 -14.7631
    -1.0708  -0.7653  -0.3677  -0.1847   0.1446   0.1509   0.5832   0.6600
     0.7229   0.8863   1.0668   1.1212   1.1367   1.2047   1.2401   1.3300
     1.3457   1.4740   1.5158   1.5232   1.5722   1.5900   1.5949   1.7516
     1.8188   1.9139   1.9583   2.0418   2.1777   2.1820   2.2459

          k = 0.0114-0.0588 0.0000 ( 56402 PWs)   bands (ev):

   -42.0085 -42.0047 -41.9037 -41.8999 -41.4646 -41.4608 -31.7280 -31.7088
   -31.7060 -31.6867 -31.1887 -31.1689 -21.9890 -21.9828 -21.9118 -21.9105
   -21.9028 -21.8948 -21.8884 -21.8523 -21.8189 -21.8172 -21.8079 -21.7601
   -21.4359 -21.4268 -21.4136 -21.3634 -21.3568 -21.3539 -15.5305 -15.5083
   -15.4824 -15.4616 -15.4218 -15.3945 -15.3600 -15.3417 -15.3409 -15.3214
   -15.2801 -15.2589 -15.0126 -14.8702 -14.8462 -14.8056 -14.7739 -14.7521
    -1.3704  -0.6153  -0.5234  -0.0965  -0.0635   0.1139   0.4968   0.5281
     0.6800   0.8518   0.9687   0.9721   1.0609   1.1053   1.1182   1.2736
     1.3465   1.3831   1.5086   1.5833   1.6183   1.6484   1.6838   1.8206
     1.8779   2.0208   2.1214   2.1876   2.2189   2.3293   2.3398

          k = 0.0114-0.0457 0.0000 ( 56404 PWs)   bands (ev):

   -42.0102 -42.0030 -41.9054 -41.8981 -41.4664 -41.4590 -31.7369 -31.7149
   -31.6997 -31.6776 -31.1978 -31.1595 -21.9920 -21.9801 -21.9368 -21.9158
   -21.9006 -21.8976 -21.8858 -21.8456 -21.8259 -21.8213 -21.8056 -21.7334
   -21.4410 -21.4400 -21.4239 -21.3663 -21.3540 -21.3267 -15.5743 -15.5534
   -15.5403 -15.4930 -15.4345 -15.3836 -15.3673 -15.3489 -15.3275 -15.3076
   -15.1799 -15.1588 -15.1063 -14.8800 -14.8325 -14.7844 -14.7409 -14.7026
    -1.6403  -0.8592  -0.3934  -0.2848  -0.1068   0.0293   0.3585   0.3983
     0.5817   0.6838   0.8092   0.8587   0.9106   0.9206   0.9368   1.2082
     1.2605   1.3498   1.6093   1.6648   1.6838   1.7898   1.8418   2.0102
     2.0274   2.1485   2.2349   2.2833   2.3773   2.4270   2.4763

          k = 0.0114-0.0326 0.0000 ( 56423 PWs)   bands (ev):

   -42.0117 -42.0015 -41.9069 -41.8966 -41.4680 -41.4575 -31.7445 -31.7225
   -31.6918 -31.6697 -31.2057 -31.1514 -21.9945 -21.9778 -21.9594 -21.9193
   -21.9001 -21.8987 -21.8835 -21.8684 -21.8250 -21.8038 -21.8032 -21.7104
   -21.4643 -21.4436 -21.4218 -21.3688 -21.3515 -21.3033 -15.6515 -15.6305
   -15.5486 -15.4801 -15.4456 -15.3743 -15.3735 -15.3556 -15.3144 -15.2950
   -15.1853 -15.0915 -15.0705 -14.8884 -14.8204 -14.7929 -14.7310 -14.6120
    -1.8594  -1.0652  -0.4756  -0.3853  -0.2061   0.0130   0.1928   0.3064
     0.4767   0.4840   0.6966   0.6973   0.7294   0.7632   0.8196   1.1336
     1.2287   1.3511   1.6532   1.6971   1.8095   1.9430   2.0611   2.1485
     2.1864   2.2560   2.3305   2.4278   2.4693   2.5390   2.6104

          k = 0.0114-0.0195 0.0000 ( 56473 PWs)   bands (ev):

   -42.0129 -42.0003 -41.9081 -41.8954 -41.4691 -41.4563 -31.7504 -31.7284
   -31.6857 -31.6637 -31.2117 -31.1452 -21.9964 -21.9769 -21.9759 -21.9219
   -21.9020 -21.8973 -21.8860 -21.8817 -21.8277 -21.8024 -21.7857 -21.6927
   -21.4821 -21.4463 -21.4202 -21.3707 -21.3497 -21.2852 -15.7101 -15.6891
   -15.5551 -15.4701 -15.4540 -15.3786 -15.3672 -15.3611 -15.3043 -15.2852
   -15.2452 -15.0223 -15.0012 -14.8950 -14.8111 -14.7995 -14.7233 -14.5410
    -2.0131  -1.2122  -0.6127  -0.4212  -0.3015   0.0110   0.0572   0.2325
     0.3167   0.4131   0.5090   0.6121   0.6483   0.6511   0.7612   1.0712
     1.2035   1.3606   1.6629   1.6880   1.9753   2.0434   2.1993   2.2081
     2.2722   2.4135   2.4412   2.5482   2.5561   2.6254   2.6621

          k = 0.0228-0.0129 0.0000 ( 56439 PWs)   bands (ev):

   -42.0129 -42.0003 -41.9081 -41.8954 -41.4691 -41.4563 -31.7504 -31.7284
   -31.6857 -31.6637 -31.2118 -31.1452 -21.9963 -21.9766 -21.9758 -21.9213
   -21.9020 -21.8972 -21.8857 -21.8816 -21.8270 -21.8022 -21.7857 -21.6927
   -21.4818 -21.4457 -21.4201 -21.3707 -21.3497 -21.2852 -15.7112 -15.6900
   -15.5567 -15.4707 -15.4533 -15.3810 -15.3669 -15.3629 -15.3050 -15.2859
   -15.2461 -15.0224 -15.0013 -14.8959 -14.8118 -14.7999 -14.7234 -14.5411
    -1.9718  -1.1726  -0.5776  -0.3959  -0.2754   0.0386   0.0731   0.2621
     0.3070   0.4359   0.5288   0.6360   0.6716   0.6860   0.7877   1.0777
     1.2070   1.3734   1.6619   1.6898   1.9464   2.0672   2.1416   2.1853
     2.2561   2.3616   2.4454   2.5265   2.5350   2.5794   2.6143

          k = 0.0228 0.0002 0.0000 ( 56487 PWs)   bands (ev):

   -42.0136 -41.9996 -41.9088 -41.8947 -41.4699 -41.4556 -31.7541 -31.7321
   -31.6819 -31.6599 -31.2156 -31.1412 -21.9974 -21.9869 -21.9749 -21.9220
   -21.9031 -21.8963 -21.8959 -21.8805 -21.8277 -21.8011 -21.7746 -21.6815
   -21.4925 -21.4466 -21.4189 -21.3718 -21.3485 -21.2738 -15.7492 -15.7278
   -15.5632 -15.4655 -15.4576 -15.3877 -15.3691 -15.3620 -15.3000 -15.2852
   -15.2806 -14.9785 -14.9574 -14.9015 -14.8070 -14.8048 -14.7189 -14.4960
    -2.0077  -1.2070  -0.6121  -0.3757  -0.2876   0.0030   0.0880   0.1862
     0.2510   0.4204   0.4357   0.6063   0.6364   0.6911   0.7932   1.0461
     1.1985   1.3971   1.6609   1.6864   2.0204   2.1074   2.1251   2.2470
     2.2921   2.4026   2.4621   2.5150   2.5899   2.6084   2.6491

          k = 0.0228 0.0133 0.0000 ( 56466 PWs)   bands (ev):

   -42.0138 -41.9994 -41.9091 -41.8944 -41.4701 -41.4553 -31.7555 -31.7335
   -31.6807 -31.6586 -31.2170 -31.1399 -21.9977 -21.9901 -21.9745 -21.9215
   -21.9034 -21.8994 -21.8953 -21.8801 -21.8272 -21.8004 -21.7708 -21.6776
   -21.4958 -21.4462 -21.4183 -21.3721 -21.3481 -21.2699 -15.7635 -15.7418
   -15.5674 -15.4647 -15.4582 -15.3931 -15.3736 -15.3598 -15.2996 -15.2992
   -15.2803 -14.9637 -14.9425 -14.9047 -14.8070 -14.8063 -14.7176 -14.4808
    -1.9648  -1.1661  -0.5795  -0.3217  -0.2477  -0.0061   0.1348   0.1679
     0.2747   0.4258   0.4338   0.6253   0.6534   0.7307   0.8382   1.0419
     1.2045   1.4204   1.6556   1.6891   2.0398   2.0698   2.0870   2.2497
     2.2724   2.3310   2.3943   2.5025   2.6005   2.6103   2.6455

          k = 0.0228 0.0264 0.0000 ( 56434 PWs)   bands (ev):

   -42.0136 -41.9996 -41.9088 -41.8947 -41.4699 -41.4556 -31.7543 -31.7323
   -31.6820 -31.6599 -31.2158 -31.1412 -21.9972 -21.9859 -21.9748 -21.9199
   -21.9028 -21.8954 -21.8952 -21.8804 -21.8254 -21.8003 -21.7746 -21.6814
   -21.4916 -21.4446 -21.4184 -21.3716 -21.3486 -21.2738 -15.7530 -15.7311
   -15.5688 -15.4680 -15.4553 -15.3962 -15.3758 -15.3609 -15.3033 -15.2883
   -15.2836 -14.9790 -14.9578 -14.9051 -14.8095 -14.8062 -14.7195 -14.4965
    -1.8454  -1.0533  -0.4870  -0.2495  -0.1721   0.0463   0.1624   0.2202
     0.3613   0.4968   0.4982   0.6937   0.7181   0.8073   0.9160   1.0649
     1.2214   1.4415   1.6431   1.6876   1.9482   1.9780   2.0700   2.1350
     2.1743   2.2824   2.3406   2.4050   2.4829   2.5526   2.5546

          k = 0.0228 0.0395 0.0000 ( 56427 PWs)   bands (ev):

   -42.0129 -42.0004 -41.9081 -41.8954 -41.4691 -41.4563 -31.7507 -31.7287
   -31.6858 -31.6637 -31.2121 -31.1452 -21.9959 -21.9760 -21.9746 -21.9174
   -21.9015 -21.8962 -21.8840 -21.8814 -21.8228 -21.8011 -21.7857 -21.6927
   -21.4801 -21.4421 -21.4194 -21.3704 -21.3498 -21.2852 -15.7181 -15.6960
   -15.5667 -15.4747 -15.4493 -15.3962 -15.3749 -15.3652 -15.3101 -15.2904
   -15.2522 -15.0228 -15.0017 -14.9025 -14.8161 -14.8025 -14.7244 -14.5415
    -1.6567  -0.8786  -0.3500  -0.2237  -0.0769   0.1498   0.2421   0.2712
     0.4885   0.6227   0.6443   0.8045   0.8262   0.9205   1.0059   1.1183
     1.2423   1.4571   1.6085   1.6654   1.8147   1.8474   1.9628   1.9803
     2.0909   2.2041   2.2169   2.2892   2.3150   2.4372   2.4544

          k = 0.0228 0.0526 0.0000 ( 56431 PWs)   bands (ev):

   -42.0117 -42.0015 -41.9069 -41.8966 -41.4680 -41.4575 -31.7449 -31.7229
   -31.6918 -31.6698 -31.2061 -31.1514 -21.9940 -21.9777 -21.9572 -21.9145
   -21.8996 -21.8980 -21.8833 -21.8662 -21.8197 -21.8034 -21.8029 -21.7106
   -21.4621 -21.4391 -21.4214 -21.3684 -21.3517 -21.3035 -15.6604 -15.6383
   -15.5609 -15.4840 -15.4407 -15.3923 -15.3727 -15.3704 -15.3190 -15.2992
   -15.1931 -15.0911 -15.0701 -14.8965 -14.8250 -14.7959 -14.7318 -14.6116
    -1.4110  -0.6610  -0.3297  -0.1913   0.0002   0.2904   0.2986   0.4415
     0.6057   0.7828   0.8433   0.9408   0.9710   1.0344   1.0705   1.2264
     1.2581   1.4639   1.5335   1.6026   1.6779   1.7350   1.8022   1.8523
     1.9881   2.0040   2.1130   2.1778   2.2373   2.2397   2.3448

          k = 0.0228-0.0914 0.0000 ( 56429 PWs)   bands (ev):

   -42.0102 -42.0030 -41.9054 -41.8981 -41.4664 -41.4590 -31.7373 -31.7152
   -31.6996 -31.6776 -31.1982 -31.1594 -21.9915 -21.9801 -21.9347 -21.9113
   -21.9007 -21.8971 -21.8857 -21.8434 -21.8265 -21.8164 -21.8057 -21.7340
   -21.4389 -21.4358 -21.4242 -21.3659 -21.3542 -21.3273 -15.5829 -15.5609
   -15.5514 -15.4948 -15.4302 -15.3844 -15.3828 -15.3624 -15.3287 -15.3091
   -15.1780 -15.1571 -15.1139 -14.8872 -14.8356 -14.7870 -14.7411 -14.7008
    -1.1267  -0.5568  -0.4327  -0.0388  -0.0251   0.3655   0.4388   0.6193
     0.6939   0.9259   1.0264   1.0426   1.0926   1.1312   1.1676   1.2561
     1.3798   1.3949   1.4888   1.5178   1.5327   1.6767   1.7076   1.7586
     1.8362   1.9370   2.0083   2.0436   2.0885   2.1794   2.2121

          k = 0.0228-0.0784 0.0000 ( 56397 PWs)   bands (ev):

   -42.0085 -42.0048 -41.9036 -41.8999 -41.4646 -41.4608 -31.7283 -31.7087
   -31.7062 -31.6866 -31.1890 -31.1687 -21.9887 -21.9830 -21.9088 -21.9082
   -21.9039 -21.8943 -21.8885 -21.8533 -21.8171 -21.8133 -21.8091 -21.7611
   -21.4324 -21.4281 -21.4117 -21.3630 -21.3571 -21.3550 -15.5387 -15.5065
   -15.4899 -15.4682 -15.4185 -15.3949 -15.3730 -15.3510 -15.3385 -15.3192
   -15.2766 -15.2557 -15.0190 -14.8752 -14.8468 -14.8024 -14.7758 -14.7517
    -0.8468  -0.8303  -0.2454  -0.1827   0.0800   0.3166   0.5258   0.7258
     0.7422   0.9468   1.0900   1.1034   1.1752   1.2050   1.2569   1.2960
     1.3176   1.4189   1.4605   1.5222   1.5362   1.5980   1.6358   1.7394
     1.7896   1.8377   1.9248   2.0004   2.0467   2.1744   2.1870

          k = 0.0228-0.0653 0.0000 ( 56368 PWs)   bands (ev):

   -42.0066 -42.0066 -41.9018 -41.9017 -41.4627 -41.4627 -31.7186 -31.7183
   -31.6965 -31.6963 -31.1790 -31.1787 -21.9860 -21.9857 -21.9083 -21.9054
   -21.8918 -21.8915 -21.8819 -21.8801 -21.8136 -21.8104 -21.7902 -21.7884
   -21.4322 -21.4293 -21.3846 -21.3828 -21.3602 -21.3598 -15.5239 -15.5179
   -15.4094 -15.4066 -15.3869 -15.3810 -15.3658 -15.3613 -15.3558 -15.3475
   -15.3364 -15.3290 -14.9142 -14.9083 -14.8607 -14.8581 -14.7643 -14.7629
    -1.1511  -0.5640  -0.4181  -0.1433   0.1253   0.1274   0.4930   0.6639
     0.7429   0.9886   1.0006   1.0480   1.1330   1.1865   1.2337   1.2948
     1.3732   1.4173   1.4718   1.5146   1.5480   1.5564   1.6647   1.7542
     1.7861   1.9112   1.9623   2.0389   2.1410   2.1498   2.2654

          k = 0.0228-0.0522 0.0000 ( 56370 PWs)   bands (ev):

   -42.0085 -42.0047 -41.9037 -41.8999 -41.4646 -41.4608 -31.7279 -31.7088
   -31.7059 -31.6868 -31.1886 -31.1689 -21.9891 -21.9828 -21.9124 -21.9107
   -21.9027 -21.8948 -21.8884 -21.8521 -21.8191 -21.8179 -21.8078 -21.7599
   -21.4365 -21.4264 -21.4140 -21.3634 -21.3568 -21.3538 -15.5290 -15.5087
   -15.4809 -15.4602 -15.4224 -15.3945 -15.3573 -15.3425 -15.3389 -15.3219
   -15.2810 -15.2598 -15.0113 -14.8692 -14.8462 -14.8061 -14.7738 -14.7523
    -1.4356  -0.6684  -0.3965  -0.1020  -0.0898   0.0501   0.4299   0.5082
     0.6736   0.8552   0.9127   0.9498   1.0128   1.0812   1.0964   1.2740
     1.3300   1.3375   1.5486   1.5635   1.6242   1.6297   1.7106   1.8834
     1.8957   2.0042   2.1322   2.1815   2.2222   2.3524   2.3815

          k = 0.0228-0.0391 0.0000 ( 56377 PWs)   bands (ev):

   -42.0102 -42.0030 -41.9054 -41.8981 -41.4664 -41.4590 -31.7369 -31.7148
   -31.6997 -31.6776 -31.1978 -31.1595 -21.9920 -21.9801 -21.9370 -21.9162
   -21.9006 -21.8977 -21.8858 -21.8458 -21.8259 -21.8218 -21.8056 -21.7333
   -21.4412 -21.4404 -21.4239 -21.3663 -21.3540 -21.3267 -15.5734 -15.5526
   -15.5392 -15.4928 -15.4350 -15.3837 -15.3655 -15.3475 -15.3274 -15.3075
   -15.1802 -15.1591 -15.1056 -14.8793 -14.8323 -14.7840 -14.7409 -14.7028
    -1.6770  -0.8923  -0.3644  -0.3123  -0.0893  -0.0240   0.3441   0.3689
     0.5588   0.6987   0.7586   0.8438   0.8825   0.9084   0.9163   1.2055
     1.2603   1.3332   1.6254   1.6542   1.6887   1.7858   1.8740   2.0403
     2.0814   2.1209   2.2150   2.3081   2.4110   2.4534   2.4968

          k = 0.0228-0.0260 0.0000 ( 56423 PWs)   bands (ev):

   -42.0117 -42.0015 -41.9069 -41.8966 -41.4680 -41.4575 -31.7445 -31.7225
   -31.6918 -31.6697 -31.2057 -31.1514 -21.9945 -21.9778 -21.9594 -21.9193
   -21.9001 -21.8987 -21.8835 -21.8684 -21.8250 -21.8038 -21.8032 -21.7104
   -21.4643 -21.4436 -21.4218 -21.3688 -21.3515 -21.3033 -15.6515 -15.6305
   -15.5486 -15.4801 -15.4456 -15.3743 -15.3735 -15.3556 -15.3144 -15.2950
   -15.1853 -15.0915 -15.0705 -14.8884 -14.8204 -14.7929 -14.7310 -14.6120
    -1.8594  -1.0652  -0.4756  -0.3853  -0.2061   0.0130   0.1928   0.3064
     0.4767   0.4840   0.6966   0.6973   0.7294   0.7632   0.8196   1.1336
     1.2287   1.3511   1.6532   1.6971   1.8095   1.9430   2.0611   2.1484
     2.1864   2.2560   2.3307   2.4281   2.4683   2.5379   2.6082

          k = 0.0342-0.0193 0.0000 ( 56391 PWs)   bands (ev):

   -42.0117 -42.0015 -41.9069 -41.8966 -41.4680 -41.4575 -31.7446 -31.7226
   -31.6918 -31.6697 -31.2058 -31.1514 -21.9943 -21.9778 -21.9590 -21.9183
   -21.9000 -21.8985 -21.8835 -21.8680 -21.8239 -21.8036 -21.8032 -21.7104
   -21.4639 -21.4427 -21.4217 -21.3687 -21.3516 -21.3033 -15.6534 -15.6322
   -15.5512 -15.4809 -15.4445 -15.3775 -15.3740 -15.3588 -15.3154 -15.2959
   -15.1870 -15.0914 -15.0704 -14.8900 -14.8214 -14.7936 -14.7311 -14.6119
    -1.7810  -0.9916  -0.4126  -0.3733  -0.1748   0.0624   0.2230   0.3625
     0.4647   0.5337   0.7316   0.7550   0.7944   0.8011   0.8691   1.1437
     1.2317   1.3769   1.6396   1.6922   1.7966   1.9507   1.9627   2.0941
     2.1191   2.2522   2.3254   2.3695   2.4006   2.5004   2.5712

          k = 0.0342-0.0062 0.0000 ( 56453 PWs)   bands (ev):

   -42.0129 -42.0004 -41.9081 -41.8954 -41.4691 -41.4563 -31.7505 -31.7285
   -31.6858 -31.6637 -31.2119 -31.1452 -21.9961 -21.9762 -21.9754 -21.9197
   -21.9018 -21.8967 -21.8850 -21.8815 -21.8252 -21.8018 -21.7857 -21.6927
   -21.4811 -21.4442 -21.4198 -21.3705 -21.3497 -21.2852 -15.7141 -15.6926
   -15.5610 -15.4724 -15.4515 -15.3874 -15.3680 -15.3662 -15.3072 -15.2878
   -15.2487 -15.0225 -15.0015 -14.8986 -14.8136 -14.8011 -14.7239 -14.5413
    -1.8506  -1.0575  -0.4796  -0.3249  -0.1987   0.1144   0.1187   0.2828
     0.3491   0.5063   0.5799   0.7026   0.7314   0.7878   0.8703   1.0939
     1.2192   1.4092   1.6506   1.6889   1.8902   2.0036   2.0934   2.1142
     2.1413   2.3138   2.3882   2.4068   2.4567   2.5048   2.5485

          k = 0.0342 0.0068 0.0000 ( 56434 PWs)   bands (ev):

   -42.0136 -41.9996 -41.9088 -41.8947 -41.4699 -41.4556 -31.7543 -31.7323
   -31.6820 -31.6599 -31.2158 -31.1412 -21.9972 -21.9859 -21.9748 -21.9199
   -21.9028 -21.8954 -21.8952 -21.8804 -21.8254 -21.8003 -21.7746 -21.6814
   -21.4916 -21.4446 -21.4184 -21.3716 -21.3486 -21.2738 -15.7530 -15.7311
   -15.5688 -15.4680 -15.4553 -15.3962 -15.3758 -15.3609 -15.3033 -15.2883
   -15.2836 -14.9790 -14.9578 -14.9051 -14.8095 -14.8062 -14.7195 -14.4965
    -1.8454  -1.0533  -0.4870  -0.2495  -0.1721   0.0463   0.1624   0.2202
     0.3613   0.4968   0.4982   0.6937   0.7181   0.8073   0.9160   1.0649
     1.2214   1.4415   1.6431   1.6876   1.9482   1.9780   2.0700   2.1350
     2.1742   2.2824   2.3404   2.4050   2.4829   2.5529   2.5543

          k = 0.0342 0.0199 0.0000 ( 56428 PWs)   bands (ev):

   -42.0138 -41.9994 -41.9090 -41.8944 -41.4701 -41.4553 -31.7557 -31.7337
   -31.6807 -31.6586 -31.2172 -31.1399 -21.9975 -21.9890 -21.9744 -21.9191
   -21.9031 -21.8984 -21.8946 -21.8799 -21.8245 -21.7995 -21.7707 -21.6775
   -21.4948 -21.4439 -21.4177 -21.3720 -21.3482 -21.2698 -15.7678 -15.7455
   -15.5738 -15.4676 -15.4557 -15.4027 -15.3812 -15.3586 -15.3034 -15.3029
   -15.2837 -14.9643 -14.9431 -14.9091 -14.8093 -14.8085 -14.7182 -14.4814
    -1.7656  -0.9806  -0.4440  -0.1588  -0.1029   0.0240   0.1279   0.3643
     0.3742   0.4933   0.5285   0.7325   0.7547   0.8599   0.9974   1.0589
     1.2358   1.4690   1.6215   1.6814   1.9157   1.9641   1.9965   2.0660
     2.1319   2.1746   2.3204   2.3585   2.4826   2.4989   2.5225

          k = 0.0342 0.0330 0.0000 ( 56376 PWs)   bands (ev):

   -42.0136 -41.9996 -41.9088 -41.8947 -41.4699 -41.4556 -31.7545 -31.7325
   -31.6820 -31.6600 -31.2160 -31.1413 -21.9969 -21.9848 -21.9747 -21.9174
   -21.9025 -21.8946 -21.8941 -21.8802 -21.8227 -21.7995 -21.7745 -21.6813
   -21.4905 -21.4423 -21.4178 -21.3714 -21.3486 -21.2737 -15.7574 -15.7348
   -15.5752 -15.4708 -15.4529 -15.4059 -15.3834 -15.3597 -15.3071 -15.2919
   -15.2870 -14.9796 -14.9584 -14.9097 -14.8125 -14.8075 -14.7201 -14.4970
    -1.6154  -0.8472  -0.3680  -0.0808  -0.0181   0.0571   0.1873   0.3668
     0.5337   0.5633   0.6191   0.8152   0.8347   0.9493   1.0636   1.1118
     1.2557   1.4877   1.5839   1.6574   1.8267   1.8322   1.9400   1.9492
     2.0650   2.1087   2.2184   2.2758   2.3340   2.3969   2.4126

          k = 0.0342 0.0461 0.0000 ( 56413 PWs)   bands (ev):

   -42.0129 -42.0004 -41.9081 -41.8954 -41.4691 -41.4563 -31.7509 -31.7289
   -31.6858 -31.6638 -31.2123 -31.1452 -21.9957 -21.9759 -21.9736 -21.9152
   -21.9012 -21.8956 -21.8831 -21.8812 -21.8204 -21.8005 -21.7857 -21.6926
   -21.4790 -21.4401 -21.4190 -21.3702 -21.3498 -21.2852 -15.7221 -15.6995
   -15.5724 -15.4770 -15.4472 -15.4048 -15.3817 -15.3643 -15.3131 -15.2930
   -15.2556 -15.0231 -15.0020 -14.9067 -14.8186 -14.8035 -14.7248 -14.5418
    -1.4036  -0.6719  -0.2740  -0.1191   0.0762   0.1538   0.3262   0.3953
     0.6691   0.6970   0.7620   0.9295   0.9508   1.0510   1.0865   1.2311
     1.2705   1.4856   1.5264   1.6066   1.7228   1.7252   1.7844   1.8269
     1.9769   2.0399   2.0858   2.1722   2.1969   2.2211   2.2945

          k = 0.0342-0.0979 0.0000 ( 56427 PWs)   bands (ev):

   -42.0117 -42.0015 -41.9069 -41.8966 -41.4679 -41.4575 -31.7450 -31.7230
   -31.6918 -31.6698 -31.2063 -31.1514 -21.9938 -21.9777 -21.9564 -21.9128
   -21.8993 -21.8977 -21.8832 -21.8654 -21.8178 -21.8035 -21.8026 -21.7107
   -21.4612 -21.4374 -21.4212 -21.3682 -21.3517 -21.3036 -15.6636 -15.6411
   -15.5653 -15.4854 -15.4391 -15.3991 -15.3757 -15.3721 -15.3207 -15.3007
   -15.1959 -15.0911 -15.0700 -14.8998 -14.8268 -14.7967 -14.7320 -14.6116
    -1.1441  -0.4958  -0.3069  -0.1528   0.1199   0.2864   0.4645   0.5205
     0.7572   0.8681   0.9094   1.0408   1.0694   1.0917   1.1558   1.2623
     1.3579   1.4455   1.4704   1.5283   1.5584   1.6409   1.6965   1.8153
     1.8270   1.8883   2.0089   2.0620   2.0765   2.1448   2.2089

          k = 0.0342-0.0848 0.0000 ( 56381 PWs)   bands (ev):

   -42.0102 -42.0030 -41.9054 -41.8981 -41.4664 -41.4590 -31.7374 -31.7153
   -31.6996 -31.6776 -31.1983 -31.1594 -21.9914 -21.9801 -21.9341 -21.9101
   -21.9007 -21.8969 -21.8857 -21.8428 -21.8267 -21.8151 -21.8057 -21.7341
   -21.4382 -21.4346 -21.4244 -21.3657 -21.3542 -21.3275 -15.5851 -15.5628
   -15.5543 -15.4953 -15.4291 -15.3889 -15.3826 -15.3658 -15.3292 -15.3095
   -15.1777 -15.1567 -15.1158 -14.8893 -14.8364 -14.7874 -14.7412 -14.7005
    -0.8590  -0.5814  -0.3750   0.0134   0.0242   0.3929   0.4993   0.7175
     0.7836   0.9664   1.0355   1.0681   1.1802   1.1842   1.2176   1.2375
     1.3311   1.4090   1.4788   1.4949   1.5108   1.5934   1.6491   1.6651
     1.8201   1.8203   1.8580   1.9968   2.0621   2.0853   2.1601

          k = 0.0342-0.0717 0.0000 ( 56382 PWs)   bands (ev):

   -42.0085 -42.0048 -41.9036 -41.8999 -41.4646 -41.4608 -31.7283 -31.7087
   -31.7063 -31.6866 -31.1891 -31.1687 -21.9886 -21.9830 -21.9082 -21.9076
   -21.9044 -21.8942 -21.8885 -21.8535 -21.8165 -21.8125 -21.8096 -21.7613
   -21.4318 -21.4283 -21.4114 -21.3629 -21.3572 -21.3552 -15.5402 -15.5062
   -15.4911 -15.4692 -15.4179 -15.3950 -15.3751 -15.3527 -15.3382 -15.3189
   -15.2762 -15.2554 -15.0201 -14.8760 -14.8470 -14.8017 -14.7764 -14.7517
    -0.8848  -0.5870  -0.3089  -0.1867   0.1616   0.3520   0.4201   0.8003
     0.8281   0.9372   1.0463   1.1365   1.1607   1.1807   1.2784   1.3325
     1.3708   1.3717   1.3796   1.4459   1.5709   1.5946   1.6465   1.7349
     1.7562   1.7776   1.8257   1.9785   2.0438   2.1073   2.1413

          k = 0.0342-0.0586 0.0000 ( 56384 PWs)   bands (ev):

   -42.0066 -42.0066 -41.9018 -41.9017 -41.4627 -41.4627 -31.7186 -31.7183
   -31.6965 -31.6963 -31.1790 -31.1787 -21.9860 -21.9857 -21.9085 -21.9051
   -21.8918 -21.8914 -21.8821 -21.8800 -21.8138 -21.8101 -21.7903 -21.7883
   -21.4324 -21.4290 -21.3848 -21.3827 -21.3603 -21.3598 -15.5244 -15.5175
   -15.4095 -15.4064 -15.3870 -15.3798 -15.3659 -15.3613 -15.3564 -15.3472
   -15.3374 -15.3286 -14.9145 -14.9076 -14.8611 -14.8580 -14.7644 -14.7628
    -1.1781  -0.4349  -0.4232  -0.2153   0.1212   0.1560   0.4308   0.6638
     0.7947   0.9203   1.0321   1.0457   1.1176   1.1675   1.2478   1.2878
     1.3314   1.4408   1.4558   1.5021   1.5386   1.5521   1.6725   1.7708
     1.7914   1.8657   1.9782   2.0617   2.0866   2.1311   2.2859

          k = 0.0342-0.0455 0.0000 ( 56370 PWs)   bands (ev):

   -42.0085 -42.0047 -41.9037 -41.8999 -41.4646 -41.4608 -31.7279 -31.7088
   -31.7059 -31.6868 -31.1886 -31.1689 -21.9891 -21.9828 -21.9124 -21.9107
   -21.9027 -21.8948 -21.8884 -21.8521 -21.8191 -21.8179 -21.8078 -21.7599
   -21.4365 -21.4264 -21.4140 -21.3634 -21.3568 -21.3538 -15.5290 -15.5087
   -15.4809 -15.4602 -15.4224 -15.3945 -15.3573 -15.3425 -15.3389 -15.3219
   -15.2810 -15.2598 -15.0113 -14.8692 -14.8462 -14.8061 -14.7738 -14.7523
    -1.4356  -0.6684  -0.3965  -0.1020  -0.0898   0.0501   0.4299   0.5082
     0.6736   0.8552   0.9127   0.9498   1.0128   1.0812   1.0964   1.2740
     1.3300   1.3375   1.5486   1.5635   1.6242   1.6297   1.7106   1.8834
     1.8957   2.0042   2.1322   2.1815   2.2226   2.3526   2.3817

          k = 0.0342-0.0324 0.0000 ( 56404 PWs)   bands (ev):

   -42.0102 -42.0030 -41.9054 -41.8981 -41.4664 -41.4590 -31.7369 -31.7149
   -31.6997 -31.6776 -31.1978 -31.1595 -21.9920 -21.9801 -21.9368 -21.9158
   -21.9006 -21.8976 -21.8858 -21.8456 -21.8259 -21.8213 -21.8056 -21.7334
   -21.4410 -21.4400 -21.4239 -21.3663 -21.3540 -21.3267 -15.5743 -15.5534
   -15.5403 -15.4930 -15.4345 -15.3836 -15.3673 -15.3489 -15.3275 -15.3076
   -15.1799 -15.1588 -15.1063 -14.8800 -14.8325 -14.7844 -14.7409 -14.7026
    -1.6403  -0.8592  -0.3934  -0.2848  -0.1068   0.0293   0.3585   0.3983
     0.5817   0.6838   0.8092   0.8587   0.9106   0.9206   0.9368   1.2082
     1.2605   1.3498   1.6093   1.6648   1.6838   1.7898   1.8417   2.0102
     2.0274   2.1484   2.2347   2.2830   2.3772   2.4270   2.4759

          k = 0.0456-0.0258 0.0000 ( 56387 PWs)   bands (ev):

   -42.0102 -42.0030 -41.9054 -41.8981 -41.4664 -41.4590 -31.7370 -31.7150
   -31.6997 -31.6776 -31.1979 -31.1595 -21.9918 -21.9801 -21.9363 -21.9146
   -21.9006 -21.8975 -21.8857 -21.8450 -21.8260 -21.8200 -21.8056 -21.7335
   -21.4405 -21.4389 -21.4239 -21.3662 -21.3540 -21.3269 -15.5767 -15.5555
   -15.5434 -15.4935 -15.4333 -15.3834 -15.3720 -15.3526 -15.3277 -15.3080
   -15.1793 -15.1583 -15.1084 -14.8819 -14.8333 -14.7853 -14.7409 -14.7020
    -1.5319  -0.7622  -0.4546  -0.2076  -0.1061   0.1236   0.3968   0.4754
     0.6448   0.6563   0.9025   0.9339   0.9643   0.9810   0.9841   1.2190
     1.2642   1.3945   1.5617   1.6629   1.6950   1.7445   1.7971   1.9009
     1.9926   2.0936   2.2449   2.2857   2.2940   2.3512   2.4026

          k = 0.0456-0.0127 0.0000 ( 56378 PWs)   bands (ev):

   -42.0117 -42.0015 -41.9069 -41.8966 -41.4680 -41.4575 -31.7447 -31.7227
   -31.6918 -31.6697 -31.2059 -31.1514 -21.9942 -21.9778 -21.9582 -21.9165
   -21.8998 -21.8983 -21.8834 -21.8672 -21.8219 -21.8033 -21.8033 -21.7105
   -21.4631 -21.4410 -21.4215 -21.3686 -21.3516 -21.3034 -15.6567 -15.6350
   -15.5558 -15.4824 -15.4426 -15.3844 -15.3733 -15.3642 -15.3170 -15.2974
   -15.1898 -15.0913 -15.0702 -14.8929 -14.8231 -14.7948 -14.7314 -14.6117
    -1.6285  -0.8509  -0.3535  -0.3015  -0.1053   0.1599   0.2693   0.4357
     0.4662   0.6410   0.7881   0.8368   0.8719   0.9204   0.9665   1.1630
     1.2419   1.4218   1.6021   1.6685   1.7735   1.8137   1.9286   1.9519
     2.0720   2.1543   2.2312   2.2838   2.3709   2.4047   2.4614

          k = 0.0456 0.0004 0.0000 ( 56427 PWs)   bands (ev):

   -42.0129 -42.0004 -41.9081 -41.8954 -41.4691 -41.4563 -31.7507 -31.7287
   -31.6858 -31.6637 -31.2121 -31.1452 -21.9959 -21.9760 -21.9746 -21.9174
   -21.9015 -21.8962 -21.8840 -21.8814 -21.8228 -21.8011 -21.7857 -21.6927
   -21.4801 -21.4421 -21.4194 -21.3704 -21.3498 -21.2852 -15.7181 -15.6960
   -15.5667 -15.4747 -15.4493 -15.3962 -15.3749 -15.3652 -15.3101 -15.2904
   -15.2522 -15.0228 -15.0017 -14.9025 -14.8161 -14.8025 -14.7244 -14.5415
    -1.6567  -0.8786  -0.3500  -0.2237  -0.0769   0.1498   0.2421   0.2712
     0.4885   0.6227   0.6443   0.8045   0.8262   0.9205   1.0059   1.1183
     1.2423   1.4571   1.6085   1.6654   1.8147   1.8474   1.9628   1.9803
     2.0910   2.2042   2.2169   2.2893   2.3153   2.4372   2.5026

          k = 0.0456 0.0135 0.0000 ( 56376 PWs)   bands (ev):

   -42.0136 -41.9996 -41.9088 -41.8947 -41.4699 -41.4556 -31.7545 -31.7325
   -31.6820 -31.6600 -31.2160 -31.1413 -21.9969 -21.9848 -21.9747 -21.9174
   -21.9025 -21.8946 -21.8941 -21.8802 -21.8227 -21.7995 -21.7745 -21.6813
   -21.4905 -21.4423 -21.4178 -21.3714 -21.3486 -21.2737 -15.7574 -15.7348
   -15.5752 -15.4708 -15.4529 -15.4059 -15.3834 -15.3597 -15.3071 -15.2919
   -15.2870 -14.9796 -14.9584 -14.9097 -14.8125 -14.8075 -14.7201 -14.4970
    -1.6154  -0.8472  -0.3680  -0.0808  -0.0181   0.0571   0.1873   0.3668
     0.5337   0.5633   0.6191   0.8152   0.8347   0.9493   1.0636   1.1118
     1.2557   1.4877   1.5839   1.6574   1.8267   1.8322   1.9400   1.9492
     2.0650   2.1087   2.2188   2.2759   2.3341   2.3972   2.4127

          k = 0.0456 0.0266 0.0000 ( 56342 PWs)   bands (ev):

   -42.0138 -41.9994 -41.9090 -41.8944 -41.4701 -41.4553 -31.7559 -31.7338
   -31.6808 -31.6587 -31.2174 -31.1399 -21.9972 -21.9879 -21.9743 -21.9167
   -21.9027 -21.8973 -21.8938 -21.8798 -21.8218 -21.7986 -21.7706 -21.6774
   -21.4937 -21.4416 -21.4171 -21.3717 -21.3482 -21.2697 -15.7721 -15.7492
   -15.5800 -15.4705 -15.4534 -15.4123 -15.3887 -15.3574 -15.3073 -15.3066
   -15.2870 -14.9650 -14.9437 -14.9138 -14.8124 -14.8096 -14.7188 -14.4820
    -1.5066  -0.7663  -0.3720   0.0272   0.0378   0.0734   0.1909   0.4633
     0.5509   0.6026   0.6752   0.8693   0.8888   1.0153   1.0684   1.2042
     1.2746   1.5040   1.5388   1.6354   1.7622   1.7851   1.8749   1.8791
     2.0081   2.0371   2.1698   2.2353   2.3091   2.3131   2.3221

          k = 0.0456 0.0397 0.0000 ( 56363 PWs)   bands (ev):

   -42.0136 -41.9996 -41.9088 -41.8947 -41.4699 -41.4556 -31.7547 -31.7326
   -31.6821 -31.6600 -31.2162 -31.1413 -21.9967 -21.9839 -21.9746 -21.9154
   -21.9022 -21.8940 -21.8932 -21.8801 -21.8204 -21.7987 -21.7744 -21.6813
   -21.4895 -21.4403 -21.4173 -21.3712 -21.3486 -21.2736 -15.7612 -15.7381
   -15.5806 -15.4733 -15.4510 -15.4142 -15.3899 -15.3587 -15.3103 -15.2952
   -15.2898 -14.9801 -14.9589 -14.9140 -14.8152 -14.8084 -14.7206 -14.4975
    -1.3356  -0.6668  -0.3422   0.0601   0.0927   0.1471   0.2841   0.4927
     0.6037   0.7398   0.7605   0.9597   0.9796   1.0790   1.1131   1.2879
     1.3046   1.4788   1.4953   1.6015   1.6666   1.7236   1.7731   1.7809
     1.9172   2.0309   2.0582   2.1458   2.1782   2.2018   2.2215

          k = 0.0456-0.1043 0.0000 ( 56396 PWs)   bands (ev):

   -42.0129 -42.0004 -41.9081 -41.8954 -41.4691 -41.4563 -31.7510 -31.7290
   -31.6859 -31.6638 -31.2124 -31.1452 -21.9955 -21.9759 -21.9729 -21.9137
   -21.9009 -21.8952 -21.8824 -21.8810 -21.8186 -21.8000 -21.7857 -21.6926
   -21.4783 -21.4386 -21.4187 -21.3700 -21.3498 -21.2852 -15.7250 -15.7020
   -15.5764 -15.4787 -15.4458 -15.4111 -15.3866 -15.3636 -15.3153 -15.2949
   -15.2581 -15.0234 -15.0022 -14.9099 -14.8205 -14.8041 -14.7251 -14.5420
    -1.1126  -0.6048  -0.2205  -0.0410   0.1258   0.2235   0.4562   0.5613
     0.7073   0.8016   0.8827   1.0516   1.0961   1.1183   1.1778   1.2827
     1.3601   1.4142   1.4679   1.5498   1.6054   1.6170   1.6815   1.7286
     1.8551   1.9049   2.0078   2.0352   2.0894   2.0908   2.1507

          k = 0.0456-0.0912 0.0000 ( 56402 PWs)   bands (ev):

   -42.0117 -42.0015 -41.9069 -41.8966 -41.4679 -41.4575 -31.7451 -31.7231
   -31.6918 -31.6698 -31.2063 -31.1514 -21.9937 -21.9777 -21.9559 -21.9118
   -21.8991 -21.8975 -21.8832 -21.8649 -21.8166 -21.8035 -21.8024 -21.7107
   -21.4607 -21.4365 -21.4212 -21.3681 -21.3518 -21.3037 -15.6654 -15.6426
   -15.5678 -15.4862 -15.4382 -15.4030 -15.3788 -15.3718 -15.3218 -15.3016
   -15.1975 -15.0910 -15.0700 -14.9017 -14.8278 -14.7970 -14.7322 -14.6115
    -0.8557  -0.5813  -0.2927  -0.0195   0.1941   0.2073   0.6363   0.6777
     0.7796   0.8303   0.9896   1.0754   1.1376   1.2069   1.2321   1.2602
     1.3590   1.4012   1.4277   1.4487   1.5535   1.5604   1.6331   1.7412
     1.7542   1.8493   1.8635   2.0083   2.0690   2.1042   2.1117

          k = 0.0456-0.0782 0.0000 ( 56384 PWs)   bands (ev):

   -42.0102 -42.0030 -41.9054 -41.8981 -41.4664 -41.4590 -31.7374 -31.7154
   -31.6996 -31.6776 -31.1984 -31.1594 -21.9913 -21.9801 -21.9338 -21.9097
   -21.9007 -21.8968 -21.8857 -21.8425 -21.8267 -21.8146 -21.8058 -21.7342
   -21.4380 -21.4342 -21.4245 -21.3657 -21.3543 -21.3276 -15.5859 -15.5635
   -15.5553 -15.4955 -15.4287 -15.3905 -15.3825 -15.3671 -15.3294 -15.3097
   -15.1775 -15.1566 -15.1165 -14.8900 -14.8368 -14.7876 -14.7412 -14.7004
    -0.6303  -0.5893  -0.5248   0.0451   0.1537   0.2734   0.5743   0.7994
     0.8508   0.9359   0.9650   1.1246   1.1685   1.2239   1.2301   1.3074
     1.3315   1.3396   1.3965   1.5164   1.5518   1.5698   1.5982   1.7002
     1.7212   1.7752   1.8276   1.9707   2.0191   2.1111   2.1647

          k = 0.0456-0.0651 0.0000 ( 56382 PWs)   bands (ev):

   -42.0085 -42.0048 -41.9036 -41.8999 -41.4646 -41.4608 -31.7283 -31.7087
   -31.7063 -31.6866 -31.1891 -31.1687 -21.9886 -21.9830 -21.9082 -21.9076
   -21.9044 -21.8942 -21.8885 -21.8535 -21.8165 -21.8125 -21.8095 -21.7613
   -21.4318 -21.4283 -21.4114 -21.3629 -21.3572 -21.3552 -15.5402 -15.5062
   -15.4911 -15.4692 -15.4179 -15.3950 -15.3751 -15.3527 -15.3382 -15.3189
   -15.2762 -15.2554 -15.0201 -14.8760 -14.8470 -14.8017 -14.7764 -14.7517
    -0.8848  -0.5870  -0.3089  -0.1867   0.1616   0.3520   0.4201   0.8003
     0.8281   0.9372   1.0463   1.1365   1.1607   1.1807   1.2784   1.3325
     1.3708   1.3717   1.3796   1.4459   1.5709   1.5946   1.6465   1.7349
     1.7562   1.7776   1.8257   1.9785   2.0438   2.1074   2.1413

          k = 0.0456-0.0520 0.0000 ( 56368 PWs)   bands (ev):

   -42.0066 -42.0066 -41.9018 -41.9017 -41.4627 -41.4627 -31.7186 -31.7183
   -31.6965 -31.6963 -31.1790 -31.1787 -21.9860 -21.9857 -21.9083 -21.9054
   -21.8918 -21.8915 -21.8819 -21.8801 -21.8136 -21.8104 -21.7902 -21.7884
   -21.4322 -21.4293 -21.3846 -21.3828 -21.3602 -21.3598 -15.5239 -15.5179
   -15.4094 -15.4066 -15.3869 -15.3810 -15.3658 -15.3613 -15.3558 -15.3475
   -15.3364 -15.3290 -14.9142 -14.9083 -14.8607 -14.8581 -14.7643 -14.7629
    -1.1511  -0.5640  -0.4181  -0.1433   0.1253   0.1274   0.4930   0.6639
     0.7429   0.9886   1.0006   1.0480   1.1330   1.1865   1.2337   1.2948
     1.3732   1.4173   1.4718   1.5146   1.5480   1.5564   1.6647   1.7542
     1.7861   1.9112   1.9623   2.0389   2.1412   2.1497   2.2653

          k = 0.0456-0.0389 0.0000 ( 56402 PWs)   bands (ev):

   -42.0085 -42.0047 -41.9037 -41.8999 -41.4646 -41.4608 -31.7280 -31.7088
   -31.7060 -31.6867 -31.1887 -31.1689 -21.9890 -21.9828 -21.9118 -21.9105
   -21.9028 -21.8948 -21.8884 -21.8523 -21.8189 -21.8172 -21.8079 -21.7601
   -21.4359 -21.4268 -21.4136 -21.3634 -21.3568 -21.3539 -15.5305 -15.5083
   -15.4824 -15.4616 -15.4218 -15.3945 -15.3600 -15.3417 -15.3409 -15.3214
   -15.2801 -15.2589 -15.0126 -14.8702 -14.8462 -14.8056 -14.7739 -14.7521
    -1.3704  -0.6153  -0.5234  -0.0965  -0.0635   0.1139   0.4968   0.5281
     0.6800   0.8518   0.9687   0.9721   1.0609   1.1053   1.1182   1.2736
     1.3465   1.3831   1.5086   1.5833   1.6183   1.6484   1.6838   1.8206
     1.8779   2.0208   2.1214   2.1876   2.2190   2.3291   2.3376

          k = 0.0570-0.0322 0.0000 ( 56380 PWs)   bands (ev):

   -42.0085 -42.0047 -41.9036 -41.8999 -41.4646 -41.4608 -31.7281 -31.7088
   -31.7061 -31.6867 -31.1888 -31.1689 -21.9889 -21.9829 -21.9106 -21.9102
   -21.9030 -21.8947 -21.8884 -21.8526 -21.8185 -21.8160 -21.8081 -21.7604
   -21.4348 -21.4273 -21.4129 -21.3633 -21.3569 -21.3542 -15.5331 -15.5077
   -15.4850 -15.4639 -15.4207 -15.3946 -15.3644 -15.3443 -15.3405 -15.3206
   -15.2787 -15.2577 -15.0147 -14.8719 -14.8463 -14.8047 -14.7743 -14.7520
    -1.2429  -0.6602  -0.5123  -0.1373   0.0038   0.1956   0.5572   0.5848
     0.7476   0.7705   1.0171   1.0847   1.1294   1.1386   1.1491   1.3067
     1.3554   1.4315   1.4602   1.5777   1.5964   1.6540   1.6905   1.7742
     1.8827   1.8953   2.1337   2.1388   2.2102   2.2561   2.2772

          k = 0.0570-0.0191 0.0000 ( 56409 PWs)   bands (ev):

   -42.0102 -42.0030 -41.9054 -41.8981 -41.4664 -41.4590 -31.7371 -31.7151
   -31.6996 -31.6776 -31.1981 -31.1595 -21.9917 -21.9801 -21.9355 -21.9129
   -21.9006 -21.8973 -21.8857 -21.8442 -21.8263 -21.8182 -21.8056 -21.7337
   -21.4398 -21.4373 -21.4240 -21.3660 -21.3541 -21.3271 -15.5798 -15.5582
   -15.5474 -15.4942 -15.4317 -15.3831 -15.3783 -15.3575 -15.3282 -15.3085
   -15.1786 -15.1576 -15.1112 -14.8845 -14.8344 -14.7863 -14.7410 -14.7013
    -1.3572  -0.6100  -0.5138  -0.1046  -0.0756   0.2359   0.4356   0.5799
     0.6045   0.7784   0.9761   1.0218   1.0410   1.0441   1.0819   1.2629
     1.2711   1.4506   1.4854   1.5975   1.6265   1.7221   1.8009   1.8072
     1.9288   1.9558   2.1593   2.1801   2.2343   2.2493   2.3398

          k = 0.0570-0.0060 0.0000 ( 56431 PWs)   bands (ev):

   -42.0117 -42.0015 -41.9069 -41.8966 -41.4680 -41.4575 -31.7449 -31.7229
   -31.6918 -31.6698 -31.2061 -31.1514 -21.9940 -21.9777 -21.9572 -21.9145
   -21.8996 -21.8980 -21.8833 -21.8662 -21.8197 -21.8034 -21.8029 -21.7106
   -21.4621 -21.4391 -21.4214 -21.3684 -21.3517 -21.3035 -15.6604 -15.6383
   -15.5609 -15.4840 -15.4407 -15.3923 -15.3727 -15.3704 -15.3190 -15.2992
   -15.1931 -15.0911 -15.0701 -14.8965 -14.8250 -14.7959 -14.7318 -14.6116
    -1.4110  -0.6610  -0.3297  -0.1913   0.0002   0.2904   0.2986   0.4415
     0.6057   0.7828   0.8433   0.9408   0.9710   1.0344   1.0705   1.2264
     1.2581   1.4639   1.5335   1.6026   1.6779   1.7350   1.8022   1.8523
     1.9881   2.0040   2.1131   2.1777   2.2377   2.2400   2.3452

          k = 0.0570 0.0070 0.0000 ( 56413 PWs)   bands (ev):

   -42.0129 -42.0004 -41.9081 -41.8954 -41.4691 -41.4563 -31.7509 -31.7289
   -31.6858 -31.6638 -31.2123 -31.1452 -21.9957 -21.9759 -21.9736 -21.9152
   -21.9012 -21.8956 -21.8831 -21.8812 -21.8204 -21.8005 -21.7857 -21.6926
   -21.4790 -21.4401 -21.4190 -21.3702 -21.3498 -21.2852 -15.7221 -15.6995
   -15.5724 -15.4770 -15.4472 -15.4048 -15.3817 -15.3643 -15.3131 -15.2930
   -15.2556 -15.0231 -15.0020 -14.9067 -14.8186 -14.8035 -14.7248 -14.5418
    -1.4036  -0.6719  -0.2740  -0.1191   0.0762   0.1538   0.3262   0.3953
     0.6691   0.6970   0.7620   0.9295   0.9508   1.0510   1.0865   1.2311
     1.2705   1.4856   1.5264   1.6066   1.7228   1.7252   1.7844   1.8269
     1.9769   2.0399   2.0858   2.1721   2.1969   2.2211   2.2946

          k = 0.0570 0.0201 0.0000 ( 56363 PWs)   bands (ev):

   -42.0136 -41.9996 -41.9088 -41.8947 -41.4699 -41.4556 -31.7547 -31.7326
   -31.6821 -31.6600 -31.2162 -31.1413 -21.9967 -21.9839 -21.9746 -21.9154
   -21.9022 -21.8940 -21.8932 -21.8801 -21.8204 -21.7987 -21.7744 -21.6813
   -21.4895 -21.4403 -21.4173 -21.3712 -21.3486 -21.2736 -15.7612 -15.7381
   -15.5806 -15.4733 -15.4510 -15.4142 -15.3899 -15.3587 -15.3103 -15.2952
   -15.2898 -14.9801 -14.9589 -14.9140 -14.8152 -14.8084 -14.7206 -14.4975
    -1.3356  -0.6668  -0.3422   0.0601   0.0927   0.1471   0.2841   0.4927
     0.6037   0.7398   0.7605   0.9597   0.9796   1.0790   1.1131   1.2879
     1.3046   1.4788   1.4953   1.6015   1.6666   1.7236   1.7731   1.7809
     1.9172   2.0309   2.0582   2.1458   2.1779   2.2021   2.2212

          k = 0.0570 0.0332 0.0000 ( 56372 PWs)   bands (ev):

   -42.0138 -41.9994 -41.9090 -41.8945 -41.4701 -41.4553 -31.7560 -31.7340
   -31.6808 -31.6587 -31.2175 -31.1400 -21.9970 -21.9871 -21.9742 -21.9150
   -21.9024 -21.8965 -21.8932 -21.8797 -21.8199 -21.7979 -21.7706 -21.6773
   -21.4929 -21.4400 -21.4166 -21.3716 -21.3482 -21.2696 -15.7752 -15.7519
   -15.5845 -15.4726 -15.4519 -15.4192 -15.3941 -15.3565 -15.3102 -15.3093
   -15.2895 -14.9655 -14.9442 -14.9175 -14.8147 -14.8102 -14.7192 -14.4824
    -1.2103  -0.6959  -0.3272   0.0038   0.2093   0.2539   0.3261   0.5246
     0.5681   0.7751   0.8366   1.0158   1.0466   1.1211   1.1871   1.2952
     1.4026   1.4137   1.4926   1.5440   1.5930   1.6886   1.7273   1.7498
     1.8868   1.9637   2.0321   2.0809   2.1231   2.1318   2.1772

          k = 0.0570-0.1108 0.0000 ( 56405 PWs)   bands (ev):

   -42.0136 -41.9996 -41.9088 -41.8947 -41.4699 -41.4556 -31.7548 -31.7327
   -31.6821 -31.6600 -31.2163 -31.1413 -21.9966 -21.9833 -21.9746 -21.9143
   -21.9019 -21.8936 -21.8926 -21.8800 -21.8190 -21.7983 -21.7744 -21.6812
   -21.4890 -21.4392 -21.4170 -21.3711 -21.3487 -21.2736 -15.7633 -15.7400
   -15.5836 -15.4747 -15.4500 -15.4190 -15.3936 -15.3582 -15.3122 -15.2970
   -15.2915 -14.9804 -14.9591 -14.9165 -14.8168 -14.8088 -14.7208 -14.4978
    -1.0346  -0.7589  -0.2095  -0.0215   0.2051   0.2716   0.4378   0.5868
     0.5959   0.7850   0.9179   1.0499   1.1390   1.2155   1.2468   1.2786
     1.3574   1.3749   1.4785   1.5418   1.5760   1.6405   1.6429   1.6982
     1.8738   1.9319   1.9616   1.9989   2.0364   2.1112   2.1208

          k = 0.0570-0.0977 0.0000 ( 56410 PWs)   bands (ev):

   -42.0129 -42.0004 -41.9081 -41.8954 -41.4691 -41.4563 -31.7511 -31.7290
   -31.6859 -31.6638 -31.2125 -31.1452 -21.9954 -21.9758 -21.9727 -21.9132
   -21.9008 -21.8951 -21.8822 -21.8809 -21.8179 -21.7999 -21.7857 -21.6926
   -21.4780 -21.4380 -21.4186 -21.3699 -21.3499 -21.2852 -15.7260 -15.7029
   -15.5779 -15.4793 -15.4453 -15.4134 -15.3884 -15.3634 -15.3161 -15.2956
   -15.2590 -15.0235 -15.0023 -14.9111 -14.8212 -14.8043 -14.7252 -14.5421
    -0.8439  -0.7915  -0.0505  -0.0122  -0.0006   0.2910   0.5870   0.6580
     0.6988   0.7310   1.0095   1.0680   1.1545   1.2228   1.2548   1.2825
     1.3277   1.3766   1.4158   1.5019   1.5594   1.6009   1.6525   1.6602
     1.8626   1.8722   1.9173   1.9847   2.0447   2.0477   2.1276

          k = 0.0570-0.0846 0.0000 ( 56402 PWs)   bands (ev):

   -42.0117 -42.0015 -41.9069 -41.8966 -41.4679 -41.4575 -31.7451 -31.7231
   -31.6918 -31.6698 -31.2063 -31.1514 -21.9937 -21.9777 -21.9559 -21.9118
   -21.8991 -21.8975 -21.8832 -21.8649 -21.8166 -21.8035 -21.8024 -21.7107
   -21.4607 -21.4365 -21.4212 -21.3681 -21.3518 -21.3037 -15.6654 -15.6426
   -15.5678 -15.4862 -15.4382 -15.4030 -15.3788 -15.3718 -15.3218 -15.3016
   -15.1975 -15.0910 -15.0700 -14.9017 -14.8278 -14.7970 -14.7322 -14.6115
    -0.8557  -0.5813  -0.2927  -0.0195   0.1941   0.2073   0.6363   0.6777
     0.7796   0.8303   0.9896   1.0754   1.1376   1.2069   1.2321   1.2602
     1.3590   1.4012   1.4277   1.4487   1.5535   1.5604   1.6331   1.7412
     1.7542   1.8493   1.8635   2.0083   2.0690   2.1041   2.1109

          k = 0.0570-0.0715 0.0000 ( 56381 PWs)   bands (ev):

   -42.0102 -42.0030 -41.9054 -41.8981 -41.4664 -41.4590 -31.7374 -31.7153
   -31.6996 -31.6776 -31.1983 -31.1594 -21.9914 -21.9801 -21.9341 -21.9101
   -21.9007 -21.8969 -21.8857 -21.8428 -21.8267 -21.8151 -21.8057 -21.7341
   -21.4382 -21.4346 -21.4244 -21.3657 -21.3542 -21.3275 -15.5851 -15.5628
   -15.5543 -15.4953 -15.4291 -15.3889 -15.3826 -15.3658 -15.3292 -15.3095
   -15.1777 -15.1567 -15.1158 -14.8893 -14.8364 -14.7874 -14.7412 -14.7005
    -0.8590  -0.5814  -0.3750   0.0134   0.0242   0.3929   0.4993   0.7175
     0.7836   0.9664   1.0355   1.0681   1.1802   1.1842   1.2176   1.2375
     1.3311   1.4090   1.4788   1.4949   1.5108   1.5934   1.6491   1.6651
     1.8201   1.8203   1.8580   1.9968   2.0621   2.0854   2.1604

          k = 0.0570-0.0584 0.0000 ( 56397 PWs)   bands (ev):

   -42.0085 -42.0048 -41.9036 -41.8999 -41.4646 -41.4608 -31.7283 -31.7087
   -31.7062 -31.6866 -31.1890 -31.1687 -21.9887 -21.9830 -21.9088 -21.9082
   -21.9039 -21.8943 -21.8885 -21.8533 -21.8171 -21.8133 -21.8091 -21.7611
   -21.4324 -21.4281 -21.4117 -21.3630 -21.3571 -21.3550 -15.5387 -15.5065
   -15.4899 -15.4682 -15.4185 -15.3949 -15.3730 -15.3510 -15.3385 -15.3192
   -15.2766 -15.2557 -15.0190 -14.8752 -14.8468 -14.8024 -14.7758 -14.7517
    -0.8468  -0.8303  -0.2454  -0.1827   0.0800   0.3166   0.5258   0.7258
     0.7422   0.9468   1.0900   1.1034   1.1752   1.2050   1.2569   1.2960
     1.3176   1.4189   1.4605   1.5222   1.5362   1.5980   1.6358   1.7394
     1.7896   1.8377   1.9248   2.0004   2.0467   2.1743   2.1894

          k = 0.0570-0.0453 0.0000 ( 56365 PWs)   bands (ev):

   -42.0066 -42.0066 -41.9018 -41.9017 -41.4627 -41.4627 -31.7185 -31.7184
   -31.6965 -31.6963 -31.1789 -31.1787 -21.9860 -21.9858 -21.9077 -21.9060
   -21.8918 -21.8917 -21.8814 -21.8804 -21.8130 -21.8112 -21.7897 -21.7887
   -21.4316 -21.4299 -21.3842 -21.3832 -21.3601 -21.3599 -15.5227 -15.5192
   -15.4089 -15.4073 -15.3865 -15.3833 -15.3652 -15.3625 -15.3533 -15.3485
   -15.3341 -15.3300 -14.9133 -14.9099 -14.8598 -14.8583 -14.7639 -14.7631
    -1.0708  -0.7653  -0.3677  -0.1847   0.1446   0.1509   0.5832   0.6600
     0.7229   0.8863   1.0668   1.1212   1.1367   1.2047   1.2401   1.3300
     1.3457   1.4740   1.5158   1.5232   1.5722   1.5900   1.5949   1.7516
     1.8188   1.9139   1.9583   2.0418   2.1776   2.1828   2.2468

          k =-0.0684 0.0387 0.0000 ( 56376 PWs)   bands (ev):

   -42.0066 -42.0066 -41.9018 -41.9017 -41.4627 -41.4627 -31.7185 -31.7185
   -31.6964 -31.6964 -31.1789 -31.1788 -21.9859 -21.9859 -21.9069 -21.9069
   -21.8918 -21.8918 -21.8808 -21.8808 -21.8121 -21.8121 -21.7892 -21.7891
   -21.4308 -21.4308 -21.3837 -21.3837 -21.3600 -21.3600 -15.5209 -15.5209
   -15.4082 -15.4081 -15.3853 -15.3853 -15.3641 -15.3641 -15.3505 -15.3505
   -15.3317 -15.3317 -14.9118 -14.9118 -14.8589 -14.8589 -14.7635 -14.7635
    -0.9400  -0.9400  -0.2852  -0.2852   0.1623   0.1623   0.6394   0.6394
     0.7842   0.7842   1.1113   1.1114   1.1745   1.1745   1.2784   1.2784
     1.4498   1.4498   1.5300   1.5300   1.5702   1.5702   1.7020   1.7020
     1.8295   1.8296   2.0511   2.0512   2.1553   2.1556   2.2225

          k =-0.0684 0.0518 0.0000 ( 56371 PWs)   bands (ev):

   -42.0085 -42.0047 -41.9036 -41.8999 -41.4646 -41.4608 -31.7282 -31.7087
   -31.7062 -31.6867 -31.1889 -31.1688 -21.9888 -21.9829 -21.9095 -21.9093
   -21.9034 -21.8945 -21.8884 -21.8529 -21.8178 -21.8145 -21.8085 -21.7608
   -21.4335 -21.4278 -21.4122 -21.3631 -21.3570 -21.3546 -15.5361 -15.5071
   -15.4877 -15.4663 -15.4196 -15.3947 -15.3692 -15.3480 -15.3393 -15.3198
   -15.2774 -15.2565 -15.0171 -14.8737 -14.8465 -14.8035 -14.7750 -14.7518
    -1.0588  -0.7711  -0.3708  -0.1683   0.0669   0.2616   0.5646   0.6675
     0.7113   0.8590   1.0630   1.1271   1.1493   1.1835   1.2061   1.3327
     1.3538   1.4148   1.4903   1.5209   1.5398   1.6787   1.6852   1.7638
     1.7642   1.9286   2.0144   2.0681   2.1284   2.1382   2.2196

          k =-0.0684 0.0649 0.0000 ( 56429 PWs)   bands (ev):

   -42.0102 -42.0030 -41.9054 -41.8981 -41.4664 -41.4590 -31.7373 -31.7152
   -31.6996 -31.6776 -31.1982 -31.1594 -21.9915 -21.9801 -21.9347 -21.9113
   -21.9007 -21.8971 -21.8857 -21.8434 -21.8265 -21.8164 -21.8057 -21.7340
   -21.4389 -21.4358 -21.4242 -21.3659 -21.3542 -21.3273 -15.5829 -15.5609
   -15.5514 -15.4948 -15.4302 -15.3844 -15.3828 -15.3624 -15.3287 -15.3091
   -15.1780 -15.1571 -15.1139 -14.8872 -14.8356 -14.7870 -14.7411 -14.7008
    -1.1267  -0.5568  -0.4327  -0.0388  -0.0251   0.3655   0.4388   0.6193
     0.6939   0.9259   1.0264   1.0426   1.0926   1.1312   1.1676   1.2561
     1.3798   1.3949   1.4888   1.5178   1.5327   1.6767   1.7076   1.7586
     1.8362   1.9370   2.0083   2.0436   2.0884   2.1784   2.2109

          k =-0.0684 0.0779 0.0000 ( 56427 PWs)   bands (ev):

   -42.0117 -42.0015 -41.9069 -41.8966 -41.4679 -41.4575 -31.7450 -31.7230
   -31.6918 -31.6698 -31.2063 -31.1514 -21.9938 -21.9777 -21.9564 -21.9128
   -21.8993 -21.8977 -21.8832 -21.8654 -21.8178 -21.8035 -21.8026 -21.7107
   -21.4612 -21.4374 -21.4212 -21.3682 -21.3517 -21.3036 -15.6636 -15.6411
   -15.5653 -15.4854 -15.4391 -15.3991 -15.3757 -15.3721 -15.3207 -15.3007
   -15.1959 -15.0911 -15.0700 -14.8998 -14.8268 -14.7967 -14.7320 -14.6116
    -1.1441  -0.4958  -0.3069  -0.1528   0.1199   0.2864   0.4645   0.5205
     0.7572   0.8681   0.9094   1.0408   1.0694   1.0917   1.1558   1.2623
     1.3579   1.4455   1.4704   1.5283   1.5584   1.6409   1.6965   1.8153
     1.8270   1.8883   2.0089   2.0620   2.0766   2.1448   2.2088

          k =-0.0684 0.0910 0.0000 ( 56396 PWs)   bands (ev):

   -42.0129 -42.0004 -41.9081 -41.8954 -41.4691 -41.4563 -31.7510 -31.7290
   -31.6859 -31.6638 -31.2124 -31.1452 -21.9955 -21.9759 -21.9729 -21.9137
   -21.9009 -21.8952 -21.8824 -21.8810 -21.8186 -21.8000 -21.7857 -21.6926
   -21.4783 -21.4386 -21.4187 -21.3700 -21.3498 -21.2852 -15.7250 -15.7020
   -15.5764 -15.4787 -15.4458 -15.4111 -15.3866 -15.3636 -15.3153 -15.2949
   -15.2581 -15.0234 -15.0022 -14.9099 -14.8205 -14.8041 -14.7251 -14.5420
    -1.1126  -0.6048  -0.2205  -0.0410   0.1258   0.2235   0.4562   0.5613
     0.7073   0.8016   0.8827   1.0516   1.0961   1.1183   1.1778   1.2827
     1.3601   1.4142   1.4679   1.5498   1.6054   1.6170   1.6815   1.7286
     1.8551   1.9049   2.0078   2.0352   2.0894   2.0908   2.1507

          k =-0.0684 0.1041 0.0000 ( 56405 PWs)   bands (ev):

   -42.0136 -41.9996 -41.9088 -41.8947 -41.4699 -41.4556 -31.7548 -31.7327
   -31.6821 -31.6600 -31.2163 -31.1413 -21.9966 -21.9833 -21.9746 -21.9143
   -21.9019 -21.8936 -21.8926 -21.8800 -21.8190 -21.7983 -21.7744 -21.6812
   -21.4890 -21.4392 -21.4170 -21.3711 -21.3487 -21.2736 -15.7633 -15.7400
   -15.5836 -15.4747 -15.4500 -15.4190 -15.3936 -15.3582 -15.3122 -15.2970
   -15.2915 -14.9804 -14.9591 -14.9165 -14.8168 -14.8088 -14.7208 -14.4978
    -1.0346  -0.7589  -0.2095  -0.0215   0.2051   0.2716   0.4378   0.5868
     0.5959   0.7850   0.9179   1.0499   1.1390   1.2155   1.2468   1.2786
     1.3574   1.3749   1.4785   1.5418   1.5760   1.6405   1.6429   1.6982
     1.8738   1.9319   1.9616   1.9989   2.0364   2.1115   2.1207

          k =-0.0684-0.0399 0.0000 ( 56416 PWs)   bands (ev):

   -42.0138 -41.9994 -41.9090 -41.8945 -41.4701 -41.4553 -31.7560 -31.7340
   -31.6808 -31.6587 -31.2176 -31.1400 -21.9970 -21.9869 -21.9742 -21.9144
   -21.9022 -21.8962 -21.8930 -21.8796 -21.8192 -21.7977 -21.7705 -21.6773
   -21.4926 -21.4394 -21.4165 -21.3715 -21.3483 -21.2696 -15.7764 -15.7529
   -15.5861 -15.4734 -15.4514 -15.4218 -15.3961 -15.3562 -15.3112 -15.3103
   -15.2904 -14.9656 -14.9444 -14.9189 -14.8156 -14.8104 -14.7193 -14.4826
    -0.9305  -0.8942  -0.1516  -0.1240   0.2826   0.3428   0.4439   0.5338
     0.5470   0.8058   0.9200   1.0456   1.1864   1.2387   1.2948   1.3099
     1.3419   1.3804   1.4327   1.5165   1.5899   1.6291   1.6366   1.7146
     1.8530   1.9102   1.9767   1.9814   1.9962   2.1069   2.1352

     the Fermi energy is     1.4441 ev

!    total energy              =   -1268.57079740 Ry
     estimated scf accuracy    <       0.00000333 Ry
     smearing contrib. (-TS)   =      -0.10795167 Ry
     internal energy E=F+TS    =   -1268.46284574 Ry

     The total energy is F=E-TS. E is the sum of the following terms:
     one-electron contribution =   -5002.83051555 Ry
     hartree contribution      =    2504.78729519 Ry
     xc contribution           =    -558.32199220 Ry
     ewald contribution        =    1787.90236612 Ry
     electric field correction =       0.00000072 Ry

     convergence has been achieved in  20 iterations

     negative rho (up, down):  1.397E-04 0.000E+00

     Forces acting on atoms (cartesian axes, Ry/au):

     atom    1 type  1   force =     0.00063992    0.00037166   -0.00116745
     atom    2 type  1   force =     0.00063548    0.00037655   -0.00117166
     atom    3 type  2   force =    -0.00006768   -0.00003961    0.00754850
     atom    4 type  2   force =    -0.00006726   -0.00003788    0.00754835
     atom    5 type  1   force =     0.00086640    0.00050471   -0.00562366
     atom    6 type  1   force =     0.00086451    0.00050184   -0.00562355
     atom    7 type  2   force =    -0.00083715   -0.00048920   -0.00077140
     atom    8 type  2   force =    -0.00083915   -0.00048910   -0.00076744
     atom    9 type  1   force =    -0.00042539   -0.00024395    0.00005909
     atom   10 type  1   force =    -0.00041885   -0.00024885    0.00005790
     atom   11 type  2   force =    -0.00017113   -0.00010557   -0.00004679
     atom   12 type  2   force =    -0.00017969   -0.00010059   -0.00004190

     Total force =     0.013664     Total SCF correction =     0.003769
     SCF correction compared to forces is large: reduce conv_thr to get better values

     Writing output data file ./La2Y2/La2Y2_beef.save/

     init_run     :    441.00s CPU    442.52s WALL (       1 calls)
     electrons    :   9386.38s CPU   9435.71s WALL (       1 calls)
     forces       :    136.57s CPU    137.40s WALL (       1 calls)

     Called by init_run:
     wfcinit      :    409.75s CPU    410.62s WALL (       1 calls)
     potinit      :     20.64s CPU     20.76s WALL (       1 calls)
     hinit0       :      4.52s CPU      4.54s WALL (       1 calls)

     Called by electrons:
     c_bands      :   8328.79s CPU   8354.94s WALL (      20 calls)
     sum_band     :    912.59s CPU    925.10s WALL (      20 calls)
     v_of_rho     :     80.07s CPU     82.72s WALL (      21 calls)
     newd         :     82.22s CPU     90.54s WALL (      21 calls)
     mix_rho      :      4.27s CPU      4.35s WALL (      20 calls)
     vdW_kernel   :      9.01s CPU      9.02s WALL (       1 calls)

     Called by c_bands:
     init_us_2    :     32.74s CPU     32.93s WALL (    3108 calls)
     cegterg      :   8228.33s CPU   8251.57s WALL (    1480 calls)

     Called by *egterg:
     cdiaghg      :    182.53s CPU    182.74s WALL (   11337 calls)
     h_psi        :   4702.08s CPU   4721.09s WALL (   11411 calls)
     s_psi        :   1358.28s CPU   1359.01s WALL (   11411 calls)
     g_psi        :      3.07s CPU      3.11s WALL (    9857 calls)

     Called by h_psi:
     h_psi:calbec :   1483.12s CPU   1485.05s WALL (   11411 calls)
     vloc_psi     :   1770.56s CPU   1786.68s WALL (   11411 calls)
     add_vuspsi   :   1438.70s CPU   1439.57s WALL (   11411 calls)

     General routines
     calbec       :   2119.90s CPU   2122.51s WALL (   13187 calls)
     fft          :     62.63s CPU     63.86s WALL (    1382 calls)
     ffts         :      0.59s CPU      0.60s WALL (      41 calls)
     fftw         :   1896.57s CPU   1914.26s WALL (  763364 calls)
     interpolate  :      1.23s CPU      1.25s WALL (      21 calls)

     Parallel routines
     fft_scatt_xy :    120.87s CPU    121.42s WALL (  764787 calls)
     fft_scatt_yz :    958.67s CPU    968.91s WALL (  764787 calls)

     PWSCF        :      2h48m CPU      2h49m WALL


   This run was terminated on:  21:42:52  26Jun2022            

=------------------------------------------------------------------------------=
   JOB DONE.
=------------------------------------------------------------------------------=
